 running on   64 total cores
 distrk:  each k-point on   64 cores,    1 groups
 distr:  one band on   16 cores,    4 groups
 using from now: INCAR     
 vasp.5.3.5 31Mar14 (build Feb 01 2018 12:10:03) gamma-only                     
  
 POSCAR found type information on POSCAR  Ag
 POSCAR found :  1 types and      35 ions
 scaLAPACK will be used

 ----------------------------------------------------------------------------- 
|                                                                             |
|  ADVICE TO THIS USER RUNNING 'VASP/VAMP'   (HEAR YOUR MASTER'S VOICE ...):  |
|                                                                             |
|      You have a (more or less) 'large supercell' and for larger cells       |
|      it might be more efficient to use real space projection opertators     |
|      So try LREAL= Auto  in the INCAR   file.                               |
|      Mind: At the moment your POTCAR file does not contain real space       |
|       projectors, and has to be modified,  BUT if you                       |
|      want to do an extremely  accurate calculation you might also keep the  |
|      reciprocal projection scheme          (i.e. LREAL=.FALSE.)             |
|                                                                             |
 ----------------------------------------------------------------------------- 

 LDA part: xc-table for Pade appr. of Perdew
 POSCAR, INCAR and KPOINTS ok, starting setup
 WARNING: small aliasing (wrap around) errors must be expected
 FFT: planning ...
 WAVECAR not read
 entering main loop
       N       E                     dE             d eps       ncg     rms          rms(c)
DAV:   1     0.339907300401E+04    0.33991E+04   -0.69403E+04  1008   0.583E+02
DAV:   2     0.790361234480E+03   -0.26087E+04   -0.23238E+04  1752   0.141E+02
DAV:   3    -0.243494791799E+02   -0.81471E+03   -0.74955E+03  1312   0.891E+01
DAV:   4    -0.719888398731E+02   -0.47639E+02   -0.46813E+02  1096   0.233E+01
DAV:   5    -0.726732717599E+02   -0.68443E+00   -0.68294E+00  1128   0.330E+00    0.338E+01
DAV:   6    -0.142526820433E+02    0.58421E+02   -0.18190E+02  1028   0.185E+01    0.179E+01
DAV:   7    -0.782445857386E+01    0.64282E+01   -0.92127E+00  1084   0.450E+00    0.112E+01
DAV:   8    -0.884754839914E+01   -0.10231E+01   -0.19933E+00  1076   0.275E+00    0.609E+00
DAV:   9    -0.192025448537E+02   -0.10355E+02   -0.31326E+00  1112   0.238E+00    0.411E+00
DAV:  10    -0.354305292226E+02   -0.16228E+02   -0.71455E+00  1056   0.363E+00    0.369E+00
DAV:  11    -0.417548112933E+02   -0.63243E+01   -0.23028E+00  1128   0.283E+00    0.289E+00
DAV:  12    -0.529980032187E+02   -0.11243E+02   -0.59437E+00  1040   0.294E+00    0.256E+00
DAV:  13    -0.562899898783E+02   -0.32920E+01   -0.89984E-01  1128   0.155E+00    0.195E+00
DAV:  14    -0.616858019362E+02   -0.53958E+01   -0.16107E+00  1048   0.154E+00    0.138E+00
DAV:  15    -0.656379063445E+02   -0.39521E+01   -0.76715E-01  1048   0.946E-01    0.985E-01
DAV:  16    -0.681719988171E+02   -0.25341E+01   -0.35102E-01  1024   0.732E-01    0.672E-01
DAV:  17    -0.703819192981E+02   -0.22099E+01   -0.23382E-01  1036   0.577E-01    0.403E-01
DAV:  18    -0.714893206503E+02   -0.11074E+01   -0.49089E-02  1072   0.323E-01    0.265E-01
DAV:  19    -0.720941108659E+02   -0.60479E+00   -0.20974E-02  1064   0.224E-01    0.130E-01
DAV:  20    -0.722729117439E+02   -0.17880E+00   -0.41787E-03  1088   0.117E-01    0.844E-02
DAV:  21    -0.723567512070E+02   -0.83839E-01   -0.13514E-03   972   0.642E-02    0.559E-02
DAV:  22    -0.723945308889E+02   -0.37780E-01   -0.55392E-04   784   0.418E-02    0.285E-02
DAV:  23    -0.723996620233E+02   -0.51311E-02   -0.19277E-04   728   0.241E-02    0.164E-02
DAV:  24    -0.724025237823E+02   -0.28618E-02   -0.10867E-04   724   0.134E-02    0.119E-02
DAV:  25    -0.724059410045E+02   -0.34172E-02   -0.92207E-05   696   0.106E-02    0.840E-03
DAV:  26    -0.724085508011E+02   -0.26098E-02   -0.40405E-05   736   0.910E-03    0.573E-03
DAV:  27    -0.724107789327E+02   -0.22281E-02   -0.20776E-05   672   0.584E-03    0.333E-03
DAV:  28    -0.724115346162E+02   -0.75568E-03   -0.60402E-06   704   0.454E-03    0.192E-03
DAV:  29    -0.724116898631E+02   -0.15525E-03   -0.15929E-06   676   0.229E-03    0.131E-03
DAV:  30    -0.724117516969E+02   -0.61834E-04   -0.76905E-07   672   0.137E-03
   1 F= -.72411752E+02 E0= -.72411752E+02  d E =-.724118E+02  mag=     1.0020
 curvature:   0.00 expect dE= 0.000E+00 dE for cont linesearch  0.000E+00
 trial: gam= 0.00000 g(F)=  0.193E-01 g(S)=  0.000E+00 ort = 0.000E+00 (trialstep = 0.100E+01)
 search vector abs. value=  0.193E-01
 bond charge predicted
       N       E                     dE             d eps       ncg     rms          rms(c)
DAV:   1    -0.724301469147E+02   -0.18457E-01   -0.13004E+00  1068   0.194E+00    0.807E-02
DAV:   2    -0.724307868201E+02   -0.63991E-03   -0.62588E-03  1072   0.190E-01    0.622E-02
DAV:   3    -0.724307815849E+02    0.52352E-05   -0.10002E-04   624   0.269E-02
   2 F= -.72430782E+02 E0= -.72430782E+02  d E =-.190299E-01  mag=     1.0012
 ZBRENT: can't locate minimum, use default step
 trial-energy change:   -0.019030  1 .order   -0.018756   -0.019329   -0.018183
 step:   4.0000(harm= 16.8655)  dis= 0.01202  next Energy=   -72.574750 (dE=-0.163E+00)
 bond charge predicted
       N       E                     dE             d eps       ncg     rms          rms(c)
DAV:   1    -0.724779379361E+02   -0.47151E-01   -0.11729E+01  1020   0.584E+00    0.239E-01
DAV:   2    -0.724835138869E+02   -0.55760E-02   -0.56320E-02  1056   0.571E-01    0.188E-01
DAV:   3    -0.724833862338E+02    0.12765E-03   -0.96635E-04  1056   0.798E-02    0.123E-01
DAV:   4    -0.724832736035E+02    0.11263E-03   -0.57437E-04  1076   0.450E-02    0.237E-02
DAV:   5    -0.724832703867E+02    0.32168E-05   -0.15251E-05   672   0.105E-02
   3 F= -.72483270E+02 E0= -.72483270E+02  d E =-.715187E-01  mag=     1.0006
 curvature:  -2.89 expect dE=-0.409E-01 dE for cont linesearch -0.407E-01
 ZBRENT: increasing intervall
 opt :  10.0000  next Energy=   -72.572214 (dE=-0.160E+00)
 bond charge predicted
       N       E                     dE             d eps       ncg     rms          rms(c)
DAV:   1    -0.725476671410E+02   -0.64394E-01   -0.46847E+01  1008   0.117E+01    0.448E-01
DAV:   2    -0.725699320112E+02   -0.22265E-01   -0.22402E-01  1052   0.114E+00    0.371E-01
DAV:   3    -0.725694884114E+02    0.44360E-03   -0.37191E-03  1036   0.154E-01    0.253E-01
DAV:   4    -0.725689669463E+02    0.52147E-03   -0.24373E-03  1088   0.908E-02    0.579E-02
DAV:   5    -0.725689592353E+02    0.77110E-05   -0.64630E-05   652   0.225E-02
   4 F= -.72568959E+02 E0= -.72568959E+02  d E =-.157208E+00  mag=     1.0003
 curvature:  -6.31 expect dE=-0.530E-01 dE for cont linesearch -0.500E-01
 ZBRENT: increasing intervall
 opt :  22.0000  next Energy=   -72.668027 (dE=-0.256E+00)
 bond charge predicted
       N       E                     dE             d eps       ncg     rms          rms(c)
DAV:   1    -0.725825820874E+02   -0.13615E-01   -0.18795E+02  1008   0.234E+01    0.817E-01
DAV:   2    -0.726714226112E+02   -0.88841E-01   -0.89210E-01  1060   0.229E+00    0.736E-01
DAV:   3    -0.726702606775E+02    0.11619E-02   -0.14208E-02  1044   0.294E-01    0.533E-01
DAV:   4    -0.726677573740E+02    0.25033E-02   -0.88954E-03  1076   0.172E-01    0.170E-01
DAV:   5    -0.726678375973E+02   -0.80223E-04   -0.55514E-04  1064   0.561E-02
   5 F= -.72667838E+02 E0= -.72667838E+02  d E =-.256086E+00  mag=     1.0001
 curvature: -12.49 expect dE=-0.353E-01 dE for cont linesearch -0.127E-01
 ZBRENT: increasing intervall
 opt :  46.0000  next Energy=   -72.583440 (dE=-0.172E+00)
 bond charge predicted
       N       E                     dE             d eps       ncg     rms          rms(c)
DAV:   1    -0.722605963988E+02    0.40716E+00   -0.76067E+02  1008   0.476E+01    0.142E+00
DAV:   2    -0.726199575741E+02   -0.35936E+00   -0.36066E+00  1056   0.466E+00    0.147E+00
DAV:   3    -0.726186825734E+02    0.12750E-02   -0.56274E-02  1052   0.568E-01    0.112E+00
DAV:   4    -0.726077443654E+02    0.10938E-01   -0.22566E-02  1088   0.279E-01    0.596E-01
DAV:   5    -0.726076769348E+02    0.67431E-04   -0.82426E-03  1080   0.175E-01    0.201E-01
DAV:   6    -0.726075112564E+02    0.16568E-03   -0.59092E-04  1064   0.424E-02    0.100E-01
DAV:   7    -0.726075282306E+02   -0.16974E-04   -0.19965E-04   704   0.289E-02
   6 F= -.72607528E+02 E0= -.72607528E+02  d E =-.195777E+00  mag=     1.0000
 curvature:  83.07 expect dE= 0.830E+00 dE for cont linesearch  0.364E+00
 ZBRENT: bracketing found
 ZBRENT: interpolating
 opt :  29.7984  next Energy=   -72.685117 (dE=-0.273E+00)
 bond charge predicted
       N       E                     dE             d eps       ncg     rms          rms(c)
DAV:   1    -0.725192255713E+02    0.88286E-01   -0.34370E+02  1008   0.317E+01    0.127E+00
DAV:   2    -0.726898154974E+02   -0.17059E+00   -0.17302E+00  1048   0.315E+00    0.757E-01
DAV:   3    -0.726862249357E+02    0.35906E-02   -0.30521E-02  1044   0.455E-01    0.498E-01
DAV:   4    -0.726840344255E+02    0.21905E-02   -0.11912E-02  1064   0.211E-01    0.120E-01
DAV:   5    -0.726841128209E+02   -0.78395E-04   -0.43803E-04  1024   0.508E-02
   7 F= -.72684113E+02 E0= -.72684113E+02  d E =-.272361E+00  mag=     1.0000
 curvature:  -3.94 expect dE=-0.118E-01 dE for cont linesearch -0.614E-05
 trial: gam= 0.16440 g(F)=  0.300E-02 g(S)=  0.000E+00 ort =-0.174E-03 (trialstep = 0.676E+01)
 search vector abs. value=  0.347E-02
 bond charge predicted
       N       E                     dE             d eps       ncg     rms          rms(c)
DAV:   1    -0.726940948217E+02   -0.10060E-01   -0.10705E+01  1040   0.553E+00    0.200E-01
DAV:   2    -0.726989836453E+02   -0.48888E-02   -0.51734E-02  1068   0.539E-01    0.164E-01
DAV:   3    -0.726989447455E+02    0.38900E-04   -0.93317E-04  1072   0.725E-02
   8 F= -.72698945E+02 E0= -.72698945E+02  d E =-.148319E-01  mag=     1.0000
 trial-energy change:   -0.014832  1 .order   -0.014576   -0.020114   -0.009038
 step:  12.2754(harm= 12.2754)  dis= 0.02651  next Energy=   -72.702376 (dE=-0.183E-01)
 bond charge predicted
       N       E                     dE             d eps       ncg     rms          rms(c)
DAV:   1    -0.727000053591E+02   -0.10217E-02   -0.71421E+00  1052   0.452E+00    0.186E-01
DAV:   2    -0.727032262225E+02   -0.32209E-02   -0.34719E-02  1096   0.438E-01    0.142E-01
DAV:   3    -0.727031823204E+02    0.43902E-04   -0.63586E-04  1088   0.586E-02
   9 F= -.72703182E+02 E0= -.72703182E+02  d E =-.190695E-01  mag=     1.0000
 curvature:  -7.16 expect dE=-0.494E-02 dE for cont linesearch -0.210E-04
 trial: gam= 0.18095 g(F)=  0.690E-03 g(S)=  0.000E+00 ort = 0.101E-03 (trialstep = 0.786E+01)
 search vector abs. value=  0.840E-03
 bond charge predicted
       N       E                     dE             d eps       ncg     rms          rms(c)
DAV:   1    -0.727065916773E+02   -0.33655E-02   -0.34853E+00  1048   0.315E+00    0.775E-02
DAV:   2    -0.727082516993E+02   -0.16600E-02   -0.16571E-02  1096   0.303E-01    0.692E-02
DAV:   3    -0.727082342020E+02    0.17497E-04   -0.23521E-04   744   0.373E-02
  10 F= -.72708234E+02 E0= -.72708234E+02  d E =-.505188E-02  mag=     1.0000
 trial-energy change:   -0.005052  1 .order   -0.004663   -0.005570   -0.003757
 step:  24.1605(harm= 24.1605)  dis= 0.02521  next Energy=   -72.711739 (dE=-0.856E-02)
 bond charge predicted
       N       E                     dE             d eps       ncg     rms          rms(c)
DAV:   1    -0.727082862346E+02   -0.34535E-04   -0.14994E+01  1012   0.654E+00    0.170E-01
DAV:   2    -0.727153633151E+02   -0.70771E-02   -0.70902E-02  1068   0.630E-01    0.151E-01
DAV:   3    -0.727152692464E+02    0.94069E-04   -0.10997E-03  1080   0.782E-02    0.110E-01
DAV:   4    -0.727150662394E+02    0.20301E-03   -0.52352E-04  1092   0.412E-02    0.455E-02
DAV:   5    -0.727150764401E+02   -0.10201E-04   -0.12791E-04   712   0.233E-02
  11 F= -.72715076E+02 E0= -.72715076E+02  d E =-.118941E-01  mag=     1.0000
 curvature: -14.33 expect dE=-0.440E-02 dE for cont linesearch -0.155E-02
 ZBRENT: increasing intervall
 opt :  56.7558  next Energy=   -72.719185 (dE=-0.160E-01)
 bond charge predicted
       N       E                     dE             d eps       ncg     rms          rms(c)
DAV:   1    -0.726857861823E+02    0.29280E-01   -0.59962E+01  1008   0.131E+01    0.338E-01
DAV:   2    -0.727147932468E+02   -0.29007E-01   -0.28854E-01  1064   0.127E+00    0.288E-01
DAV:   3    -0.727144486983E+02    0.34455E-03   -0.45662E-03  1072   0.162E-01    0.205E-01
DAV:   4    -0.727136891801E+02    0.75952E-03   -0.16181E-03  1084   0.728E-02    0.942E-02
DAV:   5    -0.727136871513E+02    0.20288E-05   -0.62014E-04  1088   0.475E-02
  12 F= -.72713687E+02 E0= -.72713687E+02  d E =-.105048E-01  mag=     1.0000
 curvature: -37.86 expect dE=-0.485E-01 dE for cont linesearch -0.488E-02
 ZBRENT: bracketing found
 ZBRENT: interpolating
 opt :  39.7583  next Energy=   -72.717431 (dE=-0.142E-01)
 bond charge predicted
       N       E                     dE             d eps       ncg     rms          rms(c)
DAV:   1    -0.727095921337E+02    0.40970E-02   -0.16296E+01  1016   0.681E+00    0.161E-01
DAV:   2    -0.727173425904E+02   -0.77505E-02   -0.76857E-02  1096   0.656E-01    0.154E-01
DAV:   3    -0.727172700947E+02    0.72496E-04   -0.11893E-03  1112   0.807E-02    0.117E-01
DAV:   4    -0.727170565938E+02    0.21350E-03   -0.49154E-04  1084   0.396E-02    0.566E-02
DAV:   5    -0.727170906659E+02   -0.34072E-04   -0.23581E-04   832   0.296E-02
  13 F= -.72717091E+02 E0= -.72717091E+02  d E =-.139083E-01  mag=     1.0000
 curvature: -18.28 expect dE=-0.990E-02 dE for cont linesearch -0.807E-04
 trial: gam= 0.92579 g(F)=  0.541E-03 g(S)=  0.000E+00 ort =-0.609E-04 (trialstep = 0.104E+02)
 search vector abs. value=  0.115E-02
 bond charge predicted
       N       E                     dE             d eps       ncg     rms          rms(c)
DAV:   1    -0.727174753461E+02   -0.41875E-03   -0.83749E+00  1020   0.486E+00    0.106E-01
DAV:   2    -0.727214582930E+02   -0.39829E-02   -0.40226E-02  1040   0.475E-01    0.109E-01
DAV:   3    -0.727214169757E+02    0.41317E-04   -0.62935E-04  1096   0.591E-02
  14 F= -.72721417E+02 E0= -.72721417E+02  d E =-.432631E-02  mag=     1.0000
 trial-energy change:   -0.004326  1 .order   -0.004038   -0.005053   -0.003023
 step:  25.9296(harm= 25.9296)  dis= 0.02554  next Energy=   -72.723380 (dE=-0.629E-02)
 bond charge predicted
       N       E                     dE             d eps       ncg     rms          rms(c)
DAV:   1    -0.727146830932E+02    0.67752E-02   -0.18597E+01  1008   0.724E+00    0.182E-01
DAV:   2    -0.727233227039E+02   -0.86396E-02   -0.88193E-02  1080   0.702E-01    0.182E-01
DAV:   3    -0.727231811848E+02    0.14152E-03   -0.13564E-03  1112   0.852E-02    0.138E-01
DAV:   4    -0.727228178145E+02    0.36337E-03   -0.73639E-04  1092   0.498E-02    0.671E-02
DAV:   5    -0.727228083362E+02    0.94783E-05   -0.31476E-04   936   0.341E-02
  15 F= -.72722808E+02 E0= -.72722808E+02  d E =-.571767E-02  mag=     1.0000
 curvature: -30.70 expect dE=-0.119E-01 dE for cont linesearch -0.312E-04
 trial: gam= 0.66259 g(F)=  0.387E-03 g(S)=  0.000E+00 ort =-0.342E-04 (trialstep = 0.135E+02)
 search vector abs. value=  0.846E-03
 bond charge predicted
       N       E                     dE             d eps       ncg     rms          rms(c)
DAV:   1    -0.727213255566E+02    0.14923E-02   -0.10368E+01  1016   0.543E+00    0.125E-01
DAV:   2    -0.727263681884E+02   -0.50426E-02   -0.50111E-02  1088   0.529E-01    0.118E-01
DAV:   3    -0.727263243216E+02    0.43867E-04   -0.74812E-04  1096   0.641E-02
  16 F= -.72726324E+02 E0= -.72726324E+02  d E =-.351599E-02  mag=     1.0000
 trial-energy change:   -0.003516  1 .order   -0.003525   -0.004926   -0.002125
 step:  23.7742(harm= 23.7742)  dis= 0.01888  next Energy=   -72.727140 (dE=-0.433E-02)
 bond charge predicted
       N       E                     dE             d eps       ncg     rms          rms(c)
DAV:   1    -0.727243708722E+02    0.19973E-02   -0.59868E+00  1024   0.413E+00    0.121E-01
DAV:   2    -0.727271328811E+02   -0.27620E-02   -0.27949E-02  1096   0.396E-01    0.111E-01
DAV:   3    -0.727270595129E+02    0.73368E-04   -0.40500E-04   984   0.462E-02
  17 F= -.72727060E+02 E0= -.72727060E+02  d E =-.425118E-02  mag=     1.0000
 curvature: -27.60 expect dE=-0.446E-02 dE for cont linesearch -0.147E-04
 trial: gam= 0.27345 g(F)=  0.161E-03 g(S)=  0.000E+00 ort =-0.212E-04 (trialstep = 0.156E+02)
 search vector abs. value=  0.213E-03
 bond charge predicted
       N       E                     dE             d eps       ncg     rms          rms(c)
DAV:   1    -0.727272112197E+02   -0.78339E-04   -0.34717E+00  1056   0.315E+00    0.872E-02
DAV:   2    -0.727288618622E+02   -0.16506E-02   -0.16557E-02  1080   0.306E-01    0.762E-02
DAV:   3    -0.727288400269E+02    0.21835E-04   -0.24060E-04   776   0.379E-02
  18 F= -.72728840E+02 E0= -.72728840E+02  d E =-.178051E-02  mag=     1.0000
 trial-energy change:   -0.001781  1 .order   -0.001444   -0.002423   -0.000466
 step:  19.2790(harm= 19.2790)  dis= 0.00830  next Energy=   -72.728560 (dE=-0.150E-02)
 bond charge predicted
       N       E                     dE             d eps       ncg     rms          rms(c)
DAV:   1    -0.727289649071E+02   -0.10304E-03   -0.20038E-01  1064   0.759E-01    0.322E-02
DAV:   2    -0.727290575733E+02   -0.92666E-04   -0.91465E-04  1080   0.715E-02
  19 F= -.72729058E+02 E0= -.72729058E+02  d E =-.199806E-02  mag=     1.0000
 curvature: -13.20 expect dE=-0.638E-03 dE for cont linesearch -0.783E-05
 trial: gam= 0.16215 g(F)=  0.483E-04 g(S)=  0.000E+00 ort = 0.112E-04 (trialstep = 0.163E+02)
 search vector abs. value=  0.576E-04
 bond charge predicted
       N       E                     dE             d eps       ncg     rms          rms(c)
DAV:   1    -0.727293412902E+02   -0.37638E-03   -0.10295E+00  1064   0.172E+00    0.428E-02
DAV:   2    -0.727298242787E+02   -0.48299E-03   -0.49372E-03  1072   0.168E-01    0.411E-02
DAV:   3    -0.727298186291E+02    0.56496E-05   -0.71149E-05   656   0.211E-02
  20 F= -.72729819E+02 E0= -.72729819E+02  d E =-.761056E-03  mag=     1.0000
 trial-energy change:   -0.000761  1 .order   -0.000528   -0.000818   -0.000239
 step:  23.0432(harm= 23.0432)  dis= 0.00375  next Energy=   -72.729635 (dE=-0.578E-03)
 bond charge predicted
       N       E                     dE             d eps       ncg     rms          rms(c)
DAV:   1    -0.727299135316E+02   -0.89253E-04   -0.17730E-01  1064   0.716E-01    0.245E-02
DAV:   2    -0.727299953994E+02   -0.81868E-04   -0.81285E-04  1072   0.681E-02
  21 F= -.72729995E+02 E0= -.72729995E+02  d E =-.937826E-03  mag=     1.0000
 curvature: -13.23 expect dE=-0.517E-03 dE for cont linesearch -0.220E-07
 trial: gam= 0.99675 g(F)=  0.391E-04 g(S)=  0.000E+00 ort =-0.309E-06 (trialstep = 0.106E+02)
 search vector abs. value=  0.956E-04
 reached required accuracy - stopping structural energy minimisation
Application 91008964 resources: utime ~41136s, stime ~244s, Rss ~72236, inblocks ~720159, outblocks ~480951
