 vasp.5.3.5 31Mar14 (build Feb 01 2018 12:10:03) gamma-only                     
  
 executed on             LinuxIFC date 2019.03.23  09:06:28
 running on   64 total cores
 distrk:  each k-point on   64 cores,    1 groups
 distr:  one band on NCORES_PER_BAND=  16 cores,    4 groups


--------------------------------------------------------------------------------------------------------


 INCAR:
 POTCAR:    PAW_PBE Ag 02Apr2005                  
 POTCAR:    PAW_PBE Ag 02Apr2005                  
   VRHFIN =Ag : s1 d10                                                          
   LEXCH  = PE                                                                  
   EATOM  =  1037.2675 eV,   76.2370 Ry                                         
                                                                                
   TITEL  = PAW_PBE Ag 02Apr2005                                                
   LULTRA =        F    use ultrasoft PP ?                                      
   IUNSCR =        1    unscreen: 0-lin 1-nonlin 2-no                           
   RPACOR =    2.000    partial core radius                                     
   POMASS =  107.868; ZVAL   =   11.000    mass and valenz                      
   RCORE  =    2.500    outmost cutoff radius                                   
   RWIGS  =    2.840; RWIGS  =    1.503    wigner-seitz radius (au A)           
   ENMAX  =  249.844; ENMIN  =  187.383 eV                                      
   ICORE  =        3    local potential                                         
   LCOR   =        T    correct aug charges                                     
   LPAW   =        T    paw PP                                                  
   EAUG   =  412.496                                                            
   DEXC   =    0.000                                                            
   RMAX   =    2.560    core radius for proj-oper                               
   RAUG   =    1.300    factor for augmentation sphere                          
   RDEP   =    2.576    radius for radial grids                                 
   RDEPT  =    2.072    core radius for aug-charge                              
                                                                                
   Atomic configuration                                                         
   12 entries                                                                   
     n  l   j            E        occ.                                          
     1  0  0.50    -25324.9161   2.0000                                         
     2  0  0.50     -3728.5341   2.0000                                         
     2  1  1.50     -3344.0404   6.0000                                         
     3  0  0.50      -683.5581   2.0000                                         
     3  1  1.50      -557.3225   6.0000                                         
     3  2  2.50      -358.3853  10.0000                                         
     4  0  0.50       -95.0341   2.0000                                         
     4  1  1.50       -58.5511   6.0000                                         
     4  2  2.50        -7.4440  10.0000                                         
     5  0  0.50        -4.4045   1.0000                                         
     5  1  0.50        -1.3606   0.0000                                         
     4  3  2.50        -1.3606   0.0000                                         
   Description                                                                  
     l       E           TYP  RCUT    TYP  RCUT                                 
     2     -7.4439781     23  2.400                                             
     2     -8.8045607     23  2.400                                             
     0     -4.4044681     23  2.400                                             
     0      1.9520038     23  2.400                                             
     1     -1.3605826     23  2.500                                             
     1     27.2116520     23  2.500                                             
     3     -4.0817478     23  2.400                                             
  local pseudopotential read in
  partial core-charges read in
  partial kinetic energy density read in
  atomic valenz-charges read in
  non local Contribution for L=           2  read in
    real space projection operators read in
  non local Contribution for L=           2  read in
    real space projection operators read in
  non local Contribution for L=           0  read in
    real space projection operators read in
  non local Contribution for L=           0  read in
    real space projection operators read in
  non local Contribution for L=           1  read in
    real space projection operators read in
  non local Contribution for L=           1  read in
    real space projection operators read in
    PAW grid and wavefunctions read in
 
   number of l-projection  operators is LMAX  =           6
   number of lm-projection operators is LMMAX =          18
 

 ----------------------------------------------------------------------------- 
|                                                                             |
|  ADVICE TO THIS USER RUNNING 'VASP/VAMP'   (HEAR YOUR MASTER'S VOICE ...):  |
|                                                                             |
|      You have a (more or less) 'large supercell' and for larger cells       |
|      it might be more efficient to use real space projection opertators     |
|      So try LREAL= Auto  in the INCAR   file.                               |
|      Mind: At the moment your POTCAR file does not contain real space       |
|       projectors, and has to be modified,  BUT if you                       |
|      want to do an extremely  accurate calculation you might also keep the  |
|      reciprocal projection scheme          (i.e. LREAL=.FALSE.)             |
|                                                                             |
 ----------------------------------------------------------------------------- 

  PAW_PBE Ag 02Apr2005                  :
 energy of atom  1       EATOM=-1037.2675
 kinetic energy error for atom=    0.0689 (will be added to EATOM!!)
 
 
 POSCAR: Ti40, -266.39143247 <s> Ag </s>         
  positions in direct lattice
  No initial velocities read in
 exchange correlation table for  LEXCH =        8
   RHO(1)=    0.500       N(1)  =     2000
   RHO(2)=  100.500       N(2)  =     4000
 


--------------------------------------------------------------------------------------------------------


 ion  position               nearest neighbor table
   1  0.655  0.460  0.359-   4 2.47   3 2.69   5 2.72   9 2.74   2 2.75   6 2.81
   2  0.557  0.514  0.302-   9 2.55   4 2.75   1 2.75  20 2.79   3 2.96  14 2.96   8 3.04
   3  0.550  0.398  0.372-  10 2.67   1 2.69   5 2.74   8 2.74   9 2.81  15 2.84   7 2.96   2 2.96

   4  0.654  0.573  0.355-   1 2.47  13 2.62  14 2.64   2 2.75   9 2.75   6 2.84
   5  0.632  0.403  0.466-  12 2.55   1 2.72   3 2.74   6 2.77  18 2.84  11 3.05   7 3.05   9 3.12
                            15 3.17
   6  0.682  0.519  0.469-  13 2.69   5 2.77   1 2.81   4 2.84   9 2.86  19 2.89  18 2.99  11 3.03

   7  0.535  0.303  0.466-  15 2.55  16 2.74  10 2.75  12 2.79   3 2.96  17 2.96   5 3.05
   8  0.443  0.460  0.359-  20 2.54  10 2.68   3 2.74  29 2.81  24 2.84  21 3.04   2 3.04  15 3.17
                             9 3.17
   9  0.562  0.517  0.418-   2 2.55   1 2.74   4 2.75  18 2.80  24 2.81   3 2.81  14 2.84   6 2.86
                            23 2.99   5 3.12  20 3.15   8 3.17  15 3.24  13 3.36
  10  0.444  0.342  0.390-  16 2.48   3 2.67   8 2.68  15 2.73   7 2.75  29 2.78
  11  0.660  0.458  0.591-  18 2.32  12 2.72  26 2.96  19 2.99  25 3.00   6 3.03   5 3.05
  12  0.595  0.356  0.565-   5 2.55  17 2.56  25 2.68  11 2.72   7 2.79  18 2.99  15 3.13
  13  0.650  0.637  0.455-   4 2.62  27 2.62   6 2.69  19 2.80  22 2.82  23 2.85  14 2.97   9 3.36

  14  0.551  0.634  0.364-  20 2.55   4 2.64  22 2.65  28 2.83   9 2.84   2 2.96  13 2.97  23 3.42

  15  0.489  0.408  0.486-   7 2.55  10 2.73  16 2.76  24 2.78  18 2.81  17 2.83   3 2.84  29 2.89
                            31 2.97  12 3.13   5 3.17   8 3.17   9 3.24  30 3.37
  16  0.413  0.308  0.493-  10 2.48  30 2.61  17 2.64   7 2.74  15 2.76  29 2.83
  17  0.484  0.330  0.588-  12 2.56  16 2.64  32 2.66  15 2.83  25 2.84  30 2.95   7 2.96  31 3.43

  18  0.571  0.488  0.542-  11 2.32  26 2.74  23 2.79   9 2.80  15 2.81   5 2.84  25 2.90  31 2.94
                             6 2.99  12 2.99  19 3.07  24 3.28
  19  0.657  0.593  0.575-  26 2.75  27 2.76  33 2.77  13 2.80   6 2.89  23 2.90  11 2.99  18 3.07

  20  0.453  0.574  0.344-   8 2.54  14 2.55  28 2.69  21 2.72   2 2.79  24 2.98   9 3.15
  21  0.357  0.551  0.419-  24 2.32  20 2.72  36 2.96  38 2.98  29 3.00  28 3.01   8 3.04
  22  0.551  0.718  0.450-  27 2.52  14 2.65  35 2.66  28 2.72  13 2.82  23 2.83
  23  0.539  0.608  0.517-  35 2.64  34 2.78  18 2.79  27 2.81  22 2.83  13 2.85  28 2.86  19 2.90
                            33 2.92  24 2.92   9 2.99  14 3.42  36 3.43  26 3.46
  24  0.445  0.526  0.471-  21 2.32  36 2.74  15 2.78   9 2.81  31 2.81   8 2.84  28 2.89  23 2.92
                            20 2.98  29 3.01  38 3.09  18 3.28
  25  0.544  0.423  0.654-  12 2.68  26 2.69  32 2.71  17 2.84  31 2.86  18 2.90  11 3.00  37 3.01

  26  0.576  0.541  0.655-  33 2.69  25 2.69  34 2.73  18 2.74  19 2.75  11 2.96  37 3.15  31 3.43
                            23 3.46
  27  0.615  0.708  0.545-  33 2.44  22 2.52  13 2.62  19 2.76  35 2.78  23 2.81
  28  0.446  0.653  0.437-  36 2.68  20 2.69  22 2.72  14 2.83  23 2.86  24 2.89  35 3.00  21 3.01

  29  0.363  0.418  0.450-  30 2.71  10 2.78   8 2.81  16 2.83  38 2.86  15 2.89  21 3.00  24 3.01

  30  0.362  0.384  0.569-  16 2.61  39 2.63  29 2.71  38 2.80  32 2.81  31 2.86  17 2.95  15 3.37

  31  0.446  0.481  0.591-  37 2.64  34 2.77  24 2.81  39 2.82  32 2.83  25 2.86  30 2.86  38 2.89
                            40 2.91  18 2.94  15 2.97  17 3.43  26 3.43  36 3.44
  32  0.428  0.388  0.678-  39 2.52  37 2.66  17 2.66  25 2.71  30 2.81  31 2.83
  33  0.569  0.662  0.635-  27 2.44  34 2.57  26 2.69  35 2.74  19 2.77  23 2.92
  34  0.471  0.601  0.623-  40 2.56  33 2.57  36 2.73  26 2.73  31 2.77  23 2.78  37 2.88  35 2.89

  35  0.488  0.711  0.554-  23 2.64  22 2.66  33 2.74  27 2.78  34 2.89  28 3.00  36 3.15
  36  0.384  0.614  0.535-  40 2.68  28 2.68  34 2.73  24 2.74  38 2.75  21 2.96  35 3.15  23 3.43
                            31 3.44
  37  0.448  0.504  0.709-  31 2.64  32 2.66  40 2.73  39 2.78  34 2.88  25 3.01  26 3.15
  38  0.326  0.503  0.542-  36 2.75  39 2.77  40 2.78  30 2.80  29 2.86  31 2.89  21 2.98  24 3.09

  39  0.340  0.459  0.659-  40 2.43  32 2.52  30 2.63  38 2.77  37 2.78  31 2.82
  40  0.361  0.567  0.645-  39 2.43  34 2.56  36 2.68  37 2.73  38 2.78  31 2.91
 
  LATTYP: Found a simple cubic cell.
 ALAT       =    21.9523218759
  
  Lattice vectors:
  
 A1 = (  21.9523218759,   0.0000000000,   0.0000000000)
 A2 = (   0.0000000000,  21.9523218759,   0.0000000000)
 A3 = (   0.0000000000,   0.0000000000,  21.9523218759)


Analysis of symmetry for initial positions (statically):
=====================================================================
 Subroutine PRICEL returns:
 Original cell was already a primitive cell.
 

 Routine SETGRP: Setting up the symmetry group for a 
 simple cubic supercell.


 Subroutine GETGRP returns: Found  1 space group operations
 (whereof  1 operations were pure point group operations)
 out of a pool of 48 trial point group operations.


The static configuration has the point symmetry C_1 .


Analysis of symmetry for dynamics (positions and initial velocities):
=====================================================================
 Subroutine PRICEL returns:
 Original cell was already a primitive cell.
 

 Routine SETGRP: Setting up the symmetry group for a 
 simple cubic supercell.


 Subroutine GETGRP returns: Found  1 space group operations
 (whereof  1 operations were pure point group operations)
 out of a pool of 48 trial point group operations.


The dynamic configuration has the point symmetry C_1 .


Analysis of magnetic symmetry:
=====================================================================
 Subroutine PRICEL returns:
 Original cell was already a primitive cell.
 

 Subroutine MAGSYM returns: Found  1 space group operations
 (whereof  1 operations were pure point group operations)
 out of a pool of  1 trial space group operations
 (whereof  1 operations were pure point group operations)
 and found also     1 'primitive' translations


The magnetic configuration has the point symmetry C_1 .
 
 
 KPOINTS: Gamma-point only                        
  k-points in reciprocal lattice
Space group operators:
 irot       det(A)        alpha          n_x          n_y          n_z        tau_x        tau_y        tau_z
    1     1.000000     0.000000     1.000000     0.000000     0.000000     0.000000     0.000000     0.000000


--------------------------------------------------------------------------------------------------------




 Dimension of arrays:
   k-points           NKPTS =      1   k-points in BZ     NKDIM =      1   number of bands    NBANDS=    284
   number of dos      NEDOS =    301   number of ions     NIONS =     40
   non local maximal  LDIM  =      6   non local SUM 2l+1 LMDIM =     18
   total plane-waves  NPLWV = 729000
   max r-space proj   IRMAX =      1   max aug-charges    IRDMAX=   3587
   dimension x,y,z NGX =    90 NGY =   90 NGZ =   90
   dimension x,y,z NGXF=   180 NGYF=  180 NGZF=  180
   support grid    NGXF=   180 NGYF=  180 NGZF=  180
   ions per type =              40
 NGX,Y,Z   is equivalent  to a cutoff of   6.82,  6.82,  6.82 a.u.
 NGXF,Y,Z  is equivalent  to a cutoff of  13.63, 13.63, 13.63 a.u.


 I would recommend the setting:
   dimension x,y,z NGX =    85 NGY =   85 NGZ =   85
 SYSTEM =  unknown system                          
 POSCAR =  Ti40, -266.39143247 <s> Ag </s>         

 Startparameter for this run:
   NWRITE =      2    write-flag & timer
   PREC   = normal    normal or accurate (medium, high low for compatibility)
   ISTART =      0    job   : 0-new  1-cont  2-samecut
   ICHARG =      2    charge: 1-file 2-atom 10-const
   ISPIN  =      2    spin polarized calculation?
   LNONCOLLINEAR =      F non collinear calculations
   LSORBIT =      F    spin-orbit coupling
   INIWAV =      1    electr: 0-lowe 1-rand  2-diag
   LASPH  =      F    aspherical Exc in radial PAW
   METAGGA=      F    non-selfconsistent MetaGGA calc.

 Electronic Relaxation 1
   ENCUT  =  249.8 eV  18.36 Ry    4.29 a.u.  28.29 28.29 28.29*2*pi/ulx,y,z
   ENINI  =  249.8     initial cutoff
   ENAUG  =  412.5 eV  augmentation charge cutoff
   NELM   =     60;   NELMIN=  2; NELMDL= -5     # of ELM steps 
   EDIFF  = 0.1E-03   stopping-criterion for ELM
   LREAL  =      F    real-space projection
   NLSPLINE    = F    spline interpolate recip. space projectors
   LCOMPAT=      F    compatible to vasp.4.4
   GGA_COMPAT  = T    GGA compatible to vasp.4.4-vasp.4.6
   LMAXPAW     = -100 max onsite density
   LMAXMIX     =    2 max onsite mixed and CHGCAR
   VOSKOWN=      0    Vosko Wilk Nusair interpolation
   ROPT   =    0.00000
 Ionic relaxation
   EDIFFG = 0.1E-02   stopping-criterion for IOM
   NSW    =   1000    number of steps for IOM
   NBLOCK =      1;   KBLOCK =   1000    inner block; outer block 
   IBRION =      2    ionic relax: 0-MD 1-quasi-New 2-CG
   NFREE  =      1    steps in history (QN), initial steepest desc. (CG)
   ISIF   =      2    stress and relaxation
   IWAVPR =     11    prediction:  0-non 1-charg 2-wave 3-comb
   ISYM   =      2    0-nonsym 1-usesym 2-fastsym
   LCORR  =      T    Harris-Foulkes like correction to forces

   POTIM  = 0.1000    time-step for ionic-motion
   TEIN   =    0.0    initial temperature
   TEBEG  =    0.0;   TEEND  =   0.0 temperature during run
   SMASS  =  -3.00    Nose mass-parameter (am)
   estimated Nose-frequenzy (Omega)   =  0.10E-29 period in steps =****** mass=  -0.110E-25a.u.
   SCALEE = 1.0000    scale energy and forces
   NPACO  =    256;   APACO  = 16.0  distance and # of slots for P.C.
   PSTRESS=    0.0 pullay stress

  Mass of Ions in am
   POMASS = 107.87
  Ionic Valenz
   ZVAL   =  11.00
  Atomic Wigner-Seitz radii
   RWIGS  =  -1.00
  virtual crystal weights 
   VCA    =   1.00
   NELECT =     440.0000    total number of electrons
   NUPDOWN=      -1.0000    fix difference up-down

 DOS related values:
   EMIN   =  10.00;   EMAX   =-10.00  energy-range for DOS
   EFERMI =   0.00
   ISMEAR =     0;   SIGMA  =   0.00  broadening in eV -4-tet -1-fermi 0-gaus

 Electronic relaxation 2 (details)
   IALGO  =     38    algorithm
   LDIAG  =      T    sub-space diagonalisation (order eigenvalues)
   LSUBROT=      F    optimize rotation matrix (better conditioning)
   TURBO    =      0    0=normal 1=particle mesh
   IRESTART =      0    0=no restart 2=restart with 2 vectors
   NREBOOT  =      0    no. of reboots
   NMIN     =      0    reboot dimension
   EREF     =   0.00    reference energy to select bands
   IMIX   =      4    mixing-type and parameters
     AMIX     =   0.40;   BMIX     =  1.00
     AMIX_MAG =   1.60;   BMIX_MAG =  1.00
     AMIN     =   0.10
     WC   =   100.;   INIMIX=   1;  MIXPRE=   1;  MAXMIX= -45

 Intra band minimization:
   WEIMIN = 0.0010     energy-eigenvalue tresh-hold
   EBREAK =  0.88E-07  absolut break condition
   DEPER  =   0.30     relativ break condition  

   TIME   =   0.40     timestep for ELM

  volume/ion in A,a.u.               =     264.47      1784.75
  Fermi-wavevector in a.u.,A,eV,Ry     =   0.567212  1.071875  4.377392  0.321729
  Thomas-Fermi vector in A             =   1.605930
 
 Write flags
   LWAVE  =      F    write WAVECAR
   LCHARG =      F    write CHGCAR
   LVTOT  =      F    write LOCPOT, total local potential
   LVHAR  =      F    write LOCPOT, Hartree potential only
   LELF   =      F    write electronic localiz. function (ELF)
   LORBIT =      0    0 simple, 1 ext, 2 COOP (PROOUT)


 Dipole corrections
   LMONO  =      F    monopole corrections only (constant potential shift)
   LDIPOL =      F    correct potential (dipole corrections)
   IDIPOL =      0    1-x, 2-y, 3-z, 4-all directions 
   EPSILON=  1.0000000 bulk dielectric constant

 Exchange correlation treatment:
   GGA     =    PE    GGA type
   LEXCH   =     8    internal setting for exchange type
   VOSKOWN=      0    Vosko Wilk Nusair interpolation
   LHFCALC =     F    Hartree Fock is set to
   LHFONE  =     F    Hartree Fock one center treatment
   AEXX    =    0.0000 exact exchange contribution

 Linear response parameters
   LEPSILON=     F    determine dielectric tensor
   LRPA    =     F    only Hartree local field effects (RPA)
   LNABLA  =     F    use nabla operator in PAW spheres
   LVEL    =     F    velocity operator in full k-point grid
   LINTERFAST=   F  fast interpolation
   KINTER  =     0    interpolate to denser k-point grid
   CSHIFT  =0.1000    complex shift for real part using Kramers Kronig
   OMEGAMAX=  -1.0    maximum frequency
   DEG_THRESHOLD= 0.2000000E-02 threshold for treating states as degnerate
   RTIME   =    0.100 relaxation time in fs

 Orbital magnetization related:
   ORBITALMAG=     F  switch on orbital magnetization
   LCHIMAG   =     F  perturbation theory with respect to B field
   DQ        =  0.001000  dq finite difference perturbation B field



--------------------------------------------------------------------------------------------------------


 conjugate gradient relaxation of ions
 charge density and potential will be updated during run
 spin polarized calculation
 Variant of blocked Davidson
 Davidson routine will perform the subspace rotation
 perform sub-space diagonalisation
    after iterative eigenvector-optimisation
 modified Broyden-mixing scheme, WC =      100.0
 initial mixing is a Kerker type mixing with AMIX =  0.4000 and BMIX =      1.0000
 Hartree-type preconditioning will be used
 using additional bands           64
 reciprocal scheme for non local part
 use partial core corrections
 calculate Harris-corrections to forces 
   (improved forces if not selfconsistent)
 use gradient corrections 
 use of overlap-Matrix (Vanderbilt PP)
 Gauss-broadening in eV      SIGMA  =   0.00


--------------------------------------------------------------------------------------------------------


  energy-cutoff  :      249.84
  volume of cell :    10578.92
      direct lattice vectors                 reciprocal lattice vectors
    21.952321876  0.000000000  0.000000000     0.045553268  0.000000000  0.000000000
     0.000000000 21.952321876  0.000000000     0.000000000  0.045553268  0.000000000
     0.000000000  0.000000000 21.952321876     0.000000000  0.000000000  0.045553268

  length of vectors
    21.952321876 21.952321876 21.952321876     0.045553268  0.045553268  0.045553268


 
 k-points in units of 2pi/SCALE and weight: Gamma-point only                        
   0.00000000  0.00000000  0.00000000       1.000
 
 k-points in reciprocal lattice and weights: Gamma-point only                        
   0.00000000  0.00000000  0.00000000       1.000
 
 position of ions in fractional coordinates (direct lattice) 
   0.65514969  0.46025310  0.35858290
   0.55681677  0.51363844  0.30220820
   0.55034241  0.39827686  0.37201079
   0.65389280  0.57283688  0.35451969
   0.63190687  0.40318950  0.46613421
   0.68180106  0.51914055  0.46899281
   0.53538484  0.30314646  0.46644662
   0.44254765  0.45992466  0.35942656
   0.56165462  0.51700217  0.41835811
   0.44396657  0.34181381  0.39008295
   0.66001514  0.45814745  0.59067368
   0.59489954  0.35578061  0.56548925
   0.64988613  0.63669530  0.45537458
   0.55051784  0.63357917  0.36390721
   0.48911265  0.40777440  0.48563615
   0.41349310  0.30773172  0.49315345
   0.48371472  0.32959779  0.58825187
   0.57106403  0.48805462  0.54228862
   0.65680133  0.59339043  0.57496830
   0.45279956  0.57397165  0.34403480
   0.35661751  0.55086338  0.41867217
   0.55061830  0.71789227  0.45009665
   0.53897321  0.60841701  0.51700378
   0.44523387  0.52585716  0.47068639
   0.54427094  0.42309945  0.65392709
   0.57559581  0.54142586  0.65500293
   0.61480764  0.70784909  0.54468454
   0.44607163  0.65310835  0.43706104
   0.36282444  0.41805210  0.45021790
   0.36237634  0.38390622  0.56885222
   0.44649463  0.48122926  0.59069457
   0.42839286  0.38848729  0.67841809
   0.56938841  0.66197892  0.63494048
   0.47068046  0.60053697  0.62308806
   0.48834131  0.71088661  0.55372296
   0.38403201  0.61384222  0.53488281
   0.44777467  0.50404047  0.70869948
   0.32587357  0.50299137  0.54213520
   0.34016159  0.45909315  0.65936772
   0.36114949  0.56697673  0.64541216
 
 position of ions in cartesian coordinates  (Angst):
  14.38205688 10.10362411  7.87172731
  12.22342098 11.27555634  6.63417159
  12.08129375  8.74310191  8.16650066
  14.35446515 12.57509968  7.78253035
  13.87182298  8.85094559 10.23272827
  14.96711628 11.39634051 10.29548115
  11.75294027  6.65476869 10.23958638
   9.71494845 10.09641418  7.89024758
  12.32962293 11.34939813  9.18393194
   9.74609695  7.50360673  8.56322648
  14.48886480 10.05740030 12.96665877
  13.05942620  7.81021041 12.41380201
  14.26650961 13.97694014  9.99652940
  12.08514488 13.90853389  7.98860814
  10.73715835  8.95159483 10.66084098
   9.07713354  6.75542567 10.82586326
  10.61866116  7.23543688 12.91349448
  12.53618150 10.71393214 11.90449426
  14.41831430 13.02629774 12.62188927
   9.94000159 12.60001034  7.55236276
   7.82858233 12.09273014  9.19082616
  12.08735007 15.75940221  9.88066661
  11.83171340 13.35616605 11.34943346
   9.77391726 11.54378561 10.33265915
  11.94801078  9.28801541 14.35521803
  12.63566445 11.88555481 14.37883504
  13.49645517 15.53893097 11.95709042
   9.79230803 14.33724477  9.59450469
   7.96483888  9.17721429  9.88332822
   7.95500208  8.42763300 12.48762712
   9.80159384 10.56409953 12.96711726
   9.40421791  8.52819814 14.89285234
  12.49939757 14.53197437 13.93841782
  10.33252905 13.18318085 13.67822970
  10.72022566 15.60561158 12.15550461
   8.43039433 13.47526208 11.74191963
   9.82969365 11.06485862 15.55759909
   7.15368156 11.04182841 11.90112633
   7.46733675 10.07816059 14.47465240
   7.92806984 12.44645561 14.16829554
 


--------------------------------------------------------------------------------------------------------


 use parallel FFT for wavefunctions z direction half grid
 k-point  1 :   0.0000 0.0000 0.0000  plane waves:   47309

 maximum and minimum number of plane-waves per node :      2965     2948

 maximum number of plane-waves:     47309
 maximum index in each direction: 
   IXMAX=   28   IYMAX=   28   IZMAX=   28
   IXMIN=  -28   IYMIN=  -28   IZMIN=    0

 WARNING: aliasing errors must be expected set NGX to 114 to avoid them
 WARNING: aliasing errors must be expected set NGY to 114 to avoid them
 WARNING: aliasing errors must be expected set NGZ to 114 to avoid them
 aliasing errors are usually negligible using standard VASP settings
 and one can safely disregard these warnings

 parallel 3D FFT for wavefunctions:
    minimum data exchange during FFTs selected (reduces bandwidth)
 parallel 3D FFT for charge:
    minimum data exchange during FFTs selected (reduces bandwidth)


 total amount of memory used by VASP on root node    54473. kBytes
========================================================================

   base      :      30000. kBytes
   nonl-proj :       2326. kBytes
   fftplans  :       4331. kBytes
   grid      :      10964. kBytes
   one-center:         46. kBytes
   wavefun   :       6806. kBytes
 
     INWAV:  cpu time    0.00: real time    0.00
 Broyden mixing: mesh for mixing (old mesh)
   NGX = 57   NGY = 57   NGZ = 57
  (NGX  =180   NGY  =180   NGZ  =180)
  gives a total of 185193 points

 initial charge density was supplied:
 charge density of overlapping atoms calculated
 number of electron     440.0000000 magnetization      40.0000000
 keeping initial charge density in first step


--------------------------------------------------------------------------------------------------------


 Maximum index for augmentation-charges          268 (set IRDMAX)


--------------------------------------------------------------------------------------------------------


 First call to EWALD:  gamma=   0.081
 Maximum number of real-space cells 3x 3x 3
 Maximum number of reciprocal cells 3x 3x 3

 FEWALD executed in parallel
    FEWALD:  cpu time    0.00: real time    0.00


----------------------------------------- Iteration    1(   1)  ---------------------------------------


    POTLOK:  cpu time    0.22: real time    0.22
    SETDIJ:  cpu time    0.01: real time    0.01
     EDDAV:  cpu time    3.71: real time    3.72
       DOS:  cpu time    0.00: real time    0.00
    --------------------------------------------
      LOOP:  cpu time    3.94: real time    3.97

 eigenvalue-minimisations  :  1152
 total energy-change (2. order) : 0.3775443E+04  (-0.9114350E+04)
 number of electron     440.0000000 magnetization      40.0000000
 augmentation part      440.0000000 magnetization      40.0000000

 Free energy of the ion-electron system (eV)
  ---------------------------------------------------
  alpha Z        PSCENC =       128.64496044
  Ewald energy   TEWEN  =    111776.98324861
  -Hartree energ DENC   =   -151589.95559954
  -exchange      EXHF   =         0.00000000
  -V(xc)+E(xc)   XCENC  =      -427.30142355
  PAW double counting   =     40134.88712279   -38290.58435515
  entropy T*S    EENTRO =         0.00000000
  eigenvalues    EBANDS =       554.82399808
  atomic energy  EATOM  =     41487.94520345
  ---------------------------------------------------
  free energy    TOTEN  =      3775.44315512 eV

  energy without entropy =     3775.44315512  energy(sigma->0) =     3775.44315512


--------------------------------------------------------------------------------------------------------




----------------------------------------- Iteration    1(   2)  ---------------------------------------


     EDDAV:  cpu time    5.43: real time    5.44
       DOS:  cpu time    0.00: real time    0.00
    --------------------------------------------
      LOOP:  cpu time    5.44: real time    5.45

 eigenvalue-minimisations  :  1856
 total energy-change (2. order) :-0.3138791E+04  (-0.2830939E+04)
 number of electron     440.0000000 magnetization      40.0000000
 augmentation part      440.0000000 magnetization      40.0000000

 Free energy of the ion-electron system (eV)
  ---------------------------------------------------
  alpha Z        PSCENC =       128.64496044
  Ewald energy   TEWEN  =    111776.98324861
  -Hartree energ DENC   =   -151589.95559954
  -exchange      EXHF   =         0.00000000
  -V(xc)+E(xc)   XCENC  =      -427.30142355
  PAW double counting   =     40134.88712279   -38290.58435515
  entropy T*S    EENTRO =         0.00000000
  eigenvalues    EBANDS =     -2583.96729441
  atomic energy  EATOM  =     41487.94520345
  ---------------------------------------------------
  free energy    TOTEN  =       636.65186263 eV

  energy without entropy =      636.65186263  energy(sigma->0) =      636.65186263


--------------------------------------------------------------------------------------------------------




----------------------------------------- Iteration    1(   3)  ---------------------------------------


     EDDAV:  cpu time    4.36: real time    4.36
       DOS:  cpu time    0.00: real time    0.00
    --------------------------------------------
      LOOP:  cpu time    4.36: real time    4.37

 eigenvalue-minimisations  :  1416
 total energy-change (2. order) :-0.6891220E+03  (-0.6316417E+03)
 number of electron     440.0000000 magnetization      40.0000000
 augmentation part      440.0000000 magnetization      40.0000000

 Free energy of the ion-electron system (eV)
  ---------------------------------------------------
  alpha Z        PSCENC =       128.64496044
  Ewald energy   TEWEN  =    111776.98324861
  -Hartree energ DENC   =   -151589.95559954
  -exchange      EXHF   =         0.00000000
  -V(xc)+E(xc)   XCENC  =      -427.30142355
  PAW double counting   =     40134.88712279   -38290.58435515
  entropy T*S    EENTRO =         0.00000000
  eigenvalues    EBANDS =     -3273.08925961
  atomic energy  EATOM  =     41487.94520345
  ---------------------------------------------------
  free energy    TOTEN  =       -52.47010258 eV

  energy without entropy =      -52.47010258  energy(sigma->0) =      -52.47010258


--------------------------------------------------------------------------------------------------------




----------------------------------------- Iteration    1(   4)  ---------------------------------------


     EDDAV:  cpu time    4.00: real time    4.00
       DOS:  cpu time    0.00: real time    0.00
    --------------------------------------------
      LOOP:  cpu time    4.00: real time    4.87

 eigenvalue-minimisations  :  1264
 total energy-change (2. order) :-0.2983431E+02  (-0.2952624E+02)
 number of electron     440.0000000 magnetization      40.0000000
 augmentation part      440.0000000 magnetization      40.0000000

 Free energy of the ion-electron system (eV)
  ---------------------------------------------------
  alpha Z        PSCENC =       128.64496044
  Ewald energy   TEWEN  =    111776.98324861
  -Hartree energ DENC   =   -151589.95559954
  -exchange      EXHF   =         0.00000000
  -V(xc)+E(xc)   XCENC  =      -427.30142355
  PAW double counting   =     40134.88712279   -38290.58435515
  entropy T*S    EENTRO =         0.00000000
  eigenvalues    EBANDS =     -3302.92356754
  atomic energy  EATOM  =     41487.94520345
  ---------------------------------------------------
  free energy    TOTEN  =       -82.30441050 eV

  energy without entropy =      -82.30441050  energy(sigma->0) =      -82.30441050


--------------------------------------------------------------------------------------------------------




----------------------------------------- Iteration    1(   5)  ---------------------------------------


     EDDAV:  cpu time    4.06: real time    4.06
       DOS:  cpu time    0.00: real time    0.00
    CHARGE:  cpu time    0.12: real time    0.12
    MIXING:  cpu time    0.00: real time    0.00
    --------------------------------------------
      LOOP:  cpu time    4.18: real time    4.19

 eigenvalue-minimisations  :  1288
 total energy-change (2. order) :-0.4304462E+00  (-0.4299497E+00)
 number of electron     440.0000126 magnetization      35.6386044
 augmentation part      205.4442020 magnetization      32.6940493

 Broyden mixing:
  rms(total) = 0.42453E+01    rms(broyden)= 0.42448E+01
  rms(prec ) = 0.43027E+01
  weight for this iteration     100.00

 Free energy of the ion-electron system (eV)
  ---------------------------------------------------
  alpha Z        PSCENC =       128.64496044
  Ewald energy   TEWEN  =    111776.98324861
  -Hartree energ DENC   =   -151589.95559954
  -exchange      EXHF   =         0.00000000
  -V(xc)+E(xc)   XCENC  =      -427.30142355
  PAW double counting   =     40134.88712279   -38290.58435515
  entropy T*S    EENTRO =         0.00000000
  eigenvalues    EBANDS =     -3303.35401379
  atomic energy  EATOM  =     41487.94520345
  ---------------------------------------------------
  free energy    TOTEN  =       -82.73485675 eV

  energy without entropy =      -82.73485675  energy(sigma->0) =      -82.73485675


--------------------------------------------------------------------------------------------------------




----------------------------------------- Iteration    1(   6)  ---------------------------------------


    POTLOK:  cpu time    0.21: real time    0.21
    SETDIJ:  cpu time    0.01: real time    0.01
     EDDAV:  cpu time    3.74: real time    3.74
       DOS:  cpu time    0.00: real time    0.00
    CHARGE:  cpu time    0.12: real time    0.12
    MIXING:  cpu time    0.00: real time    0.00
    --------------------------------------------
      LOOP:  cpu time    4.09: real time    4.10

 eigenvalue-minimisations  :  1164
 total energy-change (2. order) : 0.4577684E+02  (-0.1376287E+02)
 number of electron     440.0000124 magnetization      32.4122522
 augmentation part      210.6279511 magnetization      19.5208819

 Broyden mixing:
  rms(total) = 0.23942E+01    rms(broyden)= 0.23941E+01
  rms(prec ) = 0.24129E+01
  weight for this iteration     100.00

 eigenvalues of (default mixing * dielectric matrix)
  average eigenvalue GAMMA=   0.8910
  0.8910

 Free energy of the ion-electron system (eV)
  ---------------------------------------------------
  alpha Z        PSCENC =       128.64496044
  Ewald energy   TEWEN  =    111776.98324861
  -Hartree energ DENC   =   -151393.43762989
  -exchange      EXHF   =         0.00000000
  -V(xc)+E(xc)   XCENC  =      -409.44672340
  PAW double counting   =     42098.73842244   -40293.50209988
  entropy T*S    EENTRO =        -0.00000000
  eigenvalues    EBANDS =     -3432.88339441
  atomic energy  EATOM  =     41487.94520345
  ---------------------------------------------------
  free energy    TOTEN  =       -36.95801264 eV

  energy without entropy =      -36.95801264  energy(sigma->0) =      -36.95801264


--------------------------------------------------------------------------------------------------------




----------------------------------------- Iteration    1(   7)  ---------------------------------------


    POTLOK:  cpu time    0.21: real time    0.21
    SETDIJ:  cpu time    0.01: real time    0.01
     EDDAV:  cpu time    3.88: real time    3.88
       DOS:  cpu time    0.00: real time    0.00
    CHARGE:  cpu time    0.12: real time    0.12
    MIXING:  cpu time    0.00: real time    0.00
    --------------------------------------------
      LOOP:  cpu time    4.22: real time    4.26

 eigenvalue-minimisations  :  1224
 total energy-change (2. order) : 0.9237329E+01  (-0.9400216E+00)
 number of electron     440.0000124 magnetization      27.5655926
 augmentation part      210.6521810 magnetization      15.0922765

 Broyden mixing:
  rms(total) = 0.13705E+01    rms(broyden)= 0.13705E+01
  rms(prec ) = 0.13787E+01
  weight for this iteration     100.00

 eigenvalues of (default mixing * dielectric matrix)
  average eigenvalue GAMMA=   1.1419
  0.7694  1.5145

 Free energy of the ion-electron system (eV)
  ---------------------------------------------------
  alpha Z        PSCENC =       128.64496044
  Ewald energy   TEWEN  =    111776.98324861
  -Hartree energ DENC   =   -151482.80307635
  -exchange      EXHF   =         0.00000000
  -V(xc)+E(xc)   XCENC  =      -402.15501826
  PAW double counting   =     43331.59532323   -41552.61180777
  entropy T*S    EENTRO =         0.00000000
  eigenvalues    EBANDS =     -3315.31951736
  atomic energy  EATOM  =     41487.94520345
  ---------------------------------------------------
  free energy    TOTEN  =       -27.72068400 eV

  energy without entropy =      -27.72068400  energy(sigma->0) =      -27.72068400


--------------------------------------------------------------------------------------------------------




----------------------------------------- Iteration    1(   8)  ---------------------------------------


    POTLOK:  cpu time    0.22: real time    0.21
    SETDIJ:  cpu time    0.00: real time    0.01
     EDDAV:  cpu time    3.82: real time    3.83
       DOS:  cpu time    0.00: real time    0.00
    CHARGE:  cpu time    0.12: real time    0.12
    MIXING:  cpu time    0.00: real time    0.00
    --------------------------------------------
      LOOP:  cpu time    4.17: real time    4.18

 eigenvalue-minimisations  :  1204
 total energy-change (2. order) : 0.2161966E+01  (-0.2288137E+00)
 number of electron     440.0000124 magnetization      24.9927585
 augmentation part      210.5745729 magnetization      12.7247760

 Broyden mixing:
  rms(total) = 0.65196E+00    rms(broyden)= 0.65195E+00
  rms(prec ) = 0.65475E+00
  weight for this iteration     100.00

 eigenvalues of (default mixing * dielectric matrix)
  average eigenvalue GAMMA=   1.2793
  2.3174  0.9030  0.6174

 Free energy of the ion-electron system (eV)
  ---------------------------------------------------
  alpha Z        PSCENC =       128.64496044
  Ewald energy   TEWEN  =    111776.98324861
  -Hartree energ DENC   =   -151579.27902868
  -exchange      EXHF   =         0.00000000
  -V(xc)+E(xc)   XCENC  =      -400.61018545
  PAW double counting   =     44690.78400734   -42938.15877354
  entropy T*S    EENTRO =         0.00000000
  eigenvalues    EBANDS =     -3191.86814993
  atomic energy  EATOM  =     41487.94520345
  ---------------------------------------------------
  free energy    TOTEN  =       -25.55871775 eV

  energy without entropy =      -25.55871775  energy(sigma->0) =      -25.55871775


--------------------------------------------------------------------------------------------------------




----------------------------------------- Iteration    1(   9)  ---------------------------------------


    POTLOK:  cpu time    0.21: real time    0.21
    SETDIJ:  cpu time    0.01: real time    0.01
     EDDAV:  cpu time    3.88: real time    3.89
       DOS:  cpu time    0.00: real time    0.00
    CHARGE:  cpu time    0.12: real time    0.12
    MIXING:  cpu time    0.00: real time    0.00
    --------------------------------------------
      LOOP:  cpu time    4.22: real time    4.24

 eigenvalue-minimisations  :  1224
 total energy-change (2. order) :-0.3813325E+01  (-0.5896172E-01)
 number of electron     440.0000124 magnetization      23.2260996
 augmentation part      210.5132520 magnetization      13.0475592

 Broyden mixing:
  rms(total) = 0.46385E+00    rms(broyden)= 0.46380E+00
  rms(prec ) = 0.47064E+00
  weight for this iteration     100.00

 eigenvalues of (default mixing * dielectric matrix)
  average eigenvalue GAMMA=   1.1143
  2.3420  0.9202  0.5974  0.5974

 Free energy of the ion-electron system (eV)
  ---------------------------------------------------
  alpha Z        PSCENC =       128.64496044
  Ewald energy   TEWEN  =    111776.98324861
  -Hartree energ DENC   =   -151605.26522355
  -exchange      EXHF   =         0.00000000
  -V(xc)+E(xc)   XCENC  =      -403.36403543
  PAW double counting   =     45012.06844822   -43265.47013180
  entropy T*S    EENTRO =        -0.00000000
  eigenvalues    EBANDS =     -3160.91451309
  atomic energy  EATOM  =     41487.94520345
  ---------------------------------------------------
  free energy    TOTEN  =       -29.37204316 eV

  energy without entropy =      -29.37204316  energy(sigma->0) =      -29.37204316


--------------------------------------------------------------------------------------------------------




----------------------------------------- Iteration    1(  10)  ---------------------------------------


    POTLOK:  cpu time    0.21: real time    0.21
    SETDIJ:  cpu time    0.00: real time    0.01
     EDDAV:  cpu time    3.85: real time    3.86
       DOS:  cpu time    0.00: real time    0.00
    CHARGE:  cpu time    0.12: real time    0.12
    MIXING:  cpu time    0.00: real time    0.01
    --------------------------------------------
      LOOP:  cpu time    4.20: real time    4.73

 eigenvalue-minimisations  :  1200
 total energy-change (2. order) :-0.3064284E+01  (-0.5939652E-01)
 number of electron     440.0000124 magnetization      19.5961827
 augmentation part      210.4561613 magnetization       9.6512973

 Broyden mixing:
  rms(total) = 0.39478E+00    rms(broyden)= 0.39477E+00
  rms(prec ) = 0.39772E+00
  weight for this iteration     100.00

 eigenvalues of (default mixing * dielectric matrix)
  average eigenvalue GAMMA=   1.1442
  2.3486  1.1173  0.6561  0.7996  0.7996

 Free energy of the ion-electron system (eV)
  ---------------------------------------------------
  alpha Z        PSCENC =       128.64496044
  Ewald energy   TEWEN  =    111776.98324861
  -Hartree energ DENC   =   -151617.76356226
  -exchange      EXHF   =         0.00000000
  -V(xc)+E(xc)   XCENC  =      -405.34227510
  PAW double counting   =     45051.03581276   -43305.09797387
  entropy T*S    EENTRO =         0.00000000
  eigenvalues    EBANDS =     -3148.84174121
  atomic energy  EATOM  =     41487.94520345
  ---------------------------------------------------
  free energy    TOTEN  =       -32.43632718 eV

  energy without entropy =      -32.43632718  energy(sigma->0) =      -32.43632718


--------------------------------------------------------------------------------------------------------




----------------------------------------- Iteration    1(  11)  ---------------------------------------


    POTLOK:  cpu time    0.21: real time    0.21
    SETDIJ:  cpu time    0.01: real time    0.01
     EDDAV:  cpu time    3.77: real time    3.77
       DOS:  cpu time    0.00: real time    0.00
    CHARGE:  cpu time    0.12: real time    0.12
    MIXING:  cpu time    0.01: real time    0.01
    --------------------------------------------
      LOOP:  cpu time    4.12: real time    4.13

 eigenvalue-minimisations  :  1168
 total energy-change (2. order) :-0.1265837E+02  (-0.4521318E+00)
 number of electron     440.0000124 magnetization      15.6399245
 augmentation part      210.3652694 magnetization       8.1051922

 Broyden mixing:
  rms(total) = 0.35738E+00    rms(broyden)= 0.35729E+00
  rms(prec ) = 0.36146E+00
  weight for this iteration     100.00

 eigenvalues of (default mixing * dielectric matrix)
  average eigenvalue GAMMA=   1.1859
  2.3611  1.8891  0.8594  0.8594  0.6556  0.4908

 Free energy of the ion-electron system (eV)
  ---------------------------------------------------
  alpha Z        PSCENC =       128.64496044
  Ewald energy   TEWEN  =    111776.98324861
  -Hartree energ DENC   =   -151628.73453972
  -exchange      EXHF   =         0.00000000
  -V(xc)+E(xc)   XCENC  =      -414.52232081
  PAW double counting   =     45036.87236510   -43290.78605042
  entropy T*S    EENTRO =         0.00000000
  eigenvalues    EBANDS =     -3141.49756193
  atomic energy  EATOM  =     41487.94520345
  ---------------------------------------------------
  free energy    TOTEN  =       -45.09469527 eV

  energy without entropy =      -45.09469527  energy(sigma->0) =      -45.09469527


--------------------------------------------------------------------------------------------------------




----------------------------------------- Iteration    1(  12)  ---------------------------------------


    POTLOK:  cpu time    0.21: real time    0.21
    SETDIJ:  cpu time    0.01: real time    0.01
     EDDAV:  cpu time    3.80: real time    3.81
       DOS:  cpu time    0.00: real time    0.00
    CHARGE:  cpu time    0.12: real time    0.12
    MIXING:  cpu time    0.00: real time    0.01
    --------------------------------------------
      LOOP:  cpu time    4.15: real time    4.18

 eigenvalue-minimisations  :  1184
 total energy-change (2. order) :-0.8718574E+01  (-0.3571504E+00)
 number of electron     440.0000124 magnetization      12.0042604
 augmentation part      210.2997233 magnetization       5.0015773

 Broyden mixing:
  rms(total) = 0.23003E+00    rms(broyden)= 0.23001E+00
  rms(prec ) = 0.23352E+00
  weight for this iteration     100.00

 eigenvalues of (default mixing * dielectric matrix)
  average eigenvalue GAMMA=   1.3819
  3.4595  2.3793  1.0085  1.0085  0.6998  0.6145  0.5035

 Free energy of the ion-electron system (eV)
  ---------------------------------------------------
  alpha Z        PSCENC =       128.64496044
  Ewald energy   TEWEN  =    111776.98324861
  -Hartree energ DENC   =   -151638.76699285
  -exchange      EXHF   =         0.00000000
  -V(xc)+E(xc)   XCENC  =      -420.81205276
  PAW double counting   =     45030.01554492   -43284.12340233
  entropy T*S    EENTRO =         0.00000000
  eigenvalues    EBANDS =     -3133.69977850
  atomic energy  EATOM  =     41487.94520345
  ---------------------------------------------------
  free energy    TOTEN  =       -53.81326902 eV

  energy without entropy =      -53.81326902  energy(sigma->0) =      -53.81326902


--------------------------------------------------------------------------------------------------------




----------------------------------------- Iteration    1(  13)  ---------------------------------------


    POTLOK:  cpu time    0.21: real time    0.21
    SETDIJ:  cpu time    0.01: real time    0.01
     EDDAV:  cpu time    3.77: real time    3.78
       DOS:  cpu time    0.00: real time    0.00
    CHARGE:  cpu time    0.12: real time    0.12
    MIXING:  cpu time    0.00: real time    0.01
    --------------------------------------------
      LOOP:  cpu time    4.12: real time    4.44

 eigenvalue-minimisations  :  1160
 total energy-change (2. order) :-0.1032750E+02  (-0.4541473E+00)
 number of electron     440.0000126 magnetization      10.5670910
 augmentation part      210.2709291 magnetization       5.9299198

 Broyden mixing:
  rms(total) = 0.21213E+00    rms(broyden)= 0.21201E+00
  rms(prec ) = 0.22153E+00
  weight for this iteration     100.00

 eigenvalues of (default mixing * dielectric matrix)
  average eigenvalue GAMMA=   1.3339
  4.0509  2.3369  0.9713  0.9713  0.6867  0.6456  0.5530  0.4555

 Free energy of the ion-electron system (eV)
  ---------------------------------------------------
  alpha Z        PSCENC =       128.64496044
  Ewald energy   TEWEN  =    111776.98324861
  -Hartree energ DENC   =   -151629.52047629
  -exchange      EXHF   =         0.00000000
  -V(xc)+E(xc)   XCENC  =      -428.73887502
  PAW double counting   =     44963.09104704   -43216.87903921
  entropy T*S    EENTRO =         0.00000000
  eigenvalues    EBANDS =     -3145.66684141
  atomic energy  EATOM  =     41487.94520345
  ---------------------------------------------------
  free energy    TOTEN  =       -64.14077239 eV

  energy without entropy =      -64.14077239  energy(sigma->0) =      -64.14077239


--------------------------------------------------------------------------------------------------------




----------------------------------------- Iteration    1(  14)  ---------------------------------------


    POTLOK:  cpu time    0.21: real time    0.21
    SETDIJ:  cpu time    0.01: real time    0.01
     EDDAV:  cpu time    3.94: real time    3.94
       DOS:  cpu time    0.00: real time    0.00
    CHARGE:  cpu time    0.12: real time    0.12
    MIXING:  cpu time    0.00: real time    0.01
    --------------------------------------------
      LOOP:  cpu time    4.28: real time    4.29

 eigenvalue-minimisations  :  1232
 total energy-change (2. order) :-0.2513473E+01  (-0.5109510E-01)
 number of electron     440.0000125 magnetization       8.6137749
 augmentation part      210.2571516 magnetization       4.1485137

 Broyden mixing:
  rms(total) = 0.16405E+00    rms(broyden)= 0.16404E+00
  rms(prec ) = 0.17210E+00
  weight for this iteration     100.00

 eigenvalues of (default mixing * dielectric matrix)
  average eigenvalue GAMMA=   1.4284
  4.9308  2.3420  1.1101  1.1101  0.7944  0.7944  0.6889  0.6263  0.4583

 Free energy of the ion-electron system (eV)
  ---------------------------------------------------
  alpha Z        PSCENC =       128.64496044
  Ewald energy   TEWEN  =    111776.98324861
  -Hartree energ DENC   =   -151622.73380100
  -exchange      EXHF   =         0.00000000
  -V(xc)+E(xc)   XCENC  =      -430.75697201
  PAW double counting   =     44942.87576637   -43196.78225863
  entropy T*S    EENTRO =         0.00000000
  eigenvalues    EBANDS =     -3152.83039285
  atomic energy  EATOM  =     41487.94520345
  ---------------------------------------------------
  free energy    TOTEN  =       -66.65424562 eV

  energy without entropy =      -66.65424562  energy(sigma->0) =      -66.65424562


--------------------------------------------------------------------------------------------------------




----------------------------------------- Iteration    1(  15)  ---------------------------------------


    POTLOK:  cpu time    0.21: real time    0.21
    SETDIJ:  cpu time    0.01: real time    0.01
     EDDAV:  cpu time    3.81: real time    3.81
       DOS:  cpu time    0.00: real time    0.00
    CHARGE:  cpu time    0.12: real time    0.12
    MIXING:  cpu time    0.01: real time    0.01
    --------------------------------------------
      LOOP:  cpu time    4.16: real time    4.17

 eigenvalue-minimisations  :  1180
 total energy-change (2. order) :-0.4812611E+01  (-0.1126809E+00)
 number of electron     440.0000125 magnetization       6.9070611
 augmentation part      210.2801944 magnetization       2.6305549

 Broyden mixing:
  rms(total) = 0.11383E+00    rms(broyden)= 0.11382E+00
  rms(prec ) = 0.11957E+00
  weight for this iteration     100.00

 eigenvalues of (default mixing * dielectric matrix)
  average eigenvalue GAMMA=   1.5352
  5.8373  2.0994  1.8511  1.3834  0.8649  0.8649  0.7117  0.6352  0.6352  0.4685

 Free energy of the ion-electron system (eV)
  ---------------------------------------------------
  alpha Z        PSCENC =       128.64496044
  Ewald energy   TEWEN  =    111776.98324861
  -Hartree energ DENC   =   -151598.12193075
  -exchange      EXHF   =         0.00000000
  -V(xc)+E(xc)   XCENC  =      -434.98560800
  PAW double counting   =     44869.61971050   -43123.28858038
  entropy T*S    EENTRO =         0.00000000
  eigenvalues    EBANDS =     -3178.26386056
  atomic energy  EATOM  =     41487.94520345
  ---------------------------------------------------
  free energy    TOTEN  =       -71.46685669 eV

  energy without entropy =      -71.46685669  energy(sigma->0) =      -71.46685669


--------------------------------------------------------------------------------------------------------




----------------------------------------- Iteration    1(  16)  ---------------------------------------


    POTLOK:  cpu time    0.21: real time    0.21
    SETDIJ:  cpu time    0.01: real time    0.01
     EDDAV:  cpu time    3.78: real time    3.78
       DOS:  cpu time    0.00: real time    0.00
    CHARGE:  cpu time    0.12: real time    0.12
    MIXING:  cpu time    0.01: real time    0.01
    --------------------------------------------
      LOOP:  cpu time    4.12: real time    4.25

 eigenvalue-minimisations  :  1168
 total energy-change (2. order) :-0.4393933E+01  (-0.9371631E-01)
 number of electron     440.0000124 magnetization       6.1923648
 augmentation part      210.2950567 magnetization       3.9556343

 Broyden mixing:
  rms(total) = 0.15177E+00    rms(broyden)= 0.15166E+00
  rms(prec ) = 0.16107E+00
  weight for this iteration     100.00

 eigenvalues of (default mixing * dielectric matrix)
  average eigenvalue GAMMA=   1.4509
  6.1602  2.0410  2.0410  1.2440  0.8975  0.8975  0.6617  0.6617  0.6572  0.4575
  0.2401

 Free energy of the ion-electron system (eV)
  ---------------------------------------------------
  alpha Z        PSCENC =       128.64496044
  Ewald energy   TEWEN  =    111776.98324861
  -Hartree energ DENC   =   -151562.97262311
  -exchange      EXHF   =         0.00000000
  -V(xc)+E(xc)   XCENC  =      -439.11809746
  PAW double counting   =     44806.23901554   -43059.74628593
  entropy T*S    EENTRO =         0.00000000
  eigenvalues    EBANDS =     -3213.83621103
  atomic energy  EATOM  =     41487.94520345
  ---------------------------------------------------
  free energy    TOTEN  =       -75.86078949 eV

  energy without entropy =      -75.86078949  energy(sigma->0) =      -75.86078949


--------------------------------------------------------------------------------------------------------




----------------------------------------- Iteration    1(  17)  ---------------------------------------


    POTLOK:  cpu time    0.22: real time    0.21
    SETDIJ:  cpu time    0.00: real time    0.01
     EDDAV:  cpu time    4.07: real time    4.07
       DOS:  cpu time    0.00: real time    0.00
    CHARGE:  cpu time    0.12: real time    0.12
    MIXING:  cpu time    0.01: real time    0.01
    --------------------------------------------
      LOOP:  cpu time    4.41: real time    4.50

 eigenvalue-minimisations  :  1288
 total energy-change (2. order) :-0.4994192E+00  (-0.4584762E-02)
 number of electron     440.0000124 magnetization       4.8272540
 augmentation part      210.3076821 magnetization       2.6498205

 Broyden mixing:
  rms(total) = 0.12106E+00    rms(broyden)= 0.12105E+00
  rms(prec ) = 0.12935E+00
  weight for this iteration     100.00

 eigenvalues of (default mixing * dielectric matrix)
  average eigenvalue GAMMA=   1.5246
  7.1466  2.1614  2.1614  0.9850  0.9850  1.0112  0.7091  0.7091  0.6931  0.6247
  0.6247  0.4834

 Free energy of the ion-electron system (eV)
  ---------------------------------------------------
  alpha Z        PSCENC =       128.64496044
  Ewald energy   TEWEN  =    111776.98324861
  -Hartree energ DENC   =   -151556.74021763
  -exchange      EXHF   =         0.00000000
  -V(xc)+E(xc)   XCENC  =      -439.63081002
  PAW double counting   =     44796.96800198   -43050.48058988
  entropy T*S    EENTRO =         0.00000000
  eigenvalues    EBANDS =     -3220.05000558
  atomic energy  EATOM  =     41487.94520345
  ---------------------------------------------------
  free energy    TOTEN  =       -76.36020864 eV

  energy without entropy =      -76.36020864  energy(sigma->0) =      -76.36020864


--------------------------------------------------------------------------------------------------------




----------------------------------------- Iteration    1(  18)  ---------------------------------------


    POTLOK:  cpu time    0.22: real time    0.22
    SETDIJ:  cpu time    0.01: real time    0.01
     EDDAV:  cpu time    3.76: real time    3.77
       DOS:  cpu time    0.00: real time    0.00
    CHARGE:  cpu time    0.12: real time    0.12
    MIXING:  cpu time    0.01: real time    0.01
    --------------------------------------------
      LOOP:  cpu time    4.12: real time    4.14

 eigenvalue-minimisations  :  1160
 total energy-change (2. order) :-0.1134503E+01  (-0.1309332E-01)
 number of electron     440.0000124 magnetization       3.2774980
 augmentation part      210.3130623 magnetization       1.1782014

 Broyden mixing:
  rms(total) = 0.77076E-01    rms(broyden)= 0.77071E-01
  rms(prec ) = 0.82985E-01
  weight for this iteration     100.00

 eigenvalues of (default mixing * dielectric matrix)
  average eigenvalue GAMMA=   1.6231
  8.2241  2.2494  2.2494  1.3885  1.3885  0.9626  0.7611  0.7611  0.7260  0.7260
  0.5818  0.5818  0.5000

 Free energy of the ion-electron system (eV)
  ---------------------------------------------------
  alpha Z        PSCENC =       128.64496044
  Ewald energy   TEWEN  =    111776.98324861
  -Hartree energ DENC   =   -151544.68893951
  -exchange      EXHF   =         0.00000000
  -V(xc)+E(xc)   XCENC  =      -440.77082578
  PAW double counting   =     44793.35868346   -43046.88180347
  entropy T*S    EENTRO =         0.00000000
  eigenvalues    EBANDS =     -3232.08523930
  atomic energy  EATOM  =     41487.94520345
  ---------------------------------------------------
  free energy    TOTEN  =       -77.49471210 eV

  energy without entropy =      -77.49471210  energy(sigma->0) =      -77.49471210


--------------------------------------------------------------------------------------------------------




----------------------------------------- Iteration    1(  19)  ---------------------------------------


    POTLOK:  cpu time    0.21: real time    0.21
    SETDIJ:  cpu time    0.01: real time    0.01
     EDDAV:  cpu time    3.75: real time    3.76
       DOS:  cpu time    0.00: real time    0.00
    CHARGE:  cpu time    0.12: real time    0.12
    MIXING:  cpu time    0.01: real time    0.01
    --------------------------------------------
      LOOP:  cpu time    4.10: real time    4.13

 eigenvalue-minimisations  :  1160
 total energy-change (2. order) :-0.1501994E+01  (-0.1861571E-01)
 number of electron     440.0000124 magnetization       2.5557747
 augmentation part      210.3012236 magnetization       0.5251531

 Broyden mixing:
  rms(total) = 0.31978E-01    rms(broyden)= 0.31960E-01
  rms(prec ) = 0.36196E-01
  weight for this iteration     100.00

 eigenvalues of (default mixing * dielectric matrix)
  average eigenvalue GAMMA=   1.6936
  9.3096  2.6828  1.9307  1.9307  1.2497  1.2497  0.7709  0.7709  0.7931  0.6460
  0.6460  0.6135  0.6135  0.5035

 Free energy of the ion-electron system (eV)
  ---------------------------------------------------
  alpha Z        PSCENC =       128.64496044
  Ewald energy   TEWEN  =    111776.98324861
  -Hartree energ DENC   =   -151525.75698770
  -exchange      EXHF   =         0.00000000
  -V(xc)+E(xc)   XCENC  =      -442.33033806
  PAW double counting   =     44794.61388813   -43047.89754171
  entropy T*S    EENTRO =         0.00000000
  eigenvalues    EBANDS =     -3251.19913946
  atomic energy  EATOM  =     41487.94520345
  ---------------------------------------------------
  free energy    TOTEN  =       -78.99670630 eV

  energy without entropy =      -78.99670630  energy(sigma->0) =      -78.99670630


--------------------------------------------------------------------------------------------------------




----------------------------------------- Iteration    1(  20)  ---------------------------------------


    POTLOK:  cpu time    0.22: real time    0.22
    SETDIJ:  cpu time    0.01: real time    0.01
     EDDAV:  cpu time    3.87: real time    3.87
       DOS:  cpu time    0.00: real time    0.00
    CHARGE:  cpu time    0.12: real time    0.12
    MIXING:  cpu time    0.01: real time    0.01
    --------------------------------------------
      LOOP:  cpu time    4.23: real time    4.25

 eigenvalue-minimisations  :  1208
 total energy-change (2. order) :-0.7625405E+00  (-0.4296928E-02)
 number of electron     440.0000124 magnetization       2.3737758
 augmentation part      210.3219241 magnetization       0.3759622

 Broyden mixing:
  rms(total) = 0.27152E-01    rms(broyden)= 0.27143E-01
  rms(prec ) = 0.30607E-01
  weight for this iteration     100.00

 eigenvalues of (default mixing * dielectric matrix)
  average eigenvalue GAMMA=   1.7157
  9.5834  2.5640  2.5640  1.9345  1.3510  1.3510  1.0166  0.8524  0.8524  0.6872
  0.6872  0.6353  0.5804  0.5804  0.4962

 Free energy of the ion-electron system (eV)
  ---------------------------------------------------
  alpha Z        PSCENC =       128.64496044
  Ewald energy   TEWEN  =    111776.98324861
  -Hartree energ DENC   =   -151510.86778806
  -exchange      EXHF   =         0.00000000
  -V(xc)+E(xc)   XCENC  =      -443.18803453
  PAW double counting   =     44786.98405076   -43040.00827705
  entropy T*S    EENTRO =        -0.00000000
  eigenvalues    EBANDS =     -3266.25261038
  atomic energy  EATOM  =     41487.94520345
  ---------------------------------------------------
  free energy    TOTEN  =       -79.75924675 eV

  energy without entropy =      -79.75924675  energy(sigma->0) =      -79.75924675


--------------------------------------------------------------------------------------------------------




----------------------------------------- Iteration    1(  21)  ---------------------------------------


    POTLOK:  cpu time    0.21: real time    0.21
    SETDIJ:  cpu time    0.01: real time    0.01
     EDDAV:  cpu time    3.78: real time    3.79
       DOS:  cpu time    0.00: real time    0.00
    CHARGE:  cpu time    0.12: real time    0.12
    MIXING:  cpu time    0.01: real time    0.01
    --------------------------------------------
      LOOP:  cpu time    4.14: real time    4.18

 eigenvalue-minimisations  :  1168
 total energy-change (2. order) :-0.3860695E+00  (-0.1163306E-02)
 number of electron     440.0000124 magnetization       2.2183808
 augmentation part      210.3157744 magnetization       0.2133849

 Broyden mixing:
  rms(total) = 0.17033E-01    rms(broyden)= 0.17030E-01
  rms(prec ) = 0.19885E-01
  weight for this iteration     100.00

 eigenvalues of (default mixing * dielectric matrix)
  average eigenvalue GAMMA=   1.7673
  9.9066  3.7160  2.3557  1.8386  1.8386  1.2067  1.2067  0.8827  0.8827  0.7505
  0.7505  0.6058  0.6058  0.6363  0.5947  0.4992

 Free energy of the ion-electron system (eV)
  ---------------------------------------------------
  alpha Z        PSCENC =       128.64496044
  Ewald energy   TEWEN  =    111776.98324861
  -Hartree energ DENC   =   -151500.87990073
  -exchange      EXHF   =         0.00000000
  -V(xc)+E(xc)   XCENC  =      -443.61729295
  PAW double counting   =     44801.90424377   -43055.01001067
  entropy T*S    EENTRO =        -0.00000000
  eigenvalues    EBANDS =     -3276.11576813
  atomic energy  EATOM  =     41487.94520345
  ---------------------------------------------------
  free energy    TOTEN  =       -80.14531621 eV

  energy without entropy =      -80.14531621  energy(sigma->0) =      -80.14531621


--------------------------------------------------------------------------------------------------------




----------------------------------------- Iteration    1(  22)  ---------------------------------------


    POTLOK:  cpu time    0.22: real time    0.21
    SETDIJ:  cpu time    0.00: real time    0.01
     EDDAV:  cpu time    3.77: real time    3.77
       DOS:  cpu time    0.00: real time    0.00
    CHARGE:  cpu time    0.12: real time    0.12
    MIXING:  cpu time    0.01: real time    0.01
    --------------------------------------------
      LOOP:  cpu time    4.12: real time    4.13

 eigenvalue-minimisations  :  1164
 total energy-change (2. order) :-0.2671198E+00  (-0.9199718E-03)
 number of electron     440.0000124 magnetization       2.1727307
 augmentation part      210.3264021 magnetization       0.1620236

 Broyden mixing:
  rms(total) = 0.73585E-02    rms(broyden)= 0.73555E-02
  rms(prec ) = 0.95578E-02
  weight for this iteration     100.00

 eigenvalues of (default mixing * dielectric matrix)
  average eigenvalue GAMMA=   1.7571
 10.0518  4.0790  2.2952  1.9295  1.9295  1.3197  1.3197  0.8943  0.8323  0.8323
  0.7453  0.7453  0.5891  0.5891  0.4992  0.6458  0.5736

 Free energy of the ion-electron system (eV)
  ---------------------------------------------------
  alpha Z        PSCENC =       128.64496044
  Ewald energy   TEWEN  =    111776.98324861
  -Hartree energ DENC   =   -151488.09682875
  -exchange      EXHF   =         0.00000000
  -V(xc)+E(xc)   XCENC  =      -443.95500207
  PAW double counting   =     44799.38407244   -43052.36885650
  entropy T*S    EENTRO =        -0.00000000
  eigenvalues    EBANDS =     -3288.94923363
  atomic energy  EATOM  =     41487.94520345
  ---------------------------------------------------
  free energy    TOTEN  =       -80.41243602 eV

  energy without entropy =      -80.41243602  energy(sigma->0) =      -80.41243602


--------------------------------------------------------------------------------------------------------




----------------------------------------- Iteration    1(  23)  ---------------------------------------


    POTLOK:  cpu time    0.22: real time    0.22
    SETDIJ:  cpu time    0.01: real time    0.01
     EDDAV:  cpu time    3.10: real time    3.10
       DOS:  cpu time    0.00: real time    0.00
    CHARGE:  cpu time    0.12: real time    0.12
    MIXING:  cpu time    0.01: real time    0.01
    --------------------------------------------
      LOOP:  cpu time    3.46: real time    3.46

 eigenvalue-minimisations  :   880
 total energy-change (2. order) :-0.4578424E-01  (-0.7635720E-04)
 number of electron     440.0000124 magnetization       2.1364463
 augmentation part      210.3273722 magnetization       0.1272585

 Broyden mixing:
  rms(total) = 0.55472E-02    rms(broyden)= 0.55468E-02
  rms(prec ) = 0.74131E-02
  weight for this iteration     100.00

 eigenvalues of (default mixing * dielectric matrix)
  average eigenvalue GAMMA=   1.7419
 10.0423  4.2429  2.3903  2.0254  2.0254  1.3884  1.3884  0.9722  0.9722  0.8738
  0.7521  0.7521  0.6089  0.6089  0.4993  0.6160  0.6160  0.5789

 Free energy of the ion-electron system (eV)
  ---------------------------------------------------
  alpha Z        PSCENC =       128.64496044
  Ewald energy   TEWEN  =    111776.98324861
  -Hartree energ DENC   =   -151484.47518020
  -exchange      EXHF   =         0.00000000
  -V(xc)+E(xc)   XCENC  =      -444.01505193
  PAW double counting   =     44801.98876703   -43054.98659722
  entropy T*S    EENTRO =        -0.00000050
  eigenvalues    EBANDS =     -3292.54356994
  atomic energy  EATOM  =     41487.94520345
  ---------------------------------------------------
  free energy    TOTEN  =       -80.45822026 eV

  energy without entropy =      -80.45821976  energy(sigma->0) =      -80.45822001


--------------------------------------------------------------------------------------------------------




----------------------------------------- Iteration    1(  24)  ---------------------------------------


    POTLOK:  cpu time    0.21: real time    0.21
    SETDIJ:  cpu time    0.01: real time    0.01
     EDDAV:  cpu time    3.00: real time    3.00
       DOS:  cpu time    0.00: real time    0.00
    CHARGE:  cpu time    0.12: real time    0.12
    MIXING:  cpu time    0.01: real time    0.01
    --------------------------------------------
      LOOP:  cpu time    3.34: real time    3.90

 eigenvalue-minimisations  :   836
 total energy-change (2. order) :-0.3718322E-01  (-0.8593766E-04)
 number of electron     440.0000124 magnetization       2.0739425
 augmentation part      210.3284090 magnetization       0.0609137

 Broyden mixing:
  rms(total) = 0.28958E-02    rms(broyden)= 0.28952E-02
  rms(prec ) = 0.44820E-02
  weight for this iteration     100.00

 eigenvalues of (default mixing * dielectric matrix)
  average eigenvalue GAMMA=   1.7753
 10.1107  4.8017  2.3451  2.1789  2.1789  1.5572  1.5572  1.0850  1.0850  0.9523
  0.7697  0.7697  0.7150  0.7150  0.6002  0.6002  0.4994  0.6352  0.5749

 Free energy of the ion-electron system (eV)
  ---------------------------------------------------
  alpha Z        PSCENC =       128.64496044
  Ewald energy   TEWEN  =    111776.98324861
  -Hartree energ DENC   =   -151479.93780174
  -exchange      EXHF   =         0.00000000
  -V(xc)+E(xc)   XCENC  =      -444.07000609
  PAW double counting   =     44805.68213075   -43058.69975929
  entropy T*S    EENTRO =        -0.00000002
  eigenvalues    EBANDS =     -3297.04337959
  atomic energy  EATOM  =     41487.94520345
  ---------------------------------------------------
  free energy    TOTEN  =       -80.49540348 eV

  energy without entropy =      -80.49540346  energy(sigma->0) =      -80.49540347


--------------------------------------------------------------------------------------------------------




----------------------------------------- Iteration    1(  25)  ---------------------------------------


    POTLOK:  cpu time    0.21: real time    0.21
    SETDIJ:  cpu time    0.01: real time    0.01
     EDDAV:  cpu time    3.04: real time    3.04
       DOS:  cpu time    0.00: real time    0.00
    CHARGE:  cpu time    0.12: real time    0.12
    MIXING:  cpu time    0.01: real time    0.01
    --------------------------------------------
      LOOP:  cpu time    3.39: real time    3.43

 eigenvalue-minimisations  :   840
 total energy-change (2. order) :-0.1698643E-01  (-0.8929852E-04)
 number of electron     440.0000125 magnetization       2.0739814
 augmentation part      210.3514807 magnetization       1.9516655

 Broyden mixing:
  rms(total) = 0.13114E+00    rms(broyden)= 0.13100E+00
  rms(prec ) = 0.14363E+00
  weight for this iteration     100.00

 eigenvalues of (default mixing * dielectric matrix)
  average eigenvalue GAMMA=   1.6867
 10.1151  4.7957  2.3471  2.1772  2.1772  1.5587  1.5587  1.0871  1.0871  0.9476
  0.7703  0.7703  0.7161  0.7161  0.6001  0.6001  0.4994  0.6341  0.5747  0.0009

 Free energy of the ion-electron system (eV)
  ---------------------------------------------------
  alpha Z        PSCENC =       128.64496044
  Ewald energy   TEWEN  =    111776.98324861
  -Hartree energ DENC   =   -151475.16049630
  -exchange      EXHF   =         0.00000000
  -V(xc)+E(xc)   XCENC  =      -444.10714188
  PAW double counting   =     44808.23892439   -43061.26059242
  entropy T*S    EENTRO =        -0.00000000
  eigenvalues    EBANDS =     -3301.79649619
  atomic energy  EATOM  =     41487.94520345
  ---------------------------------------------------
  free energy    TOTEN  =       -80.51238991 eV

  energy without entropy =      -80.51238990  energy(sigma->0) =      -80.51238990


--------------------------------------------------------------------------------------------------------




----------------------------------------- Iteration    1(  26)  ---------------------------------------


    POTLOK:  cpu time    0.21: real time    0.21
    SETDIJ:  cpu time    0.01: real time    0.01
     EDDAV:  cpu time    2.92: real time    2.92
       DOS:  cpu time    0.00: real time    0.00
    CHARGE:  cpu time    0.12: real time    0.12
    MIXING:  cpu time    0.01: real time    0.01
    --------------------------------------------
      LOOP:  cpu time    3.27: real time    3.30

 eigenvalue-minimisations  :   800
 total energy-change (2. order) : 0.2978826E-02  (-0.2004668E-04)
 number of electron     440.0000125 magnetization       2.0739955
 augmentation part      210.3517950 magnetization       1.9502871

 Broyden mixing:
  rms(total) = 0.13088E+00    rms(broyden)= 0.13088E+00
  rms(prec ) = 0.14350E+00
  weight for this iteration     100.00

 eigenvalues of (default mixing * dielectric matrix)
  average eigenvalue GAMMA=   1.6064
 10.1144  4.7963  2.3407  2.1795  2.1795  1.5603  1.5603  1.0870  1.0870  0.9458
  0.7704  0.7704  0.7161  0.7161  0.6001  0.6001  0.4994  0.6334  0.5748  0.0016
  0.0016

 Free energy of the ion-electron system (eV)
  ---------------------------------------------------
  alpha Z        PSCENC =       128.64496044
  Ewald energy   TEWEN  =    111776.98324861
  -Hartree energ DENC   =   -151475.16076387
  -exchange      EXHF   =         0.00000000
  -V(xc)+E(xc)   XCENC  =      -444.10545513
  PAW double counting   =     44808.23973052   -43061.26160552
  entropy T*S    EENTRO =        -0.00000035
  eigenvalues    EBANDS =     -3301.79472924
  atomic energy  EATOM  =     41487.94520345
  ---------------------------------------------------
  free energy    TOTEN  =       -80.50941108 eV

  energy without entropy =      -80.50941073  energy(sigma->0) =      -80.50941090


--------------------------------------------------------------------------------------------------------




----------------------------------------- Iteration    1(  27)  ---------------------------------------


    POTLOK:  cpu time    0.21: real time    0.21
    SETDIJ:  cpu time    0.01: real time    0.01
     EDDAV:  cpu time    2.92: real time    2.93
       DOS:  cpu time    0.00: real time    0.00
    CHARGE:  cpu time    0.12: real time    0.12
    MIXING:  cpu time    0.01: real time    0.01
    --------------------------------------------
      LOOP:  cpu time    3.27: real time    3.29

 eigenvalue-minimisations  :   800
 total energy-change (2. order) : 0.1191452E-02  (-0.1803115E-05)
 number of electron     440.0000125 magnetization       2.0741569
 augmentation part      210.3518199 magnetization       1.9501385

 Broyden mixing:
  rms(total) = 0.13085E+00    rms(broyden)= 0.13085E+00
  rms(prec ) = 0.14347E+00
  weight for this iteration     100.00

 eigenvalues of (default mixing * dielectric matrix)
  average eigenvalue GAMMA=   1.5342
 10.1157  4.7971  2.3419  2.1782  2.1782  1.5579  1.5579  1.0859  1.0859  0.9512
  0.7701  0.7701  0.7150  0.7150  0.6001  0.6001  0.4994  0.6341  0.5744  0.0068
  0.0086  0.0086

 Free energy of the ion-electron system (eV)
  ---------------------------------------------------
  alpha Z        PSCENC =       128.64496044
  Ewald energy   TEWEN  =    111776.98324861
  -Hartree energ DENC   =   -151475.16064961
  -exchange      EXHF   =         0.00000000
  -V(xc)+E(xc)   XCENC  =      -444.10472928
  PAW double counting   =     44808.23898800   -43061.26085240
  entropy T*S    EENTRO =        -0.00000042
  eigenvalues    EBANDS =     -3301.79438843
  atomic energy  EATOM  =     41487.94520345
  ---------------------------------------------------
  free energy    TOTEN  =       -80.50821963 eV

  energy without entropy =      -80.50821921  energy(sigma->0) =      -80.50821942


--------------------------------------------------------------------------------------------------------




----------------------------------------- Iteration    1(  28)  ---------------------------------------


    POTLOK:  cpu time    0.21: real time    0.21
    SETDIJ:  cpu time    0.00: real time    0.01
     EDDAV:  cpu time    2.70: real time    2.71
       DOS:  cpu time    0.00: real time    0.00
    CHARGE:  cpu time    0.12: real time    0.12
    MIXING:  cpu time    0.01: real time    0.01
    --------------------------------------------
      LOOP:  cpu time    3.06: real time    3.14

 eigenvalue-minimisations  :   712
 total energy-change (2. order) : 0.2678105E-03  (-0.2131922E-06)
 number of electron     440.0000125 magnetization       2.0739342
 augmentation part      210.3518387 magnetization       1.9494701

 Broyden mixing:
  rms(total) = 0.13082E+00    rms(broyden)= 0.13082E+00
  rms(prec ) = 0.14343E+00
  weight for this iteration     100.00

 eigenvalues of (default mixing * dielectric matrix)
  average eigenvalue GAMMA=   1.4735
 10.1188  4.8060  2.3454  2.1826  2.1826  1.5489  1.5489  1.0886  1.0886  0.9471
  0.7707  0.7707  0.7192  0.7192  0.6000  0.6000  0.4994  0.6311  0.5752  0.0430
  0.0430  0.0221  0.0408

 Free energy of the ion-electron system (eV)
  ---------------------------------------------------
  alpha Z        PSCENC =       128.64496044
  Ewald energy   TEWEN  =    111776.98324861
  -Hartree energ DENC   =   -151475.17291297
  -exchange      EXHF   =         0.00000000
  -V(xc)+E(xc)   XCENC  =      -444.10446734
  PAW double counting   =     44808.26322643   -43061.28513780
  entropy T*S    EENTRO =        -0.00000053
  eigenvalues    EBANDS =     -3301.78207212
  atomic energy  EATOM  =     41487.94520345
  ---------------------------------------------------
  free energy    TOTEN  =       -80.50795182 eV

  energy without entropy =      -80.50795129  energy(sigma->0) =      -80.50795155


--------------------------------------------------------------------------------------------------------




----------------------------------------- Iteration    1(  29)  ---------------------------------------


    POTLOK:  cpu time    0.22: real time    0.22
    SETDIJ:  cpu time    0.01: real time    0.01
     EDDAV:  cpu time    2.68: real time    2.68
       DOS:  cpu time    0.00: real time    0.00
    --------------------------------------------
      LOOP:  cpu time    2.90: real time    2.94

 eigenvalue-minimisations  :   696
 total energy-change (2. order) : 0.4221076E-04  (-0.5268654E-07)
 number of electron     440.0000125 magnetization       2.0739342
 augmentation part      210.3518387 magnetization       1.9494701

 Free energy of the ion-electron system (eV)
  ---------------------------------------------------
  alpha Z        PSCENC =       128.64496044
  Ewald energy   TEWEN  =    111776.98324861
  -Hartree energ DENC   =   -151475.14469599
  -exchange      EXHF   =         0.00000000
  -V(xc)+E(xc)   XCENC  =      -444.10470514
  PAW double counting   =     44808.20325224   -43061.22507643
  entropy T*S    EENTRO =        -0.00000040
  eigenvalues    EBANDS =     -3301.81009639
  atomic energy  EATOM  =     41487.94520345
  ---------------------------------------------------
  free energy    TOTEN  =       -80.50790961 eV

  energy without entropy =      -80.50790921  energy(sigma->0) =      -80.50790941


--------------------------------------------------------------------------------------------------------




 average (electrostatic) potential at core
  the test charge radii are     1.1249
  (the norm of the test charge is              1.0000)
       1 -82.3817       2 -82.2939       3 -82.2321       4 -82.3476       5 -82.3625
       6 -82.3347       7 -82.3034       8 -82.3615       9 -82.6220      10 -82.4112
      11 -82.5041      12 -82.4652      13 -82.3061      14 -82.3198      15 -82.6092
      16 -82.3690      17 -82.3001      18 -82.8112      19 -82.3481      20 -82.4701
      21 -82.4997      22 -82.3160      23 -82.5102      24 -82.7992      25 -82.4120
      26 -82.3354      27 -82.3616      28 -82.4133      29 -82.3238      30 -82.2871
      31 -82.4993      32 -82.3143      33 -82.2707      34 -82.3312      35 -82.2744
      36 -82.3377      37 -82.2825      38 -82.3406      39 -82.3634      40 -82.2821
 
 
 
 E-fermi :  -3.1326     XC(G=0):  -1.1672     alpha+bet : -0.8679


 spin component 1

 k-point     1 :       0.0000    0.0000    0.0000
  band No.  band energies     occupation 
      1     -10.3134      1.00000
      2      -9.8311      1.00000
      3      -9.7967      1.00000
      4      -9.7385      1.00000
      5      -9.5693      1.00000
      6      -9.5561      1.00000
      7      -9.5501      1.00000
      8      -9.5206      1.00000
      9      -9.5098      1.00000
     10      -9.4560      1.00000
[...]
  0.026  -0.017   0.010  -0.000   0.016   0.025  -0.017   0.009
 -0.000  -0.018  -0.020   0.027   0.000  -0.000  -0.018  -0.019
 -0.019  -0.000  -0.015  -0.017   0.027  -0.018  -0.000  -0.015
 pseudopotential strength for first ion, spin component:           2
-10.255   0.006   0.002  -0.004   0.001 -10.232   0.006   0.002
  0.006 -10.258   0.000   0.000  -0.001   0.006 -10.235  -0.000
  0.002   0.000 -10.257   0.003  -0.002   0.002  -0.000 -10.233
 -0.004   0.000   0.003 -10.252   0.006  -0.004   0.000   0.003
  0.001  -0.001  -0.002   0.006 -10.252   0.001  -0.001  -0.002
-10.232   0.006   0.002  -0.004   0.001 -10.184   0.006   0.001
  0.006 -10.235  -0.000   0.000  -0.001   0.006 -10.187  -0.000
  0.002  -0.000 -10.233   0.003  -0.002   0.001  -0.000 -10.186
 -0.004   0.000   0.003 -10.229   0.005  -0.004   0.000   0.003
  0.001  -0.001  -0.002   0.005 -10.229   0.001  -0.001  -0.002
  0.002  -0.001   0.000  -0.002  -0.002   0.002  -0.001   0.000
  0.004  -0.001   0.000  -0.003  -0.003   0.003  -0.001   0.000
  0.022  -0.014   0.008  -0.000   0.013   0.021  -0.014   0.007
 -0.000  -0.015  -0.016   0.022   0.000  -0.000  -0.014  -0.016
 -0.015  -0.000  -0.012  -0.014   0.022  -0.014  -0.000  -0.012
  0.026  -0.017   0.010  -0.000   0.016   0.025  -0.017   0.009
 -0.000  -0.018  -0.020   0.027   0.000  -0.000  -0.018  -0.019
 -0.019  -0.000  -0.015  -0.017   0.027  -0.018  -0.000  -0.015
 total augmentation occupancy for first ion, spin component:           1
  2.758  -0.074   0.095  -0.137   0.078  -0.796   0.088  -0.044   0.107  -0.057  -0.133  -0.006   0.119  -0.052  -0.005   0.005
 -0.074   2.627   0.075  -0.018  -0.089   0.088  -0.666  -0.056  -0.002   0.043   0.090   0.009  -0.054  -0.047  -0.029  -0.005
  0.095   0.075   2.801  -0.124   0.020  -0.044  -0.056  -0.803   0.119  -0.033   0.075  -0.024   0.058  -0.124  -0.077   0.001
 -0.137  -0.018  -0.124   2.671  -0.064   0.107  -0.001   0.119  -0.648   0.071   0.167  -0.061  -0.049   0.109  -0.036   0.002
  0.078  -0.089   0.020  -0.064   3.076  -0.057   0.043  -0.033   0.071  -1.061   0.121  -0.009   0.188   0.007   0.160  -0.001
 -0.796   0.088  -0.044   0.107  -0.057   0.799  -0.101   0.003  -0.082   0.040   0.145  -0.007  -0.136   0.043   0.015   0.008
  0.088  -0.666  -0.056  -0.001   0.043  -0.101   0.668   0.040   0.018  -0.003  -0.095   0.001   0.065   0.058   0.025  -0.004
 -0.044  -0.056  -0.803   0.119  -0.033   0.003   0.040   0.774  -0.117   0.045  -0.090   0.031  -0.067   0.143   0.088   0.004
  0.107  -0.002   0.119  -0.648   0.071  -0.082   0.018  -0.117   0.597  -0.078  -0.142   0.046   0.041  -0.127   0.049  -0.002
 -0.057   0.043  -0.033   0.071  -1.061   0.040  -0.003   0.045  -0.078   1.022  -0.120   0.011  -0.196  -0.005  -0.174   0.010
 -0.133   0.090   0.075   0.167   0.121   0.145  -0.095  -0.090  -0.142  -0.120   1.894  -0.266   0.110   0.121  -0.182  -0.011
 -0.006   0.009  -0.024  -0.061  -0.009  -0.007   0.001   0.031   0.046   0.011  -0.266   0.057  -0.023  -0.025   0.040   0.002
  0.119  -0.054   0.058  -0.049   0.188  -0.136   0.065  -0.067   0.041  -0.196   0.110  -0.023   0.110  -0.013   0.028  -0.006
 -0.052  -0.047  -0.124   0.109   0.007   0.043   0.058   0.143  -0.127  -0.005   0.121  -0.025  -0.013   0.080   0.001   0.000
 -0.005  -0.029  -0.077  -0.036   0.160   0.015   0.025   0.088   0.049  -0.174  -0.182   0.040   0.028   0.001   0.088  -0.001
  0.005  -0.005   0.001   0.002  -0.001   0.008  -0.004   0.004  -0.002   0.010  -0.011   0.002  -0.006   0.000  -0.001   0.001
  0.002  -0.005  -0.004   0.005  -0.000  -0.002  -0.004  -0.008   0.008   0.000  -0.011   0.002   0.000  -0.005   0.001   0.000
 -0.007   0.001  -0.002  -0.005   0.004  -0.001  -0.002  -0.005  -0.004   0.009   0.017  -0.003  -0.000   0.001  -0.006  -0.000
 total augmentation occupancy for first ion, spin component:           2
  0.000   0.000   0.000   0.000   0.000  -0.000   0.000  -0.000  -0.000  -0.000  -0.000   0.000   0.000  -0.000  -0.000  -0.000
  0.000  -0.000  -0.000   0.000  -0.000   0.000   0.000   0.000   0.000   0.000   0.000  -0.000   0.000  -0.000   0.000  -0.000
  0.000  -0.000   0.000   0.000   0.000  -0.000   0.000  -0.000  -0.000  -0.000   0.000  -0.000  -0.000  -0.000   0.000   0.000
  0.000   0.000   0.000   0.000  -0.000  -0.000   0.000  -0.000  -0.000   0.000   0.000  -0.000  -0.000   0.000  -0.000  -0.000
  0.000  -0.000   0.000  -0.000  -0.000  -0.000   0.000  -0.000   0.000   0.000  -0.000   0.000  -0.000  -0.000  -0.000   0.000
 -0.000   0.000  -0.000  -0.000  -0.000   0.000  -0.000   0.000   0.000  -0.000   0.000  -0.000   0.000   0.000   0.000  -0.000
  0.000   0.000   0.000   0.000   0.000  -0.000  -0.000  -0.000  -0.000  -0.000  -0.000   0.000   0.000   0.000  -0.000  -0.000
 -0.000   0.000  -0.000  -0.000  -0.000   0.000  -0.000  -0.000   0.000   0.000  -0.000   0.000  -0.000   0.000  -0.000  -0.000
 -0.000   0.000  -0.000  -0.000   0.000   0.000  -0.000   0.000  -0.000  -0.000  -0.000   0.000   0.000   0.000   0.000  -0.000
 -0.000   0.000  -0.000   0.000   0.000  -0.000  -0.000   0.000  -0.000  -0.000   0.000  -0.000   0.000   0.000   0.000  -0.000
 -0.000   0.000   0.000   0.000  -0.000   0.000  -0.000  -0.000  -0.000   0.000   0.000   0.000  -0.000   0.000   0.000   0.000
  0.000  -0.000  -0.000  -0.000   0.000  -0.000   0.000   0.000   0.000  -0.000   0.000  -0.000   0.000  -0.000   0.000   0.000
  0.000   0.000  -0.000  -0.000  -0.000   0.000   0.000  -0.000   0.000   0.000  -0.000   0.000  -0.000  -0.000   0.000   0.000
 -0.000  -0.000  -0.000   0.000  -0.000   0.000   0.000   0.000   0.000   0.000   0.000  -0.000  -0.000  -0.000  -0.000  -0.000
 -0.000   0.000   0.000  -0.000  -0.000   0.000  -0.000  -0.000   0.000   0.000   0.000   0.000   0.000  -0.000   0.000  -0.000
 -0.000  -0.000   0.000  -0.000   0.000  -0.000  -0.000  -0.000  -0.000  -0.000   0.000   0.000   0.000  -0.000  -0.000   0.000
  0.000   0.000   0.000  -0.000  -0.000  -0.000  -0.000  -0.000   0.000   0.000  -0.000   0.000   0.000   0.000  -0.000   0.000
  0.000  -0.000  -0.000  -0.000   0.000   0.000   0.000   0.000  -0.000  -0.000  -0.000   0.000  -0.000   0.000  -0.000   0.000


------------------------ aborting loop because EDIFF is reached ----------------------------------------


    CHARGE:  cpu time    0.12: real time    0.12
    FORLOC:  cpu time    0.02: real time    0.01
    FORNL :  cpu time    2.61: real time    2.62
    STRESS:  cpu time    3.03: real time    3.03
    FORCOR:  cpu time    0.21: real time    0.21
    FORHAR:  cpu time    0.04: real time    0.04
    MIXING:  cpu time    0.01: real time    0.00
    OFIELD:  cpu time    0.00: real time    0.00

  FORCE on cell =-STRESS in cart. coord.  units (eV):
  Direction    XX          YY          ZZ          XY          YZ          ZX
  --------------------------------------------------------------------------------------
  Alpha Z   128.64496   128.64496   128.64496
  Ewald   26391.51546 41134.93017 33952.77346  6021.89849  -359.10036 -7084.46813
  Hartree 40011.09320 54060.66796 47259.08933  5553.62359  -354.22038 -6568.03259
  E(xc)   -2319.97821 -2319.18336 -2319.83491     0.93260    -0.00438    -0.88360
  Local  -72957.11492************-87773.37175-11571.74033   713.95770 13650.97325
  n-local  -419.58127  -415.53080  -416.51381     1.11324     0.09427    -2.05395
  augment  3675.37423  3675.28000  3676.29604    -1.87226    -0.34187     1.54584
  Kinetic  5474.86626  5475.56758  5477.75723    -3.97064    -0.46563     2.87893
  Fock        0.00000     0.00000     0.00000     0.00000     0.00000     0.00000
  -------------------------------------------------------------------------------------
  Total     -15.18031   -15.37898   -15.15946    -0.01533    -0.08065    -0.04024
  in kB      -2.29906    -2.32915    -2.29590    -0.00232    -0.01221    -0.00609
  external pressure =       -2.31 kB  Pullay stress =        0.00 kB


 VOLUME and BASIS-vectors are now :
 -----------------------------------------------------------------------------
  energy-cutoff  :      249.84
  volume of cell :    10578.92
      direct lattice vectors                 reciprocal lattice vectors
    21.952321876  0.000000000  0.000000000     0.045553268  0.000000000  0.000000000
     0.000000000 21.952321876  0.000000000     0.000000000  0.045553268  0.000000000
     0.000000000  0.000000000 21.952321876     0.000000000  0.000000000  0.045553268

  length of vectors
    21.952321876 21.952321876 21.952321876     0.045553268  0.045553268  0.045553268


 FORCES acting on ions
    electron-ion (+dipol)            ewald-force                    non-local-force                 convergence-correction
 -----------------------------------------------------------------------------------------------
   -.126E+04 0.602E+03 0.985E+03   0.125E+04 -.600E+03 -.982E+03   0.358E+01 -.229E+01 -.255E+01   -.472E-02 0.369E-02 -.795E-02
   -.197E+03 0.561E+02 0.166E+04   0.196E+03 -.560E+02 -.165E+04   0.414E+00 -.112E+00 -.473E+01   -.870E-02 0.417E-02 0.840E-02
   -.394E+03 0.101E+04 0.124E+04   0.393E+03 -.101E+04 -.124E+04   0.731E+00 -.185E+01 -.228E+01   -.338E-02 0.799E-02 0.137E-01
   -.117E+04 -.396E+03 0.111E+04   0.117E+04 0.395E+03 -.111E+04   0.253E+01 0.493E+00 -.307E+01   -.172E-02 -.263E-02 -.157E-01
   -.119E+04 0.932E+03 0.189E+03   0.119E+04 -.931E+03 -.190E+03   0.116E+01 -.111E+01 0.561E+00   0.615E-03 0.451E-02 -.391E-02
   -.158E+04 -.157E+02 0.849E+02   0.158E+04 0.152E+02 -.849E+02   0.186E+01 0.461E+00 -.390E-01   0.181E-01 -.290E-03 -.180E-01
   -.451E+03 0.156E+04 0.348E+03   0.450E+03 -.156E+04 -.347E+03   0.142E+01 -.441E+01 -.859E+00   0.735E-02 0.407E-02 0.127E-01
   0.729E+03 0.297E+03 0.131E+04   -.728E+03 -.298E+03 -.131E+04   -.935E+00 0.424E+00 -.145E+01   0.198E-02 0.388E-03 0.844E-02
   -.378E+03 -.684E+01 0.672E+03   0.377E+03 0.754E+01 -.671E+03   0.838E+00 -.711E+00 -.121E+01   0.378E-02 0.109E-01 0.552E-02
   0.588E+03 0.112E+04 0.113E+04   -.587E+03 -.112E+04 -.113E+04   -.159E+01 -.279E+01 -.370E+01   0.639E-02 -.129E-02 -.800E-02
   -.145E+04 0.407E+03 -.795E+03   0.144E+04 -.406E+03 0.793E+03   0.432E+01 -.600E+00 0.243E+01   0.590E-02 -.147E-01 -.108E-01
   -.954E+03 0.123E+04 -.600E+03   0.952E+03 -.123E+04 0.600E+03   0.225E+01 -.305E+01 0.772E+00   -.904E-02 -.209E-02 -.313E-03
   -.127E+04 -.943E+03 0.425E+03   0.127E+04 0.941E+03 -.425E+03   0.326E+01 0.151E+01 0.231E+00   -.106E-01 -.187E-03 -.150E-01
   -.206E+03 -.942E+03 0.123E+04   0.206E+03 0.942E+03 -.123E+04   -.516E+00 0.523E+00 -.137E+01   0.750E-03 0.116E-01 0.481E-02
   0.101E+03 0.721E+03 0.224E+03   -.100E+03 -.719E+03 -.223E+03   -.109E+00 -.117E+01 -.112E+01   -.513E-02 -.486E-02 0.115E-01
   0.766E+03 0.144E+04 0.203E+03   -.764E+03 -.143E+04 -.202E+03   -.131E+01 -.372E+01 -.901E+00   0.193E-01 0.602E-02 -.180E-02
   0.126E+02 0.141E+04 -.633E+03   -.135E+02 -.141E+04 0.633E+03   0.851E+00 -.118E+01 0.499E+00   -.800E-02 -.524E-02 0.258E-01
   -.458E+03 0.481E+02 -.456E+03   0.457E+03 -.479E+02 0.455E+03   0.142E+01 -.212E+00 0.559E+00   -.138E-01 -.170E-02 0.857E-04
   -.133E+04 -.480E+03 -.718E+03   0.132E+04 0.479E+03 0.717E+03   0.257E+01 0.123E+01 0.116E+01   0.583E-02 -.249E-01 -.563E-02
   0.696E+03 -.580E+03 0.140E+04   -.695E+03 0.579E+03 -.139E+04   -.134E+01 0.757E+00 -.341E+01   0.439E-02 0.477E-02 -.383E-03
   0.145E+04 -.410E+03 0.789E+03   -.145E+04 0.408E+03 -.787E+03   -.458E+01 0.112E+01 -.173E+01   0.531E-03 -.645E-02 -.104E-01
   -.947E+02 -.155E+04 0.569E+03   0.957E+02 0.155E+04 -.568E+03   -.101E+01 0.476E+01 -.180E+01   -.849E-02 0.647E-02 0.186E-01
   -.280E+03 -.719E+03 0.104E+01   0.279E+03 0.717E+03 -.209E+01   0.891E+00 0.178E+01 0.104E+01   -.140E-02 0.632E-02 0.166E-01
   0.562E+03 -.304E+03 0.157E+03   -.561E+03 0.304E+03 -.157E+03   -.142E+01 0.698E-01 -.643E+00   0.118E-01 -.583E-03 0.111E-01
   -.583E+03 0.637E+03 -.131E+04   0.582E+03 -.636E+03 0.131E+04   0.957E+00 -.130E+01 0.192E+01   -.438E-02 0.125E-03 0.167E-02
   -.620E+03 -.236E+03 -.138E+04   0.618E+03 0.236E+03 0.138E+04   0.180E+01 -.464E+00 0.148E+01   -.423E-02 -.795E-02 0.528E-02
   -.873E+03 -.133E+04 -.351E+03   0.870E+03 0.133E+04 0.350E+03   0.278E+01 0.336E+01 0.103E+01   0.143E-01 -.128E-01 0.403E-03
   0.808E+03 -.120E+04 0.623E+03   -.807E+03 0.120E+04 -.622E+03   -.123E+01 0.191E+01 -.125E+01   0.378E-02 -.281E-02 0.852E-03
   0.138E+04 0.544E+03 0.560E+03   -.138E+04 -.544E+03 -.559E+03   -.182E+01 -.698E+00 -.264E+00   -.469E-02 -.157E-01 -.190E-02
   0.125E+04 0.987E+03 -.380E+03   -.124E+04 -.986E+03 0.380E+03   -.343E+01 -.950E+00 0.338E+00   0.574E-02 -.107E-01 0.374E-02
   0.466E+03 0.256E+03 -.563E+03   -.465E+03 -.256E+03 0.561E+03   -.169E+01 0.322E+00 0.147E+01   -.495E-02 0.777E-02 0.386E-02
   0.341E+03 0.937E+03 -.135E+04   -.341E+03 -.935E+03 0.135E+04   0.144E+00 -.255E+01 0.451E+01   -.107E-01 0.218E-01 0.161E-01
   -.515E+03 -.103E+04 -.113E+04   0.513E+03 0.102E+04 0.113E+04   0.241E+01 0.271E+01 0.325E+01   0.115E-01 -.145E-01 -.760E-02
   0.358E+03 -.915E+03 -.113E+04   -.358E+03 0.914E+03 0.113E+04   -.225E+00 0.670E+00 0.812E+00   0.478E-03 -.333E-02 -.139E-01
   0.384E+03 -.146E+04 -.379E+03   -.383E+03 0.146E+04 0.379E+03   -.538E+00 0.300E+01 -.118E+00   0.313E-02 0.107E-01 0.693E-02
   0.111E+04 -.104E+04 -.190E+03   -.111E+04 0.104E+04 0.191E+03   -.196E+01 0.900E+00 -.877E+00   -.303E-02 0.114E-01 -.690E-02
   0.231E+03 -.892E+02 -.154E+04   -.231E+03 0.899E+02 0.154E+04   -.393E+00 -.671E+00 0.291E+01   -.123E-01 0.576E-02 0.801E-02
   0.157E+04 -.163E+03 -.667E+02   -.156E+04 0.163E+03 0.664E+02   -.313E+01 0.412E-01 0.348E+00   0.279E-02 0.229E-02 -.154E-01
   0.129E+04 0.268E+03 -.992E+03   -.128E+04 -.267E+03 0.989E+03   -.379E+01 -.729E+00 0.228E+01   -.173E-01 0.493E-02 -.151E-01
   0.116E+04 -.645E+03 -.931E+03   -.115E+04 0.644E+03 0.929E+03   -.411E+01 0.160E+01 0.207E+01   0.146E-02 0.214E-02 -.129E-01
 -----------------------------------------------------------------------------------------------
   -.105E+01 0.296E+01 0.365E+01   0.909E-12 -.102E-11 0.000E+00   0.106E+01 -.293E+01 -.371E+01   -.665E-02 0.503E-02 0.126E-01
 
 
 POSITION                                       TOTAL-FORCE (eV/Angst)
 -----------------------------------------------------------------------------------
     14.53540      9.88015      7.91526        -0.002647      0.000235     -0.004336
     12.17711     11.19057      6.49745        -0.002693      0.002572      0.005847
     12.13285      8.54806      7.95605         0.000822      0.003112      0.005550
     14.64051     12.54754      7.57455        -0.001104      0.002635     -0.009436
     13.70303      8.82893     10.37840         0.000461      0.001353      0.000585
     14.84766     11.51253     10.34168         0.007711      0.000329     -0.006917
     11.84119      6.53675     10.19734         0.003147      0.004766      0.008898
      9.77976     10.22849      7.98280         0.000687      0.002541      0.005190
     12.32047     11.18437      9.17258         0.002393      0.002968      0.001254
      9.64594      7.44137      8.35134         0.003862      0.000221     -0.002372
     14.53316     10.02257     12.94812        -0.004938     -0.005464     -0.009344
     13.32192      7.39273     12.69242        -0.005269      0.000316     -0.002112
     14.52899     14.38407      9.58701        -0.001634      0.000508     -0.011684
     12.22432     13.84279      7.85440        -0.002876      0.008192      0.003341
     10.77168      8.98387     10.48095        -0.000426     -0.004940      0.001683
      8.86598      6.42408     10.71729         0.010543      0.000669      0.001279
     10.56000      7.12803     12.77932         0.000664     -0.000563      0.017386
     12.19694     10.95370     12.01585         0.016534     -0.007146      0.009241
     14.23372     12.95921     12.66784         0.002942     -0.012862     -0.000190
      9.74971     12.84134      7.12190         0.002649      0.000779      0.001150
      7.79466     12.09310      9.12300         0.008715     -0.004729      0.000700
     12.12270     16.02653      9.58563        -0.004552      0.001187      0.006130
     12.18700     13.48978     10.78516        -0.000444      0.003698      0.004682
      9.93519     11.70054     10.68229        -0.016225      0.006487     -0.007526
     11.99566      9.26791     14.30621        -0.002602     -0.006487      0.000182
     12.37464     12.05076     14.64603        -0.001357      0.001026      0.001455
     13.65566     15.71352     11.87467         0.008376     -0.006952     -0.000815
      9.78189     14.30132      9.52284         0.002657     -0.000898     -0.003056
      8.01651      9.20459     10.06701        -0.004133     -0.003491     -0.001007
      7.75357      7.88799     12.72469         0.002446     -0.006902      0.003010
      9.64240      9.93261     12.87122        -0.005592     -0.000722      0.007694
      9.41891      8.20801     15.08687        -0.005587      0.010941      0.006278
     12.63097     14.78428     14.21726         0.002271     -0.013589     -0.003548
     10.11486     13.81511     14.42626         0.003185     -0.002162     -0.004970
     10.77453     15.47692     12.17349         0.002832      0.004938      0.003545
      8.54817     13.80509     12.01786        -0.004142      0.001602     -0.003120
      9.85315     11.11859     15.40001        -0.007114      0.005319      0.001700
      7.31971     11.21372     11.91073         0.000256      0.003963     -0.008011
      7.32188      9.94782     14.55163        -0.008129      0.005012     -0.009259
      7.67976     12.64160     14.38520        -0.001691      0.001538     -0.009077
 -----------------------------------------------------------------------------------
    total drift:                                0.006647      0.032998     -0.042403


--------------------------------------------------------------------------------------------------------



  FREE ENERGIE OF THE ION-ELECTRON SYSTEM (eV)
  ---------------------------------------------------
  free  energy   TOTEN  =       -85.40796755 eV

  energy  without entropy=      -85.40796755  energy(sigma->0) =      -85.40796755
 
 d Force = 0.5841342E-04[ 0.748E-04, 0.420E-04]  d Energy = 0.5802928E-04 0.384E-06
 d Force = 0.6046991E-01[ 0.608E-01, 0.601E-01]  d Ewald  = 0.6046992E-01-0.259E-08


--------------------------------------------------------------------------------------------------------


    POTLOK:  cpu time    0.22: real time    0.23


--------------------------------------------------------------------------------------------------------




--------------------------------------------------------------------------------------------------------


  
 reached required accuracy - stopping structural energy minimisation
     LOOP+:  cpu time   13.29: real time   15.55
    4ORBIT:  cpu time    0.00: real time    0.00

 total amount of memory used by VASP on root node    54473. kBytes
========================================================================

   base      :      30000. kBytes
   nonl-proj :       2326. kBytes
   fftplans  :       4331. kBytes
   grid      :      10964. kBytes
   one-center:         46. kBytes
   wavefun   :       6806. kBytes
 
  
  
 General timing and accounting informations for this job:
 ========================================================
  
                  Total CPU time used (sec):     2055.737
                            User time (sec):     2042.132
                          System time (sec):       13.605
                         Elapsed time (sec):     2217.939
  
                   Maximum memory used (kb):       66972.
                   Average memory used (kb):           0.
  
                          Minor page faults:      1063062
                          Major page faults:            0
                 Voluntary context switches:        65600
