unknown system                          
           1
    21.952322    0.000000    0.000000
     0.000000   21.952322    0.000000
     0.000000    0.000000   21.952322
   Ag
  40
Direct configuration=     1
   0.65514969  0.46025310  0.35858290
   0.55681677  0.51363844  0.30220820
   0.55034241  0.39827686  0.37201079
   0.65389280  0.57283688  0.35451969
   0.63190687  0.40318950  0.46613421
   0.68180106  0.51914055  0.46899281
   0.53538484  0.30314646  0.46644662
   0.44254765  0.45992466  0.35942656
   0.56165462  0.51700217  0.41835811
   0.44396657  0.34181381  0.39008295
   0.66001514  0.45814745  0.59067368
   0.59489954  0.35578061  0.56548925
   0.64988613  0.63669530  0.45537458
   0.55051784  0.63357917  0.36390721
   0.48911265  0.40777440  0.48563615
   0.41349310  0.30773172  0.49315345
   0.48371472  0.32959779  0.58825187
   0.57106403  0.48805462  0.54228862
   0.65680133  0.59339043  0.57496830
   0.45279956  0.57397165  0.34403480
   0.35661751  0.55086338  0.41867217
   0.55061830  0.71789227  0.45009665
   0.53897321  0.60841701  0.51700378
   0.44523387  0.52585716  0.47068639
   0.54427094  0.42309945  0.65392709
   0.57559581  0.54142586  0.65500293
   0.61480764  0.70784909  0.54468454
   0.44607163  0.65310835  0.43706104
   0.36282444  0.41805210  0.45021790
   0.36237634  0.38390622  0.56885222
   0.44649463  0.48122926  0.59069457
   0.42839286  0.38848729  0.67841809
   0.56938841  0.66197892  0.63494048
   0.47068046  0.60053697  0.62308806
   0.48834131  0.71088661  0.55372296
   0.38403201  0.61384222  0.53488281
   0.44777467  0.50404047  0.70869948
   0.32587357  0.50299137  0.54213520
   0.34016159  0.45909315  0.65936772
   0.36114949  0.56697673  0.64541216
Direct configuration=     2
   0.65550894  0.45948688  0.35839458
   0.55660489  0.51352754  0.30165391
   0.55044521  0.39805006  0.37172162
   0.65439914  0.57349682  0.35415207
   0.63208481  0.40312356  0.46586376
   0.68197474  0.51908928  0.46919437
   0.53580909  0.30269879  0.46632836
   0.44249408  0.45964626  0.35927985
   0.56144608  0.51709742  0.41896628
   0.44393629  0.34165633  0.38922557
   0.66149280  0.45786783  0.59142128
   0.59523304  0.35548724  0.56569827
   0.64999531  0.63684729  0.45519305
   0.55080392  0.63389403  0.36383424
   0.48904204  0.40837493  0.48587113
   0.41299661  0.30705178  0.49350362
   0.48341239  0.32936832  0.58845349
   0.56960123  0.48855662  0.54146387
   0.65702461  0.59316292  0.57491105
   0.45251255  0.57417656  0.34366485
   0.35512822  0.55117920  0.41802198
   0.55054324  0.71831393  0.44949910
   0.53902395  0.60804549  0.51677421
   0.44666029  0.52542434  0.47155137
   0.54437319  0.42306419  0.65410758
   0.57557840  0.54136655  0.65531265
   0.61557202  0.70860501  0.54461817
   0.44592743  0.65325630  0.43701268
   0.36263733  0.41822217  0.45014688
   0.36228020  0.38369812  0.56892088
   0.44662962  0.48109519  0.59028925
   0.42856673  0.38784098  0.67874197
   0.56934674  0.66202723  0.63589467
   0.47064498  0.60070092  0.62326880
   0.48784903  0.71110444  0.55395560
   0.38395059  0.61413682  0.53486567
   0.44807361  0.50433155  0.70911744
   0.32575716  0.50293588  0.54185716
   0.33928650  0.45859839  0.65976596
   0.36079902  0.56787229  0.64558979
Direct configuration=     3
   0.65612536  0.45817215  0.35807145
   0.55624133  0.51333726  0.30070282
   0.55062161  0.39766090  0.37122543
   0.65526795  0.57462918  0.35352129
   0.63239015  0.40301041  0.46539969
   0.68227274  0.51900131  0.46954023
   0.53653705  0.30193065  0.46612544
   0.44240216  0.45916855  0.35902811
   0.56108825  0.51726084  0.42000981
   0.44388433  0.34138612  0.38775441
   0.66402828  0.45738803  0.59270407
   0.59580528  0.35498387  0.56605694
   0.65018263  0.63710808  0.45488157
   0.55129479  0.63443429  0.36370903
   0.48892087  0.40940536  0.48627434
   0.41214470  0.30588510  0.49410446
   0.48289363  0.32897457  0.58879943
   0.56709125  0.48941798  0.54004871
   0.65740772  0.59277253  0.57481281
   0.45202010  0.57452817  0.34303006
   0.35257278  0.55172112  0.41690633
   0.55041445  0.71903745  0.44847376
   0.53911100  0.60740802  0.51638028
   0.44910784  0.52468168  0.47303555
   0.54454865  0.42300368  0.65441727
   0.57554854  0.54126478  0.65584409
   0.61688359  0.70990209  0.54450429
   0.44568000  0.65351015  0.43692970
   0.36231628  0.41851399  0.45002503
   0.36211524  0.38334104  0.56903868
   0.44686124  0.48086515  0.58959377
   0.42886508  0.38673198  0.67929770
   0.56927524  0.66211012  0.63753194
   0.47058409  0.60098223  0.62357893
   0.48700433  0.71147822  0.55435479
   0.38381087  0.61464231  0.53483627
   0.44858656  0.50483102  0.70983460
   0.32555742  0.50284067  0.54138009
   0.33778494  0.45774944  0.66044928
   0.36019765  0.56940895  0.64589458
Direct configuration=     4
   0.65735821  0.45554269  0.35742519
   0.55551420  0.51295670  0.29880063
   0.55097441  0.39688257  0.37023306
   0.65700557  0.57689390  0.35225972
   0.63300081  0.40278413  0.46447156
   0.68286876  0.51882535  0.47023195
   0.53799297  0.30039436  0.46571959
   0.44221832  0.45821314  0.35852463
   0.56037260  0.51758770  0.42209687
   0.44378042  0.34084570  0.38481208
   0.66909923  0.45642844  0.59526964
   0.59694976  0.35397712  0.56677426
   0.65055728  0.63762968  0.45425861
   0.55227652  0.63551480  0.36345861
   0.48867855  0.41146624  0.48708076
   0.41044089  0.30355173  0.49530615
   0.48185611  0.32818707  0.58949132
   0.56207129  0.49114070  0.53721838
   0.65817393  0.59199175  0.57461632
   0.45103518  0.57523138  0.34176047
   0.34746191  0.55280497  0.41467504
   0.55015688  0.72048448  0.44642310
   0.53928511  0.60613307  0.51559243
   0.45400295  0.52319636  0.47600393
   0.54489956  0.42288266  0.65503664
   0.57548882  0.54106125  0.65690697
   0.61950674  0.71249625  0.54427653
   0.44518513  0.65401786  0.43676374
   0.36167417  0.41909762  0.44978133
   0.36178531  0.38262687  0.56927429
   0.44732449  0.48040507  0.58820281
   0.42946178  0.38451399  0.68040916
   0.56913224  0.66227591  0.64080647
   0.47046231  0.60154485  0.62419919
   0.48531495  0.71222578  0.55515316
   0.38353144  0.61565330  0.53477746
   0.44961246  0.50582995  0.71126894
   0.32515794  0.50265025  0.54042595
   0.33478183  0.45605153  0.66181593
   0.35899492  0.57248228  0.64650415
Direct configuration=     5
   0.65724579  0.45578248  0.35748412
   0.55558051  0.51299140  0.29897410
   0.55094224  0.39695355  0.37032355
   0.65684712  0.57668737  0.35237477
   0.63294512  0.40280476  0.46455619
   0.68281441  0.51884140  0.47016887
   0.53786020  0.30053446  0.46575660
   0.44223508  0.45830026  0.35857055
   0.56043786  0.51755789  0.42190654
   0.44378990  0.34089498  0.38508040
   0.66863680  0.45651595  0.59503568
   0.59684539  0.35406893  0.56670885
   0.65052312  0.63758211  0.45431542
   0.55218700  0.63541627  0.36348144
   0.48870064  0.41127830  0.48700722
   0.41059626  0.30376451  0.49519657
   0.48195073  0.32825888  0.58942822
   0.56252907  0.49098360  0.53747648
   0.65810406  0.59206295  0.57463424
   0.45112500  0.57516726  0.34187625
   0.34792799  0.55270613  0.41487852
   0.55018037  0.72035252  0.44661010
   0.53926924  0.60624933  0.51566427
   0.45355656  0.52333181  0.47573324
   0.54486756  0.42289370  0.65498016
   0.57549426  0.54107981  0.65681004
   0.61926753  0.71225969  0.54429730
   0.44523026  0.65397156  0.43677887
   0.36173272  0.41904440  0.44980356
   0.36181540  0.38269200  0.56925281
   0.44728224  0.48044703  0.58832965
   0.42940737  0.38471625  0.68030780
   0.56914528  0.66226079  0.64050786
   0.47047342  0.60149354  0.62414263
   0.48546901  0.71215760  0.55508036
   0.38355693  0.61556111  0.53478282
   0.44951891  0.50573885  0.71113814
   0.32519437  0.50266762  0.54051296
   0.33505569  0.45620637  0.66169130
   0.35910460  0.57220202  0.64644856
Direct configuration=     6
   0.65766021  0.45543907  0.35709631
   0.55538146  0.51283823  0.29866003
   0.55107843  0.39660989  0.36990015
   0.65757014  0.57683953  0.35169664
   0.63311405  0.40260620  0.46450810
   0.68301540  0.51870469  0.47042230
   0.53821492  0.30031446  0.46564012
   0.44213528  0.45830070  0.35835470
   0.56091365  0.51776403  0.42128268
   0.44365941  0.34035718  0.38455810
   0.66889936  0.45668522  0.59513861
   0.59736533  0.35377172  0.56699130
   0.65061216  0.63793408  0.45420501
   0.55245789  0.63559454  0.36315899
   0.48846348  0.41043082  0.48690795
   0.41017110  0.30287043  0.49497580
   0.48179748  0.32784003  0.58946991
   0.56291801  0.49079374  0.53826040
   0.65826553  0.59176396  0.57462802
   0.45063780  0.57539715  0.34143327
   0.34759154  0.55268353  0.41495130
   0.55013629  0.72109729  0.44629321
   0.53946627  0.60689378  0.51546646
   0.45296575  0.52399974  0.47558536
   0.54507624  0.42281512  0.65517606
   0.57558032  0.54087937  0.65713631
   0.61985626  0.71298007  0.54455548
   0.44500944  0.65412719  0.43665173
   0.36155861  0.41926961  0.44963452
   0.36164769  0.38250019  0.56949271
   0.44698773  0.48008686  0.58875933
   0.42936149  0.38423284  0.68093866
   0.56953743  0.66278118  0.64133092
   0.47039460  0.60165913  0.62434679
   0.48506487  0.71219166  0.55527621
   0.38341938  0.61589518  0.53460525
   0.44980645  0.50601698  0.71134545
   0.32510869  0.50271211  0.54021555
   0.33423200  0.45608201  0.66217617
   0.35831388  0.57271996  0.64688115
Direct configuration=     7
   0.65890348  0.45440885  0.35593289
   0.55478431  0.51237870  0.29771782
   0.55148702  0.39557892  0.36862995
   0.65973920  0.57729599  0.34966228
   0.63362082  0.40201050  0.46436381
   0.68361836  0.51829457  0.47118259
   0.53927906  0.29965445  0.46529066
   0.44183586  0.45830201  0.35770714
   0.56234100  0.51838244  0.41941109
   0.44326794  0.33874378  0.38299119
   0.66968705  0.45719303  0.59544740
   0.59892514  0.35288010  0.56783867
   0.65087929  0.63899000  0.45387380
   0.55327058  0.63612934  0.36219164
   0.48775198  0.40788840  0.48661012
   0.40889563  0.30018816  0.49431350
   0.48133774  0.32658348  0.58959499
   0.56408483  0.49022414  0.54061214
   0.65874992  0.59086699  0.57460935
   0.44917620  0.57608682  0.34010434
   0.34658220  0.55261574  0.41516963
   0.55000405  0.72333158  0.44534254
   0.54005737  0.60882711  0.51487300
   0.45119334  0.52600353  0.47514172
   0.54570226  0.42257940  0.65576376
   0.57583851  0.54027804  0.65811513
   0.62162245  0.71514122  0.54533004
   0.44434695  0.65459406  0.43627029
   0.36103627  0.41994526  0.44912739
   0.36114454  0.38192477  0.57021243
   0.44610420  0.47900634  0.59004835
   0.42922384  0.38278261  0.68283125
   0.57071389  0.66434233  0.64380010
   0.47015814  0.60215591  0.62495930
   0.48385247  0.71229382  0.55586376
   0.38300674  0.61689741  0.53407254
   0.45066907  0.50685135  0.71196738
   0.32485164  0.50284559  0.53932333
   0.33176094  0.45570894  0.66363078
   0.35594173  0.57427380  0.64817891
Direct configuration=     8
   0.66139003  0.45234840  0.35360603
   0.55359000  0.51145964  0.29583341
   0.55230419  0.39351698  0.36608954
   0.66407734  0.57820892  0.34559355
   0.63463437  0.40081910  0.46407523
   0.68482428  0.51747432  0.47270318
   0.54140735  0.29833442  0.46459174
   0.44123701  0.45830463  0.35641203
   0.56519571  0.51961926  0.41566791
   0.44248499  0.33551699  0.37985737
   0.67126243  0.45820865  0.59606497
   0.60204476  0.35109684  0.56953341
   0.65141353  0.64110184  0.45321138
   0.55489595  0.63719894  0.36025694
   0.48632900  0.40280354  0.48601448
   0.40634468  0.29482363  0.49298890
   0.48041826  0.32407037  0.58984514
   0.56641845  0.48908495  0.54531562
   0.65971871  0.58907304  0.57457201
   0.44625300  0.57746617  0.33744647
   0.34456352  0.55248015  0.41560631
   0.54973957  0.72780016  0.44344119
   0.54123956  0.61269377  0.51368610
   0.44764852  0.53001112  0.47425446
   0.54695432  0.42210795  0.65693917
   0.57635487  0.53907539  0.66007275
   0.62515483  0.71946353  0.54687915
   0.44302199  0.65552780  0.43550742
   0.35999158  0.42129655  0.44811313
   0.36013825  0.38077393  0.57165188
   0.44433714  0.47684530  0.59262640
   0.42894854  0.37988214  0.68661641
   0.57306681  0.66746464  0.64873847
   0.46968523  0.60314946  0.62618430
   0.48142766  0.71249814  0.55703887
   0.38218146  0.61890185  0.53300711
   0.45239432  0.50852010  0.71321125
   0.32433754  0.50311254  0.53753887
   0.32681881  0.45496280  0.66654000
   0.35119742  0.57738148  0.65077445
Direct configuration=     9
   0.66048836  0.45309556  0.35444980
   0.55402308  0.51179291  0.29651674
   0.55200787  0.39426468  0.36701074
   0.66250424  0.57787787  0.34706895
   0.63426684  0.40125112  0.46417987
   0.68438699  0.51777176  0.47215179
   0.54063559  0.29881309  0.46484518
   0.44145417  0.45830368  0.35688167
   0.56416054  0.51917077  0.41702526
   0.44276890  0.33668709  0.38099376
   0.67069117  0.45784036  0.59584103
   0.60091352  0.35174348  0.56891886
   0.65121981  0.64033604  0.45345158
   0.55430656  0.63681108  0.36095850
   0.48684500  0.40464741  0.48623047
   0.40726970  0.29676892  0.49346923
   0.48075168  0.32498167  0.58975443
   0.56557224  0.48949804  0.54361005
   0.65936740  0.58972356  0.57458555
   0.44731301  0.57696599  0.33841027
   0.34529553  0.55252932  0.41544796
   0.54983547  0.72617976  0.44413065
   0.54081088  0.61129164  0.51411649
   0.44893395  0.52855789  0.47457620
   0.54650030  0.42227890  0.65651294
   0.57616762  0.53951150  0.65936288
   0.62387392  0.71789618  0.54631742
   0.44350245  0.65518921  0.43578405
   0.36037040  0.42080654  0.44848092
   0.36050315  0.38119125  0.57112991
   0.44497791  0.47762894  0.59169155
   0.42904837  0.38093391  0.68524384
   0.57221359  0.66633243  0.64694772
   0.46985672  0.60278918  0.62574009
   0.48230695  0.71242405  0.55661275
   0.38248072  0.61817500  0.53339345
   0.45176871  0.50791498  0.71276020
   0.32452396  0.50301574  0.53818595
   0.32861092  0.45523336  0.66548506
   0.35291780  0.57625458  0.64983326
Direct configuration=    10
   0.66080044  0.45329802  0.35409067
   0.55374357  0.51153626  0.29613660
   0.55204086  0.39390548  0.36660784
   0.66333115  0.57766331  0.34647460
   0.63410413  0.40101838  0.46409414
   0.68442923  0.51766777  0.47210459
   0.54117801  0.29849916  0.46464492
   0.44167722  0.45824630  0.35681058
   0.56461103  0.51928539  0.41757899
   0.44266772  0.33614342  0.38096240
   0.67078794  0.45813210  0.59582534
   0.60125559  0.35127407  0.56933914
   0.65113125  0.64056999  0.45308831
   0.55448352  0.63675677  0.36059086
   0.48618327  0.40506634  0.48620210
   0.40684893  0.29604566  0.49299536
   0.48074955  0.32460226  0.58956607
   0.56518615  0.48941033  0.54301831
   0.65909178  0.58977965  0.57462756
   0.44692628  0.57745101  0.33787454
   0.34512051  0.55242659  0.41566439
   0.54992925  0.72691042  0.44446797
   0.54136264  0.61180901  0.51381769
   0.44950531  0.52808630  0.47454084
   0.54636938  0.42150600  0.65670744
   0.57626972  0.54020688  0.66003263
   0.62385385  0.71823184  0.54662604
   0.44378604  0.65565389  0.43510393
   0.36051512  0.42075595  0.44832455
   0.36063603  0.38083647  0.57128601
   0.44443319  0.47706947  0.59200330
   0.42861226  0.38101792  0.68590116
   0.57271801  0.66673708  0.64723394
   0.46980248  0.60298952  0.62596436
   0.48218414  0.71219771  0.55678754
   0.38191979  0.61860387  0.53412740
   0.45189021  0.50815654  0.71255712
   0.32464816  0.50320366  0.53839765
   0.32840420  0.45545251  0.66583868
   0.35225804  0.57627618  0.65009144
Direct configuration=    11
   0.66143337  0.45370862  0.35336235
   0.55317673  0.51101578  0.29536566
   0.55210778  0.39317700  0.36579075
   0.66500815  0.57722817  0.34526924
   0.63377416  0.40054636  0.46392029
   0.68451490  0.51745689  0.47200889
   0.54227807  0.29786249  0.46423876
   0.44212958  0.45812993  0.35666641
   0.56552464  0.51951784  0.41870197
   0.44246251  0.33504085  0.38089880
   0.67098419  0.45872374  0.59579352
   0.60194931  0.35032208  0.57019148
   0.65095166  0.64104443  0.45235157
   0.55484242  0.63664662  0.35984528
   0.48484127  0.40591594  0.48614455
   0.40599559  0.29457888  0.49203434
   0.48074523  0.32383278  0.58918407
   0.56440317  0.48923244  0.54181825
   0.65853282  0.58989338  0.57471275
   0.44614197  0.57843465  0.33678808
   0.34476556  0.55221827  0.41610331
   0.55011944  0.72839220  0.44515206
   0.54248165  0.61285825  0.51321172
   0.45066404  0.52712991  0.47446914
   0.54610387  0.41993852  0.65710188
   0.57647679  0.54161712  0.66139090
   0.62381314  0.71891257  0.54725193
   0.44436117  0.65659627  0.43372462
   0.36080859  0.42065334  0.44800744
   0.36090550  0.38011697  0.57160261
   0.44332849  0.47593487  0.59263555
   0.42772782  0.38118830  0.68723424
   0.57374097  0.66755772  0.64781442
   0.46969249  0.60339582  0.62641918
   0.48193509  0.71173868  0.55714201
   0.38078222  0.61947363  0.53561587
   0.45213663  0.50864644  0.71214527
   0.32490003  0.50358477  0.53882698
   0.32798495  0.45589694  0.66655583
   0.35092003  0.57632000  0.65061504
Direct configuration=    12
   0.66150891  0.45375762  0.35327542
   0.55310907  0.51095365  0.29527365
   0.55211576  0.39309006  0.36569322
   0.66520831  0.57717624  0.34512538
   0.63373478  0.40049002  0.46389954
   0.68452513  0.51743172  0.47199746
   0.54240936  0.29778651  0.46419029
   0.44218357  0.45811604  0.35664920
   0.56563369  0.51954559  0.41883600
   0.44243802  0.33490925  0.38089121
   0.67100761  0.45879436  0.59578972
   0.60203211  0.35020846  0.57029321
   0.65093023  0.64110106  0.45226364
   0.55488525  0.63663347  0.35975629
   0.48468109  0.40601734  0.48613768
   0.40589374  0.29440381  0.49191964
   0.48074472  0.32374095  0.58913848
   0.56430972  0.48921121  0.54167502
   0.65846610  0.58990696  0.57472292
   0.44604836  0.57855205  0.33665840
   0.34472319  0.55219340  0.41615570
   0.55014214  0.72856906  0.44523371
   0.54261521  0.61298348  0.51313940
   0.45080234  0.52701576  0.47446058
   0.54607218  0.41975144  0.65714896
   0.57650150  0.54178544  0.66155302
   0.62380828  0.71899381  0.54732663
   0.44442981  0.65670874  0.43356000
   0.36084362  0.42064109  0.44796959
   0.36093766  0.38003109  0.57164040
   0.44319664  0.47579945  0.59271101
   0.42762226  0.38120863  0.68739334
   0.57386306  0.66765567  0.64788370
   0.46967936  0.60344431  0.62647346
   0.48190537  0.71168390  0.55718432
   0.38064644  0.61957743  0.53579352
   0.45216604  0.50870491  0.71209612
   0.32493009  0.50363026  0.53887822
   0.32793491  0.45594999  0.66664142
   0.35076034  0.57632523  0.65067753
Direct configuration=    13
   0.66123235  0.45402668  0.35331271
   0.55285342  0.51074761  0.29572271
   0.55220286  0.39301029  0.36558667
   0.66551802  0.57713869  0.34501889
   0.63325082  0.40032150  0.46380179
   0.68448577  0.51746879  0.47180993
   0.54255824  0.29833676  0.46414985
   0.44271631  0.45829189  0.35667025
   0.56619024  0.51960663  0.41869065
   0.44262869  0.33480061  0.38122429
   0.67039339  0.45917332  0.59551368
   0.60224859  0.34985300  0.57043892
   0.65088015  0.64114116  0.45168176
   0.55512323  0.63642726  0.35981639
   0.48425137  0.40563041  0.48594210
   0.40572643  0.29421964  0.49178152
   0.48057187  0.32377665  0.58887398
   0.56378384  0.48927490  0.54165119
   0.65794361  0.59019580  0.57466172
   0.44583083  0.57861372  0.33625894
   0.34527375  0.55204885  0.41667412
   0.55034203  0.72868328  0.44558878
   0.54289471  0.61314041  0.51285060
   0.45117387  0.52716903  0.47469271
   0.54583932  0.41979107  0.65707377
   0.57627919  0.54173672  0.66182815
   0.62351727  0.71886207  0.54732890
   0.44461859  0.65669703  0.43368185
   0.36098405  0.42045194  0.44803139
   0.36117610  0.37957114  0.57161241
   0.44297834  0.47542401  0.59281541
   0.42724518  0.38145370  0.68748226
   0.57402388  0.66772424  0.64778161
   0.46965514  0.60357430  0.62659898
   0.48191806  0.71131897  0.55726161
   0.38079391  0.61994300  0.53580487
   0.45224606  0.50888828  0.71174586
   0.32524544  0.50370190  0.53930886
   0.32821873  0.45607276  0.66658429
   0.35063233  0.57617148  0.65075263
Direct configuration=    14
   0.66076544  0.45448094  0.35337567
   0.55242179  0.51039975  0.29648085
   0.55234989  0.39287561  0.36540678
   0.66604090  0.57707529  0.34483909
   0.63243377  0.40003699  0.46363676
   0.68441932  0.51753137  0.47149333
   0.54280959  0.29926573  0.46408159
   0.44361573  0.45858877  0.35670578
   0.56712986  0.51970968  0.41844525
   0.44295059  0.33461720  0.38178664
   0.66935639  0.45981312  0.59504765
   0.60261408  0.34925290  0.57068492
   0.65079560  0.64120886  0.45069937
   0.55552500  0.63607912  0.35991785
   0.48352587  0.40497717  0.48561191
   0.40544397  0.29390871  0.49154834
   0.48028006  0.32383694  0.58842744
   0.56289602  0.48938243  0.54161097
   0.65706150  0.59068346  0.57455839
   0.44546357  0.57871782  0.33558454
   0.34620325  0.55180480  0.41754937
   0.55067950  0.72887611  0.44618823
   0.54336659  0.61340535  0.51236303
   0.45180113  0.52742779  0.47508461
   0.54544617  0.41985796  0.65694684
   0.57590388  0.54165447  0.66229266
   0.62302595  0.71863963  0.54733272
   0.44493731  0.65667725  0.43388757
   0.36122113  0.42013260  0.44813572
   0.36157866  0.37879460  0.57156516
   0.44260978  0.47479016  0.59299167
   0.42660856  0.38186744  0.68763237
   0.57429540  0.66784000  0.64760925
   0.46961425  0.60379375  0.62681089
   0.48193949  0.71070285  0.55739209
   0.38104289  0.62056018  0.53582402
   0.45238115  0.50919786  0.71115453
   0.32577782  0.50382286  0.54003589
   0.32869791  0.45628003  0.66648783
   0.35041622  0.57591191  0.65087942
Direct configuration=    15
   0.65983161  0.45538944  0.35350158
   0.55155855  0.50970402  0.29799713
   0.55264396  0.39260626  0.36504699
   0.66708666  0.57694850  0.34447950
   0.63079965  0.39946796  0.46330670
   0.68428642  0.51765653  0.47086012
   0.54331229  0.30112369  0.46394506
   0.44541456  0.45918253  0.35677685
   0.56900910  0.51991578  0.41795446
   0.44359440  0.33425036  0.38291132
   0.66728241  0.46109272  0.59411558
   0.60334504  0.34805269  0.57117693
   0.65062651  0.64134426  0.44873460
   0.55632855  0.63538283  0.36012077
   0.48207488  0.40367069  0.48495153
   0.40487904  0.29328685  0.49108197
   0.47969643  0.32395751  0.58753436
   0.56112037  0.48959750  0.54153052
   0.65529728  0.59165878  0.57435174
   0.44472907  0.57892604  0.33423573
   0.34806225  0.55131671  0.41929987
   0.55135445  0.72926177  0.44738714
   0.54431036  0.61393522  0.51138789
   0.45305563  0.52794531  0.47586840
   0.54465988  0.41999176  0.65669297
   0.57515325  0.54148997  0.66322168
   0.62204331  0.71819477  0.54734037
   0.44557474  0.65663770  0.43429901
   0.36169530  0.41949392  0.44834439
   0.36238378  0.37724153  0.57147065
   0.44187266  0.47352245  0.59334418
   0.42533531  0.38269491  0.68793259
   0.57483843  0.66807153  0.64726454
   0.46953247  0.60423265  0.62723472
   0.48198235  0.70947063  0.55765306
   0.38154084  0.62179453  0.53586233
   0.45265135  0.50981702  0.70997187
   0.32684260  0.50406478  0.54148996
   0.32965625  0.45669457  0.66629492
   0.34998401  0.57539276  0.65113300
Direct configuration=    16
   0.66032664  0.45490784  0.35343484
   0.55201616  0.51007283  0.29719334
   0.55248807  0.39274905  0.36523772
   0.66653230  0.57701571  0.34467012
   0.63166591  0.39976960  0.46348167
   0.68435687  0.51759018  0.47119579
   0.54304581  0.30013877  0.46401743
   0.44446099  0.45886777  0.35673918
   0.56801290  0.51980652  0.41821464
   0.44325311  0.33444482  0.38231512
   0.66838185  0.46041439  0.59460968
   0.60295755  0.34868893  0.57091611
   0.65071615  0.64127248  0.44977614
   0.55590258  0.63575194  0.36001320
   0.48284406  0.40436327  0.48530160
   0.40517851  0.29361651  0.49132920
   0.48000582  0.32389360  0.58800779
   0.56206165  0.48948349  0.54157316
   0.65623251  0.59114175  0.57446129
   0.44511844  0.57881566  0.33495075
   0.34707678  0.55157545  0.41837191
   0.55099665  0.72905733  0.44675159
   0.54381006  0.61365433  0.51190482
   0.45239061  0.52767097  0.47545291
   0.54507670  0.41992083  0.65682755
   0.57555116  0.54157717  0.66272920
   0.62256422  0.71843060  0.54733631
   0.44523683  0.65665867  0.43408090
   0.36144394  0.41983249  0.44823377
   0.36195698  0.37806483  0.57152075
   0.44226341  0.47419447  0.59315731
   0.42601027  0.38225626  0.68777344
   0.57455057  0.66794880  0.64744728
   0.46957582  0.60399999  0.62701004
   0.48195963  0.71012384  0.55751472
   0.38127687  0.62114019  0.53584202
   0.45250812  0.50948880  0.71059881
   0.32627815  0.50393654  0.54071915
   0.32914823  0.45647482  0.66639718
   0.35021313  0.57566796  0.65099858
Direct configuration=    17
   0.66018975  0.45490015  0.35349958
   0.55155466  0.50983610  0.29748982
   0.55257637  0.39237782  0.36479959
   0.66710617  0.57720653  0.34422515
   0.63106486  0.39996988  0.46368733
   0.68442021  0.51765275  0.47127701
   0.54352432  0.30049646  0.46391521
   0.44502953  0.45887389  0.35728416
   0.56835182  0.52007832  0.41873855
   0.44357826  0.33457811  0.38229432
   0.66710508  0.46097917  0.59417125
   0.60315823  0.34834782  0.57143583
   0.65102865  0.64173725  0.44921215
   0.55573114  0.63553672  0.36033699
   0.48219851  0.40474396  0.48542134
   0.40480396  0.29295785  0.49123126
   0.47991406  0.32427676  0.58806011
   0.56067684  0.48956657  0.54154378
   0.65543324  0.59139119  0.57403622
   0.44493295  0.57939852  0.33458331
   0.34804401  0.55142572  0.41922300
   0.55107954  0.72900396  0.44649000
   0.54408707  0.61344875  0.51119023
   0.45354159  0.52784690  0.47616889
   0.54481639  0.42000057  0.65626617
   0.57505715  0.54131971  0.66287394
   0.62261806  0.71819928  0.54714542
   0.44562837  0.65616136  0.43403408
   0.36139069  0.41982651  0.44832786
   0.36178262  0.37744974  0.57171083
   0.44228792  0.47354759  0.59264200
   0.42597760  0.38200297  0.68771007
   0.57435097  0.66765363  0.64750429
   0.46942907  0.60421487  0.62721279
   0.48183790  0.71000572  0.55768831
   0.38173119  0.62150134  0.53592376
   0.45266414  0.50982625  0.71068491
   0.32700146  0.50382693  0.54113115
   0.32917525  0.45637525  0.66611502
   0.35056637  0.57593659  0.65082130
Direct configuration=    18
   0.66004803  0.45489220  0.35356660
   0.55107690  0.50959103  0.29779676
   0.55266779  0.39199351  0.36434603
   0.66770027  0.57740407  0.34376449
   0.63044263  0.40017722  0.46390024
   0.68448578  0.51771754  0.47136110
   0.54401970  0.30086675  0.46380939
   0.44561812  0.45888022  0.35784835
   0.56870269  0.52035969  0.41928094
   0.44391487  0.33471609  0.38227280
   0.66578331  0.46156385  0.59371737
   0.60336599  0.34799468  0.57197387
   0.65135218  0.64221839  0.44862828
   0.55555366  0.63531392  0.36067219
   0.48153020  0.40513807  0.48554530
   0.40441621  0.29227598  0.49112987
   0.47981907  0.32467342  0.58811427
   0.55924321  0.48965258  0.54151336
   0.65460581  0.59164941  0.57359617
   0.44474093  0.58000193  0.33420292
   0.34904534  0.55127070  0.42010408
   0.55116536  0.72894871  0.44621920
   0.54437385  0.61323593  0.51045044
   0.45473315  0.52802902  0.47691012
   0.54454690  0.42008311  0.65568499
   0.57454573  0.54105316  0.66302378
   0.62267381  0.71795980  0.54694779
   0.44603371  0.65564653  0.43398562
   0.36133556  0.41982031  0.44842527
   0.36160210  0.37681297  0.57190762
   0.44231329  0.47287791  0.59210851
   0.42594379  0.38174075  0.68764448
   0.57414435  0.66734807  0.64756331
   0.46927714  0.60443734  0.62742268
   0.48171188  0.70988344  0.55786802
   0.38220152  0.62187522  0.53600837
   0.45282565  0.51017559  0.71077404
   0.32775026  0.50371346  0.54155768
   0.32920323  0.45627218  0.66582291
   0.35093205  0.57621469  0.65063778
Direct configuration=    19
   0.66008839  0.45492003  0.35370306
   0.55083481  0.50956448  0.29804871
   0.55312675  0.39151893  0.36373792
   0.66787384  0.57754411  0.34335799
   0.63000872  0.40087583  0.46456621
   0.68476749  0.51786123  0.47158360
   0.54417311  0.30112968  0.46383083
   0.44562241  0.45949073  0.35880664
   0.56911896  0.52046803  0.41920547
   0.44387278  0.33466622  0.38235582
   0.66462596  0.46189117  0.59343701
   0.60360610  0.34763717  0.57239086
   0.65215152  0.64286059  0.44827430
   0.55542562  0.63498075  0.36078692
   0.48123575  0.40462863  0.48546742
   0.40436565  0.29178753  0.49100397
   0.47985631  0.32498734  0.58797481
   0.55875223  0.48961645  0.54207414
   0.65414907  0.59160287  0.57311497
   0.44452178  0.58024867  0.33381801
   0.35013910  0.55128331  0.42087611
   0.55099747  0.72891549  0.44554160
   0.54454801  0.61397254  0.50992383
   0.45482143  0.52864534  0.47715717
   0.54440016  0.42003294  0.65518986
   0.57413422  0.54094053  0.66292774
   0.62287734  0.71774925  0.54681010
   0.44624959  0.65513856  0.43379025
   0.36084637  0.41988090  0.44846125
   0.36083790  0.37616948  0.57205451
   0.44206560  0.47217551  0.59269073
   0.42623175  0.38131128  0.68766315
   0.57377659  0.66703872  0.64756937
   0.46928661  0.60462321  0.62763537
   0.48188622  0.71000819  0.55776254
   0.38260208  0.62195871  0.53605024
   0.45277090  0.51008501  0.71082596
   0.32838644  0.50355599  0.54158889
   0.32907017  0.45629998  0.66554570
   0.35134080  0.57641407  0.65050401
Direct configuration=    20
   0.66010637  0.45493243  0.35376386
   0.55072696  0.50955265  0.29816095
   0.55333121  0.39130749  0.36346701
   0.66795117  0.57760651  0.34317688
   0.62981541  0.40118707  0.46486291
   0.68489299  0.51792524  0.47168272
   0.54424145  0.30124681  0.46384038
   0.44562433  0.45976271  0.35923356
   0.56930442  0.52051630  0.41917186
   0.44385403  0.33464401  0.38239280