    6    6 1000    2
  0.1119857E+04  0.1886998E-08  0.1886998E-08  0.1886998E-08  0.1000000E-15
  1.000000000000000E-004
  CAR 
 unknown system                          
     66      1     44
 
  0.0000000E+00  0.0000000E+00  0.0000000E+00  0.1000000E+01
    1       -9.044763     -8.966030
    2       -8.754748     -8.652173
    3       -8.578260     -8.470484
    4       -8.467891     -8.380506
    5       -8.423019     -8.313558
    6       -8.247466     -8.148884
    7       -8.161548     -8.064935
    8       -8.022532     -7.926937
    9       -7.987909     -7.895661
   10       -7.793211     -7.703739
   11       -7.694853     -7.614703
   12       -7.670233     -7.556924
   13       -7.599862     -7.512858
   14       -7.550388     -7.467029
   15       -7.440409     -7.362748
   16       -7.373321     -7.297807
   17       -7.328950     -7.251533
   18       -7.305581     -7.216193
   19       -7.273122     -7.191828
   20       -7.217812     -7.130223
   21       -7.189260     -7.110935
   22       -7.120574     -7.036328
   23       -7.010456     -6.917175
   24       -6.940240     -6.857573
   25       -6.932112     -6.837904
   26       -6.729064     -6.661281
   27       -6.676449     -6.649787
   28       -6.670892     -6.509511
   29       -6.423292     -6.378198
   30       -6.418210     -6.371762
   31       -6.260349     -6.206986
   32       -5.031761     -4.849823
   33       -4.436081     -4.034958
   34       -4.094130     -3.750973
   35       -3.184926     -2.874058
   36       -2.330139     -2.078692
   37       -1.645746     -1.309999
   38       -1.373185     -1.057160
   39       -1.045643     -0.765734
   40       -0.961438     -0.668078
   41       -0.921603     -0.619921
   42       -0.522201     -0.234790
   43       -0.275811      0.013831
   44       -0.015604      0.136487
