12
Energy = -32.30533687 eV
Al 9.480612508214088 10.740671279644586 11.430990569731328
Al 11.632650582658712 9.801308050249789 10.299069581269256
Al 10.52184356068518 8.304318309323094 12.431726041270782
Al 9.801331526927306 11.02943750675214 8.79637316093126
Al 7.786919473329948 8.897460614587034 12.222012531736075
Al 7.390621776796527 10.321361914125559 9.750739151332972
Al 9.23251070706062 8.28776678166905 9.996441484697645
Al 7.574936362276485 11.422117559117186 7.277575018104668
Al 11.717385134089847 7.182840105314673 10.154440448608014
Al 10.932225067621717 8.767932840444454 7.886520073062126
Al 8.249495625223428 8.831376136211892 7.684347116315662
Al 9.74889161707021 10.46184353439706 6.131674565866307
