12
Energy = -32.02791646 eV
Al 9.438214080850226 12.135339289918324 9.470131
Al 10.63785386997194 10.162376352473725 10.8294275666829
Al 8.398235468503927 11.286203088554744 11.937500837801396
Al 10.542026531496075 7.654058911445255 7.002761162198605
Al 8.398235468503927 11.286203088554744 7.002761162198605
Al 8.302408130028061 8.777885647526277 8.110834433317102
Al 9.502047919149774 6.804922710081812 9.470131
Al 10.542026531496075 7.654058911445255 11.937500837801396
Al 7.161950946698152 10.781037109649981 9.470131
Al 8.302408130028061 8.777885647526277 10.8294275666829
Al 10.63785386997194 10.162376352473725 8.110834433317102
Al 11.778311053301849 8.15922489035002 9.470131
