16
Energy = -98.81166848 eV
Mn 12.197297780264295 6.857083335966413 9.343059678612782
Mn 9.205461859653163 11.697098072591807 7.688259317404843
Mn 5.236438295486698 11.903133059754191 9.557346521947828
Mn 4.682028951093085 9.99353480657267 11.091050638828895
Mn 9.134389403605368 5.414202874102664 6.57923872230735
Mn 12.490080611344961 8.839455803699089 7.898547642344696
Mn 6.8255632581502255 6.309116238514568 6.981363325232542
Mn 10.13085271331719 12.764137434389179 9.697444041746428
Mn 6.664885435021593 11.165260811146343 7.595278296112831
Mn 8.240788268162836 10.252854249757338 5.986759609442459
Mn 11.641934168611954 4.935066429385731 10.865131154939029
Mn 4.817313028883313 9.656991822237208 8.513016922862075
Mn 10.514684511534085 4.98283043598566 8.635283070388562
Mn 12.14323609357473 9.532700075797 12.718915121322008
Mn 8.656032844405956 7.834588621041186 6.066851905884969
Mn 10.095864824772635 10.541944729494938 13.458750109425281
