19
Energy = -120.81247203 eV
Mn 7.64447410793374 9.331710077711453 13.263653772489004
Mn 9.147166502295422 8.650466224087399 11.307789405809777
Mn 8.357111672347195 12.832710135274192 10.52245180375478
Mn 9.745641548776677 13.971001986834015 8.660430773376302
Mn 12.193960833240915 11.26378652817542 5.631643968150668
Mn 11.020698978253527 8.410477964676435 9.672877928884395
Mn 12.43387423962984 7.716767553141333 7.746589323511152
Mn 13.928398347049459 6.901939869794468 5.978239852860155
Mn 12.175170312461024 6.065071935668908 9.70840022709252
Mn 9.516382867486916 10.651040385896215 9.485218036826074
Mn 6.689771482916719 9.730110833063819 15.65437421795501
Mn 7.773465439144281 7.795432195420162 15.178229998934901
Mn 8.644227589423952 15.273876540129809 10.206882503597507
Mn 10.94495751077441 12.576285399214324 7.047477172856867
Mn 13.121489394957932 9.08268439868303 5.536744568827119
Mn 13.586560131924049 5.570382737446379 7.830592427615264
Mn 10.624076648194139 6.62474141921248 11.528080129518278
Mn 6.301618217379201 14.049917655227553 14.147697550701693
Mn 7.4161681913686595 14.770549671902991 12.153853925588114
