14
Energy = -80.20072932 eV
Mn 16.335709787799704 9.708382574758314 14.652123877512206
Mn 14.842810771116655 11.127999183134762 15.7027071882141
Mn 8.820788030969869 13.105204668969636 12.352809464717186
Mn 11.710832625014502 9.084414886896642 7.732096257518534
Mn 12.339426464024276 10.538465244493606 9.832640914275299
Mn 13.882764961860323 8.589330587588915 8.912337603917386
Mn 15.723551392067208 8.000772365009992 10.260381548531194
Mn 16.336858196993337 8.770999166183422 12.423241320323656
Mn 12.836984492131247 11.747858062223939 11.938954067621172
Mn 10.160115362918575 10.87891546992882 8.712952893397933
Mn 6.490351460992308 13.26924260805598 11.007332508555923
Mn 4.5096503675010275 14.151461104662266 12.053558557236997
Mn 4.297116693707808 13.210301614327577 9.978610847038198
Mn 6.039447359070547 12.123629892233579 8.74982890763702
