17
Energy = -111.46715941 eV
Mn 12.057454470103856 14.71149238150516 9.980648441435168
Mn 11.016391843902964 13.961705199052048 12.13725658638057
Mn 10.269504888663297 11.648970938927532 12.391494006205651
Mn 10.023826147631757 9.195000713350405 12.781873594519407
Mn 9.866397805181133 8.33147001909529 15.283464978818495
Mn 10.53248879111134 6.904691830029877 13.504443411398395
Mn 12.872142378826466 10.488766557906166 8.924234516628575
Mn 11.969759200951014 8.202741494078655 9.14277405413831
Mn 13.24499530239278 11.370328937503036 6.6094862119517686
Mn 13.343215698122068 12.176499820607367 4.3367533512662195
Mn 13.235030654346378 13.93617157387508 5.8556192506427855
Mn 13.161973531924078 12.92125499540932 8.593274330906052
Mn 11.807545579826074 12.116397392421321 10.558665141024605
Mn 10.26216300676378 13.36763089294468 14.352773417154399
Mn 9.709020648642127 10.844140686621301 14.690493578202188
Mn 9.736193700847283 12.370475256778313 16.54224031694281
Mn 9.556288351222763 10.120920197112106 16.968002989687886
