17
Energy = -124.84512391 eV
Mn 5.368411415919164 9.26783390147394 9.909144001430539
Mn 6.505418915386858 11.010481190782295 7.9557179374223015
Mn 7.804254959406307 7.956543209628336 5.520359097642031
Mn 9.22727069996179 6.863188084768713 9.539263234139208
Mn 5.114294846513662 6.698317693190782 8.87330310127595
Mn 8.74651368234927 8.611559643633425 11.486067644668754
Mn 8.410244893883167 9.650485506968424 7.162498123487109
Mn 9.950329855458378 7.340360233512565 7.025178264561189
Mn 8.214022874412718 11.01562652444074 9.847306800524061
Mn 7.143527592839105 5.234494498681937 8.402924006322309
Mn 9.910171652661038 9.23008363995794 9.027949983630165
Mn 6.8050893643574115 6.972730746089933 10.507069840150919
Mn 5.90534036330449 9.642785070311827 5.766143788023324
Mn 5.778546020333867 6.6669649398888 6.395965717168974
Mn 7.598444462667043 8.875377602013886 9.488084176287083
Mn 7.80434454606215 7.1663220821757925 7.686898394516163
Mn 5.9398957166792155 8.6803760760819 7.703051942001416
