10
Energy = -69.58929757 eV
Mn 7.594992263948366 13.216366258663074 9.971754543369086
Mn 7.00622585399449 12.158344607999979 7.572929179302256
Mn 9.71901457349776 11.889770243389881 10.983548413573736
Mn 8.65286354381848 9.528719010762233 11.047429352102066
Mn 8.463426485411953 8.272398907035857 8.869478079591921
Mn 7.96927045157631 10.785755625616098 9.437054785202532
Mn 8.52117267004645 14.068892199939944 7.774697084127005
Mn 8.933315135762363 10.243577638280733 7.221338293166871
Mn 10.457285591635365 10.035752217884978 9.277489581356585
Mn 9.542036733772305 12.29699565506425 8.575775454065463
