28
Energy = -194.27585334 eV
Mn 4.5231339192541045 10.471789327659978 14.146558607220356
Mn 6.196414640065764 9.643133723066041 15.7923214752413
Mn 8.53434980021624 9.98341015026787 14.869128981822737
Mn 10.853738963490901 10.565988253156728 13.926216416679457
Mn 12.797400502260277 10.125053170879328 15.290431450417165
Mn 13.347476670214581 11.625602825639145 13.514070086728383
Mn 15.559264086576162 11.017543020533973 14.968041295524824
Mn 14.142173243976398 11.543940673312255 11.06353233701962
Mn 12.240849695116657 14.079912262442424 7.769181680501776
Mn 10.002117297570024 13.270161721783602 8.346339551944894
Mn 9.668544974299541 11.703470358110138 10.282548626495805
Mn 7.2787243064539195 11.130074557140786 11.054074455293025
Mn 7.684966889658132 12.745093569593395 9.202662140175272
Mn 5.434332914649299 12.202115593926301 9.807442931886508
Mn 4.7194057505590035 11.217908976002356 11.832406781825913
Mn 6.726291810247685 10.449253603634846 13.280394324628228
Mn 9.167031275528938 10.359566086136034 12.360336625799555
Mn 11.840810070860122 11.083666982822624 11.781637983851267
Mn 12.23959470205042 12.546240862462149 9.692921125368963
Mn 14.406526072068841 13.7443844679248 9.18786636626954
Mn 15.57735932898311 12.092540525825264 12.995685211458882
Mn 17.979784888096546 11.714457504298846 13.687669434854888
Mn 17.36161201883226 13.800476065155378 12.705705366659185
Mn 15.339377212270538 13.607033139013383 11.27825252397862
Mn 15.524328530953657 11.649692518543818 9.07861739971811
Mn 16.862405512807527 11.315939692827559 11.331418916726669
Mn 18.631659438180982 15.00423069153133 10.8863028146097
Mn 17.187109680367954 13.247812826630744 10.118426651741636
