35
Energy = -234.14457763 eV
Mn 12.091439625576077 12.03072833597276 12.017004967799434
Mn 12.089956243443801 2.02184988161244 9.995055963527166
Mn 14.004266733841668 0.9709656145834134 9.068467296621911
Mn 14.017745836824444 12.852566060453512 10.809517168952116
Mn 10.645935857788356 1.1171797353639978 11.56734014773613
Mn 10.590379472398288 13.43173039467006 13.350240715803036
Mn 11.868151636384416 19.759831259086 14.150015825131861
Mn 10.947102096173182 20.67741502399497 13.260275676873626
Mn 13.065119072942988 16.761329012438928 12.696537895875892
Mn 14.820931799783247 21.481413503455027 12.971476247229111
Mn 15.599792675400476 23.659799436795282 7.744405083705115
Mn 15.58919570985103 13.84384873255739 9.210487249427363
Mn 15.035164525245271 17.826869870767744 11.17096039121335
Mn 15.168726809756835 20.48412870839166 10.791665898471514
Mn 10.9158286315879 15.756941203215993 13.751488929905761
Mn 10.663232908628933 23.24801822191798 12.681573015066762
Mn 15.967015780537011 16.37876587874558 9.31233472855713
Mn 15.94573980971973 21.23998927322804 8.575252127435899
Mn 16.85359686657145 14.948049901349528 7.541471682619998
Mn 16.880503034770232 22.119257091688347 6.449356741991377
Mn 14.669711063605623 15.340181711657472 11.209630597915902
Mn 16.37415589758313 23.530198415065662 9.19835303213054
Mn 12.59579515884631 24.020509229231283 11.093821479518178
Mn 12.729549898939913 14.426535098351094 12.413794227356181
Mn 12.728026304918115 19.130467790679685 12.734328487697631
Mn 17.147980821279628 19.77117988956592 6.9182698780822385
Mn 17.180068289570094 17.32433966736777 7.277014722840389
Mn 16.298242393718656 18.868419735660392 9.191389636254856
Mn 10.418386158836759 21.9443242376271 12.086927076140487
Mn 13.798036746520351 19.559416610687276 10.599909867923028
Mn 14.592002948720559 17.581642308244355 8.974030028311946
Mn 9.57107315106053 16.02794522095611 12.878290049189646
Mn 13.86837976012721 12.322266927788888 12.871107409906704
Mn 12.842426974290635 17.636292495300353 11.323494198434902
Mn 11.430900872664388 21.948599621910727 9.906122439973089
