3
Energy = -16.32240648 eV
Mn 5.873036009631316 7.188045779033906 6.548196100536596
Mn 8.476685375469375 4.698029040621903 6.338943564588475
Mn 4.917554113287316 8.843477211040543 7.382257172296867
