30
Energy = -205.24337128 eV
Mn 12.117212180561594 12.85351130289494 12.269363183678164
Mn 11.953271498194844 12.905418144607351 14.857523696886188
Mn 10.508654477456567 11.65283516312483 16.43535985842539
Mn 10.77445328476096 13.361512507589742 18.284722386261024
Mn 13.781899618362905 12.82957467153857 20.410763551334632
Mn 11.387180079650985 12.216899007617032 20.48461416686153
Mn 12.704254252380514 12.799872359171271 22.622652275295014
Mn 15.38640399358066 12.875795742880767 22.443432232957495
Mn 15.850824172624499 13.0408404679885 20.174736595474037
Mn 15.05881482609691 11.672315641177043 18.3623348554536
Mn 17.531120206622255 13.365473917859081 18.320847829755834
Mn 16.61256353335078 11.624884758255309 16.54917298022193
Mn 16.284811032134936 12.621345833853422 14.3212321598108
Mn 12.737034086687533 12.219778542880041 18.049534813680776
Mn 14.22320894664544 12.124486806258716 15.908968368088553
Mn 13.858360395619089 11.681675624249854 13.398717099130776
Mn 13.892463833580319 11.385089013883787 10.872952695474021
Mn 15.647988805526428 11.559293814777389 9.036329658964828
Mn 18.009214706926596 11.90718973326162 10.37233229940627
Mn 16.01951743544764 11.70719981379835 11.810666658749964
Mn 18.420800718392464 11.699824637677452 12.954220746646769
Mn 18.55267246539914 12.652645227370636 15.80114880491672
Mn 21.145044607598745 1.0307445206355232 15.337353280724798
Mn 13.110545297804991 11.84067325966093 8.528538784248834
Mn 19.593246596572083 0.23257701589288218 17.29605327323146
Mn 11.494848123955164 11.322612827684361 10.484159785105609
Mn 11.114778527602748 11.014905793928556 13.252192200946705
Mn 17.36760578806121 11.025123639646775 19.097051444432168
Mn 18.010803415502142 12.560920185537217 21.078999965778017
Mn 9.479601891784968 11.223303448440928 18.86927203896147
