34
Energy = -222.76160334 eV
Mn 6.9377976569350235 10.859373976721175 6.5570243152785
Mn 6.314085616787196 8.436754502394098 6.701168299822667
Mn 10.350476401495616 6.600890566258718 6.833069380132765
Mn 11.444133896693083 8.463387083174503 5.823827433969993
Mn 10.406494214985072 13.314317149417631 6.507946568066523
Mn 12.780571070601185 12.249685449788242 7.3012582550373955
Mn 12.786637692574951 7.591035024885569 7.7708617357649725
Mn 6.008551875379512 7.739481958457679 9.124024896367912
Mn 10.93050175444129 10.887265805481581 5.873468642224321
Mn 13.079852020029882 9.903225137509194 6.791406075779928
Mn 7.78071522822351 6.64473101779417 7.3104063237969195
Mn 5.222353983776827 9.924235727712837 8.183665446820742
Mn 12.016357816419058 14.533690583792573 7.815281776043638
Mn 7.818905743018061 13.19259242032031 7.247688774052959
Mn 7.587315662739886 5.826380857465152 9.826778815242045
Mn 9.02267128399433 12.508457927515494 12.944005412980523
Mn 8.914955634131562 10.23673429431492 14.023852774765741
Mn 14.336862223658404 8.220623159243745 14.292439751453847
Mn 14.957619044444023 12.799188497946007 13.30213353161406
Mn 10.811307720707594 14.124114720414365 12.588749762746719
Mn 15.402647582678393 13.203274719135957 10.950471253574118
Mn 7.354026883874783 8.625694113882277 12.844917616417495
Mn 6.8260547770375535 12.719090838338106 11.258935391984979
Mn 9.800611138039539 7.975124192574867 13.848102705342127
Mn 6.958275807410925 11.064513601127857 12.959957274217697
Mn 11.425731021062758 14.4533142642362 10.216609318129336
Mn 8.959934089402923 14.265818589065448 10.995872244662733
Mn 12.130320898321397 5.943748202275229 11.50526752397671
Mn 10.433414517147405 5.679207729147854 13.257711099844828
Mn 12.303318128636448 6.96574356023519 13.919752769629973
Mn 13.759580241379227 6.433865006467516 9.696613427703268
Mn 7.113077340232253 14.190845580317413 9.363695118131355
Mn 6.176686302694848 7.021527858597815 11.419432882385387
Mn 15.054068108304296 10.611245523546241 14.150533571588033
