6
Energy = -40.01939472 eV
Mn 6.012865869059347 6.921456680170464 7.154295262989584
Mn 6.0244771041568494 5.8368785842466435 9.335110556927196
Mn 6.734559100549902 8.429661313459983 9.15256415698576
Mn 4.52584982341125 7.482165620014153 9.5755350668032
Mn 4.635717139693065 9.038968159903725 7.7170761326118535
Mn 3.680402639495332 6.508597987614402 7.73747030138611
