7
Energy = -46.5283943 eV
Mn 11.169967037866586 8.433587833242761 7.111263325165637
Mn 9.373482987590576 6.618831236983424 7.545420868240363
Mn 9.179569359647125 8.813154406567591 8.687989188889562
Mn 8.72248682948782 8.78022518610353 6.280748682356535
Mn 7.142616197878343 7.579661773910221 7.78481884259186
Mn 7.0042046654047505 8.575458071843803 9.975060743829282
Mn 4.880498327034333 7.9677289252970285 8.546554903151893
