8
Energy = -54.55366346 eV
Mn 8.867457309553052 10.733981593853093 9.614085904677566
Mn 10.786994659966105 11.648267788870085 8.851103082398188
Mn 12.541167640718392 10.411529534041271 9.954147494223145
Mn 10.681079012321392 9.21861424542093 8.480829710198122
Mn 10.61822327629751 9.27037315437463 10.910429080118488
Mn 8.588078660277466 8.25333811480947 10.035123575951586
Mn 8.537256017609625 9.925233916925636 11.986943327738121
Mn 10.636493211776644 11.66566923290744 11.31476743345313
