9
Energy = -62.1908378 eV
Mn 8.483282939980663 9.381927815846497 10.208112992944544
Mn 9.111385370999441 11.474253396038705 11.235716681405904
Mn 11.07509910673171 9.881708940285632 10.661796713188672
Mn 10.003679835562435 7.499196795523939 10.629287436280675
Mn 9.3496662430889 11.233570867520738 8.777553531595462
Mn 10.098729708174211 8.804658950060315 8.41875293205817
Mn 11.820460700383753 10.554836408459485 8.462656434711457
Mn 9.425514187002904 9.173498617541197 12.541521832901239
Mn 11.139932441269286 12.464449463125021 9.899624895885465
