       N       E                     dE             d eps       ncg     rms          rms(c)
DAV:   1     0.484231678052E+04    0.48423E+04   -0.11887E+05  1520   0.618E+02
DAV:   2     0.754612447117E+03   -0.40877E+04   -0.36821E+04  2400   0.169E+02
DAV:   3    -0.798565677400E+02   -0.83447E+03   -0.77270E+03  1880   0.828E+01
DAV:   4    -0.111165978677E+03   -0.31309E+02   -0.31044E+02  1640   0.172E+01
DAV:   5    -0.111624697133E+03   -0.45872E+00   -0.45819E+00  1656   0.240E+00    0.482E+01
DAV:   6    -0.467705423591E+02    0.64854E+02   -0.19474E+02  1516   0.167E+01    0.270E+01
DAV:   7    -0.382464654887E+02    0.85241E+01   -0.12310E+01  1560   0.592E+00    0.156E+01
DAV:   8    -0.320466729594E+02    0.61998E+01   -0.37830E+00  1604   0.347E+00    0.788E+00
DAV:   9    -0.354354984117E+02   -0.33888E+01   -0.64557E-01  1640   0.131E+00    0.575E+00
DAV:  10    -0.409692654011E+02   -0.55338E+01   -0.12235E+00  1576   0.177E+00    0.529E+00
DAV:  11    -0.484058585472E+02   -0.74366E+01   -0.19808E+00  1584   0.217E+00    0.476E+00
DAV:  12    -0.603472347675E+02   -0.11941E+02   -0.48834E+00  1536   0.265E+00    0.345E+00
DAV:  13    -0.755461939562E+02   -0.15199E+02   -0.64255E+00  1520   0.252E+00    0.289E+00
DAV:  14    -0.832544216370E+02   -0.77082E+01   -0.28135E+00  1592   0.213E+00    0.247E+00
DAV:  15    -0.874117784871E+02   -0.41574E+01   -0.98852E-01  1584   0.132E+00    0.200E+00
DAV:  16    -0.950764946045E+02   -0.76647E+01   -0.20734E+00  1540   0.140E+00    0.140E+00
DAV:  17    -0.101205402475E+03   -0.61289E+01   -0.13015E+00  1536   0.962E-01    0.989E-01
DAV:  18    -0.104107024166E+03   -0.29016E+01   -0.34375E-01  1560   0.544E-01    0.703E-01
DAV:  19    -0.106672091798E+03   -0.25651E+01   -0.23064E-01  1552   0.546E-01    0.136E+00
DAV:  20    -0.106768245139E+03   -0.96153E-01   -0.60361E-03  1680   0.136E-01    0.125E+00
DAV:  21    -0.106943049521E+03   -0.17480E+00   -0.52530E-03  1584   0.200E-01    0.106E+00
DAV:  22    -0.107693339939E+03   -0.75029E+00   -0.53601E-02  1544   0.617E-01    0.455E-01
DAV:  23    -0.108306251309E+03   -0.61291E+00   -0.37191E-02  1584   0.312E-01    0.205E-01
DAV:  24    -0.108476520795E+03   -0.17027E+00   -0.35113E-03  1600   0.107E-01    0.139E-01
DAV:  25    -0.108686223283E+03   -0.20970E+00   -0.44590E-03  1560   0.829E-02    0.806E-02
DAV:  26    -0.108753261254E+03   -0.67038E-01   -0.13042E-03  1208   0.470E-02    0.469E-02
DAV:  27    -0.108774875473E+03   -0.21614E-01   -0.36292E-04  1064   0.311E-02    0.333E-02
DAV:  28    -0.108793703324E+03   -0.18828E-01   -0.59999E-04  1060   0.222E-02    0.182E-02
DAV:  29    -0.108803451415E+03   -0.97481E-02   -0.31804E-04  1072   0.150E-02    0.131E-02
DAV:  30    -0.108808613316E+03   -0.51619E-02   -0.79317E-05  1048   0.868E-03    0.886E-03
DAV:  31    -0.108812723746E+03   -0.41104E-02   -0.75996E-05  1016   0.945E-03    0.874E-03
DAV:  32    -0.108814199079E+03   -0.14753E-02   -0.11788E-05  1000   0.472E-03    0.562E-03
DAV:  33    -0.108815239805E+03   -0.10407E-02   -0.16080E-05   992   0.412E-03    0.373E-03
DAV:  34    -0.108815566096E+03   -0.32629E-03   -0.78549E-06   976   0.250E-03    0.256E-03
DAV:  35    -0.108815748719E+03   -0.18262E-03   -0.61618E-06   984   0.196E-03    0.181E-03
DAV:  36    -0.108815908566E+03   -0.15985E-03   -0.62219E-06   976   0.209E-03    0.129E-03
DAV:  37    -0.108816009108E+03   -0.10054E-03   -0.31999E-06   960   0.155E-03    0.109E-03
DAV:  38    -0.108816074854E+03   -0.65747E-04   -0.30702E-06   976   0.125E-03
   1 F= -.10881607E+03 E0= -.10881607E+03  d E =-.108816E+03  mag=    -0.0010
       N       E                     dE             d eps       ncg     rms          rms(c)
DAV:   1    -0.109611729420E+03   -0.79572E+00   -0.61350E+01  1496   0.110E+01    0.115E+00
DAV:   2    -0.109639536867E+03   -0.27807E-01   -0.29302E-01  1536   0.105E+00    0.828E-01
DAV:   3    -0.109638320647E+03    0.12162E-02   -0.11540E-02  1528   0.225E-01    0.295E-01
DAV:   4    -0.109638186136E+03    0.13451E-03   -0.20914E-03  1528   0.157E-01    0.552E-02
DAV:   5    -0.109638076211E+03    0.10993E-03   -0.44093E-04   976   0.730E-02    0.300E-02
DAV:   6    -0.109638052944E+03    0.23267E-04   -0.16766E-04   968   0.283E-02
   2 F= -.10963805E+03 E0= -.10963805E+03  d E =-.821978E+00  mag=    -0.0004
       N       E                     dE             d eps       ncg     rms          rms(c)
DAV:   1    -0.111030842257E+03   -0.13928E+01   -0.55696E+02  1488   0.334E+01    0.269E+00
DAV:   2    -0.111279789360E+03   -0.24895E+00   -0.26020E+00  1552   0.318E+00    0.213E+00
DAV:   3    -0.111271059579E+03    0.87298E-02   -0.64000E-02  1552   0.514E-01    0.109E+00
DAV:   4    -0.111269430543E+03    0.16290E-02   -0.18597E-02  1568   0.331E-01    0.142E-01
DAV:   5    -0.111268737119E+03    0.69342E-03   -0.22588E-03  1520   0.163E-01    0.805E-02
DAV:   6    -0.111268579770E+03    0.15735E-03   -0.10737E-03  1552   0.745E-02    0.402E-02
DAV:   7    -0.111268611084E+03   -0.31315E-04   -0.13844E-04   936   0.304E-02
   3 F= -.11126861E+03 E0= -.11126861E+03  d E =-.245254E+01  mag=    -0.0002
       N       E                     dE             d eps       ncg     rms          rms(c)
DAV:   1    -0.110763805886E+03    0.50477E+00   -0.22920E+03  1488   0.690E+01    0.359E+00
DAV:   2    -0.111833251895E+03   -0.10694E+01   -0.11088E+01  1520   0.676E+00    0.335E+00
DAV:   3    -0.111827036907E+03    0.62150E-02   -0.18992E-01  1568   0.841E-01    0.243E+00
DAV:   4    -0.111802145784E+03    0.24891E-01   -0.77697E-02  1544   0.510E-01    0.961E-01
DAV:   5    -0.111802869206E+03   -0.72342E-03   -0.97984E-03  1608   0.244E-01    0.227E-01
DAV:   6    -0.111802153231E+03    0.71598E-03   -0.17208E-03  1528   0.743E-02    0.121E-01
DAV:   7    -0.111802183540E+03   -0.30309E-04   -0.64583E-04  1576   0.531E-02
   4 F= -.11180218E+03 E0= -.11180218E+03  d E =-.298611E+01  mag=    -0.0001
       N       E                     dE             d eps       ncg     rms          rms(c)
DAV:   1    -0.111865949112E+03   -0.63796E-01   -0.18101E+02  1488   0.189E+01    0.108E+00
DAV:   2    -0.111950045086E+03   -0.84096E-01   -0.89242E-01  1552   0.184E+00    0.722E-01
DAV:   3    -0.111948177640E+03    0.18674E-02   -0.18039E-02  1552   0.257E-01    0.425E-01
DAV:   4    -0.111947573384E+03    0.60426E-03   -0.57229E-03  1528   0.143E-01    0.927E-02
DAV:   5    -0.111947559314E+03    0.14070E-04   -0.30360E-04  1184   0.488E-02
   5 F= -.11194756E+03 E0= -.11194756E+03  d E =-.313148E+01  mag=    -0.0000
       N       E                     dE             d eps       ncg     rms          rms(c)
DAV:   1    -0.112310670911E+03   -0.36310E+00   -0.97766E+01  1488   0.139E+01    0.948E-01
DAV:   2    -0.112352668188E+03   -0.41997E-01   -0.42384E-01  1536   0.128E+00    0.642E-01
DAV:   3    -0.112350659267E+03    0.20089E-02   -0.97733E-03  1552   0.235E-01    0.381E-01
DAV:   4    -0.112350452604E+03    0.20666E-03   -0.52300E-03  1576   0.136E-01    0.875E-02
DAV:   5    -0.112350204988E+03    0.24762E-03   -0.54733E-04  1544   0.412E-02    0.290E-02
DAV:   6    -0.112350180839E+03    0.24149E-04   -0.12569E-04  1008   0.172E-02
   6 F= -.11235018E+03 E0= -.11235018E+03  d E =-.402622E+00  mag=    -0.0000
       N       E                     dE             d eps       ncg     rms          rms(c)
DAV:   1    -0.112494823698E+03   -0.14462E+00   -0.89721E+02  1488   0.425E+01    0.225E+00
DAV:   2    -0.112893906178E+03   -0.39908E+00   -0.40433E+00  1552   0.404E+00    0.161E+00
DAV:   3    -0.112882663551E+03    0.11243E-01   -0.74206E-02  1560   0.684E-01    0.117E+00
DAV:   4    -0.112874574927E+03    0.80886E-02   -0.48946E-02  1536   0.337E-01    0.204E-01
DAV:   5    -0.112874094298E+03    0.48063E-03   -0.16106E-03  1520   0.890E-02    0.933E-02
DAV:   6    -0.112873919680E+03    0.17462E-03   -0.85001E-04  1568   0.437E-02    0.336E-02
DAV:   7    -0.112873956780E+03   -0.37100E-04   -0.33290E-05   960   0.157E-02
   7 F= -.11287396E+03 E0= -.11287396E+03  d E =-.926397E+00  mag=    -0.0000
       N       E                     dE             d eps       ncg     rms          rms(c)
DAV:   1    -0.112876629456E+03   -0.27098E-02   -0.12211E+01  1496   0.491E+00    0.223E-01
DAV:   2    -0.112881894907E+03   -0.52655E-02   -0.53399E-02  1544   0.456E-01    0.160E-01
DAV:   3    -0.112881718398E+03    0.17651E-03   -0.98244E-04  1568   0.697E-02    0.111E-01
DAV:   4    -0.112881625031E+03    0.93366E-04   -0.72332E-04  1536   0.415E-02
   8 F= -.11288163E+03 E0= -.11288163E+03  d E =-.934066E+00  mag=    -0.0000
       N       E                     dE             d eps       ncg     rms          rms(c)
DAV:   1    -0.113018838929E+03   -0.13712E+00   -0.71600E+01  1488   0.119E+01    0.636E-01
DAV:   2    -0.113050408609E+03   -0.31570E-01   -0.32105E-01  1536   0.111E+00    0.475E-01
DAV:   3    -0.113049456541E+03    0.95207E-03   -0.61825E-03  1576   0.164E-01    0.293E-01
DAV:   4    -0.113048996154E+03    0.46039E-03   -0.31060E-03  1536   0.933E-02    0.482E-02
DAV:   5    -0.113048962546E+03    0.33607E-04   -0.10298E-04   944   0.264E-02
   9 F= -.11304896E+03 E0= -.11304896E+03  d E =-.167338E+00  mag=    -0.0000
       N       E                     dE             d eps       ncg     rms          rms(c)
DAV:   1    -0.113085395770E+03   -0.36400E-01   -0.19437E+02  1488   0.196E+01    0.886E-01
DAV:   2    -0.113171106574E+03   -0.85711E-01   -0.87064E-01  1552   0.184E+00    0.674E-01
DAV:   3    -0.113169035005E+03    0.20716E-02   -0.15484E-02  1568   0.256E-01    0.457E-01
DAV:   4    -0.113167315592E+03    0.17194E-02   -0.84754E-03  1536   0.147E-01    0.971E-02
DAV:   5    -0.113167310478E+03    0.51138E-05   -0.23899E-04  1056   0.406E-02
  10 F= -.11316731E+03 E0= -.11316731E+03  d E =-.285685E+00  mag=    -0.0000
       N       E                     dE             d eps       ncg     rms          rms(c)
DAV:   1    -0.113167261549E+03    0.54043E-04   -0.75244E+00  1496   0.385E+00    0.163E-01
DAV:   2    -0.113170593996E+03   -0.33324E-02   -0.34104E-02  1568   0.363E-01    0.121E-01
DAV:   3    -0.113170536446E+03    0.57550E-04   -0.59850E-04  1560   0.497E-02
  11 F= -.11317054E+03 E0= -.11317054E+03  d E =-.288911E+00  mag=    -0.0000
       N       E                     dE             d eps       ncg     rms          rms(c)
DAV:   1    -0.113216237403E+03   -0.45643E-01   -0.36829E+01  1488   0.856E+00    0.308E-01
DAV:   2    -0.113232602341E+03   -0.16365E-01   -0.16533E-01  1520   0.802E-01    0.256E-01
DAV:   3    -0.113232276061E+03    0.32628E-03   -0.26987E-03  1624   0.101E-01    0.179E-01
DAV:   4    -0.113231830728E+03    0.44533E-03   -0.15136E-03  1552   0.594E-02    0.559E-02
DAV:   5    -0.113231856011E+03   -0.25283E-04   -0.11595E-04   912   0.225E-02
  12 F= -.11323186E+03 E0= -.11323186E+03  d E =-.613196E-01  mag=    -0.0000
       N       E                     dE             d eps       ncg     rms          rms(c)
DAV:   1    -0.113192148534E+03    0.39682E-01   -0.23638E+02  1488   0.217E+01    0.757E-01
DAV:   2    -0.113298337037E+03   -0.10619E+00   -0.10698E+00  1520   0.205E+00    0.635E-01
DAV:   3    -0.113296468998E+03    0.18680E-02   -0.17276E-02  1584   0.258E-01    0.448E-01
DAV:   4    -0.113293519712E+03    0.29493E-02   -0.84434E-03  1552   0.141E-01    0.163E-01
DAV:   5    -0.113293646431E+03   -0.12672E-03   -0.12116E-03  1584   0.618E-02    0.621E-02
DAV:   6    -0.113293560167E+03    0.86264E-04   -0.18026E-04   992   0.206E-02
  13 F= -.11329356E+03 E0= -.11329356E+03  d E =-.123024E+00  mag=    -0.0000
       N       E                     dE             d eps       ncg     rms          rms(c)
DAV:   1    -0.113318900013E+03   -0.25254E-01   -0.50117E+01  1488   0.998E+00    0.241E-01
DAV:   2    -0.113341119269E+03   -0.22219E-01   -0.22111E-01  1520   0.935E-01    0.248E-01
DAV:   3    -0.113340848480E+03    0.27079E-03   -0.34294E-03  1600   0.116E-01    0.188E-01
DAV:   4    -0.113340107709E+03    0.74077E-03   -0.96041E-04  1536   0.477E-02    0.113E-01
DAV:   5    -0.113339986079E+03    0.12163E-03   -0.12963E-03  1536   0.544E-02    0.407E-02
DAV:   6    -0.113339984984E+03    0.10952E-05   -0.25307E-05   944   0.913E-03
  14 F= -.11333998E+03 E0= -.11333998E+03  d E =-.464248E-01  mag=    -0.0000
       N       E                     dE             d eps       ncg     rms          rms(c)
DAV:   1    -0.113207216870E+03    0.13277E+00   -0.45422E+02  1488   0.302E+01    0.816E-01
DAV:   2    -0.113411754166E+03   -0.20454E+00   -0.20328E+00  1520   0.284E+00    0.749E-01
DAV:   3    -0.113408692790E+03    0.30614E-02   -0.31724E-02  1600   0.351E-01    0.546E-01
DAV:   4    -0.113402241776E+03    0.64510E-02   -0.95743E-03  1552   0.150E-01    0.302E-01
DAV:   5    -0.113401396810E+03    0.84497E-03   -0.77216E-03  1536   0.134E-01    0.101E-01
DAV:   6    -0.113401374066E+03    0.22744E-04   -0.19333E-04  1040   0.239E-02
  15 F= -.11340137E+03 E0= -.11340137E+03  d E =-.107814E+00  mag=    -0.0000
       N       E                     dE             d eps       ncg     rms          rms(c)
DAV:   1    -0.113409060304E+03   -0.76635E-02   -0.89259E+01  1488   0.133E+01    0.381E-01
DAV:   2    -0.113448731668E+03   -0.39671E-01   -0.39453E-01  1536   0.125E+00    0.334E-01
DAV:   3    -0.113448021037E+03    0.71063E-03   -0.58806E-03  1552   0.153E-01    0.243E-01
DAV:   4    -0.113446758487E+03    0.12626E-02   -0.26455E-03  1520   0.774E-02    0.109E-01
DAV:   5    -0.113446758598E+03   -0.11051E-06   -0.10208E-03  1552   0.514E-02    0.415E-02
DAV:   6    -0.113446750059E+03    0.85390E-05   -0.54645E-05   952   0.126E-02
  16 F= -.11344675E+03 E0= -.11344675E+03  d E =-.453760E-01  mag=    -0.0000
       N       E                     dE             d eps       ncg     rms          rms(c)
DAV:   1    -0.113422116770E+03    0.24642E-01   -0.96594E+01  1488   0.139E+01    0.401E-01
DAV:   2    -0.113464969304E+03   -0.42853E-01   -0.42663E-01  1536   0.129E+00    0.345E-01
DAV:   3    -0.113464157252E+03    0.81205E-03   -0.63682E-03  1536   0.159E-01    0.251E-01
DAV:   4    -0.113462787058E+03    0.13702E-02   -0.29541E-03  1536   0.816E-02    0.108E-01
DAV:   5    -0.113462789943E+03   -0.28851E-05   -0.98732E-04  1552   0.508E-02
  17 F= -.11346279E+03 E0= -.11346279E+03  d E =-.614159E-01  mag=    -0.0000
       N       E                     dE             d eps       ncg     rms          rms(c)
DAV:   1    -0.113451047691E+03    0.11739E-01   -0.12555E+02  1488   0.158E+01    0.438E-01
DAV:   2    -0.113507039731E+03   -0.55992E-01   -0.55710E-01  1520   0.148E+00    0.379E-01
DAV:   3    -0.113506077788E+03    0.96194E-03   -0.86044E-03  1552   0.183E-01    0.276E-01
DAV:   4    -0.113504315994E+03    0.17618E-02   -0.33073E-03  1536   0.861E-02    0.129E-01
DAV:   5    -0.113504263877E+03    0.52116E-04   -0.16394E-03  1536   0.626E-02    0.474E-02
DAV:   6    -0.113504253298E+03    0.10579E-04   -0.69705E-05   928   0.133E-02
  18 F= -.11350425E+03 E0= -.11350425E+03  d E =-.414634E-01  mag=    -0.0000
       N       E                     dE             d eps       ncg     rms          rms(c)
DAV:   1    -0.113416817383E+03    0.87446E-01   -0.22065E+02  1488   0.210E+01    0.615E-01
DAV:   2    -0.113515507046E+03   -0.98690E-01   -0.98202E-01  1520   0.197E+00    0.511E-01
DAV:   3    -0.113513552595E+03    0.19545E-02   -0.15281E-02  1568   0.247E-01    0.366E-01
DAV:   4    -0.113510349772E+03    0.32028E-02   -0.64159E-03  1536   0.119E-01    0.160E-01
DAV:   5    -0.113510280089E+03    0.69683E-04   -0.23702E-03  1568   0.764E-02    0.589E-02
DAV:   6    -0.113510255862E+03    0.24226E-04   -0.12852E-04   960   0.180E-02
  19 F= -.11351026E+03 E0= -.11351026E+03  d E =-.474659E-01  mag=    -0.0000
       N       E                     dE             d eps       ncg     rms          rms(c)
DAV:   1    -0.113501646314E+03    0.86338E-02   -0.31540E+01  1488   0.792E+00    0.202E-01
DAV:   2    -0.113515482933E+03   -0.13837E-01   -0.13718E-01  1520   0.735E-01    0.200E-01
DAV:   3    -0.113515285109E+03    0.19782E-03   -0.21043E-03  1600   0.893E-02    0.155E-01
DAV:   4    -0.113514781174E+03    0.50393E-03   -0.79172E-04  1520   0.423E-02    0.811E-02
DAV:   5    -0.113514746553E+03    0.34621E-04   -0.64761E-04  1536   0.387E-02
  20 F= -.11351475E+03 E0= -.11351475E+03  d E =-.519566E-01  mag=    -0.0000
       N       E                     dE             d eps       ncg     rms          rms(c)
DAV:   1    -0.113500300453E+03    0.14481E-01   -0.11241E+02  1488   0.150E+01    0.381E-01
DAV:   2    -0.113549884878E+03   -0.49584E-01   -0.49416E-01  1520   0.139E+00    0.353E-01
DAV:   3    -0.113549079942E+03    0.80494E-03   -0.76178E-03  1568   0.171E-01    0.263E-01
DAV:   4    -0.113547416855E+03    0.16631E-02   -0.24787E-03  1536   0.754E-02    0.140E-01
DAV:   5    -0.113547215828E+03    0.20103E-03   -0.20313E-03  1568   0.684E-02    0.485E-02
DAV:   6    -0.113547207801E+03    0.80279E-05   -0.47545E-05   880   0.114E-02
  21 F= -.11354721E+03 E0= -.11354721E+03  d E =-.324612E-01  mag=    -0.0000
       N       E                     dE             d eps       ncg     rms          rms(c)
DAV:   1    -0.113525595272E+03    0.21621E-01   -0.64824E+01  1488   0.114E+01    0.290E-01
DAV:   2    -0.113554193474E+03   -0.28598E-01   -0.28521E-01  1536   0.106E+00    0.268E-01
DAV:   3    -0.113553769637E+03    0.42384E-03   -0.43770E-03  1568   0.130E-01    0.199E-01
DAV:   4    -0.113552852806E+03    0.91683E-03   -0.14289E-03  1520   0.573E-02    0.105E-01
DAV:   5    -0.113552766043E+03    0.86763E-04   -0.11454E-03  1568   0.515E-02    0.376E-02
DAV:   6    -0.113552764846E+03    0.11977E-05   -0.29401E-05   880   0.884E-03
  22 F= -.11355276E+03 E0= -.11355276E+03  d E =-.380183E-01  mag=    -0.0000
       N       E                     dE             d eps       ncg     rms          rms(c)
DAV:   1    -0.113532388557E+03    0.20377E-01   -0.99986E+01  1488   0.141E+01    0.336E-01
DAV:   2    -0.113576859175E+03   -0.44471E-01   -0.44242E-01  1536   0.132E+00    0.337E-01
DAV:   3    -0.113576299601E+03    0.55957E-03   -0.66214E-03  1568   0.161E-01    0.254E-01
DAV:   4    -0.113574889807E+03    0.14098E-02   -0.17196E-03  1536   0.638E-02    0.153E-01
DAV:   5    -0.113574583999E+03    0.30581E-03   -0.24556E-03  1536   0.736E-02    0.524E-02
DAV:   6    -0.113574589456E+03   -0.54565E-05   -0.37166E-05   912   0.103E-02
  23 F= -.11357459E+03 E0= -.11357459E+03  d E =-.218246E-01  mag=    -0.0000
       N       E                     dE             d eps       ncg     rms          rms(c)
DAV:   1    -0.113559945541E+03    0.14638E-01   -0.42033E+01  1488   0.913E+00    0.217E-01
DAV:   2    -0.113578664777E+03   -0.18719E-01   -0.18592E-01  1552   0.858E-01    0.218E-01
DAV:   3    -0.113578448682E+03    0.21610E-03   -0.27735E-03  1552   0.104E-01    0.164E-01
DAV:   4    -0.113577863518E+03    0.58516E-03   -0.74249E-04  1536   0.419E-02    0.986E-02
DAV:   5    -0.113577753040E+03    0.11048E-03   -0.10386E-03  1536   0.479E-02    0.345E-02
DAV:   6    -0.113577759188E+03   -0.61478E-05   -0.16924E-05   880   0.689E-03
  24 F= -.11357776E+03 E0= -.11357776E+03  d E =-.249943E-01  mag=    -0.0000
       N       E                     dE             d eps       ncg     rms          rms(c)
DAV:   1    -0.113562807066E+03    0.14946E-01   -0.76152E+01  1488   0.123E+01    0.319E-01
DAV:   2    -0.113596433037E+03   -0.33626E-01   -0.33321E-01  1536   0.114E+00    0.296E-01
DAV:   3    -0.113595878631E+03    0.55441E-03   -0.48669E-03  1568   0.138E-01    0.225E-01
DAV:   4    -0.113594726828E+03    0.11518E-02   -0.18678E-03  1536   0.647E-02    0.111E-01
DAV:   5    -0.113594628410E+03    0.98419E-04   -0.12927E-03  1568   0.546E-02    0.400E-02
DAV:   6    -0.113594620914E+03    0.74951E-05   -0.39710E-05   880   0.101E-02
  25 F= -.11359462E+03 E0= -.11359462E+03  d E =-.168617E-01  mag=    -0.0000
       N       E                     dE             d eps       ncg     rms          rms(c)
DAV:   1    -0.113592394394E+03    0.22340E-02   -0.64341E+00  1488   0.358E+00    0.913E-02
DAV:   2    -0.113595237983E+03   -0.28436E-02   -0.28163E-02  1568   0.332E-01    0.851E-02
DAV:   3    -0.113595194714E+03    0.43269E-04   -0.40132E-04  1376   0.397E-02
  26 F= -.11359519E+03 E0= -.11359519E+03  d E =-.174355E-01  mag=    -0.0000
       N       E                     dE             d eps       ncg     rms          rms(c)
DAV:   1    -0.113576857224E+03    0.18381E-01   -0.76096E+01  1488   0.123E+01    0.293E-01
DAV:   2    -0.113610431474E+03   -0.33574E-01   -0.33248E-01  1536   0.114E+00    0.298E-01
DAV:   3    -0.113609981447E+03    0.45003E-03   -0.50165E-03  1568   0.137E-01    0.234E-01
DAV:   4    -0.113608764768E+03    0.12167E-02   -0.16267E-03  1536   0.609E-02    0.130E-01
DAV:   5    -0.113608573574E+03    0.19119E-03   -0.19532E-03  1536   0.660E-02    0.471E-02
DAV:   6    -0.113608569630E+03    0.39433E-05   -0.37195E-05   896   0.103E-02
  27 F= -.11360857E+03 E0= -.11360857E+03  d E =-.133749E-01  mag=    -0.0000
       N       E                     dE             d eps       ncg     rms          rms(c)
DAV:   1    -0.113603005432E+03    0.55681E-02   -0.13933E+01  1488   0.526E+00    0.125E-01
DAV:   2    -0.113609202012E+03   -0.61966E-02   -0.61329E-02  1536   0.491E-01    0.122E-01
DAV:   3    -0.113609124110E+03    0.77902E-04   -0.92422E-04  1568   0.592E-02
  28 F= -.11360912E+03 E0= -.11360912E+03  d E =-.139294E-01  mag=    -0.0000
       N       E                     dE             d eps       ncg     rms          rms(c)
DAV:   1    -0.113584016204E+03    0.25186E-01   -0.88765E+01  1488   0.133E+01    0.316E-01
DAV:   2    -0.113623436544E+03   -0.39420E-01   -0.39072E-01  1520   0.124E+00    0.325E-01
DAV:   3    -0.113622871861E+03    0.56468E-03   -0.58554E-03  1568   0.146E-01    0.257E-01
DAV:   4    -0.113621332086E+03    0.15398E-02   -0.21388E-03  1536   0.697E-02    0.139E-01
DAV:   5    -0.113621130750E+03    0.20134E-03   -0.22676E-03  1552   0.713E-02    0.521E-02
DAV:   6    -0.113621126746E+03    0.40044E-05   -0.45100E-05   912   0.119E-02
  29 F= -.11362113E+03 E0= -.11362113E+03  d E =-.120026E-01  mag=    -0.0000
       N       E                     dE             d eps       ncg     rms          rms(c)
DAV:   1    -0.113615595214E+03    0.55355E-02   -0.14684E+01  1488   0.539E+00    0.125E-01
DAV:   2    -0.113622161333E+03   -0.65661E-02   -0.65213E-02  1504   0.504E-01    0.124E-01
DAV:   3    -0.113622084119E+03    0.77214E-04   -0.97811E-04  1584   0.602E-02
  30 F= -.11362208E+03 E0= -.11362208E+03  d E =-.129600E-01  mag=    -0.0000
       N       E                     dE             d eps       ncg     rms          rms(c)
DAV:   1    -0.113602247145E+03    0.19914E-01   -0.80635E+01  1488   0.126E+01    0.310E-01
DAV:   2    -0.113638217277E+03   -0.35970E-01   -0.35590E-01  1568   0.117E+00    0.294E-01
DAV:   3    -0.113637600840E+03    0.61644E-03   -0.52321E-03  1600   0.137E-01    0.231E-01
DAV:   4    -0.113636254050E+03    0.13468E-02   -0.23151E-03  1552   0.720E-02    0.106E-01
DAV:   5    -0.113636179902E+03    0.74147E-04   -0.14075E-03  1520   0.580E-02    0.409E-02
DAV:   6    -0.113636177391E+03    0.25117E-05   -0.39222E-05   912   0.120E-02
  31 F= -.11363618E+03 E0= -.11363618E+03  d E =-.140933E-01  mag=    -0.0000
       N       E                     dE             d eps       ncg     rms          rms(c)
DAV:   1    -0.113621300219E+03    0.14880E-01   -0.40344E+01  1488   0.892E+00    0.217E-01
DAV:   2    -0.113639419569E+03   -0.18119E-01   -0.17961E-01  1536   0.832E-01    0.197E-01
DAV:   3    -0.113639151452E+03    0.26812E-03   -0.26452E-03  1552   0.981E-02    0.153E-01
DAV:   4    -0.113638582695E+03    0.56876E-03   -0.90845E-04  1568   0.456E-02    0.741E-02
DAV:   5    -0.113638540727E+03    0.41968E-04   -0.69716E-04  1520   0.405E-02
  32 F= -.11363854E+03 E0= -.11363854E+03  d E =-.164566E-01  mag=    -0.0000
       N       E                     dE             d eps       ncg     rms          rms(c)
DAV:   1    -0.113630057282E+03    0.85254E-02   -0.47193E+01  1488   0.962E+00    0.217E-01
DAV:   2    -0.113651438625E+03   -0.21381E-01   -0.21093E-01  1520   0.899E-01    0.199E-01
DAV:   3    -0.113651186512E+03    0.25211E-03   -0.30769E-03  1584   0.105E-01    0.155E-01
DAV:   4    -0.113650601023E+03    0.58549E-03   -0.76533E-04  1552   0.422E-02    0.843E-02
DAV:   5    -0.113650497811E+03    0.10321E-03   -0.97941E-04  1536   0.466E-02    0.275E-02
DAV:   6    -0.113650504982E+03   -0.71709E-05   -0.14347E-05   928   0.727E-03
  33 F= -.11365050E+03 E0= -.11365050E+03  d E =-.119643E-01  mag=    -0.0000
       N       E                     dE             d eps       ncg     rms          rms(c)
DAV:   1    -0.113540937498E+03    0.10956E+00   -0.27751E+02  1488   0.234E+01    0.580E-01
DAV:   2    -0.113667284586E+03   -0.12635E+00   -0.12493E+00  1520   0.220E+00    0.495E-01
DAV:   3    -0.113665344172E+03    0.19404E-02   -0.18471E-02  1584   0.261E-01    0.376E-01
DAV:   4    -0.113661789161E+03    0.35550E-02   -0.47411E-03  1552   0.105E-01    0.200E-01
DAV:   5    -0.113661103525E+03    0.68564E-03   -0.46912E-03  1536   0.103E-01    0.576E-02
DAV:   6    -0.113661126739E+03   -0.23214E-04   -0.70078E-05   944   0.170E-02
  34 F= -.11366113E+03 E0= -.11366113E+03  d E =-.225860E-01  mag=    -0.0000
       N       E                     dE             d eps       ncg     rms          rms(c)
DAV:   1    -0.113646711923E+03    0.14392E-01   -0.64696E+01  1488   0.113E+01    0.250E-01
DAV:   2    -0.113675908509E+03   -0.29197E-01   -0.28846E-01  1504   0.105E+00    0.239E-01
DAV:   3    -0.113675545790E+03    0.36272E-03   -0.42133E-03  1616   0.124E-01    0.187E-01
DAV:   4    -0.113674697945E+03    0.84785E-03   -0.10229E-03  1536   0.492E-02    0.107E-01
DAV:   5    -0.113674514914E+03    0.18303E-03   -0.15459E-03  1536   0.585E-02    0.344E-02
DAV:   6    -0.113674528091E+03   -0.13177E-04   -0.20242E-05   896   0.901E-03
  35 F= -.11367453E+03 E0= -.11367453E+03  d E =-.134014E-01  mag=    -0.0000
       N       E                     dE             d eps       ncg     rms          rms(c)
DAV:   1    -0.113620344573E+03    0.54170E-01   -0.14291E+02  1488   0.168E+01    0.389E-01
DAV:   2    -0.113685160290E+03   -0.64816E-01   -0.64008E-01  1504   0.157E+00    0.357E-01
DAV:   3    -0.113684291392E+03    0.86890E-03   -0.94153E-03  1600   0.186E-01    0.276E-01
DAV:   4    -0.113682417171E+03    0.18742E-02   -0.23662E-03  1584   0.747E-02    0.152E-01
DAV:   5    -0.113682031115E+03    0.38606E-03   -0.29948E-03  1520   0.817E-02    0.473E-02
DAV:   6    -0.113682043976E+03   -0.12862E-04   -0.42394E-05   928   0.130E-02
  36 F= -.11368204E+03 E0= -.11368204E+03  d E =-.209172E-01  mag=    -0.0000
       N       E                     dE             d eps       ncg     rms          rms(c)
DAV:   1    -0.113671555514E+03    0.10476E-01   -0.57564E+01  1488   0.107E+01    0.237E-01
DAV:   2    -0.113697476051E+03   -0.25921E-01   -0.25554E-01  1504   0.992E-01    0.234E-01
DAV:   3    -0.113697161688E+03    0.31436E-03   -0.37386E-03  1616   0.115E-01    0.185E-01
DAV:   4    -0.113696349643E+03    0.81204E-03   -0.10555E-03  1552   0.498E-02    0.102E-01
DAV:   5    -0.113696213667E+03    0.13598E-03   -0.13452E-03  1552   0.552E-02    0.357E-02
DAV:   6    -0.113696220361E+03   -0.66939E-05   -0.20440E-05   904   0.908E-03
  37 F= -.11369622E+03 E0= -.11369622E+03  d E =-.141764E-01  mag=    -0.0000
       N       E                     dE             d eps       ncg     rms          rms(c)
DAV:   1    -0.113677558888E+03    0.18655E-01   -0.53598E+01  1488   0.103E+01    0.229E-01
DAV:   2    -0.113701733363E+03   -0.24174E-01   -0.23806E-01  1504   0.957E-01    0.225E-01
DAV:   3    -0.113701459959E+03    0.27340E-03   -0.34826E-03  1600   0.111E-01    0.178E-01
DAV:   4    -0.113700708082E+03    0.75188E-03   -0.98590E-04  1552   0.481E-02    0.975E-02
DAV:   5    -0.113700583895E+03    0.12419E-03   -0.12395E-03  1536   0.529E-02    0.342E-02
DAV:   6    -0.113700588374E+03   -0.44790E-05   -0.19003E-05   912   0.859E-03
  38 F= -.11370059E+03 E0= -.11370059E+03  d E =-.185444E-01  mag=    -0.0000
       N       E                     dE             d eps       ncg     rms          rms(c)
DAV:   1    -0.113691652586E+03    0.89313E-02   -0.45726E+01  1488   0.950E+00    0.228E-01
DAV:   2    -0.113712432345E+03   -0.20780E-01   -0.20388E-01  1520   0.887E-01    0.221E-01
DAV:   3    -0.113712186770E+03    0.24557E-03   -0.28851E-03  1584   0.101E-01    0.172E-01
DAV:   4    -0.113711503121E+03    0.68365E-03   -0.10714E-03  1520   0.495E-02    0.877E-02
DAV:   5    -0.113711443054E+03    0.60066E-04   -0.85742E-04  1552   0.444E-02
  39 F= -.11371144E+03 E0= -.11371144E+03  d E =-.108547E-01  mag=    -0.0000
       N       E                     dE             d eps       ncg     rms          rms(c)
DAV:   1    -0.113683884789E+03    0.27618E-01   -0.70440E+01  1488   0.118E+01    0.290E-01
DAV:   2    -0.113715790011E+03   -0.31905E-01   -0.31523E-01  1520   0.110E+00    0.272E-01
DAV:   3    -0.113715392251E+03    0.39776E-03   -0.44794E-03  1600   0.126E-01    0.207E-01
DAV:   4    -0.113714416463E+03    0.97579E-03   -0.16015E-03  1520   0.607E-02    0.105E-01
DAV:   5    -0.113714344400E+03    0.72063E-04   -0.11718E-03  1552   0.520E-02    0.390E-02
DAV:   6    -0.113714342748E+03    0.16518E-05   -0.26992E-05   912   0.914E-03
  40 F= -.11371434E+03 E0= -.11371434E+03  d E =-.137544E-01  mag=    -0.0000
       N       E                     dE             d eps       ncg     rms          rms(c)
DAV:   1    -0.113706913495E+03    0.74309E-02   -0.33559E+01  1488   0.814E+00    0.168E-01
DAV:   2    -0.113721922290E+03   -0.15009E-01   -0.14745E-01  1536   0.754E-01    0.176E-01
DAV:   3    -0.113721748606E+03    0.17368E-03   -0.21135E-03  1584   0.861E-02    0.142E-01
DAV:   4    -0.113721255252E+03    0.49335E-03   -0.54711E-04  1520   0.358E-02    0.841E-02
DAV:   5    -0.113721130279E+03    0.12497E-03   -0.95095E-04  1552   0.454E-02    0.293E-02
DAV:   6    -0.113721139893E+03   -0.96142E-05   -0.10014E-05   880   0.602E-03
  41 F= -.11372114E+03 E0= -.11372114E+03  d E =-.679714E-02  mag=    -0.0000
       N       E                     dE             d eps       ncg     rms          rms(c)
DAV:   1    -0.113685291598E+03    0.35839E-01   -0.92707E+01  1488   0.135E+01    0.286E-01
DAV:   2    -0.113726665186E+03   -0.41374E-01   -0.40774E-01  1520   0.126E+00    0.294E-01
DAV:   3    -0.113726140593E+03    0.52459E-03   -0.58566E-03  1584   0.144E-01    0.235E-01
DAV:   4    -0.113724778216E+03    0.13624E-02   -0.15076E-03  1536   0.592E-02    0.139E-01
DAV:   5    -0.113724418949E+03    0.35927E-03   -0.24651E-03  1520   0.731E-02    0.467E-02
DAV:   6    -0.113724435333E+03   -0.16384E-04   -0.25371E-05   928   0.966E-03
  42 F= -.11372444E+03 E0= -.11372444E+03  d E =-.100926E-01  mag=    -0.0000
       N       E                     dE             d eps       ncg     rms          rms(c)
DAV:   1    -0.113727330849E+03   -0.29119E-02   -0.10917E+01  1496   0.464E+00    0.128E-01
DAV:   2    -0.113732212294E+03   -0.48814E-02   -0.48536E-02  1552   0.432E-01    0.111E-01
DAV:   3    -0.113732134313E+03    0.77981E-04   -0.69498E-04  1568   0.501E-02
  43 F= -.11373213E+03 E0= -.11373213E+03  d E =-.769898E-02  mag=    -0.0000
       N       E                     dE             d eps       ncg     rms          rms(c)
DAV:   1    -0.113721017307E+03    0.11195E-01   -0.40130E+01  1488   0.891E+00    0.265E-01
DAV:   2    -0.113738716798E+03   -0.17699E-01   -0.17687E-01  1536   0.826E-01    0.228E-01
DAV:   3    -0.113738340541E+03    0.37626E-03   -0.25497E-03  1584   0.951E-02    0.169E-01
DAV:   4    -0.113737765656E+03    0.57489E-03   -0.16700E-03  1520   0.608E-02    0.566E-02
DAV:   5    -0.113737799323E+03   -0.33667E-04   -0.22376E-04   992   0.269E-02
  44 F= -.11373780E+03 E0= -.11373780E+03  d E =-.133640E-01  mag=     0.0000
       N       E                     dE             d eps       ncg     rms          rms(c)
DAV:   1    -0.113739670634E+03   -0.19050E-02   -0.11391E+01  1488   0.474E+00    0.117E-01
DAV:   2    -0.113744801476E+03   -0.51308E-02   -0.50703E-02  1584   0.442E-01    0.105E-01
DAV:   3    -0.113744740103E+03    0.61374E-04   -0.71582E-04  1568   0.510E-02
  45 F= -.11374474E+03 E0= -.11374474E+03  d E =-.694078E-02  mag=     0.0000
       N       E                     dE             d eps       ncg     rms          rms(c)
DAV:   1    -0.113724392840E+03    0.20409E-01   -0.64684E+01  1488   0.113E+01    0.295E-01
DAV:   2    -0.113753079340E+03   -0.28686E-01   -0.28480E-01  1536   0.105E+00    0.273E-01
DAV:   3    -0.113752542691E+03    0.53665E-03   -0.40581E-03  1552   0.121E-01    0.210E-01
DAV:   4    -0.113751477054E+03    0.10656E-02   -0.21805E-03  1520   0.688E-02    0.883E-02
DAV:   5    -0.113751479798E+03   -0.27438E-05   -0.86439E-04  1552   0.450E-02
  46 F= -.11375148E+03 E0= -.11375148E+03  d E =-.136805E-01  mag=     0.0000
       N       E                     dE             d eps       ncg     rms          rms(c)
DAV:   1    -0.113751102583E+03    0.37447E-03   -0.17317E+01  1488   0.585E+00    0.137E-01
DAV:   2    -0.113758887643E+03   -0.77851E-02   -0.76409E-02  1536   0.544E-01    0.130E-01
DAV:   3    -0.113758802367E+03    0.85276E-04   -0.11221E-03  1568   0.639E-02    0.996E-02
DAV:   4    -0.113758573182E+03    0.22919E-03   -0.32825E-04  1248   0.281E-02    0.536E-02
DAV:   5    -0.113758557093E+03    0.16089E-04   -0.40437E-04  1488   0.311E-02
  47 F= -.11375856E+03 E0= -.11375856E+03  d E =-.707730E-02  mag=     0.0000
       N       E                     dE             d eps       ncg     rms          rms(c)
DAV:   1    -0.113702769139E+03    0.55804E-01   -0.14949E+02  1488   0.172E+01    0.411E-01
DAV:   2    -0.113769633302E+03   -0.66864E-01   -0.65859E-01  1536   0.160E+00    0.389E-01
DAV:   3    -0.113768686552E+03    0.94675E-03   -0.97064E-03  1568   0.189E-01    0.299E-01
DAV:   4    -0.113766461031E+03    0.22255E-02   -0.30780E-03  1552   0.836E-02    0.158E-01
DAV:   5    -0.113766140286E+03    0.32075E-03   -0.29627E-03  1536   0.805E-02    0.551E-02
DAV:   6    -0.113766137338E+03    0.29482E-05   -0.50277E-05   896   0.123E-02
  48 F= -.11376614E+03 E0= -.11376614E+03  d E =-.146575E-01  mag=     0.0000
       N       E                     dE             d eps       ncg     rms          rms(c)
DAV:   1    -0.113764748750E+03    0.13915E-02   -0.17121E+01  1488   0.581E+00    0.120E-01
DAV:   2    -0.113772337768E+03   -0.75890E-02   -0.74659E-02  1536   0.539E-01    0.127E-01
DAV:   3    -0.113772250061E+03    0.87707E-04   -0.10816E-03  1568   0.625E-02    0.102E-01
DAV:   4    -0.113772001988E+03    0.24807E-03   -0.24164E-04   992   0.244E-02    0.636E-02
DAV:   5    -0.113771935361E+03    0.66627E-04   -0.60922E-04  1520   0.378E-02
  49 F= -.11377194E+03 E0= -.11377194E+03  d E =-.579802E-02  mag=     0.0000
       N       E                     dE             d eps       ncg     rms          rms(c)
DAV:   1    -0.113715489953E+03    0.56512E-01   -0.15466E+02  1488   0.175E+01    0.385E-01
DAV:   2    -0.113784321267E+03   -0.68831E-01   -0.67758E-01  1536   0.162E+00    0.381E-01
DAV:   3    -0.113783394630E+03    0.92664E-03   -0.98800E-03  1568   0.190E-01    0.298E-01
DAV:   4    -0.113781184217E+03    0.22104E-02   -0.24655E-03  1552   0.749E-02    0.175E-01
DAV:   5    -0.113780594336E+03    0.58988E-03   -0.37258E-03  1536   0.894E-02    0.559E-02
DAV:   6    -0.113780620870E+03   -0.26534E-04   -0.36740E-05   880   0.113E-02
  50 F= -.11378062E+03 E0= -.11378062E+03  d E =-.144835E-01  mag=     0.0000
       N       E                     dE             d eps       ncg     rms          rms(c)
DAV:   1    -0.113783931247E+03   -0.33369E-02   -0.61489E+00  1488   0.349E+00    0.111E-01
DAV:   2    -0.113786678570E+03   -0.27473E-02   -0.27485E-02  1552   0.326E-01    0.934E-02
DAV:   3    -0.113786634492E+03    0.44079E-04   -0.40527E-04  1408   0.387E-02
  51 F= -.11378663E+03 E0= -.11378663E+03  d E =-.601362E-02  mag=     0.0000
       N       E                     dE             d eps       ncg     rms          rms(c)
DAV:   1    -0.113785563767E+03    0.11148E-02   -0.10728E+01  1488   0.461E+00    0.160E-01
DAV:   2    -0.113790286717E+03   -0.47229E-02   -0.47460E-02  1552   0.428E-01    0.133E-01
DAV:   3    -0.113790188739E+03    0.97978E-04   -0.71674E-04  1568   0.504E-02
  52 F= -.11379019E+03 E0= -.11379019E+03  d E =-.956787E-02  mag=     0.0000
       N       E                     dE             d eps       ncg     rms          rms(c)
DAV:   1    -0.113791646254E+03   -0.13595E-02   -0.55440E+00  1488   0.331E+00    0.866E-02
DAV:   2    -0.113794093889E+03   -0.24476E-02   -0.24325E-02  1552   0.305E-01    0.752E-02
DAV:   3    -0.113794056167E+03    0.37722E-04   -0.32331E-04  1120   0.347E-02
  53 F= -.11379406E+03 E0= -.11379406E+03  d E =-.386743E-02  mag=     0.0000
       N       E                     dE             d eps       ncg     rms          rms(c)
DAV:   1    -0.113794397963E+03   -0.30407E-03   -0.33095E+00  1488   0.256E+00    0.747E-02
DAV:   2    -0.113795831969E+03   -0.14340E-02   -0.14345E-02  1552   0.235E-01    0.632E-02
DAV:   3    -0.113795803365E+03    0.28604E-04   -0.18257E-04   928   0.265E-02
  54 F= -.11379580E+03 E0= -.11379580E+03  d E =-.561463E-02  mag=     0.0000
       N       E                     dE             d eps       ncg     rms          rms(c)
DAV:   1    -0.113796828578E+03   -0.99661E-03   -0.30904E+00  1488   0.247E+00    0.692E-02
DAV:   2    -0.113798210521E+03   -0.13819E-02   -0.13861E-02  1552   0.232E-01    0.636E-02
DAV:   3    -0.113798195227E+03    0.15295E-04   -0.18489E-04   912   0.275E-02
  55 F= -.11379820E+03 E0= -.11379820E+03  d E =-.239186E-02  mag=     0.0000
       N       E                     dE             d eps       ncg     rms          rms(c)
DAV:   1    -0.113798462291E+03   -0.25177E-03   -0.11012E-01  1520   0.467E-01    0.262E-02
DAV:   2    -0.113798506161E+03   -0.43870E-04   -0.44484E-04  1424   0.420E-02
  56 F= -.11379851E+03 E0= -.11379851E+03  d E =-.270280E-02  mag=     0.0000
       N       E                     dE             d eps       ncg     rms          rms(c)
DAV:   1    -0.113799226042E+03   -0.76375E-03   -0.98467E-01  1488   0.139E+00    0.345E-02
DAV:   2    -0.113799655881E+03   -0.42984E-03   -0.42908E-03  1552   0.129E-01    0.328E-02
DAV:   3    -0.113799649334E+03    0.65463E-05   -0.54723E-05   896   0.150E-02
  57 F= -.11379965E+03 E0= -.11379965E+03  d E =-.114317E-02  mag=     0.0000
       N       E                     dE             d eps       ncg     rms          rms(c)
DAV:   1    -0.113799535363E+03    0.12052E-03   -0.34809E+00  1488   0.262E+00    0.702E-02
DAV:   2    -0.113801047479E+03   -0.15121E-02   -0.15083E-02  1552   0.241E-01    0.626E-02
DAV:   3    -0.113801018480E+03    0.29000E-04   -0.19194E-04   928   0.277E-02
  58 F= -.11380102E+03 E0= -.11380102E+03  d E =-.251232E-02  mag=     0.0000
       N       E                     dE             d eps       ncg     rms          rms(c)
DAV:   1    -0.113801464094E+03   -0.41661E-03   -0.18954E-01  1536   0.612E-01    0.179E-02
DAV:   2    -0.113801542173E+03   -0.78079E-04   -0.78338E-04  1456   0.554E-02
  59 F= -.11380154E+03 E0= -.11380154E+03  d E =-.523693E-03  mag=     0.0000
       N       E                     dE             d eps       ncg     rms          rms(c)
DAV:   1    -0.113802445778E+03   -0.98168E-03   -0.16791E+00  1488   0.181E+00    0.421E-02
DAV:   2    -0.113803177934E+03   -0.73216E-03   -0.73155E-03  1552   0.169E-01    0.458E-02
DAV:   3    -0.113803167468E+03    0.10466E-04   -0.91163E-05   880   0.191E-02
  60 F= -.11380317E+03 E0= -.11380317E+03  d E =-.214899E-02  mag=     0.0000
       N       E                     dE             d eps       ncg     rms          rms(c)
DAV:   1    -0.113803083582E+03    0.94352E-04   -0.67136E+00  1488   0.363E+00    0.831E-02
DAV:   2    -0.113806025486E+03   -0.29419E-02   -0.29237E-02  1536   0.337E-01    0.865E-02
DAV:   3    -0.113805986886E+03    0.38600E-04   -0.40031E-04  1424   0.380E-02
  61 F= -.11380599E+03 E0= -.11380599E+03  d E =-.496841E-02  mag=     0.0000
       N       E                     dE             d eps       ncg     rms          rms(c)
DAV:   1    -0.113798300774E+03    0.77247E-02   -0.26828E+01  1488   0.725E+00    0.171E-01
DAV:   2    -0.113810081965E+03   -0.11781E-01   -0.11710E-01  1552   0.674E-01    0.175E-01
DAV:   3    -0.113809899305E+03    0.18266E-03   -0.16443E-03  1568   0.764E-02    0.141E-01
DAV:   4    -0.113809422319E+03    0.47699E-03   -0.74900E-04  1552   0.405E-02    0.710E-02
DAV:   5    -0.113809387803E+03    0.34516E-04   -0.64933E-04  1504   0.377E-02
  62 F= -.11380939E+03 E0= -.11380939E+03  d E =-.836932E-02  mag=     0.0000
       N       E                     dE             d eps       ncg     rms          rms(c)
DAV:   1    -0.113762013954E+03    0.47408E-01   -0.10737E+02  1488   0.145E+01    0.345E-01
DAV:   2    -0.113810430670E+03   -0.48417E-01   -0.48047E-01  1552   0.136E+00    0.316E-01
DAV:   3    -0.113809768460E+03    0.66221E-03   -0.68806E-03  1552   0.160E-01    0.241E-01
DAV:   4    -0.113808352900E+03    0.14156E-02   -0.19035E-03  1568   0.656E-02    0.130E-01
DAV:   5    -0.113808116633E+03    0.23627E-03   -0.21234E-03  1520   0.678E-02    0.430E-02
DAV:   6    -0.113808114742E+03    0.18915E-05   -0.37631E-05   896   0.105E-02
  63 F= -.11380811E+03 E0= -.11380811E+03  d E =-.709626E-02  mag=     0.0000
       N       E                     dE             d eps       ncg     rms          rms(c)
DAV:   1    -0.113799034202E+03    0.90824E-02   -0.26363E+01  1488   0.719E+00    0.153E-01
DAV:   2    -0.113810766772E+03   -0.11733E-01   -0.11617E-01  1536   0.669E-01    0.160E-01
DAV:   3    -0.113810629755E+03    0.13702E-03   -0.16423E-03  1584   0.768E-02    0.129E-01
DAV:   4    -0.113810255383E+03    0.37437E-03   -0.41511E-04  1472   0.310E-02    0.761E-02
DAV:   5    -0.113810168327E+03    0.87055E-04   -0.76986E-04  1536   0.407E-02
  64 F= -.11381017E+03 E0= -.11381017E+03  d E =-.914985E-02  mag=     0.0000
       N       E                     dE             d eps       ncg     rms          rms(c)
DAV:   1    -0.113809328194E+03    0.92719E-03   -0.93047E+00  1488   0.427E+00    0.196E-01
DAV:   2    -0.113813209688E+03   -0.38815E-02   -0.40873E-02  1536   0.390E-01    0.147E-01
DAV:   3    -0.113813108454E+03    0.10123E-03   -0.78980E-04  1584   0.519E-02    0.911E-02
DAV:   4    -0.113813042973E+03    0.65481E-04   -0.31136E-04  1120   0.301E-02
  65 F= -.11381304E+03 E0= -.11381304E+03  d E =-.287465E-02  mag=     0.0000
       N       E                     dE             d eps       ncg     rms          rms(c)
DAV:   1    -0.113813390193E+03   -0.28174E-03   -0.70090E-01  1488   0.117E+00    0.537E-02
DAV:   2    -0.113813679685E+03   -0.28949E-03   -0.29597E-03  1536   0.106E-01    0.432E-02
DAV:   3    -0.113813667140E+03    0.12545E-04   -0.55393E-05   928   0.138E-02
  66 F= -.11381367E+03 E0= -.11381367E+03  d E =-.349881E-02  mag=     0.0000
       N       E                     dE             d eps       ncg     rms          rms(c)
DAV:   1    -0.113814346263E+03   -0.66658E-03   -0.16390E+00  1488   0.180E+00    0.448E-02
DAV:   2    -0.113815071030E+03   -0.72477E-03   -0.72470E-03  1552   0.167E-01    0.424E-02
DAV:   3    -0.113815057799E+03    0.13231E-04   -0.92518E-05   864   0.195E-02
  67 F= -.11381506E+03 E0= -.11381506E+03  d E =-.139066E-02  mag=     0.0000
       N       E                     dE             d eps       ncg     rms          rms(c)
DAV:   1    -0.113815398806E+03   -0.32778E-03   -0.10022E+00  1488   0.141E+00    0.409E-02
DAV:   2    -0.113815823631E+03   -0.42482E-03   -0.42929E-03  1536   0.129E-01    0.382E-02
DAV:   3    -0.113815812842E+03    0.10789E-04   -0.53239E-05   880   0.146E-02
  68 F= -.11381581E+03 E0= -.11381581E+03  d E =-.214570E-02  mag=     0.0000
       N       E                     dE             d eps       ncg     rms          rms(c)
DAV:   1    -0.113816160724E+03   -0.33709E-03   -0.96594E-01  1488   0.139E+00    0.430E-02
DAV:   2    -0.113816579160E+03   -0.41844E-03   -0.42213E-03  1536   0.127E-01    0.351E-02
DAV:   3    -0.113816570033E+03    0.91265E-05   -0.55329E-05   864   0.147E-02
  69 F= -.11381657E+03 E0= -.11381657E+03  d E =-.757191E-03  mag=     0.0000
       N       E                     dE             d eps       ncg     rms          rms(c)
DAV:   1    -0.113816659569E+03   -0.80409E-04   -0.15232E-01  1504   0.551E-01    0.214E-02
DAV:   2    -0.113816723901E+03   -0.64333E-04   -0.65932E-04  1424   0.500E-02
  70 F= -.11381672E+03 E0= -.11381672E+03  d E =-.911059E-03  mag=     0.0000
