unknown system                          
           1
    23.914625    0.000000    0.000000
     0.000000   23.914625    0.000000
     0.000000    0.000000   23.914625
   Ag
  52
Direct configuration=     1
   0.62666671  0.66570806  0.40263267
   0.53313385  0.73490409  0.43262430
   0.54793529  0.68663337  0.32855941
   0.66940874  0.55971575  0.38140853
   0.59443431  0.57787457  0.47993214
   0.49279854  0.67652096  0.53750415
   0.58168786  0.57862088  0.32732289
   0.61249971  0.67807376  0.51622964
   0.44877308  0.70305072  0.35496389
   0.42519274  0.70907189  0.45545961
   0.66764854  0.57363328  0.56388313
   0.48338296  0.55570600  0.51771449
   0.39439449  0.51955045  0.31108028
   0.38865889  0.60897221  0.39630534
   0.43246672  0.59410026  0.60795442
   0.59805756  0.40292615  0.47555085
   0.50505434  0.48189534  0.30355465
   0.62484010  0.45446820  0.34827027
   0.58970913  0.48893076  0.55566735
   0.39051128  0.62683049  0.50925855
   0.34265245  0.48643826  0.40403977
   0.36120651  0.37736434  0.64254994
   0.47316011  0.59657943  0.31472621
   0.42264934  0.54416881  0.71156727
   0.43152228  0.43374171  0.70784117
   0.41956283  0.42123465  0.35144447
   0.51698633  0.59780319  0.69331220
   0.35835561  0.49279786  0.63326807
   0.56073295  0.59546337  0.59253394
   0.32807644  0.41627923  0.54595317
   0.50462522  0.63068497  0.42141852
   0.51805828  0.50268793  0.74604183
   0.39890808  0.40095799  0.46065873
   0.49714014  0.50488352  0.63323537
   0.45407944  0.51747993  0.40405080
   0.37988080  0.51069130  0.51087428
   0.43236243  0.43242729  0.57625636
   0.49665403  0.44550957  0.48424186
   0.60354704  0.51444050  0.66958988
   0.41111933  0.32404932  0.55430547
   0.56877095  0.50067013  0.41385386
   0.53521001  0.38290920  0.57864422
   0.50400792  0.32950755  0.48059120
   0.69908013  0.61431397  0.46904811
   0.52508413  0.40115644  0.38287965
   0.55579405  0.41193400  0.69105232
   0.64152825  0.40166738  0.60705516
   0.46491996  0.33309265  0.66029157
   0.60530861  0.30660476  0.53970193
   0.67875209  0.49844458  0.47432740
   0.50887378  0.27073948  0.57793323
   0.58246533  0.31177165  0.64870338
Direct configuration=     2
   0.62667909  0.66585239  0.40254908
   0.53345382  0.73528457  0.43286331
   0.54845470  0.68672263  0.32802796
   0.66985366  0.55943742  0.38116543
   0.59407014  0.57807439  0.47998799
   0.49301561  0.67645480  0.53766348
   0.58148121  0.57852578  0.32694373
   0.61241738  0.67845951  0.51645458
   0.44814157  0.70328304  0.35434830
   0.42479004  0.70970257  0.45574715
   0.66787467  0.57351341  0.56448959
   0.48361441  0.55556916  0.51738437
   0.39405696  0.51976882  0.31058129
   0.38835855  0.60901888  0.39625757
   0.43224789  0.59431744  0.60817162
   0.59854702  0.40285844  0.47547205
   0.50531410  0.48203836  0.30340116
   0.62560009  0.45393989  0.34742038
   0.58963989  0.48878861  0.55557756
   0.39010124  0.62648931  0.50948009
   0.34233034  0.48652828  0.40426425
   0.36088148  0.37704355  0.64295569
   0.47311995  0.59668762  0.31444157
   0.42204397  0.54448664  0.71177520
   0.43165280  0.43357798  0.70796201
   0.41948572  0.42075491  0.35132743
   0.51713918  0.59844175  0.69347108
   0.35819882  0.49308083  0.63328001
   0.56079197  0.59581798  0.59249120
   0.32744488  0.41623896  0.54572137
   0.50475943  0.63011575  0.42165408
   0.51830983  0.50237905  0.74660837
   0.39883532  0.40067632  0.46054610
   0.49712483  0.50452831  0.63296275
   0.45421774  0.51753801  0.40443624
   0.37976953  0.51089325  0.51078892
   0.43275966  0.43249510  0.57630263
   0.49663721  0.44577365  0.48447123
   0.60394617  0.51449430  0.66953718
   0.41102394  0.32385087  0.55409746
   0.56806356  0.50105581  0.41441973
   0.53493108  0.38333027  0.57857660
   0.50386675  0.32939733  0.48027823
   0.69977150  0.61464825  0.46912312
   0.52511942  0.40074448  0.38283118
   0.55573171  0.41190933  0.69117734
   0.64183979  0.40180894  0.60711907
   0.46490373  0.33313250  0.66050121
   0.60579052  0.30640186  0.53931404
   0.67881768  0.49807560  0.47441226
   0.50856399  0.27017083  0.57779776
   0.58274521  0.31150442  0.64923593
Direct configuration=     3
   0.62671623  0.66628540  0.40229829
   0.53441374  0.73642600  0.43358035
   0.55001294  0.68699041  0.32643361
   0.67118842  0.55860244  0.38043614
   0.59297763  0.57867384  0.48015554
   0.49366679  0.67625633  0.53814146
   0.58086124  0.57824050  0.32580623
   0.61217037  0.67961675  0.51712939
   0.44624702  0.70397997  0.35250154
   0.42358194  0.71159462  0.45660977
   0.66855307  0.57315382  0.56630898
   0.48430877  0.55515863  0.51639400
   0.39304436  0.52042393  0.30908431
   0.38745752  0.60915889  0.39611426
   0.43159141  0.59496896  0.60882323
   0.60001539  0.40265534  0.47523567
   0.50609337  0.48246744  0.30294070
   0.62788007  0.45235495  0.34487073
   0.58943220  0.48836215  0.55530818
   0.38887112  0.62546577  0.51014473
   0.34136400  0.48679832  0.40493770
   0.35990639  0.37608116  0.64417295
   0.47299949  0.59701219  0.31358766
   0.42022785  0.54544016  0.71239899
   0.43204436  0.43308678  0.70832453
   0.41925439  0.41931570  0.35097632
   0.51759773  0.60035742  0.69394770
   0.35772843  0.49392972  0.63331584
   0.56096902  0.59688181  0.59236296
   0.32555020  0.41611816  0.54502594
   0.50516209  0.62840807  0.42236076
   0.51906447  0.50145241  0.74830796
   0.39861701  0.39983132  0.46020820
   0.49707891  0.50346268  0.63214489
   0.45463264  0.51771225  0.40559255
   0.37943569  0.51149911  0.51053286
   0.43395132  0.43269853  0.57644143
   0.49658677  0.44656588  0.48515935
   0.60514355  0.51465573  0.66937907
   0.41073777  0.32325554  0.55347342
   0.56594141  0.50221285  0.41611732
   0.53409426  0.38459346  0.57837372
   0.50344322  0.32906667  0.47933933
   0.70184563  0.61565109  0.46934814
   0.52522528  0.39950860  0.38268577
   0.55554471  0.41183535  0.69155239
   0.64277443  0.40223361  0.60731078
   0.46485502  0.33325203  0.66113016
   0.60723624  0.30579316  0.53815038
   0.67901443  0.49696866  0.47466683
   0.50763460  0.26846489  0.57739134
   0.58358484  0.31070270  0.65083358
Direct configuration=     4
   0.62679051  0.66715141  0.40179672
   0.53633359  0.73870886  0.43501442
   0.55312941  0.68752596  0.32324491
   0.67385795  0.55693248  0.37897756
   0.59079261  0.57987275  0.48049064
   0.49496916  0.67585938  0.53909742
   0.57962132  0.57766994  0.32353123
   0.61167636  0.68193123  0.51847903
   0.44245792  0.70537383  0.34880803
   0.42116572  0.71537873  0.45833502
   0.66990988  0.57243464  0.56994775
   0.48569748  0.55433756  0.51441328
   0.39101916  0.52173414  0.30609034
   0.38565547  0.60943891  0.39582763
   0.43027843  0.59627200  0.61012646
   0.60295214  0.40224912  0.47476289
   0.50765193  0.48332559  0.30201977
   0.63244003  0.44918509  0.33977141
   0.58901681  0.48750925  0.55476941
   0.38641086  0.62341870  0.51147401
   0.33943133  0.48733841  0.40628458
   0.35795621  0.37415640  0.64660746
   0.47275855  0.59766132  0.31187982
   0.41659562  0.54734718  0.71364657
   0.43282748  0.43210438  0.70904957
   0.41879171  0.41643728  0.35027409
   0.51851483  0.60418878  0.69490094
   0.35678765  0.49562751  0.63338750
   0.56132311  0.59900946  0.59210650
   0.32176084  0.41587657  0.54363510
   0.50596740  0.62499273  0.42377412
   0.52057376  0.49959913  0.75170714
   0.39818040  0.39814132  0.45953241
   0.49698706  0.50133143  0.63050918
   0.45546244  0.51806074  0.40790517
   0.37876803  0.51271082  0.51002073
   0.43633466  0.43310537  0.57671904
   0.49648588  0.44815033  0.48653559
   0.60753831  0.51497857  0.66906286
   0.41016541  0.32206488  0.55222534
   0.56169712  0.50452692  0.41951251
   0.53242062  0.38711985  0.57796797
   0.50259616  0.32840536  0.47746153
   0.70599387  0.61765676  0.46979820
   0.52543701  0.39703684  0.38239495
   0.55517072  0.41168738  0.69230250
   0.64464370  0.40308295  0.60769420
   0.46475761  0.33349110  0.66238804
   0.61012767  0.30457577  0.53582304
   0.67940793  0.49475478  0.47517598
   0.50577582  0.26505301  0.57657850
   0.58526410  0.30909928  0.65402888
Direct configuration=     5
   0.62676925  0.66690362  0.40194024
   0.53578427  0.73805567  0.43460409
   0.55223770  0.68737273  0.32415728
   0.67309412  0.55741030  0.37939490
   0.59141780  0.57952971  0.48039476
   0.49459652  0.67597296  0.53882389
   0.57997609  0.57783319  0.32418217
   0.61181771  0.68126900  0.51809286
   0.44354208  0.70497501  0.34986484
   0.42185707  0.71429599  0.45784138
   0.66952166  0.57264042  0.56890660
   0.48530013  0.55457249  0.51498002
   0.39159862  0.52135925  0.30694700
   0.38617109  0.60935879  0.39590964
   0.43065411  0.59589916  0.60975357
   0.60211185  0.40236535  0.47489816
   0.50720598  0.48308005  0.30228328
   0.63113530  0.45009208  0.34123047
   0.58913566  0.48775329  0.55492357
   0.38711481  0.62400443  0.51109367
   0.33998432  0.48718388  0.40589920
   0.35851421  0.37470713  0.64591088
   0.47282749  0.59747558  0.31236848
   0.41763490  0.54680153  0.71328961
   0.43260341  0.43238547  0.70884211
   0.41892410  0.41726087  0.35047501
   0.51825242  0.60309252  0.69462819
   0.35705683  0.49514172  0.63336699
   0.56122180  0.59840068  0.59217988
   0.32284509  0.41594570  0.54403306
   0.50573698  0.62596995  0.42336972
   0.52014191  0.50012940  0.75073454
   0.39830533  0.39862487  0.45972577
   0.49701334  0.50194124  0.63097720
   0.45522501  0.51796102  0.40724346
   0.37895907  0.51236411  0.51016726
   0.43565272  0.43298896  0.57663961
   0.49651475  0.44769697  0.48614181
   0.60685310  0.51488619  0.66915334
   0.41032918  0.32240556  0.55258245
   0.56291153  0.50386480  0.41854105
   0.53289949  0.38639698  0.57808407
   0.50283853  0.32859458  0.47799882
   0.70480694  0.61708288  0.46966942
   0.52537643  0.39774408  0.38247816
   0.55527773  0.41172972  0.69208787
   0.64410885  0.40283993  0.60758449
   0.46478548  0.33342270  0.66202812
   0.60930035  0.30492410  0.53648895
   0.67929534  0.49538823  0.47503030
   0.50630767  0.26602925  0.57681107
   0.58478362  0.30955806  0.65311462
Direct configuration=     6
   0.62699428  0.66685854  0.40205256
   0.53605347  0.73813783  0.43486276
   0.55227641  0.68771646  0.32342566
   0.67358274  0.55691896  0.37912779
   0.59233912  0.58086318  0.48133530
   0.49464803  0.67586490  0.53883809
   0.58020521  0.57731373  0.32369405
   0.61184280  0.68197751  0.51840805
   0.44307129  0.70503578  0.34936328
   0.42137232  0.71504151  0.45808205
   0.66985365  0.57236090  0.56960723
   0.48536692  0.55471569  0.51503757
   0.39117093  0.52139646  0.30656365
   0.38569238  0.60949970  0.39578238
   0.43053398  0.59614566  0.61019001
   0.60289762  0.40225121  0.47458920
   0.50758126  0.48333746  0.30227812
   0.63134643  0.45012805  0.34108990
   0.58917149  0.48775577  0.55473108
   0.38653890  0.62401007  0.51116741
   0.33963859  0.48736920  0.40606757
   0.35793989  0.37438780  0.64618011
   0.47247996  0.59788968  0.31188806
   0.41718295  0.54730355  0.71373967
   0.43285855  0.43242551  0.70907204
   0.41871953  0.41695055  0.35011407
   0.51822962  0.60358197  0.69500480
   0.35685828  0.49543007  0.63313952
   0.56131304  0.59893786  0.59235142
   0.32216427  0.41596279  0.54390866
   0.50561167  0.62598956  0.42322142
   0.52031100  0.50012166  0.75131510
   0.39817790  0.39810667  0.45964795
   0.49743364  0.50219559  0.63129673
   0.45424964  0.51800541  0.40707092
   0.37868174  0.51232525  0.51020711
   0.43438202  0.43272358  0.57675935
   0.49659497  0.44735932  0.48643272
   0.60736173  0.51503608  0.66894803
   0.41001626  0.32226492  0.55232690
   0.56335918  0.50283702  0.41722080
   0.53349149  0.38596246  0.57817428
   0.50269791  0.32843365  0.47758507
   0.70550873  0.61734554  0.46989026
   0.52569666  0.39724570  0.38248316
   0.55524019  0.41158227  0.69224678
   0.64447640  0.40295431  0.60772429
   0.46495125  0.33328525  0.66219495
   0.60962118  0.30467678  0.53622583
   0.67926764  0.49498085  0.47521157
   0.50630058  0.26542985  0.57662319
   0.58497410  0.30925211  0.65336945
Direct configuration=     7
   0.62766935  0.66672328  0.40238953
   0.53686108  0.73838431  0.43563875
   0.55239256  0.68874765  0.32123079
   0.67504861  0.55544493  0.37832644
   0.59510306  0.58486357  0.48415690
   0.49480258  0.67554071  0.53888069
   0.58089255  0.57575536  0.32222967
   0.61191807  0.68410306  0.51935361
   0.44165889  0.70521811  0.34785860
   0.41991806  0.71727805  0.45880409
   0.67084960  0.57152236  0.57170912
   0.48556729  0.55514529  0.51521021
   0.38988786  0.52150810  0.30541358
   0.38425623  0.60992244  0.39540062
   0.43017358  0.59688513  0.61149935
   0.60525491  0.40190881  0.47366229
   0.50870709  0.48410971  0.30226266
   0.63197980  0.45023597  0.34066821
   0.58927896  0.48776320  0.55415362
   0.38481118  0.62402700  0.51138864
   0.33860139  0.48792517  0.40657268
   0.35621690  0.37342982  0.64698781
   0.47143737  0.59913195  0.31044680
   0.41582708  0.54880960  0.71508986
   0.43362398  0.43254561  0.70976182
   0.41810581  0.41601958  0.34903123
   0.51816121  0.60505033  0.69613465
   0.35626264  0.49629513  0.63245710
   0.56158679  0.60054941  0.59286602
   0.32012184  0.41601405  0.54353546
   0.50523573  0.62604839  0.42277653
   0.52081827  0.50009841  0.75305678
   0.39779561  0.39655204  0.45941448
   0.49869454  0.50295862  0.63225533
   0.45132354  0.51813855  0.40655330
   0.37784974  0.51220865  0.51032666
   0.43056991  0.43192742  0.57711859
   0.49683564  0.44634636  0.48730548
   0.60888764  0.51548574  0.66833210
   0.40907751  0.32184302  0.55156023
   0.56470212  0.49975367  0.41326006
   0.53526746  0.38465888  0.57844491
   0.50227605  0.32795084  0.47634380
   0.70761409  0.61813352  0.47055275
   0.52665734  0.39575058  0.38249817
   0.55512757  0.41113994  0.69272350
   0.64557903  0.40329745  0.60814367
   0.46544857  0.33287291  0.66269542
   0.61058365  0.30393481  0.53543647
   0.67918453  0.49375871  0.47575541
   0.50627930  0.26363168  0.57605952
   0.58554556  0.30833427  0.65413397
Direct configuration=     8
   0.62774901  0.66670732  0.40242929
   0.53695637  0.73841339  0.43573031
   0.55240627  0.68886932  0.32097182
   0.67522157  0.55527101  0.37823189
   0.59542917  0.58533557  0.48448981
   0.49482081  0.67550246  0.53888571
   0.58097365  0.57557149  0.32205690
   0.61192695  0.68435385  0.51946518
   0.44149225  0.70523962  0.34768106
   0.41974648  0.71754193  0.45888928
   0.67096712  0.57142343  0.57195711
   0.48559093  0.55519598  0.51523059
   0.38973647  0.52152127  0.30527789
   0.38408678  0.60997231  0.39535557
   0.43013105  0.59697238  0.61165384
   0.60553304  0.40186841  0.47355293
   0.50883993  0.48420083  0.30226083
   0.63205453  0.45024870  0.34061846
   0.58929165  0.48776408  0.55408549
   0.38460733  0.62402900  0.51141475
   0.33847902  0.48799077  0.40663227
   0.35601361  0.37331679  0.64708311
   0.47131436  0.59927853  0.31027674
   0.41566710  0.54898729  0.71524916
   0.43371430  0.43255978  0.70984321
   0.41803340  0.41590973  0.34890347
   0.51815314  0.60522358  0.69626796
   0.35619237  0.49639720  0.63237658
   0.56161909  0.60073955  0.59292674
   0.31988086  0.41602010  0.54349143
   0.50519138  0.62605533  0.42272404
   0.52087812  0.50009567  0.75326228
   0.39775050  0.39636861  0.45938693
   0.49884332  0.50304865  0.63236843
   0.45097829  0.51815426  0.40649222
   0.37775158  0.51219489  0.51034076
   0.43012012  0.43183348  0.57716097
   0.49686404  0.44622684  0.48740845
   0.60906768  0.51553879  0.66825943
   0.40896675  0.32179324  0.55146978
   0.56486057  0.49938988  0.41279275
   0.53547701  0.38450508  0.57847684
   0.50222627  0.32789388  0.47619734
   0.70786249  0.61822649  0.47063092
   0.52677069  0.39557418  0.38249994
   0.55511428  0.41108775  0.69277975
   0.64570913  0.40333794  0.60819315
   0.46550725  0.33282426  0.66275447
   0.61069721  0.30384727  0.53534334
   0.67917472  0.49361451  0.47581957
   0.50627679  0.26341952  0.57599302
   0.58561299  0.30822598  0.65422417
Direct configuration=     9
   0.62781348  0.66641017  0.40237666
   0.53699031  0.73797611  0.43584507
   0.55209903  0.68890560  0.32072947
   0.67556384  0.55494631  0.37842029
   0.59592012  0.58428418  0.48371942
   0.49438644  0.67547879  0.53848729
   0.58130779  0.57532380  0.32164966
   0.61227451  0.68615502  0.52001894
   0.44135314  0.70509947  0.34784790
   0.41950050  0.71789340  0.45881254
   0.67143487  0.57100185  0.57249755
   0.48563868  0.55533446  0.51537568
   0.38944870  0.52132390  0.30520973
   0.38359789  0.61035677  0.39517707
   0.43018150  0.59717771  0.61194401
   0.60605217  0.40163251  0.47319168
   0.50887858  0.48442604  0.30255065
   0.63222249  0.45040603  0.34062391
   0.58928987  0.48798736  0.55376248
   0.38430841  0.62452643  0.51134186
   0.33811224  0.48804775  0.40655799
   0.35567170  0.37323488  0.64720108
   0.47110193  0.59967262  0.30987353
   0.41563901  0.54928521  0.71570303
   0.43386702  0.43284750  0.70982102
   0.41797879  0.41607208  0.34856459
   0.51790219  0.60521865  0.69674355
   0.35599503  0.49680543  0.63230293
   0.56175008  0.60112663  0.59364666
   0.31924979  0.41605364  0.54346941
   0.50503210  0.62642279  0.42221984
   0.52091530  0.50046453  0.75336932
   0.39762539  0.39599258  0.45925808
   0.49893476  0.50323155  0.63276072
   0.45040856  0.51787963  0.40631750
   0.37754219  0.51199809  0.51049491
   0.42962995  0.43137474  0.57756189
   0.49707924  0.44595828  0.48746950
   0.60944086  0.51565051  0.66802884
   0.40874063  0.32157150  0.55140514
   0.56567977  0.49996944  0.41271468
   0.53571920  0.38376770  0.57853554
   0.50218138  0.32765074  0.47611040
   0.70820795  0.61809588  0.47085013
   0.52693564  0.39501162  0.38238480
   0.55515809  0.41104543  0.69291259
   0.64598293  0.40341222  0.60839190
   0.46566086  0.33263018  0.66256336
   0.61065883  0.30364668  0.53534030
   0.67907650  0.49362379  0.47599075
   0.50654910  0.26329269  0.57577134
   0.58564039  0.30798128  0.65395075
Direct configuration=    10
   0.62791951  0.66592154  0.40229012
   0.53704612  0.73725705  0.43603379
   0.55159382  0.68896526  0.32033095
   0.67612667  0.55441237  0.37873010
   0.59672742  0.58255528  0.48245260
   0.49367218  0.67543986  0.53783212
   0.58185723  0.57491650  0.32098001
   0.61284603  0.68911683  0.52092954
   0.44112439  0.70486900  0.34812224
   0.41909603  0.71847136  0.45868637
   0.67220404  0.57030863  0.57338625
   0.48571719  0.55556217  0.51561427
   0.38897549  0.52099935  0.30509763
   0.38279396  0.61098898  0.39488354
   0.43026446  0.59751535  0.61242117
   0.60690581  0.40124459  0.47259765
   0.50894214  0.48479637  0.30302721
   0.63249867  0.45066473  0.34063287
   0.58928695  0.48835453  0.55323133
   0.38381687  0.62534439  0.51122200
   0.33750911  0.48814145  0.40643583
   0.35510947  0.37310018  0.64739507
   0.47075262  0.60032066  0.30921050
   0.41559283  0.54977510  0.71644935
   0.43411815  0.43332063  0.70978453
   0.41788900  0.41633905  0.34800733
   0.51748954  0.60521055  0.69752562
   0.35567054  0.49747672  0.63218181
   0.56196549  0.60176314  0.59483050
   0.31821206  0.41610878  0.54343322
   0.50477018  0.62702704  0.42139075
   0.52097645  0.50107109  0.75354535
   0.39741966  0.39537423  0.45904618
   0.49908513  0.50353230  0.63340580
   0.44947169  0.51742804  0.40603020
   0.37719789  0.51167448  0.51074838
   0.42882391  0.43062039  0.57822116
   0.49743312  0.44551667  0.48756988
   0.61005451  0.51583422  0.66764966
   0.40836882  0.32120687  0.55129885
   0.56702685  0.50092245  0.41258631
   0.53611747  0.38255517  0.57863207
   0.50210757  0.32725094  0.47596743
   0.70877602  0.61788111  0.47121059
   0.52720688  0.39408656  0.38219546
   0.55523015  0.41097584  0.69313104
   0.64643315  0.40353437  0.60871871
   0.46591346  0.33231105  0.66224910
   0.61059570  0.30331684  0.53533532
   0.67891498  0.49363905  0.47627224
   0.50699689  0.26308414  0.57540681
   0.58568546  0.30757892  0.65350113
Direct configuration=    11
   0.62794047  0.66582494  0.40227302
   0.53705715  0.73711490  0.43607109
   0.55149394  0.68897706  0.32025216
   0.67623794  0.55430682  0.37879135
   0.59688701  0.58221350  0.48220217
   0.49353098  0.67543216  0.53770260
   0.58196585  0.57483599  0.32084763
   0.61295901  0.68970235  0.52110955
   0.44107917  0.70482344  0.34817647
   0.41901607  0.71858561  0.45866142
   0.67235610  0.57017158  0.57356193
   0.48573271  0.55560719  0.51566144
   0.38888194  0.52093519  0.30507548
   0.38263503  0.61111396  0.39482551
   0.43028086  0.59758210  0.61251550
   0.60707457  0.40116791  0.47248021
   0.50895471  0.48486958  0.30312142
   0.63255327  0.45071587  0.34063464
   0.58928637  0.48842711  0.55312633
   0.38371969  0.62550610  0.51119830
   0.33738988  0.48815997  0.40641168
   0.35499832  0.37307355  0.64743342
   0.47068357  0.60044877  0.30907943
   0.41558370  0.54987195  0.71659690
   0.43416780  0.43341416  0.70977731
   0.41787125  0.41639183  0.34789716
   0.51740796  0.60520895  0.69768023
   0.35560639  0.49760942  0.63215786
   0.56200808  0.60188898  0.59506453
   0.31800692  0.41611968  0.54342606
   0.50471841  0.62714649  0.42122684
   0.52098853  0.50119101  0.75358014
   0.39737899  0.39525199  0.45900429
   0.49911486  0.50359175  0.63353332
   0.44928648  0.51733876  0.40597340
   0.37712982  0.51161050  0.51079849
   0.42866457  0.43047126  0.57835149
   0.49750308  0.44542937  0.48758972
   0.61017582  0.51587054  0.66757470
   0.40829531  0.32113479  0.55127784
   0.56729315  0.50111085  0.41256093
   0.53619620  0.38231546  0.57865115
   0.50209298  0.32717190  0.47593917
   0.70888832  0.61783865  0.47128185
   0.52726050  0.39390369  0.38215803
   0.55524439  0.41096208  0.69317422
   0.64652215  0.40355852  0.60878332
   0.46596340  0.33224796  0.66218698
   0.61058322  0.30325163  0.53533433
   0.67888305  0.49364207  0.47632788
   0.50708541  0.26304291  0.57533475
   0.58569437  0.30749937  0.65341225
Direct configuration=    12
   0.62781938  0.66535824  0.40229190
   0.53706141  0.73658923  0.43615258
   0.55124062  0.68872517  0.32035473
   0.67650852  0.55424123  0.37909567
   0.59743872  0.58296942  0.48230969
   0.49322470  0.67525430  0.53720865
   0.58225463  0.57496870  0.32041967
   0.61293952  0.68992795  0.52099455
   0.44099263  0.70476170  0.34860857
   0.41881807  0.71886766  0.45841555
   0.67261980  0.56976017  0.57381000
   0.48578438  0.55568950  0.51567220
   0.38874864  0.52087976  0.30511351
   0.38225550  0.61141321  0.39463407
   0.43036277  0.59780638  0.61251705
   0.60724502  0.40087134  0.47212303
   0.50878296  0.48506397  0.30365425
   0.63276747  0.45073750  0.34054461
   0.58907335  0.48834768  0.55308532
   0.38362268  0.62578330  0.51122421
   0.33697700  0.48808736  0.40633125
   0.35488303  0.37313487  0.64754748
   0.47060614  0.60044285  0.30869354
   0.41558505  0.54998143  0.71696990
   0.43420677  0.43364785  0.70944279
   0.41798756  0.41667060  0.34772487
   0.51707304  0.60512152  0.69831184
   0.35553538  0.49813424  0.63223168
   0.56243365  0.60234926  0.59502490
   0.31751516  0.41617098  0.54345710
   0.50457428  0.62714347  0.42072357
   0.52107778  0.50158318  0.75342776
   0.39731296  0.39512981  0.45889043
   0.49892879  0.50355119  0.63370016
   0.44936951  0.51711557  0.40616220
   0.37715172  0.51158650  0.51095596
   0.42912551  0.43010456  0.57876391
   0.49768713  0.44538770  0.48749966
   0.61046499  0.51583936  0.66734323
   0.40816717  0.32076710  0.55133588
   0.56716313  0.50139435  0.41284018
   0.53612582  0.38201628  0.57849730
   0.50206366  0.32690031  0.47599163
   0.70885518  0.61754695  0.47161569
   0.52739538  0.39380291  0.38207386
   0.55533778  0.41103233  0.69323122
   0.64656229  0.40374351  0.60897100
   0.46588855  0.33222037  0.66186291
   0.61058669  0.30305842  0.53528512
   0.67906893  0.49369522  0.47659428
   0.50729532  0.26300889  0.57505750
   0.58576365  0.30729680  0.65307932
Direct configuration=    13
   0.62751299  0.66417740  0.40233968
   0.53707219  0.73525917  0.43635877
   0.55059965  0.68808784  0.32061425
   0.67719314  0.55407528  0.37986569
   0.59883465  0.58488206  0.48258175
   0.49244975  0.67480427  0.53595886
   0.58298531  0.57530451  0.31933685
   0.61289020  0.69049876  0.52070356
   0.44077365  0.70460549  0.34970186
   0.41831708  0.71958130  0.45779343
   0.67328701  0.56871920  0.57443766
   0.48591510  0.55589775  0.51569942
   0.38841136  0.52073951  0.30520974
   0.38129520  0.61217037  0.39414970
   0.43057000  0.59837385  0.61252095
   0.60767631  0.40012098  0.47121928
   0.50834841  0.48555584  0.30500240
   0.63330942  0.45079221  0.34031682
   0.58853438  0.48814670  0.55298157
   0.38337721  0.62648469  0.51128978
   0.33593233  0.48790366  0.40612776
   0.35459131  0.37329004  0.64783609
   0.47041025  0.60042786  0.30771716
   0.41558848  0.55025843  0.71791368
   0.43430537  0.43423915  0.70859638
   0.41828183  0.41737597  0.34728894
   0.51622562  0.60490031  0.69990996
   0.35535571  0.49946213  0.63241844
   0.56351045  0.60351387  0.59492463
   0.31627090  0.41630077  0.54353563
   0.50420960  0.62713582  0.41945017
   0.52130358  0.50257547  0.75304220
   0.39714590  0.39482068  0.45860235
   0.49845798  0.50344856  0.63412229
   0.44957960  0.51655086  0.40663990
   0.37720715  0.51152577  0.51135437
   0.43029179  0.42917675  0.57980743
   0.49815283  0.44528227  0.48727181
   0.61119664  0.51576046  0.66675754
   0.40784295  0.31983676  0.55148272
   0.56683414  0.50211166  0.41354672
   0.53594773  0.38125930  0.57810802
   0.50198947  0.32621313  0.47612438
   0.70877132  0.61680889  0.47246037
   0.52773664  0.39354792  0.38186090
   0.55557409  0.41121007  0.69337543
   0.64666386  0.40421156  0.60944586
   0.46569915  0.33215058  0.66104294
   0.61059547  0.30256955  0.53516059
   0.67953923  0.49382971  0.47726833
   0.50782641  0.26292280  0.57435600
   0.58593894  0.30678423  0.65223693
Direct configuration=    14
   0.62744266  0.66371810  0.40199619
   0.53708476  0.73484596  0.43642594
   0.55038830  0.68773189  0.32083196
   0.67713756  0.55401166  0.38006133
   0.59867191  0.58546783  0.48326906
   0.49231414  0.67448874  0.53532199
   0.58350150  0.57535012  0.31896762
   0.61272151  0.69058442  0.52044722
   0.44070838  0.70455923  0.34978481
   0.41782230  0.72001709  0.45794346
   0.67355969  0.56792772  0.57475455
   0.48632981  0.55598202  0.51561963
   0.38827911  0.52099435  0.30546618
   0.38099935  0.61205690  0.39394947
   0.43078810  0.59862132  0.61254715
   0.60775152  0.39992941  0.47078817
   0.50828630  0.48589217  0.30567189
   0.63320461  0.45115530  0.34067372
   0.58813272  0.48813675  0.55279028
   0.38329829  0.62654450  0.51123894
   0.33575013  0.48781589  0.40628126
   0.35450204  0.37356875  0.64777408
   0.47033478  0.60020669  0.30718478
   0.41532995  0.55034670  0.71822333
   0.43430376  0.43442512  0.70807854
   0.41843358  0.41753802  0.34736638
   0.51612014  0.60511566  0.69994352
   0.35575336  0.49984318  0.63223308
   0.56368251  0.60396274  0.59518385
   0.31636167  0.41653973  0.54370293
   0.50403514  0.62622264  0.41893151
   0.52158125  0.50267439  0.75282670
   0.39712958  0.39491344  0.45875192
   0.49853282  0.50389386  0.63414994
   0.44915572  0.51675185  0.40706733
   0.37741987  0.51136431  0.51153691
   0.43019615  0.42890835  0.58005635
   0.49803650  0.44502067  0.48733709
   0.61135140  0.51561682  0.66640878
   0.40764148  0.31951009  0.55154729
   0.56695364  0.50251341  0.41386919
   0.53624074  0.38119190  0.57778034
   0.50186898  0.32606320  0.47593525
   0.70910830  0.61654474  0.47305198
   0.52793420  0.39371743  0.38185565
   0.55570673  0.41120337  0.69321147
   0.64642474  0.40452691  0.60973967
   0.46548502  0.33223595  0.66058959
   0.61085991  0.30235881  0.53486707
   0.67971733  0.49373144  0.47781151
   0.50787774  0.26260402  0.57406699
   0.58607803  0.30673667  0.65195409
Direct configuration=    15
   0.62723167  0.66234021  0.40096573
   0.53712244  0.73360636  0.43662745
   0.54975426  0.68666404  0.32148511
   0.67697084  0.55382080  0.38064827
   0.59818368  0.58722512  0.48533101
   0.49190728  0.67354214  0.53341140
   0.58505010  0.57548694  0.31785992
   0.61221546  0.69084138  0.51967818
   0.44051259  0.70442044  0.35003367
   0.41633795  0.72132444  0.45839355
   0.67437772  0.56555331  0.57570522
   0.48757395  0.55623483  0.51538026
   0.38788239  0.52175886  0.30623549
   0.38011180  0.61171647  0.39334879
   0.43144241  0.59936372  0.61262573
   0.60797716  0.39935469  0.46949484
   0.50809996  0.48690116  0.30768038
   0.63289018  0.45224455  0.34174444
   0.58692775  0.48810689  0.55221642
   0.38306155  0.62672394  0.51108642
   0.33520353  0.48755258  0.40674176
   0.35423422  0.37440487  0.64758805
   0.47010836  0.59954315  0.30558765
   0.41455435  0.55061150  0.71915227
   0.43429893  0.43498302  0.70652500
   0.41888883  0.41802415  0.34759871
   0.51580369  0.60576170  0.70004420
   0.35694633  0.50098633  0.63167699
   0.56419868  0.60530935  0.59596153
   0.31663396  0.41725658  0.54420484
   0.50351177  0.62348311  0.41737552
   0.52241427  0.50297112  0.75218022
   0.39708062  0.39519172  0.45920064
   0.49875733  0.50522976  0.63423287
   0.44788411  0.51735484  0.40834961
   0.37805804  0.51087994  0.51208452
   0.42990922  0.42810315  0.58080311
   0.49768753  0.44423584  0.48753294
   0.61181571  0.51518591  0.66536248
   0.40703708  0.31853006  0.55174100
   0.56731213  0.50371866  0.41483659
   0.53711978  0.38098968  0.57679730
   0.50150749  0.32561339  0.47536784
   0.71011925  0.61575232  0.47482683
   0.52852689  0.39422597  0.38183989