 running on   32 total cores
 distrk:  each k-point on   32 cores,    1 groups
 distr:  one band on    8 cores,    4 groups
 using from now: INCAR     
 vasp.5.3.5 31Mar14 (build Feb 01 2018 12:10:03) gamma-only                     
  
 POSCAR found type information on POSCAR  Ag
 POSCAR found :  1 types and      22 ions
 scaLAPACK will be used

 ----------------------------------------------------------------------------- 
|                                                                             |
|  ADVICE TO THIS USER RUNNING 'VASP/VAMP'   (HEAR YOUR MASTER'S VOICE ...):  |
|                                                                             |
|      You have a (more or less) 'large supercell' and for larger cells       |
|      it might be more efficient to use real space projection opertators     |
|      So try LREAL= Auto  in the INCAR   file.                               |
|      Mind: At the moment your POTCAR file does not contain real space       |
|       projectors, and has to be modified,  BUT if you                       |
|      want to do an extremely  accurate calculation you might also keep the  |
|      reciprocal projection scheme          (i.e. LREAL=.FALSE.)             |
|                                                                             |
 ----------------------------------------------------------------------------- 

 LDA part: xc-table for Pade appr. of Perdew
 POSCAR, INCAR and KPOINTS ok, starting setup
 WARNING: small aliasing (wrap around) errors must be expected
 FFT: planning ...
 WAVECAR not read
 entering main loop
       N       E                     dE             d eps       ncg     rms          rms(c)
DAV:   1     0.214346170019E+04    0.21435E+04   -0.43042E+04   624   0.588E+02
DAV:   2     0.538725756056E+03   -0.16047E+04   -0.14337E+04  1088   0.137E+02
DAV:   3    -0.936774436032E+01   -0.54809E+03   -0.50577E+03   848   0.907E+01
DAV:   4    -0.426237507127E+02   -0.33256E+02   -0.32767E+02   688   0.246E+01
DAV:   5    -0.431250216069E+02   -0.50127E+00   -0.50038E+00   712   0.359E+00    0.271E+01
DAV:   6    -0.113384554023E+02    0.31787E+02   -0.98263E+01   636   0.166E+01    0.136E+01
DAV:   7    -0.123018821617E+02   -0.96343E+00   -0.51721E+00   676   0.582E+00    0.830E+00
DAV:   8    -0.923347568887E+01    0.30684E+01   -0.20335E+00   648   0.425E+00    0.421E+00
DAV:   9    -0.147070736814E+02   -0.54736E+01   -0.14646E+00   688   0.212E+00    0.257E+00
DAV:  10    -0.230687121142E+02   -0.83616E+01   -0.27227E+00   640   0.271E+00    0.191E+00
DAV:  11    -0.318849668983E+02   -0.88163E+01   -0.39576E+00   648   0.286E+00    0.223E+00
DAV:  12    -0.326695530045E+02   -0.78459E+00   -0.15298E-01   760   0.714E-01    0.187E+00
DAV:  13    -0.353532100087E+02   -0.26837E+01   -0.70549E-01   648   0.140E+00    0.132E+00
DAV:  14    -0.387088078595E+02   -0.33556E+01   -0.11231E+00   640   0.138E+00    0.191E+00
DAV:  15    -0.388453243249E+02   -0.13652E+00   -0.25549E-02   736   0.368E-01    0.175E+00
DAV:  16    -0.395287928144E+02   -0.68347E+00   -0.93079E-02   648   0.732E-01    0.146E+00
DAV:  17    -0.406272844125E+02   -0.10985E+01   -0.32394E-01   664   0.169E+00    0.719E-01
DAV:  18    -0.416710727867E+02   -0.10438E+01   -0.21103E-01   636   0.111E+00    0.400E-01
DAV:  19    -0.419736148992E+02   -0.30254E+00   -0.19561E-02   672   0.358E-01    0.286E-01
DAV:  20    -0.423531398617E+02   -0.37952E+00   -0.17945E-02   648   0.205E-01    0.173E-01
DAV:  21    -0.426179983239E+02   -0.26486E+00   -0.12388E-02   644   0.148E-01    0.101E-01
DAV:  22    -0.426977119958E+02   -0.79714E-01   -0.20118E-03   568   0.661E-02    0.722E-02
DAV:  23    -0.427615432839E+02   -0.63831E-01   -0.29763E-03   660   0.766E-02    0.378E-02
DAV:  24    -0.427738657303E+02   -0.12322E-01   -0.82911E-04   456   0.602E-02    0.211E-02
DAV:  25    -0.427797978789E+02   -0.59321E-02   -0.34796E-04   440   0.357E-02    0.239E-02
DAV:  26    -0.427844603503E+02   -0.46625E-02   -0.20387E-04   452   0.284E-02    0.191E-02
DAV:  27    -0.427866412288E+02   -0.21809E-02   -0.89390E-05   432   0.195E-02    0.773E-03
DAV:  28    -0.427877626359E+02   -0.11214E-02   -0.24358E-05   432   0.827E-03    0.486E-03
DAV:  29    -0.427881007295E+02   -0.33809E-03   -0.17504E-05   424   0.105E-02    0.247E-03
DAV:  30    -0.427881279918E+02   -0.27262E-04   -0.41068E-06   448   0.391E-03
   1 F= -.42788128E+02 E0= -.42788128E+02  d E =-.427881E+02  mag=    -0.0017
 curvature:   0.00 expect dE= 0.000E+00 dE for cont linesearch  0.000E+00
 trial: gam= 0.00000 g(F)=  0.538E-01 g(S)=  0.000E+00 ort = 0.000E+00 (trialstep = 0.100E+01)
 search vector abs. value=  0.538E-01
 bond charge predicted
       N       E                     dE             d eps       ncg     rms          rms(c)
DAV:   1    -0.428381699944E+02   -0.50069E-01   -0.36178E+00   656   0.415E+00    0.136E-01
DAV:   2    -0.428398680318E+02   -0.16980E-02   -0.16792E-02   680   0.390E-01    0.913E-02
DAV:   3    -0.428398595547E+02    0.84771E-05   -0.28742E-04   448   0.549E-02
   2 F= -.42839860E+02 E0= -.42839860E+02  d E =-.517316E-01  mag=    -0.0009
 ZBRENT: can't locate minimum, use default step
 trial-energy change:   -0.051732  1 .order   -0.051146   -0.053829   -0.048463
 step:   4.0000(harm= 10.0305)  dis= 0.02752  next Energy=   -43.058095 (dE=-0.270E+00)
 bond charge predicted
       N       E                     dE             d eps       ncg     rms          rms(c)
DAV:   1    -0.429550272045E+02   -0.11516E+00   -0.32642E+01   624   0.125E+01    0.388E-01
DAV:   2    -0.429699026343E+02   -0.14875E-01   -0.15143E-01   672   0.117E+00    0.264E-01
DAV:   3    -0.429696731092E+02    0.22953E-03   -0.26616E-03   688   0.163E-01    0.173E-01
DAV:   4    -0.429695212357E+02    0.15187E-03   -0.11842E-03   664   0.867E-02    0.266E-02
DAV:   5    -0.429695065485E+02    0.14687E-04   -0.40237E-05   392   0.219E-02
   3 F= -.42969507E+02 E0= -.42969507E+02  d E =-.181379E+00  mag=    -0.0003
 curvature:  -2.78 expect dE=-0.794E-01 dE for cont linesearch -0.716E-01
 ZBRENT: increasing intervall
 opt :  10.0000  next Energy=   -43.125733 (dE=-0.338E+00)
 bond charge predicted
       N       E                     dE             d eps       ncg     rms          rms(c)
DAV:   1    -0.430646149037E+02   -0.95094E-01   -0.13069E+02   624   0.250E+01    0.705E-01
DAV:   2    -0.431238708049E+02   -0.59256E-01   -0.60341E-01   664   0.235E+00    0.498E-01
DAV:   3    -0.431229212778E+02    0.94953E-03   -0.10115E-02   680   0.318E-01    0.343E-01
DAV:   4    -0.431220559995E+02    0.86528E-03   -0.50142E-03   672   0.173E-01    0.642E-02
DAV:   5    -0.431220355752E+02    0.20424E-04   -0.12938E-04   424   0.424E-02
   4 F= -.43122036E+02 E0= -.43122036E+02  d E =-.333908E+00  mag=    -0.0001
 curvature:  -6.06 expect dE=-0.118E+00 dE for cont linesearch -0.237E-01
 ZBRENT: increasing intervall
 opt :  22.0000  next Energy=   -43.023452 (dE=-0.235E+00)
 bond charge predicted
       N       E                     dE             d eps       ncg     rms          rms(c)
DAV:   1    -0.428039506809E+02    0.31811E+00   -0.52887E+02   624   0.508E+01    0.142E+00
DAV:   2    -0.430518883491E+02   -0.24794E+00   -0.25003E+00   664   0.487E+00    0.936E-01
DAV:   3    -0.430494526949E+02    0.24357E-02   -0.40331E-02   648   0.656E-01    0.651E-01
DAV:   4    -0.430456455888E+02    0.38071E-02   -0.14618E-02   672   0.299E-01    0.195E-01
DAV:   5    -0.430457709835E+02   -0.12539E-03   -0.94020E-04   672   0.941E-02    0.647E-02
DAV:   6    -0.430457104595E+02    0.60524E-04   -0.32320E-04   464   0.485E-02
   5 F= -.43045710E+02 E0= -.43045710E+02  d E =-.257582E+00  mag=    -0.0000
 curvature:  25.18 expect dE= 0.198E+01 dE for cont linesearch  0.303E+00
 ZBRENT: bracketing found
 ZBRENT: interpolating
 opt :  14.3564  next Energy=   -43.153658 (dE=-0.366E+00)
 bond charge predicted
       N       E                     dE             d eps       ncg     rms          rms(c)
DAV:   1    -0.430519415719E+02   -0.61706E-02   -0.21264E+02   624   0.319E+01    0.880E-01
DAV:   2    -0.431522742265E+02   -0.10033E+00   -0.10047E+00   672   0.303E+00    0.543E-01
DAV:   3    -0.431509360827E+02    0.13381E-02   -0.17020E-02   672   0.409E-01    0.372E-01
DAV:   4    -0.431497552909E+02    0.11808E-02   -0.62581E-03   688   0.198E-01    0.839E-02
DAV:   5    -0.431498026132E+02   -0.47322E-04   -0.20855E-04   448   0.538E-02
   6 F= -.43149803E+02 E0= -.43149803E+02  d E =-.361675E+00  mag=    -0.0000
 curvature:  -2.62 expect dE=-0.796E-01 dE for cont linesearch -0.128E-03
 trial: gam= 0.59352 g(F)=  0.303E-01 g(S)=  0.000E+00 ort =-0.162E-02 (trialstep = 0.367E+01)
 search vector abs. value=  0.474E-01
 bond charge predicted
       N       E                     dE             d eps       ncg     rms          rms(c)
DAV:   1    -0.432258480194E+02   -0.76093E-01   -0.42902E+01   624   0.142E+01    0.316E-01
DAV:   2    -0.432462898260E+02   -0.20442E-01   -0.20037E-01   672   0.138E+00    0.290E-01
DAV:   3    -0.432461261126E+02    0.16371E-03   -0.32433E-03   688   0.177E-01    0.210E-01
DAV:   4    -0.432455676412E+02    0.55847E-03   -0.14919E-03   672   0.889E-02    0.903E-02
DAV:   5    -0.432455811312E+02   -0.13490E-04   -0.29927E-04   496   0.478E-02
   7 F= -.43245581E+02 E0= -.43245581E+02  d E =-.957785E-01  mag=    -0.0000
 ZBRENT: can't locate minimum, use default step
 trial-energy change:   -0.095779  1 .order   -0.095969   -0.107800   -0.084138
 step:  14.6851(harm= 16.7259)  dis= 0.09282  next Energy=   -43.395364 (dE=-0.246E+00)
 bond charge predicted
       N       E                     dE             d eps       ncg     rms          rms(c)
DAV:   1    -0.432089383083E+02    0.36629E-01   -0.39018E+02   624   0.433E+01    0.863E-01
DAV:   2    -0.433940359810E+02   -0.18510E+00   -0.18289E+00   672   0.419E+00    0.869E-01
DAV:   3    -0.433936335006E+02    0.40248E-03   -0.29254E-02   672   0.520E-01    0.641E-01
DAV:   4    -0.433889450319E+02    0.46885E-02   -0.81033E-03   672   0.214E-01    0.381E-01
DAV:   5    -0.433885840932E+02    0.36094E-03   -0.56493E-03   688   0.179E-01    0.127E-01
DAV:   6    -0.433885485048E+02    0.35588E-04   -0.21352E-04   432   0.353E-02
   8 F= -.43388549E+02 E0= -.43388549E+02  d E =-.238746E+00  mag=    -0.0000
 curvature: -13.16 expect dE=-0.114E+00 dE for cont linesearch -0.573E-02
 ZBRENT: extrapolating
 opt :  17.4060  next Energy=   -43.394725 (dE=-0.245E+00)
 bond charge predicted
       N       E                     dE             d eps       ncg     rms          rms(c)
DAV:   1    -0.433837950033E+02    0.47891E-02   -0.23506E+01   624   0.105E+01    0.206E-01
DAV:   2    -0.433952255540E+02   -0.11431E-01   -0.11123E-01   688   0.102E+00    0.187E-01
DAV:   3    -0.433951940956E+02    0.31458E-04   -0.17675E-03   664   0.129E-01    0.134E-01
DAV:   4    -0.433949628035E+02    0.23129E-03   -0.56308E-04   672   0.560E-02    0.695E-02
DAV:   5    -0.433949970713E+02   -0.34268E-04   -0.25059E-04   400   0.408E-02
   9 F= -.43394997E+02 E0= -.43394997E+02  d E =-.245194E+00  mag=    -0.0000
 curvature: -14.19 expect dE=-0.147E+00 dE for cont linesearch -0.188E-03
 trial: gam= 0.28662 g(F)=  0.104E-01 g(S)=  0.000E+00 ort = 0.792E-03 (trialstep = 0.642E+01)
 search vector abs. value=  0.147E-01
 bond charge predicted
       N       E                     dE             d eps       ncg     rms          rms(c)
DAV:   1    -0.434315827536E+02   -0.36620E-01   -0.40928E+01   624   0.139E+01    0.329E-01
DAV:   2    -0.434516901335E+02   -0.20107E-01   -0.20054E-01   672   0.138E+00    0.282E-01
DAV:   3    -0.434516499797E+02    0.40154E-04   -0.35124E-03   680   0.183E-01    0.187E-01
DAV:   4    -0.434512586552E+02    0.39132E-03   -0.11014E-03   672   0.843E-02    0.890E-02
DAV:   5    -0.434512952810E+02   -0.36626E-04   -0.26595E-04   480   0.456E-02
  10 F= -.43451295E+02 E0= -.43451295E+02  d E =-.562982E-01  mag=    -0.0000
 trial-energy change:   -0.056298  1 .order   -0.057154   -0.068073   -0.046235
 step:  20.0072(harm= 20.0072)  dis= 0.06855  next Energy=   -43.501097 (dE=-0.106E+00)
 bond charge predicted
       N       E                     dE             d eps       ncg     rms          rms(c)
DAV:   1    -0.434051790226E+02    0.46080E-01   -0.18470E+02   624   0.296E+01    0.749E-01
DAV:   2    -0.434969796333E+02   -0.91801E-01   -0.91816E-01   672   0.296E+00    0.612E-01
DAV:   3    -0.434964348590E+02    0.54477E-03   -0.16129E-02   688   0.395E-01    0.397E-01
DAV:   4    -0.434946046631E+02    0.18302E-02   -0.49172E-03   672   0.177E-01    0.185E-01
DAV:   5    -0.434946837844E+02   -0.79121E-04   -0.10929E-03   672   0.897E-02    0.550E-02
DAV:   6    -0.434946742310E+02    0.95535E-05   -0.17194E-04   416   0.297E-02
  11 F= -.43494674E+02 E0= -.43494674E+02  d E =-.996772E-01  mag=    -0.0000
 curvature: -13.89 expect dE=-0.778E-01 dE for cont linesearch -0.496E-03
 trial: gam= 0.61306 g(F)=  0.560E-02 g(S)=  0.000E+00 ort =-0.725E-03 (trialstep = 0.914E+01)
 search vector abs. value=  0.102E-01
 bond charge predicted
       N       E                     dE             d eps       ncg     rms          rms(c)
DAV:   1    -0.435067650300E+02   -0.12081E-01   -0.57456E+01   624   0.165E+01    0.325E-01
DAV:   2    -0.435345083133E+02   -0.27743E-01   -0.27357E-01   672   0.161E+00    0.270E-01
DAV:   3    -0.435342758710E+02    0.23244E-03   -0.45286E-03   688   0.214E-01    0.187E-01
DAV:   4    -0.435336169831E+02    0.65889E-03   -0.13299E-03   672   0.856E-02    0.951E-02
DAV:   5    -0.435336385193E+02   -0.21536E-04   -0.71571E-04   656   0.632E-02
  12 F= -.43533639E+02 E0= -.43533639E+02  d E =-.389643E-01  mag=    -0.0000
 trial-energy change:   -0.038964  1 .order   -0.039294   -0.047127   -0.031460
 step:  27.4823(harm= 27.4823)  dis= 0.08964  next Energy=   -43.565556 (dE=-0.709E-01)
 bond charge predicted
       N       E                     dE             d eps       ncg     rms          rms(c)
DAV:   1    -0.434465836834E+02    0.87033E-01   -0.23342E+02   624   0.334E+01    0.769E-01
DAV:   2    -0.435633835167E+02   -0.11680E+00   -0.11439E+00   672   0.331E+00    0.559E-01
DAV:   3    -0.435623239064E+02    0.10596E-02   -0.19491E-02   688   0.453E-01    0.366E-01
DAV:   4    -0.435598763236E+02    0.24476E-02   -0.54949E-03   672   0.175E-01    0.173E-01
DAV:   5    -0.435598939692E+02   -0.17646E-04   -0.19117E-03   688   0.106E-01    0.551E-02
DAV:   6    -0.435599012771E+02   -0.73079E-05   -0.18674E-04   424   0.322E-02
  13 F= -.43559901E+02 E0= -.43559901E+02  d E =-.652270E-01  mag=    -0.0000
 curvature: -27.30 expect dE=-0.124E+00 dE for cont linesearch -0.653E-03
 trial: gam= 0.61881 g(F)=  0.453E-02 g(S)=  0.000E+00 ort =-0.495E-03 (trialstep = 0.128E+02)
 search vector abs. value=  0.784E-02
 bond charge predicted
       N       E                     dE             d eps       ncg     rms          rms(c)
DAV:   1    -0.435565756268E+02    0.33183E-02   -0.86594E+01   624   0.202E+01    0.412E-01
DAV:   2    -0.435990481610E+02   -0.42473E-01   -0.41206E-01   656   0.195E+00    0.338E-01
DAV:   3    -0.435987699651E+02    0.27820E-03   -0.64565E-03   688   0.236E-01    0.242E-01
DAV:   4    -0.435978415566E+02    0.92841E-03   -0.24578E-03   656   0.119E-01    0.996E-02
DAV:   5    -0.435979102495E+02   -0.68693E-04   -0.59171E-04   656   0.617E-02
  14 F= -.43597910E+02 E0= -.43597910E+02  d E =-.380090E-01  mag=    -0.0000
 trial-energy change:   -0.038009  1 .order   -0.038467   -0.054111   -0.022822
 step:  23.9838(harm= 22.1456)  dis= 0.08413  next Energy=   -43.607567 (dE=-0.477E-01)
 bond charge predicted
       N       E                     dE             d eps       ncg     rms          rms(c)
DAV:   1    -0.435734466632E+02    0.24395E-01   -0.65896E+01   624   0.177E+01    0.363E-01
DAV:   2    -0.436058009920E+02   -0.32354E-01   -0.31465E-01   656   0.170E+00    0.288E-01
DAV:   3    -0.436056033873E+02    0.19760E-03   -0.49153E-03   688   0.205E-01    0.204E-01
DAV:   4    -0.436049644211E+02    0.63897E-03   -0.17939E-03   656   0.102E-01    0.815E-02
DAV:   5    -0.436050189651E+02   -0.54544E-04   -0.39038E-04   624   0.511E-02
  15 F= -.43605019E+02 E0= -.43605019E+02  d E =-.451177E-01  mag=    -0.0000
 curvature: -19.76 expect dE=-0.777E-01 dE for cont linesearch -0.289E-03
 trial: gam= 0.83360 g(F)=  0.393E-02 g(S)=  0.000E+00 ort =-0.339E-03 (trialstep = 0.134E+02)
 search vector abs. value=  0.882E-02
 bond charge predicted
       N       E                     dE             d eps       ncg     rms          rms(c)
DAV:   1    -0.435910766194E+02    0.13888E-01   -0.10633E+02   624   0.224E+01    0.398E-01
DAV:   2    -0.436437743699E+02   -0.52698E-01   -0.51030E-01   672   0.217E+00    0.367E-01
DAV:   3    -0.436435110236E+02    0.26335E-03   -0.77797E-03   672   0.258E-01    0.275E-01
DAV:   4    -0.436422158569E+02    0.12952E-02   -0.23331E-03   656   0.115E-01    0.144E-01
DAV:   5    -0.436421715787E+02    0.44278E-04   -0.15017E-03   672   0.917E-02    0.506E-02
DAV:   6    -0.436421623906E+02    0.91882E-05   -0.62441E-05   400   0.194E-02
  16 F= -.43642162E+02 E0= -.43642162E+02  d E =-.371434E-01  mag=    -0.0000
 trial-energy change:   -0.037143  1 .order   -0.037818   -0.048852   -0.026785
 step:  29.6098(harm= 29.6098)  dis= 0.08850  next Energy=   -43.659093 (dE=-0.541E-01)
 bond charge predicted
       N       E                     dE             d eps       ncg     rms          rms(c)
DAV:   1    -0.435820389596E+02    0.60133E-01   -0.15705E+02   624   0.272E+01    0.483E-01
DAV:   2    -0.436598710846E+02   -0.77832E-01   -0.75478E-01   656   0.264E+00    0.442E-01
DAV:   3    -0.436594460308E+02    0.42505E-03   -0.11455E-02   704   0.312E-01    0.331E-01
DAV:   4    -0.436575124007E+02    0.19336E-02   -0.32767E-03   656   0.136E-01    0.178E-01
DAV:   5    -0.436573830235E+02    0.12938E-03   -0.22543E-03   672   0.111E-01    0.609E-02
DAV:   6    -0.436573734926E+02    0.95309E-05   -0.82281E-05   424   0.226E-02
  17 F= -.43657373E+02 E0= -.43657373E+02  d E =-.523545E-01  mag=    -0.0000
 curvature: -35.75 expect dE=-0.117E+00 dE for cont linesearch -0.131E-04
 trial: gam= 0.78211 g(F)=  0.326E-02 g(S)=  0.000E+00 ort =-0.569E-04 (trialstep = 0.166E+02)
 search vector abs. value=  0.857E-02
 bond charge predicted
       N       E                     dE             d eps       ncg     rms          rms(c)
DAV:   1    -0.436209690155E+02    0.36414E-01   -0.15904E+02   624   0.276E+01    0.511E-01
DAV:   2    -0.436982712550E+02   -0.77302E-01   -0.75124E-01   672   0.265E+00    0.396E-01
DAV:   3    -0.436974985758E+02    0.77268E-03   -0.11559E-02   688   0.322E-01    0.286E-01
DAV:   4    -0.436956289943E+02    0.18696E-02   -0.35544E-03   656   0.139E-01    0.133E-01
DAV:   5    -0.436955505127E+02    0.78482E-04   -0.16675E-03   672   0.966E-02    0.451E-02
DAV:   6    -0.436955555453E+02   -0.50326E-05   -0.79516E-05   432   0.229E-02
  18 F= -.43695556E+02 E0= -.43695556E+02  d E =-.381821E-01  mag=    -0.0000
 trial-energy change:   -0.038182  1 .order   -0.039234   -0.053494   -0.024973
 step:  31.1768(harm= 31.1768)  dis= 0.08850  next Energy=   -43.707541 (dE=-0.502E-01)
 bond charge predicted
       N       E                     dE             d eps       ncg     rms          rms(c)
DAV:   1    -0.436480283122E+02    0.47522E-01   -0.12178E+02   624   0.241E+01    0.451E-01
DAV:   2    -0.437073332631E+02   -0.59305E-01   -0.57357E-01   672   0.231E+00    0.350E-01
DAV:   3    -0.437066757633E+02    0.65750E-03   -0.88024E-03   688   0.282E-01    0.253E-01
DAV:   4    -0.437052293716E+02    0.14464E-02   -0.29525E-03   656   0.126E-01    0.112E-01
DAV:   5    -0.437052113278E+02    0.18044E-04   -0.11784E-03   672   0.823E-02    0.398E-02
DAV:   6    -0.437052180633E+02   -0.67355E-05   -0.68629E-05   416   0.209E-02
  19 F= -.43705218E+02 E0= -.43705218E+02  d E =-.478446E-01  mag=    -0.0000
 curvature: -41.51 expect dE=-0.117E+00 dE for cont linesearch -0.761E-04
 trial: gam= 0.83623 g(F)=  0.281E-02 g(S)=  0.000E+00 ort =-0.125E-03 (trialstep = 0.195E+02)
 search vector abs. value=  0.859E-02
 bond charge predicted
       N       E                     dE             d eps       ncg     rms          rms(c)
DAV:   1    -0.436316609400E+02    0.73550E-01   -0.21956E+02   624   0.325E+01    0.638E-01
DAV:   2    -0.437385380303E+02   -0.10688E+00   -0.10424E+00   688   0.313E+00    0.491E-01
DAV:   3    -0.437372745190E+02    0.12635E-02   -0.16221E-02   688   0.388E-01    0.343E-01
DAV:   4    -0.437346203261E+02    0.26542E-02   -0.50360E-03   672   0.165E-01    0.162E-01
DAV:   5    -0.437345051831E+02    0.11514E-03   -0.21691E-03   688   0.111E-01    0.537E-02
DAV:   6    -0.437345183993E+02   -0.13216E-04   -0.10523E-04   432   0.263E-02
  20 F= -.43734518E+02 E0= -.43734518E+02  d E =-.293003E-01  mag=    -0.0000
 trial-energy change:   -0.029300  1 .order   -0.029982   -0.052687   -0.007276
 step:  22.9735(harm= 22.6027)  dis= 0.08562  next Energy=   -43.735167 (dE=-0.299E-01)
 bond charge predicted
       N       E                     dE             d eps       ncg     rms          rms(c)
DAV:   1    -0.437316204002E+02    0.28848E-02   -0.69931E+00   624   0.576E+00    0.992E-02
DAV:   2    -0.437349488917E+02   -0.33285E-02   -0.32440E-02   688   0.550E-01    0.890E-02
DAV:   3    -0.437349242790E+02    0.24613E-04   -0.49242E-04   656   0.671E-02
  21 F= -.43734924E+02 E0= -.43734924E+02  d E =-.297062E-01  mag=    -0.0000
 curvature: -35.40 expect dE=-0.825E-01 dE for cont linesearch -0.909E-04
 trial: gam= 0.68347 g(F)=  0.233E-02 g(S)=  0.000E+00 ort =-0.149E-03 (trialstep = 0.202E+02)
 search vector abs. value=  0.614E-02
 bond charge predicted
       N       E                     dE             d eps       ncg     rms          rms(c)
DAV:   1    -0.436846888254E+02    0.50260E-01   -0.16877E+02   624   0.284E+01    0.498E-01
DAV:   2    -0.437671947053E+02   -0.82506E-01   -0.79251E-01   672   0.272E+00    0.483E-01
DAV:   3    -0.437665442772E+02    0.65043E-03   -0.12220E-02   688   0.323E-01    0.361E-01
DAV:   4    -0.437640362787E+02    0.25080E-02   -0.40531E-03   672   0.150E-01    0.203E-01
DAV:   5    -0.437638109089E+02    0.22537E-03   -0.28088E-03   672   0.125E-01    0.736E-02
DAV:   6    -0.437638354799E+02   -0.24571E-04   -0.74242E-05   424   0.218E-02
  22 F= -.43763835E+02 E0= -.43763835E+02  d E =-.289112E-01  mag=     0.0000
 trial-energy change:   -0.028911  1 .order   -0.029842   -0.044983   -0.014700
 step:  34.4805(harm= 29.9755)  dis= 0.11013  next Energy=   -43.768713 (dE=-0.338E-01)
 bond charge predicted
       N       E                     dE             d eps       ncg     rms          rms(c)
DAV:   1    -0.437252720206E+02    0.38539E-01   -0.84366E+01   624   0.200E+01    0.340E-01
DAV:   2    -0.437659935689E+02   -0.40722E-01   -0.39513E-01   664   0.192E+00    0.329E-01
DAV:   3    -0.437656914867E+02    0.30208E-03   -0.60476E-03   688   0.228E-01    0.246E-01
DAV:   4    -0.437644967738E+02    0.11947E-02   -0.19337E-03   648   0.104E-01    0.139E-01
DAV:   5    -0.437644053670E+02    0.91407E-04   -0.14312E-03   672   0.892E-02    0.510E-02
DAV:   6    -0.437644256003E+02   -0.20233E-04   -0.38840E-05   408   0.155E-02
  23 F= -.43764426E+02 E0= -.43764426E+02  d E =-.295013E-01  mag=     0.0000
 curvature: -32.56 expect dE=-0.103E+00 dE for cont linesearch -0.141E-02
 ZBRENT: interpolating
 opt :  28.5485  next Energy=   -43.765957 (dE=-0.310E-01)
 bond charge predicted
       N       E                     dE             d eps       ncg     rms          rms(c)
DAV:   1    -0.437596495016E+02    0.47559E-02   -0.14489E+01   624   0.828E+00    0.141E-01
DAV:   2    -0.437666414010E+02   -0.69919E-02   -0.67875E-02   672   0.795E-01    0.132E-01
DAV:   3    -0.437665979693E+02    0.43432E-04   -0.10466E-03   688   0.958E-02    0.977E-02
DAV:   4    -0.437664221071E+02    0.17586E-03   -0.32588E-04   504   0.435E-02    0.533E-02
DAV:   5    -0.437664338346E+02   -0.11727E-04   -0.27152E-04   432   0.426E-02
  24 F= -.43766434E+02 E0= -.43766434E+02  d E =-.315096E-01  mag=     0.0000
 curvature: -35.28 expect dE=-0.772E-01 dE for cont linesearch -0.208E-03
 trial: gam= 0.88217 g(F)=  0.219E-02 g(S)=  0.000E+00 ort =-0.190E-03 (trialstep = 0.202E+02)
 search vector abs. value=  0.663E-02
 bond charge predicted
       N       E                     dE             d eps       ncg     rms          rms(c)
DAV:   1    -0.437061764285E+02    0.60246E-01   -0.18345E+02   624   0.296E+01    0.510E-01
DAV:   2    -0.437961386031E+02   -0.89962E-01   -0.86456E-01   688   0.283E+00    0.461E-01
DAV:   3    -0.437954578331E+02    0.68077E-03   -0.13115E-02   688   0.332E-01    0.350E-01
DAV:   4    -0.437929383009E+02    0.25195E-02   -0.41068E-03   656   0.149E-01    0.183E-01
DAV:   5    -0.437926910823E+02    0.24722E-03   -0.27077E-03   672   0.121E-01    0.622E-02
DAV:   6    -0.437926968804E+02   -0.57981E-05   -0.66531E-05   424   0.214E-02
  25 F= -.43792697E+02 E0= -.43792697E+02  d E =-.262630E-01  mag=     0.0000
 trial-energy change:   -0.026263  1 .order   -0.026688   -0.040901   -0.012476
 step:  30.5024(harm= 29.1134)  dis= 0.10657  next Energy=   -43.795807 (dE=-0.294E-01)
 bond charge predicted
       N       E                     dE             d eps       ncg     rms          rms(c)
DAV:   1    -0.437718865265E+02    0.20805E-01   -0.46889E+01   624   0.149E+01    0.243E-01
DAV:   2    -0.437945597284E+02   -0.22673E-01   -0.21839E-01   672   0.142E+00    0.225E-01
DAV:   3    -0.437943575825E+02    0.20215E-03   -0.32573E-03   704   0.166E-01    0.173E-01
DAV:   4    -0.437937119919E+02    0.64559E-03   -0.11099E-03   656   0.773E-02    0.885E-02
DAV:   5    -0.437936761239E+02    0.35868E-04   -0.75502E-04   664   0.641E-02
  26 F= -.43793676E+02 E0= -.43793676E+02  d E =-.272423E-01  mag=     0.0000
 curvature: -46.59 expect dE=-0.123E+00 dE for cont linesearch -0.450E-03
 trial: gam= 1.27057 g(F)=  0.264E-02 g(S)=  0.000E+00 ort =-0.253E-03 (trialstep = 0.116E+02)
 search vector abs. value=  0.127E-01
 bond charge predicted
       N       E                     dE             d eps       ncg     rms          rms(c)
DAV:   1    -0.437588460121E+02    0.34866E-01   -0.11643E+02   624   0.233E+01    0.383E-01
DAV:   2    -0.438163542954E+02   -0.57508E-01   -0.55963E-01   672   0.225E+00    0.329E-01
DAV:   3    -0.438159016665E+02    0.45263E-03   -0.84015E-03   704   0.263E-01    0.247E-01
DAV:   4    -0.438145711575E+02    0.13305E-02   -0.19758E-03   672   0.105E-01    0.136E-01
DAV:   5    -0.438143877955E+02    0.18336E-03   -0.17479E-03   672   0.956E-02    0.435E-02
DAV:   6    -0.438144110887E+02   -0.23293E-04   -0.31260E-05   416   0.153E-02
  27 F= -.43814411E+02 E0= -.43814411E+02  d E =-.207350E-01  mag=     0.0000
 trial-energy change:   -0.020735  1 .order   -0.022434   -0.026965   -0.017902
 step:  34.6223(harm= 34.6223)  dis= 0.21874  next Energy=   -43.833791 (dE=-0.401E-01)
 bond charge predicted
       N       E                     dE             d eps       ncg     rms          rms(c)
DAV:   1    -0.435921385573E+02    0.22225E+00   -0.46846E+02   624   0.473E+01    0.100E+00
DAV:   2    -0.438372094457E+02   -0.24507E+00   -0.23944E+00   688   0.471E+00    0.692E-01
DAV:   3    -0.438354707433E+02    0.17387E-02   -0.37941E-02   688   0.564E-01    0.487E-01
DAV:   4    -0.438310813506E+02    0.43894E-02   -0.61640E-03   672   0.189E-01    0.290E-01
DAV:   5    -0.438301274509E+02    0.95390E-03   -0.53945E-03   672   0.168E-01    0.783E-02
DAV:   6    -0.438302391749E+02   -0.11172E-03   -0.79900E-05   432   0.290E-02    0.412E-02
DAV:   7    -0.438303014227E+02   -0.62248E-04   -0.34583E-05   432   0.160E-02
  28 F= -.43830301E+02 E0= -.43830301E+02  d E =-.366253E-01  mag=     0.0000
 curvature: -94.90 expect dE=-0.454E+00 dE for cont linesearch -0.679E-03
 trial: gam= 1.45119 g(F)=  0.478E-02 g(S)=  0.000E+00 ort = 0.301E-03 (trialstep = 0.636E+01)
 search vector abs. value=  0.324E-01
 bond charge predicted
       N       E                     dE             d eps       ncg     rms          rms(c)
DAV:   1    -0.438180341888E+02    0.12205E-01   -0.88791E+01   624   0.203E+01    0.334E-01
DAV:   2    -0.438619645848E+02   -0.43930E-01   -0.42430E-01   672   0.196E+00    0.277E-01
DAV:   3    -0.438616153885E+02    0.34920E-03   -0.64082E-03   704   0.228E-01    0.210E-01
DAV:   4    -0.438606060817E+02    0.10093E-02   -0.15615E-03   672   0.923E-02    0.109E-01
DAV:   5    -0.438604900563E+02    0.11603E-03   -0.11991E-03   672   0.804E-02    0.336E-02
DAV:   6    -0.438605178390E+02   -0.27783E-04   -0.22971E-05   416   0.134E-02
  29 F= -.43860518E+02 E0= -.43860518E+02  d E =-.302164E-01  mag=     0.0000
 ZBRENT: can't locate minimum, use default step
 trial-energy change:   -0.030216  1 .order   -0.030701   -0.033227   -0.028175
 step:  25.4501(harm= 41.8469)  dis= 0.27189  next Energy=   -43.939570 (dE=-0.109E+00)
 bond charge predicted
       N       E                     dE             d eps       ncg     rms          rms(c)
DAV:   1    -0.434041389842E+02    0.45635E+00   -0.86470E+02   624   0.649E+01    0.189E+00
DAV:   2    -0.438979308765E+02   -0.49379E+00   -0.48872E+00   688   0.677E+00    0.978E-01
DAV:   3    -0.438955018735E+02    0.24290E-02   -0.81246E-02   672   0.842E-01    0.655E-01
DAV:   4    -0.438894500952E+02    0.60518E-02   -0.88938E-03   688   0.237E-01    0.413E-01
DAV:   5    -0.438876718580E+02    0.17782E-02   -0.79809E-03   672   0.212E-01    0.938E-02
DAV:   6    -0.438878097227E+02   -0.13786E-03   -0.13936E-04   448   0.419E-02    0.499E-02
DAV:   7    -0.438879102745E+02   -0.10055E-03   -0.41343E-05   432   0.185E-02    0.159E-02
DAV:   8    -0.438879785057E+02   -0.68231E-04   -0.15352E-05   432   0.930E-03
  30 F= -.43887979E+02 E0= -.43887979E+02  d E =-.576771E-01  mag=     0.0000
 curvature: ****** expect dE=-0.702E+00 dE for cont linesearch -0.149E-01
 ZBRENT: interpolating
 opt :  19.1696  next Energy=   -43.894798 (dE=-0.645E-01)
 bond charge predicted
       N       E                     dE             d eps       ncg     rms          rms(c)
DAV:   1    -0.438513336265E+02    0.36577E-01   -0.86545E+01   624   0.202E+01    0.346E-01
DAV:   2    -0.438945999587E+02   -0.43266E-01   -0.40767E-01   688   0.192E+00    0.293E-01
DAV:   3    -0.438944742561E+02    0.12570E-03   -0.61541E-03   672   0.223E-01    0.227E-01
DAV:   4    -0.438935142844E+02    0.95997E-03   -0.17649E-03   664   0.100E-01    0.110E-01
DAV:   5    -0.438934712801E+02    0.43004E-04   -0.10421E-03   672   0.773E-02    0.358E-02
DAV:   6    -0.438934741816E+02   -0.29015E-05   -0.30764E-05   432   0.148E-02
  31 F= -.43893474E+02 E0= -.43893474E+02  d E =-.631728E-01  mag=     0.0000
 curvature: -46.87 expect dE=-0.220E+00 dE for cont linesearch -0.832E-04
 trial: gam= 0.32710 g(F)=  0.470E-02 g(S)=  0.000E+00 ort = 0.240E-03 (trialstep = 0.892E+01)
 search vector abs. value=  0.832E-02
 bond charge predicted
       N       E                     dE             d eps       ncg     rms          rms(c)
DAV:   1    -0.439078821683E+02   -0.14411E-01   -0.44533E+01   624   0.145E+01    0.260E-01
DAV:   2    -0.439294700875E+02   -0.21588E-01   -0.20976E-01   664   0.139E+00    0.216E-01
DAV:   3    -0.439293750424E+02    0.95045E-04   -0.32753E-03   672   0.169E-01    0.159E-01
DAV:   4    -0.439288906745E+02    0.48437E-03   -0.97153E-04   672   0.747E-02    0.747E-02
DAV:   5    -0.439288820017E+02    0.86727E-05   -0.50355E-04   672   0.547E-02
  32 F= -.43928882E+02 E0= -.43928882E+02  d E =-.354078E-01  mag=     0.0000
 trial-energy change:   -0.035408  1 .order   -0.035733   -0.042633   -0.028833
 step:  27.5693(harm= 27.5693)  dis= 0.09193  next Energy=   -43.959329 (dE=-0.659E-01)
 bond charge predicted
       N       E                     dE             d eps       ncg     rms          rms(c)
DAV:   1    -0.438605368849E+02    0.68354E-01   -0.19573E+02   624   0.306E+01    0.610E-01
DAV:   2    -0.439569020014E+02   -0.96365E-01   -0.93864E-01   672   0.294E+00    0.453E-01
DAV:   3    -0.439561883423E+02    0.71366E-03   -0.14837E-02   664   0.364E-01    0.322E-01
DAV:   4    -0.439542380435E+02    0.19503E-02   -0.40071E-03   672   0.154E-01    0.149E-01
DAV:   5    -0.439541748193E+02    0.63224E-04   -0.16978E-03   672   0.102E-01    0.459E-02
DAV:   6    -0.439541546405E+02    0.20179E-04   -0.10852E-04   416   0.256E-02
  33 F= -.43954155E+02 E0= -.43954155E+02  d E =-.606805E-01  mag=     0.0000
 curvature: -24.02 expect dE=-0.116E+00 dE for cont linesearch -0.522E-03
 trial: gam= 1.08627 g(F)=  0.484E-02 g(S)=  0.000E+00 ort =-0.425E-03 (trialstep = 0.766E+01)
 search vector abs. value=  0.137E-01
 bond charge predicted
       N       E                     dE             d eps       ncg     rms          rms(c)
DAV:   1    -0.439541405787E+02    0.34241E-04   -0.54163E+01   624   0.160E+01    0.288E-01
DAV:   2    -0.439805634158E+02   -0.26423E-01   -0.25767E-01   672   0.155E+00    0.261E-01
DAV:   3    -0.439803932258E+02    0.17019E-03   -0.40598E-03   688   0.192E-01    0.189E-01
DAV:   4    -0.439797315940E+02    0.66163E-03   -0.11912E-03   640   0.813E-02    0.100E-01
DAV:   5    -0.439797111747E+02    0.20419E-04   -0.81644E-04   672   0.674E-02
  34 F= -.43979711E+02 E0= -.43979711E+02  d E =-.255565E-01  mag=     0.0000
 trial-energy change:   -0.025557  1 .order   -0.026238   -0.033582   -0.018894
 step:  17.5236(harm= 17.5236)  dis= 0.06246  next Energy=   -43.992544 (dE=-0.384E-01)
 bond charge predicted
       N       E                     dE             d eps       ncg     rms          rms(c)
DAV:   1    -0.439473145384E+02    0.32417E-01   -0.89734E+01   624   0.206E+01    0.388E-01
DAV:   2    -0.439911650693E+02   -0.43851E-01   -0.43010E-01   672   0.200E+00    0.335E-01
DAV:   3    -0.439908922828E+02    0.27279E-03   -0.68386E-03   672   0.251E-01    0.237E-01
DAV:   4    -0.439898858942E+02    0.10064E-02   -0.19253E-03   672   0.104E-01    0.123E-01
DAV:   5    -0.439898663799E+02    0.19514E-04   -0.11494E-03   672   0.806E-02    0.415E-02
DAV:   6    -0.439898565619E+02    0.98180E-05   -0.62913E-05   416   0.184E-02
  35 F= -.43989857E+02 E0= -.43989857E+02  d E =-.357019E-01  mag=    -0.0000
 curvature: -27.48 expect dE=-0.527E-01 dE for cont linesearch -0.975E-04
 trial: gam= 0.14983 g(F)=  0.192E-02 g(S)=  0.000E+00 ort =-0.221E-03 (trialstep = 0.964E+01)
 search vector abs. value=  0.216E-02
 bond charge predicted
       N       E                     dE             d eps       ncg     rms          rms(c)
DAV:   1    -0.439989245738E+02   -0.90582E-02   -0.13449E+01   624   0.800E+00    0.161E-01
DAV:   2    -0.440052508920E+02   -0.63263E-02   -0.62786E-02   672   0.762E-01    0.139E-01
DAV:   3    -0.440051842295E+02    0.66662E-04   -0.98732E-04   672   0.930E-02
  36 F= -.44005184E+02 E0= -.44005184E+02  d E =-.153277E-01  mag=    -0.0000
 trial-energy change:   -0.015328  1 .order   -0.015142   -0.018175   -0.012109
 step:  28.8737(harm= 28.8737)  dis= 0.03815  next Energy=   -44.017086 (dE=-0.272E-01)
 bond charge predicted
       N       E                     dE             d eps       ncg     rms          rms(c)
DAV:   1    -0.439930386803E+02    0.12212E-01   -0.53733E+01   624   0.160E+01    0.350E-01
DAV:   2    -0.440184478446E+02   -0.25409E-01   -0.25041E-01   672   0.152E+00    0.295E-01
DAV:   3    -0.440181446818E+02    0.30316E-03   -0.39817E-03   672   0.184E-01    0.206E-01
DAV:   4    -0.440175219129E+02    0.62277E-03   -0.20193E-03   672   0.110E-01    0.778E-02
DAV:   5    -0.440175698947E+02   -0.47982E-04   -0.26863E-04   464   0.478E-02
  37 F= -.44017570E+02 E0= -.44017570E+02  d E =-.277133E-01  mag=    -0.0000
 curvature: -16.54 expect dE=-0.218E-01 dE for cont linesearch -0.105E-03
 trial: gam= 0.64531 g(F)=  0.132E-02 g(S)=  0.000E+00 ort = 0.117E-03 (trialstep = 0.123E+02)
 search vector abs. value=  0.237E-02
 bond charge predicted
       N       E                     dE             d eps       ncg     rms          rms(c)
DAV:   1    -0.440197954190E+02   -0.22735E-02   -0.24001E+01   624   0.107E+01    0.175E-01
DAV:   2    -0.440317201848E+02   -0.11925E-01   -0.11311E-01   688   0.103E+00    0.168E-01
DAV:   3    -0.440316817832E+02    0.38402E-04   -0.17387E-03   688   0.122E-01    0.126E-01
DAV:   4    -0.440313804625E+02    0.30132E-03   -0.52847E-04   672   0.562E-02    0.713E-02
DAV:   5    -0.440313699492E+02    0.10513E-04   -0.44814E-04   656   0.493E-02
  38 F= -.44031370E+02 E0= -.44031370E+02  d E =-.138001E-01  mag=    -0.0000
 trial-energy change:   -0.013800  1 .order   -0.014316   -0.017136   -0.011496
 step:  37.3988(harm= 37.3988)  dis= 0.05434  next Energy=   -44.043602 (dE=-0.260E-01)
 bond charge predicted
       N       E                     dE             d eps       ncg     rms          rms(c)
DAV:   1    -0.439933167167E+02    0.38064E-01   -0.99994E+01   624   0.218E+01    0.378E-01
DAV:   2    -0.440427222773E+02   -0.49406E-01   -0.47261E-01   688   0.210E+00    0.347E-01
DAV:   3    -0.440423829436E+02    0.33933E-03   -0.73123E-03   704   0.250E-01    0.254E-01
DAV:   4    -0.440410487653E+02    0.13342E-02   -0.23612E-03   672   0.117E-01    0.138E-01
DAV:   5    -0.440409752529E+02    0.73512E-04   -0.15810E-03   672   0.929E-02    0.501E-02
DAV:   6    -0.440409634482E+02    0.11805E-04   -0.57231E-05   400   0.178E-02
  39 F= -.44040963E+02 E0= -.44040963E+02  d E =-.233936E-01  mag=    -0.0000
 curvature: -31.80 expect dE=-0.454E-01 dE for cont linesearch -0.184E-03
 trial: gam= 1.24747 g(F)=  0.143E-02 g(S)=  0.000E+00 ort =-0.117E-03 (trialstep = 0.851E+01)
 search vector abs. value=  0.482E-02
 bond charge predicted
       N       E                     dE             d eps       ncg     rms          rms(c)
DAV:   1    -0.440391281794E+02    0.18471E-02   -0.23296E+01   624   0.105E+01    0.146E-01
DAV:   2    -0.440503792844E+02   -0.11251E-01   -0.10732E-01   672   0.994E-01    0.148E-01
DAV:   3    -0.440503015204E+02    0.77764E-04   -0.15686E-03   704   0.114E-01    0.118E-01
DAV:   4    -0.440499710481E+02    0.33047E-03   -0.41548E-04   624   0.478E-02    0.698E-02
DAV:   5    -0.440499076743E+02    0.63374E-04   -0.61178E-04   672   0.564E-02
  40 F= -.44049908E+02 E0= -.44049908E+02  d E =-.894423E-02  mag=    -0.0000
 trial-energy change:   -0.008944  1 .order   -0.009429   -0.010913   -0.007945
 step:  31.2943(harm= 31.2943)  dis= 0.07719  next Energy=   -44.061029 (dE=-0.201E-01)
 bond charge predicted
       N       E                     dE             d eps       ncg     rms          rms(c)
DAV:   1    -0.439778975563E+02    0.72073E-01   -0.16808E+02   624   0.283E+01    0.445E-01
DAV:   2    -0.440592316923E+02   -0.81334E-01   -0.78031E-01   664   0.269E+00    0.401E-01
DAV:   3    -0.440585061282E+02    0.72556E-03   -0.11550E-02   704   0.311E-01    0.304E-01
DAV:   4    -0.440562667042E+02    0.22394E-02   -0.31731E-03   672   0.131E-01    0.169E-01
DAV:   5    -0.440558906338E+02    0.37607E-03   -0.29317E-03   672   0.123E-01    0.563E-02
DAV:   6    -0.440559182364E+02   -0.27603E-04   -0.39932E-05   400   0.177E-02
  41 F= -.44055918E+02 E0= -.44055918E+02  d E =-.149548E-01  mag=     0.0000
 curvature: -58.83 expect dE=-0.845E-01 dE for cont linesearch -0.462E-03
 trial: gam= 0.67313 g(F)=  0.144E-02 g(S)=  0.000E+00 ort =-0.195E-03 (trialstep = 0.131E+02)
 search vector abs. value=  0.336E-02
 bond charge predicted
       N       E                     dE             d eps       ncg     rms          rms(c)
DAV:   1    -0.440498138346E+02    0.60768E-02   -0.38323E+01   624   0.135E+01    0.220E-01
DAV:   2    -0.440682395558E+02   -0.18426E-01   -0.17586E-01   672   0.127E+00    0.199E-01
DAV:   3    -0.440680774089E+02    0.16215E-03   -0.25804E-03   688   0.145E-01    0.153E-01
DAV:   4    -0.440675455278E+02    0.53188E-03   -0.10157E-03   672   0.740E-02    0.713E-02
DAV:   5    -0.440675360615E+02    0.94663E-05   -0.51598E-04   656   0.535E-02
  42 F= -.44067536E+02 E0= -.44067536E+02  d E =-.116178E-01  mag=     0.0000
 trial-energy change:   -0.011618  1 .order   -0.012328   -0.017064   -0.007591
 step:  23.5367(harm= 23.5367)  dis= 0.04096  next Energy=   -44.071287 (dE=-0.154E-01)
 bond charge predicted
       N       E                     dE             d eps       ncg     rms          rms(c)
DAV:   1    -0.440585729655E+02    0.89726E-02   -0.24592E+01   624   0.108E+01    0.179E-01
DAV:   2    -0.440704239313E+02   -0.11851E-01   -0.11354E-01   672   0.102E+00    0.155E-01
DAV:   3    -0.440703424071E+02    0.81524E-04   -0.16655E-03   672   0.117E-01    0.117E-01
DAV:   4    -0.440700457814E+02    0.29663E-03   -0.60614E-04   672   0.579E-02    0.536E-02
DAV:   5    -0.440700459416E+02   -0.16027E-06   -0.27041E-04   480   0.404E-02
  43 F= -.44070046E+02 E0= -.44070046E+02  d E =-.141277E-01  mag=     0.0000
 curvature: -30.27 expect dE=-0.333E-01 dE for cont linesearch -0.122E-04
 trial: gam= 0.57599 g(F)=  0.110E-02 g(S)=  0.000E+00 ort = 0.369E-04 (trialstep = 0.152E+02)
 search vector abs. value=  0.226E-02
 bond charge predicted
       N       E                     dE             d eps       ncg     rms          rms(c)
DAV:   1    -0.440675086135E+02    0.25372E-02   -0.34665E+01   624   0.128E+01    0.198E-01
DAV:   2    -0.440844281939E+02   -0.16920E-01   -0.16127E-01   672   0.122E+00    0.180E-01
DAV:   3    -0.440843649425E+02    0.63251E-04   -0.24095E-03   688   0.141E-01    0.137E-01
DAV:   4    -0.440839484838E+02    0.41646E-03   -0.68724E-04   672   0.621E-02    0.713E-02
DAV:   5    -0.440839193241E+02    0.29160E-04   -0.57381E-04   640   0.547E-02
  44 F= -.44083919E+02 E0= -.44083919E+02  d E =-.138734E-01  mag=     0.0000
 trial-energy change:   -0.013873  1 .order   -0.014736   -0.016999   -0.012472
 step:  56.9304(harm= 56.9304)  dis= 0.07922  next Energy=   -44.101963 (dE=-0.319E-01)
 bond charge predicted
       N       E                     dE             d eps       ncg     rms          rms(c)
DAV:   1    -0.439680414906E+02    0.11591E+00   -0.26548E+02   624   0.357E+01    0.647E-01
DAV:   2    -0.441000647610E+02   -0.13202E+00   -0.12560E+00   672   0.342E+00    0.512E-01
DAV:   3    -0.440988904327E+02    0.11743E-02   -0.19051E-02   672   0.401E-01    0.371E-01
DAV:   4    -0.440957269553E+02    0.31635E-02   -0.53986E-03   672   0.172E-01    0.183E-01
DAV:   5    -0.440954571982E+02    0.26976E-03   -0.29729E-03   656   0.125E-01    0.590E-02
DAV:   6    -0.440954604066E+02   -0.32084E-05   -0.92984E-05   416   0.243E-02
  45 F= -.44095460E+02 E0= -.44095460E+02  d E =-.254145E-01  mag=    -0.0000
 curvature: -57.30 expect dE=-0.180E+00 dE for cont linesearch -0.142E-02
 ZBRENT: interpolating
 opt :  47.5987  next Energy=   -44.096565 (dE=-0.265E-01)
 bond charge predicted
       N       E                     dE             d eps       ncg     rms          rms(c)
DAV:   1    -0.440908862371E+02    0.45710E-02   -0.13142E+01   624   0.789E+00    0.119E-01
DAV:   2    -0.440971881759E+02   -0.63019E-02   -0.60549E-02   672   0.745E-01    0.114E-01
DAV:   3    -0.440971510688E+02    0.37107E-04   -0.90272E-04   672   0.864E-02
  46 F= -.44097151E+02 E0= -.44097151E+02  d E =-.271051E-01  mag=    -0.0000
 curvature: -44.50 expect dE=-0.946E-01 dE for cont linesearch -0.547E-04
 trial: gam= 2.03576 g(F)=  0.213E-02 g(S)=  0.000E+00 ort =-0.527E-04 (trialstep = 0.434E+01)
 search vector abs. value=  0.113E-01
 bond charge predicted
       N       E                     dE             d eps       ncg     rms          rms(c)
DAV:   1    -0.440986737789E+02   -0.14856E-02   -0.14127E+01   624   0.815E+00    0.121E-01
DAV:   2    -0.441056518675E+02   -0.69781E-02   -0.66702E-02   672   0.778E-01    0.939E-02
DAV:   3    -0.441056273568E+02    0.24511E-04   -0.98838E-04   688   0.926E-02
  47 F= -.44105627E+02 E0= -.44105627E+02  d E =-.847629E-02  mag=    -0.0000
 ZBRENT: can't locate minimum, use default step
 trial-energy change:   -0.008476  1 .order   -0.008348   -0.008757   -0.007939
 step:  17.3488(harm= 46.4343)  dis= 0.06088  next Energy=   -44.144026 (dE=-0.469E-01)
 bond charge predicted
       N       E                     dE             d eps       ncg     rms          rms(c)
DAV:   1    -0.440636611996E+02    0.41991E-01   -0.12800E+02   624   0.246E+01    0.385E-01
DAV:   2    -0.441248011781E+02   -0.61140E-01   -0.59055E-01   656   0.233E+00    0.340E-01
DAV:   3    -0.441239852627E+02    0.81592E-03   -0.87219E-03   688   0.270E-01    0.266E-01
DAV:   4    -0.441221124231E+02    0.18728E-02   -0.27450E-03   656   0.120E-01    0.132E-01
DAV:   5    -0.441218559657E+02    0.25646E-03   -0.20979E-03   672   0.104E-01    0.411E-02
DAV:   6    -0.441218758943E+02   -0.19929E-04   -0.33256E-05   416   0.163E-02
  48 F= -.44121876E+02 E0= -.44121876E+02  d E =-.247248E-01  mag=    -0.0000
 curvature: -67.71 expect dE=-0.113E+00 dE for cont linesearch -0.419E-02
 ZBRENT: increasing intervall
 opt :  43.3719  next Energy=   -44.117700 (dE=-0.205E-01)
 bond charge predicted
       N       E                     dE             d eps       ncg     rms          rms(c)
DAV:   1    -0.438618340507E+02    0.26002E+00   -0.52008E+02   624   0.501E+01    0.100E+00
DAV:   2    -0.441189718715E+02   -0.25714E+00   -0.24969E+00   672   0.484E+00    0.667E-01
DAV:   3    -0.441157314309E+02    0.32404E-02   -0.38058E-02   672   0.580E-01    0.473E-01
DAV:   4    -0.441103670327E+02    0.53644E-02   -0.75733E-03   672   0.204E-01    0.255E-01
DAV:   5    -0.441092983076E+02    0.10687E-02   -0.55821E-03   672   0.169E-01    0.648E-02
DAV:   6    -0.441093871638E+02   -0.88856E-04   -0.78585E-05   432   0.284E-02
  49 F= -.44109387E+02 E0= -.44109387E+02  d E =-.122361E-01  mag=    -0.0000
 curvature:  67.48 expect dE= 0.329E+00 dE for cont linesearch  0.115E-01
 ZBRENT: bracketing found
 ZBRENT: interpolating
 opt :  27.1431  next Energy=   -44.125965 (dE=-0.288E-01)
 bond charge predicted
       N       E                     dE             d eps       ncg     rms          rms(c)
DAV:   1    -0.440323882315E+02    0.76910E-01   -0.19974E+02   624   0.309E+01    0.444E-01
DAV:   2    -0.441283917865E+02   -0.96004E-01   -0.92653E-01   672   0.293E+00    0.429E-01
DAV:   3    -0.441276910108E+02    0.70078E-03   -0.13766E-02   672   0.339E-01    0.339E-01
DAV:   4    -0.441252994759E+02    0.23915E-02   -0.24668E-03   672   0.118E-01    0.212E-01
DAV:   5    -0.441244669416E+02    0.83253E-03   -0.45026E-03   648   0.150E-01    0.615E-02
DAV:   6    -0.441245221282E+02   -0.55187E-04   -0.49434E-05   408   0.207E-02
  50 F= -.44124522E+02 E0= -.44124522E+02  d E =-.273711E-01  mag=    -0.0000
 curvature: -24.07 expect dE=-0.562E-01 dE for cont linesearch -0.298E-03
 trial: gam= 0.65493 g(F)=  0.233E-02 g(S)=  0.000E+00 ort =-0.374E-03 (trialstep = 0.890E+01)
 search vector abs. value=  0.668E-02
 bond charge predicted
       N       E                     dE             d eps       ncg     rms          rms(c)
DAV:   1    -0.441255126300E+02   -0.10457E-02   -0.35384E+01   624   0.129E+01    0.186E-01
DAV:   2    -0.441425555174E+02   -0.17043E-01   -0.16377E-01   672   0.123E+00    0.188E-01
DAV:   3    -0.441424475627E+02    0.10795E-03   -0.24765E-03   688   0.146E-01    0.146E-01
DAV:   4    -0.441419793973E+02    0.46817E-03   -0.54133E-04   656   0.546E-02    0.901E-02
DAV:   5    -0.441418622273E+02    0.11717E-03   -0.92437E-04   672   0.686E-02    0.307E-02
DAV:   6    -0.441418663444E+02   -0.41171E-05   -0.10991E-05   384   0.887E-03
  51 F= -.44141866E+02 E0= -.44141866E+02  d E =-.173442E-01  mag=    -0.0000
 ZBRENT: can't locate minimum, use default step
 trial-energy change:   -0.017344  1 .order   -0.017022   -0.018599   -0.015445
 step:  35.5935(harm= 52.4762)  dis= 0.09716  next Energy=   -44.179363 (dE=-0.548E-01)
 bond charge predicted
       N       E                     dE             d eps       ncg     rms          rms(c)
DAV:   1    -0.440102310499E+02    0.13163E+00   -0.32256E+02   624   0.391E+01    0.684E-01
DAV:   2    -0.441682910223E+02   -0.15806E+00   -0.15335E+00   648   0.378E+00    0.579E-01
DAV:   3    -0.441668963962E+02    0.13946E-02   -0.23625E-02   704   0.456E-01    0.418E-01
DAV:   4    -0.441631600829E+02    0.37363E-02   -0.49525E-03   640   0.165E-01    0.247E-01
DAV:   5    -0.441623576000E+02    0.80248E-03   -0.50393E-03   672   0.160E-01    0.747E-02
DAV:   6    -0.441624191201E+02   -0.61520E-04   -0.63256E-05   432   0.231E-02
  52 F= -.44162419E+02 E0= -.44162419E+02  d E =-.378970E-01  mag=    -0.0000
 curvature: -71.24 expect dE=-0.147E+00 dE for cont linesearch -0.258E-05
 trial: gam= 0.70521 g(F)=  0.206E-02 g(S)=  0.000E+00 ort = 0.155E-04 (trialstep = 0.142E+02)
 search vector abs. value=  0.540E-02
 bond charge predicted
       N       E                     dE             d eps       ncg     rms          rms(c)
DAV:   1    -0.441470301174E+02    0.15327E-01   -0.73394E+01   624   0.186E+01    0.318E-01
DAV:   2    -0.441828129564E+02   -0.35783E-01   -0.34049E-01   672   0.177E+00    0.290E-01
DAV:   3    -0.441827283453E+02    0.84611E-04   -0.52453E-03   688   0.210E-01    0.216E-01
DAV:   4    -0.441818035821E+02    0.92476E-03   -0.17521E-03   672   0.992E-02    0.112E-01
DAV:   5    -0.441817775548E+02    0.26027E-04   -0.10441E-03   672   0.764E-02    0.407E-02
DAV:   6    -0.441817820053E+02   -0.44505E-05   -0.33529E-05   432   0.142E-02
  53 F= -.44181782E+02 E0= -.44181782E+02  d E =-.193629E-01  mag=    -0.0000
 trial-energy change:   -0.019363  1 .order   -0.020922   -0.029449   -0.012395
 step:  24.5852(harm= 24.5852)  dis= 0.05292  next Energy=   -44.187846 (dE=-0.254E-01)
 bond charge predicted
       N       E                     dE             d eps       ncg     rms          rms(c)
DAV:   1    -0.441678862044E+02    0.13891E-01   -0.38714E+01   624   0.135E+01    0.227E-01
DAV:   2    -0.441867182222E+02   -0.18832E-01   -0.17897E-01   656   0.128E+00    0.209E-01
DAV:   3    -0.441866239558E+02    0.94266E-04   -0.27407E-03   704   0.151E-01    0.157E-01
DAV:   4    -0.441861259991E+02    0.49796E-03   -0.93503E-04   672   0.725E-02    0.812E-02
DAV:   5    -0.441861165375E+02    0.94617E-05   -0.58036E-04   656   0.571E-02
  54 F= -.44186117E+02 E0= -.44186117E+02  d E =-.236974E-01  mag=     0.0000
 curvature: -32.09 expect dE=-0.423E-01 dE for cont linesearch -0.498E-04
 trial: gam= 0.59504 g(F)=  0.132E-02 g(S)=  0.000E+00 ort = 0.916E-04 (trialstep = 0.163E+02)
 search vector abs. value=  0.334E-02
 bond charge predicted
       N       E                     dE             d eps       ncg     rms          rms(c)
DAV:   1    -0.441756954103E+02    0.10431E-01   -0.59458E+01   624   0.168E+01    0.267E-01
DAV:   2    -0.442046163091E+02   -0.28921E-01   -0.27425E-01   672   0.159E+00    0.240E-01
DAV:   3    -0.442043959149E+02    0.22039E-03   -0.41051E-03   688   0.185E-01    0.183E-01
DAV:   4    -0.442036084591E+02    0.78746E-03   -0.12773E-03   656   0.834E-02    0.956E-02
DAV:   5    -0.442035392421E+02    0.69217E-04   -0.96706E-04   672   0.726E-02
  55 F= -.44203539E+02 E0= -.44203539E+02  d E =-.174227E-01  mag=     0.0000
 trial-energy change:   -0.017423  1 .order   -0.018206   -0.022373   -0.014040
 step:  43.7826(harm= 43.7826)  dis= 0.08036  next Energy=   -44.216151 (dE=-0.300E-01)
 bond charge predicted
       N       E                     dE             d eps       ncg     rms          rms(c)
DAV:   1    -0.441303690833E+02    0.73239E-01   -0.16966E+02   624   0.284E+01    0.490E-01
DAV:   2    -0.442107429898E+02   -0.80374E-01   -0.78571E-01   672   0.269E+00    0.411E-01
DAV:   3    -0.442097677889E+02    0.97520E-03   -0.11890E-02   688   0.318E-01    0.303E-01
DAV:   4    -0.442075862500E+02    0.21815E-02   -0.36436E-03   672   0.140E-01    0.155E-01
DAV:   5    -0.442073819534E+02    0.20430E-03   -0.22212E-03   656   0.111E-01    0.507E-02
DAV:   6    -0.442073966433E+02   -0.14690E-04   -0.53444E-05   416   0.193E-02
  56 F= -.44207397E+02 E0= -.44207397E+02  d E =-.212801E-01  mag=    -0.0000
 curvature: -53.27 expect dE=-0.144E+00 dE for cont linesearch -0.378E-02
 ZBRENT: interpolating
 opt :  33.8623  next Energy=   -44.209810 (dE=-0.237E-01)
 bond charge predicted
       N       E                     dE             d eps       ncg     rms          rms(c)
DAV:   1    -0.442005977705E+02    0.67842E-02   -0.21994E+01   624   0.102E+01    0.159E-01
DAV:   2    -0.442108006623E+02   -0.10203E-01   -0.99812E-02   688   0.956E-01    0.147E-01
DAV:   3    -0.442106909931E+02    0.10967E-03   -0.14889E-03   688   0.112E-01    0.113E-01
DAV:   4    -0.442103954633E+02    0.29553E-03   -0.48654E-04   656   0.514E-02    0.585E-02
DAV:   5    -0.442103769035E+02    0.18560E-04   -0.38789E-04   640   0.464E-02
  57 F= -.44210377E+02 E0= -.44210377E+02  d E =-.242604E-01  mag=    -0.0000
 curvature: -34.04 expect dE=-0.551E-01 dE for cont linesearch -0.864E-04
 trial: gam= 1.07562 g(F)=  0.162E-02 g(S)=  0.000E+00 ort =-0.921E-04 (trialstep = 0.125E+02)
 search vector abs. value=  0.528E-02
 bond charge predicted
       N       E                     dE             d eps       ncg     rms          rms(c)
DAV:   1    -0.442021577447E+02    0.82377E-02   -0.55492E+01   624   0.162E+01    0.229E-01
DAV:   2    -0.442286207017E+02   -0.26463E-01   -0.25435E-01   672   0.154E+00    0.233E-01
DAV:   3    -0.442283686199E+02    0.25208E-03   -0.37994E-03   704   0.178E-01    0.186E-01
DAV:   4    -0.442275013611E+02    0.86726E-03   -0.98509E-04   656   0.737E-02    0.111E-01
DAV:   5    -0.442272732931E+02    0.22807E-03   -0.15106E-03   664   0.876E-02    0.381E-02
DAV:   6    -0.442272842978E+02   -0.11005E-04   -0.16245E-05   384   0.112E-02
  58 F= -.44227284E+02 E0= -.44227284E+02  d E =-.169074E-01  mag=    -0.0000
 ZBRENT: can't locate minimum, use default step
 trial-energy change:   -0.016907  1 .order   -0.016946   -0.019036   -0.014855
 step:  50.0888(harm= 57.0226)  dis= 0.13604  next Energy=   -44.253719 (dE=-0.433E-01)
 bond charge predicted
       N       E                     dE             d eps       ncg     rms          rms(c)
DAV:   1    -0.439988028886E+02    0.22847E+00   -0.51033E+02   624   0.497E+01    0.960E-01
DAV:   2    -0.442497733193E+02   -0.25097E+00   -0.24365E+00   672   0.480E+00    0.722E-01
DAV:   3    -0.442462595179E+02    0.35138E-02   -0.37740E-02   688   0.571E-01    0.515E-01
DAV:   4    -0.442399363369E+02    0.63232E-02   -0.92152E-03   656   0.225E-01    0.285E-01
DAV:   5    -0.442387845190E+02    0.11518E-02   -0.63918E-03   664   0.184E-01    0.817E-02
DAV:   6    -0.442388789723E+02   -0.94453E-04   -0.89019E-05   432   0.302E-02
  59 F= -.44238879E+02 E0= -.44238879E+02  d E =-.285021E-01  mag=    -0.0000
 curvature: -96.69 expect dE=-0.300E+00 dE for cont linesearch -0.226E-02
 trial: gam= 1.64519 g(F)=  0.310E-02 g(S)=  0.000E+00 ort =-0.352E-03 (trialstep = 0.652E+01)
 search vector abs. value=  0.162E-01
 bond charge predicted
       N       E                     dE             d eps       ncg     rms          rms(c)
DAV:   1    -0.442298042821E+02    0.89802E-02   -0.46145E+01   624   0.148E+01    0.211E-01
DAV:   2    -0.442521555951E+02   -0.22351E-01   -0.21212E-01   672   0.140E+00    0.209E-01
DAV:   3    -0.442519811085E+02    0.17449E-03   -0.31071E-03   688   0.159E-01    0.168E-01
DAV:   4    -0.442512948684E+02    0.68624E-03   -0.91673E-04   672   0.704E-02    0.941E-02
DAV:   5    -0.442511878085E+02    0.10706E-03   -0.11137E-03   664   0.754E-02    0.329E-02
DAV:   6    -0.442512067657E+02   -0.18957E-04   -0.14770E-05   432   0.104E-02
  60 F= -.44251207E+02 E0= -.44251207E+02  d E =-.123278E-01  mag=    -0.0000
 trial-energy change:   -0.012328  1 .order   -0.013557   -0.016428   -0.010686
 step:  18.6458(harm= 18.6458)  dis= 0.10491  next Energy=   -44.262379 (dE=-0.235E-01)
 bond charge predicted
       N       E                     dE             d eps       ncg     rms          rms(c)
DAV:   1    -0.441862052385E+02    0.64983E-01   -0.16101E+02   624   0.277E+01    0.439E-01
DAV:   2    -0.442641058996E+02   -0.77901E-01   -0.74536E-01   672   0.262E+00    0.393E-01
DAV:   3    -0.442632307784E+02    0.87512E-03   -0.11051E-02   688   0.300E-01    0.307E-01
DAV:   4    -0.442608630082E+02    0.23678E-02   -0.35035E-03   672   0.137E-01    0.158E-01
DAV:   5    -0.442605274782E+02    0.33553E-03   -0.26550E-03   648   0.117E-01    0.501E-02
DAV:   6    -0.442605571588E+02   -0.29681E-04   -0.40088E-05   416   0.183E-02
  61 F= -.44260557E+02 E0= -.44260557E+02  d E =-.216782E-01  mag=     0.0000
 curvature: -60.08 expect dE=-0.143E+00 dE for cont linesearch -0.118E-03
 trial: gam= 0.23143 g(F)=  0.238E-02 g(S)=  0.000E+00 ort = 0.179E-03 (trialstep = 0.894E+01)
 search vector abs. value=  0.333E-02
 bond charge predicted
       N       E                     dE             d eps       ncg     rms          rms(c)
DAV:   1    -0.442710598408E+02   -0.10532E-01   -0.17846E+01   624   0.921E+00    0.164E-01
DAV:   2    -0.442795572659E+02   -0.84974E-02   -0.83201E-02   664   0.887E-01    0.154E-01
DAV:   3    -0.442794879889E+02    0.69277E-04   -0.13489E-03   688   0.112E-01    0.113E-01
DAV:   4    -0.442792614551E+02    0.22653E-03   -0.40687E-04   640   0.483E-02    0.596E-02
DAV:   5    -0.442792576568E+02    0.37984E-05   -0.28423E-04   512   0.406E-02
  62 F= -.44279258E+02 E0= -.44279258E+02  d E =-.187005E-01  mag=     0.0000
 ZBRENT: can't locate minimum, use default step
 trial-energy change:   -0.018700  1 .order   -0.019164   -0.021657   -0.016671
 step:  35.7716(harm= 38.8434)  dis= 0.05598  next Energy=   -44.307590 (dE=-0.470E-01)
 bond charge predicted
       N       E                     dE             d eps       ncg     rms          rms(c)
DAV:   1    -0.442290818927E+02    0.50180E-01   -0.16149E+02   624   0.278E+01    0.515E-01
DAV:   2    -0.443058360513E+02   -0.76754E-01   -0.75819E-01   672   0.268E+00    0.465E-01
DAV:   3    -0.443051944683E+02    0.64158E-03   -0.12304E-02   688   0.336E-01    0.334E-01
DAV:   4    -0.443031488435E+02    0.20456E-02   -0.34778E-03   648   0.141E-01    0.178E-01
DAV:   5    -0.443030022227E+02    0.14662E-03   -0.23160E-03   672   0.112E-01    0.604E-02
DAV:   6    -0.443029698174E+02    0.32405E-04   -0.11161E-04   432   0.244E-02
  63 F= -.44302970E+02 E0= -.44302970E+02  d E =-.424127E-01  mag=     0.0000
 curvature: -26.45 expect dE=-0.490E-01 dE for cont linesearch -0.728E-05
 trial: gam= 0.76772 g(F)=  0.185E-02 g(S)=  0.000E+00 ort = 0.303E-04 (trialstep = 0.123E+02)
 search vector abs. value=  0.386E-02
 bond charge predicted
       N       E                     dE             d eps       ncg     rms          rms(c)
DAV:   1    -0.443030021296E+02    0.93100E-07   -0.39445E+01   624   0.137E+01    0.237E-01
DAV:   2    -0.443215741761E+02   -0.18572E-01   -0.18381E-01   672   0.131E+00    0.216E-01
DAV:   3    -0.443214097662E+02    0.16441E-03   -0.29213E-03   704   0.164E-01    0.158E-01
DAV:   4    -0.443209132235E+02    0.49654E-03   -0.82753E-04   656   0.680E-02    0.849E-02
DAV:   5    -0.443208844712E+02    0.28752E-04   -0.64974E-04   672   0.594E-02
  64 F= -.44320884E+02 E0= -.44320884E+02  d E =-.179147E-01  mag=     0.0000
 trial-energy change:   -0.017915  1 .order   -0.018475   -0.023153   -0.013797
 step:  30.5499(harm= 30.5499)  dis= 0.05357  next Energy=   -44.331618 (dE=-0.286E-01)
 bond charge predicted
       N       E                     dE             d eps       ncg     rms          rms(c)
DAV:   1    -0.442889057376E+02    0.32007E-01   -0.85927E+01   624   0.202E+01    0.372E-01
DAV:   2    -0.443295808314E+02   -0.40675E-01   -0.40364E-01   672   0.195E+00    0.319E-01
DAV:   3    -0.443291765082E+02    0.40432E-03   -0.64649E-03   704   0.246E-01    0.228E-01
DAV:   4    -0.443281515069E+02    0.10250E-02   -0.18093E-03   656   0.101E-01    0.118E-01
DAV:   5    -0.443280954927E+02    0.56014E-04   -0.11470E-03   656   0.797E-02    0.401E-02
DAV:   6    -0.443280904780E+02    0.50148E-05   -0.53947E-05   408   0.169E-02
  65 F= -.44328090E+02 E0= -.44328090E+02  d E =-.251207E-01  mag=     0.0000
 curvature: -31.46 expect dE=-0.310E-01 dE for cont linesearch -0.561E-03
 trial: gam= 0.69728 g(F)=  0.986E-03 g(S)=  0.000E+00 ort =-0.262E-03 (trialstep = 0.160E+02)
 search vector abs. value=  0.250E-02
 bond charge predicted
       N       E                     dE             d eps       ncg     rms          rms(c)
DAV:   1    -0.443172517702E+02    0.10844E-01   -0.42849E+01   624   0.142E+01    0.230E-01
DAV:   2    -0.443375823231E+02   -0.20331E-01   -0.20211E-01   672   0.137E+00    0.221E-01
DAV:   3    -0.443374021336E+02    0.18019E-03   -0.31740E-03   688   0.171E-01    0.164E-01
DAV:   4    -0.443368546970E+02    0.54744E-03   -0.73604E-04   672   0.644E-02    0.986E-02
DAV:   5    -0.443367710277E+02    0.83669E-04   -0.93590E-04   632   0.699E-02
  66 F= -.44336771E+02 E0= -.44336771E+02  d E =-.868055E-02  mag=     0.0000
 trial-energy change:   -0.008681  1 .order   -0.009279   -0.012832   -0.005726
 step:  28.8690(harm= 28.8690)  dis= 0.05720  next Energy=   -44.339677 (dE=-0.116E-01)
 bond charge predicted
       N       E                     dE             d eps       ncg     rms          rms(c)
DAV:   1    -0.443250107444E+02    0.11844E-01   -0.27786E+01   624   0.114E+01    0.189E-01
DAV:   2    -0.443382018693E+02   -0.13191E-01   -0.13141E-01   688   0.110E+00    0.178E-01
DAV:   3    -0.443381048476E+02    0.97022E-04   -0.20654E-03   688   0.138E-01    0.130E-01
DAV:   4    -0.443377818282E+02    0.32302E-03   -0.48402E-04   672   0.525E-02    0.767E-02
DAV:   5    -0.443377537758E+02    0.28052E-04   -0.54956E-04   632   0.539E-02
  67 F= -.44337754E+02 E0= -.44337754E+02  d E =-.966330E-02  mag=     0.0000
 curvature: -44.92 expect dE=-0.351E-01 dE for cont linesearch -0.122E-03
 trial: gam= 0.43589 g(F)=  0.780E-03 g(S)=  0.000E+00 ort =-0.824E-04 (trialstep = 0.186E+02)
 search vector abs. value=  0.118E-02
 bond charge predicted
       N       E                     dE             d eps       ncg     rms          rms(c)
DAV:   1    -0.443336413516E+02    0.41405E-02   -0.27395E+01   624   0.113E+01    0.226E-01
DAV:   2    -0.443466332226E+02   -0.12992E-01   -0.12859E-01   672   0.108E+00    0.187E-01
DAV:   3    -0.443465105690E+02    0.12265E-03   -0.20246E-03   688   0.132E-01    0.132E-01
DAV:   4    -0.443462305509E+02    0.28002E-03   -0.73136E-04   664   0.644E-02    0.590E-02
DAV:   5    -0.443462507876E+02   -0.20237E-04   -0.21193E-04   472   0.375E-02
  68 F= -.44346251E+02 E0= -.44346251E+02  d E =-.849701E-02  mag=     0.0000
 trial-energy change:   -0.008497  1 .order   -0.008963   -0.013819   -0.004107
 step:  36.9952(harm= 26.4129)  dis= 0.05529  next Energy=   -44.347834 (dE=-0.101E-01)
 bond charge predicted
       N       E                     dE             d eps       ncg     rms          rms(c)
DAV:   1    -0.443322320937E+02    0.13998E-01   -0.27008E+01   624   0.112E+01    0.232E-01
DAV:   2    -0.443450903188E+02   -0.12858E-01   -0.12690E-01   672   0.107E+00    0.188E-01
DAV:   3    -0.443449741581E+02    0.11616E-03   -0.19961E-03   688   0.131E-01    0.130E-01
DAV:   4    -0.443447092298E+02    0.26493E-03   -0.74193E-04   648   0.649E-02    0.560E-02
DAV:   5    -0.443447289800E+02   -0.19750E-04   -0.17653E-04   464   0.351E-02
  69 F= -.44344729E+02 E0= -.44344729E+02  d E =-.697520E-02  mag=     0.0000
 curvature:  17.15 expect dE= 0.201E-01 dE for cont linesearch  0.143E-02
 ZBRENT: interpolating
 opt :  26.1791  next Energy=   -44.347093 (dE=-0.934E-02)
 bond charge predicted
       N       E                     dE             d eps       ncg     rms          rms(c)
DAV:   1    -0.443425849889E+02    0.21242E-02   -0.93058E+00   624   0.659E+00    0.127E-01
DAV:   2    -0.443470013218E+02   -0.44163E-02   -0.43326E-02   672   0.630E-01    0.113E-01
DAV:   3    -0.443469571149E+02    0.44207E-04   -0.68006E-04   688   0.770E-02
  70 F= -.44346957E+02 E0= -.44346957E+02  d E =-.920334E-02  mag=     0.0000
 curvature: -10.10 expect dE=-0.508E-02 dE for cont linesearch -0.138E-04
 trial: gam= 0.63454 g(F)=  0.503E-03 g(S)=  0.000E+00 ort =-0.402E-04 (trialstep = 0.201E+02)
 search vector abs. value=  0.929E-03
 bond charge predicted
       N       E                     dE             d eps       ncg     rms          rms(c)
DAV:   1    -0.443414679583E+02    0.55334E-02   -0.25158E+01   624   0.107E+01    0.176E-01
DAV:   2    -0.443537784814E+02   -0.12311E-01   -0.11940E-01   672   0.103E+00    0.154E-01
DAV:   3    -0.443537220166E+02    0.56465E-04   -0.18120E-03   688   0.122E-01    0.115E-01
DAV:   4    -0.443534547772E+02    0.26724E-03   -0.44722E-04   648   0.499E-02    0.624E-02
DAV:   5    -0.443534346424E+02    0.20135E-04   -0.37477E-04   616   0.449E-02
  71 F= -.44353435E+02 E0= -.44353435E+02  d E =-.647753E-02  mag=     0.0000
 trial-energy change:   -0.006478  1 .order   -0.006929   -0.009595   -0.004264
 step:  36.1496(harm= 36.1496)  dis= 0.04839  next Energy=   -44.355591 (dE=-0.863E-02)
 bond charge predicted
       N       E                     dE             d eps       ncg     rms          rms(c)
DAV:   1    -0.443468607199E+02    0.65941E-02   -0.16081E+01   624   0.858E+00    0.139E-01
DAV:   2    -0.443548690149E+02   -0.80083E-02   -0.76415E-02   672   0.826E-01    0.124E-01
DAV:   3    -0.443548480453E+02    0.20970E-04   -0.11533E-03   688   0.965E-02    0.930E-02
DAV:   4    -0.443546872602E+02    0.16079E-03   -0.29743E-04   552   0.414E-02    0.505E-02
DAV:   5    -0.443546875032E+02   -0.24296E-06   -0.26944E-04   552   0.393E-02
  72 F= -.44354688E+02 E0= -.44354688E+02  d E =-.773039E-02  mag=     0.0000
 curvature: -35.14 expect dE=-0.204E-01 dE for cont linesearch -0.231E-05
 trial: gam= 1.28102 g(F)=  0.581E-03 g(S)=  0.000E+00 ort = 0.781E-05 (trialstep = 0.102E+02)
 search vector abs. value=  0.213E-02
 bond charge predicted
       N       E                     dE             d eps       ncg     rms          rms(c)
DAV:   1    -0.443526070884E+02    0.20802E-02   -0.14789E+01   624   0.816E+00    0.123E-01
DAV:   2    -0.443600851846E+02   -0.74781E-02   -0.69948E-02   672   0.780E-01    0.107E-01
DAV:   3    -0.443600980206E+02   -0.12836E-04   -0.10466E-03   680   0.903E-02    0.833E-02
DAV:   4    -0.443599626597E+02    0.13536E-03   -0.21564E-04   528   0.358E-02    0.466E-02
DAV:   5    -0.443599554928E+02    0.71669E-05   -0.28733E-04   592   0.398E-02
  73 F= -.44359955E+02 E0= -.44359955E+02  d E =-.526799E-02  mag=     0.0000
 ZBRENT: can't locate minimum, use default step
 trial-energy change:   -0.005268  1 .order   -0.005709   -0.006021   -0.005397
 step:  40.7186(harm= 98.2406)  dis= 0.10048  next Energy=   -44.383741 (dE=-0.291E-01)
 bond charge predicted
       N       E                     dE             d eps       ncg     rms          rms(c)
DAV:   1    -0.443019463180E+02    0.58016E-01   -0.13550E+02   624   0.248E+01    0.420E-01
DAV:   2    -0.443698059190E+02   -0.67860E-01   -0.65401E-01   688   0.239E+00    0.333E-01
DAV:   3    -0.443694350404E+02    0.37088E-03   -0.99562E-03   688   0.282E-01    0.252E-01
DAV:   4    -0.443681931101E+02    0.12419E-02   -0.17286E-03   656   0.996E-02    0.146E-01
DAV:   5    -0.443679367705E+02    0.25634E-03   -0.18952E-03   656   0.980E-02    0.394E-02
DAV:   6    -0.443679696563E+02   -0.32886E-04   -0.24046E-05   400   0.148E-02
  74 F= -.44367970E+02 E0= -.44367970E+02  d E =-.132822E-01  mag=     0.0000
 curvature: ****** expect dE=-0.105E+00 dE for cont linesearch -0.258E-04
 trial: gam= 1.65793 g(F)=  0.104E-02 g(S)=  0.000E+00 ort = 0.233E-04 (trialstep = 0.498E+01)
 search vector abs. value=  0.696E-02
 bond charge predicted
       N       E                     dE             d eps       ncg     rms          rms(c)
DAV:   1    -0.443668645134E+02    0.10723E-02   -0.11570E+01   624   0.711E+00    0.104E-01
DAV:   2    -0.443723406535E+02   -0.54761E-02   -0.53825E-02   672   0.672E-01    0.931E-02
DAV:   3    -0.443723174914E+02    0.23162E-04   -0.78637E-04   672   0.773E-02
  75 F= -.44372317E+02 E0= -.44372317E+02  d E =-.434784E-02  mag=     0.0000
 trial-energy change:   -0.004348  1 .order   -0.004562   -0.005355   -0.003770
 step:  16.8073(harm= 16.8073)  dis= 0.08462  next Energy=   -44.377013 (dE=-0.904E-02)
 bond charge predicted
       N       E                     dE             d eps       ncg     rms          rms(c)
DAV:   1    -0.443459047524E+02    0.26436E-01   -0.66293E+01   624   0.170E+01    0.279E-01
DAV:   2    -0.443773523801E+02   -0.31448E-01   -0.31226E-01   672   0.163E+00    0.245E-01
DAV:   3    -0.443770852617E+02    0.26712E-03   -0.46487E-03   656   0.189E-01    0.187E-01
DAV:   4    -0.443763903415E+02    0.69492E-03   -0.10921E-03   672   0.780E-02    0.103E-01
DAV:   5    -0.443763161275E+02    0.74214E-04   -0.10356E-03   640   0.726E-02    0.319E-02
DAV:   6    -0.443763304985E+02   -0.14371E-04   -0.17355E-05   400   0.110E-02
  76 F= -.44376330E+02 E0= -.44376330E+02  d E =-.836084E-02  mag=     0.0000
 curvature: -54.32 expect dE=-0.390E-01 dE for cont linesearch -0.230E-04
 trial: gam= 0.08642 g(F)=  0.718E-03 g(S)=  0.000E+00 ort = 0.543E-04 (trialstep = 0.734E+01)
 search vector abs. value=  0.780E-03
 bond charge predicted
       N       E                     dE             d eps       ncg     rms          rms(c)
DAV:   1    -0.443796401658E+02   -0.33240E-02   -0.28182E+00   624   0.365E+00    0.745E-02
DAV:   2    -0.443809717783E+02   -0.13316E-02   -0.13219E-02   672   0.350E-01    0.634E-02
DAV:   3    -0.443809634050E+02    0.83733E-05   -0.19495E-04   400   0.446E-02
  77 F= -.44380963E+02 E0= -.44380963E+02  d E =-.463291E-02  mag=     0.0000
 trial-energy change:   -0.004633  1 .order   -0.004216   -0.005308   -0.003124
 step:  11.1717(harm= 17.8438)  dis= 0.01025  next Energy=   -44.381837 (dE=-0.551E-02)
 bond charge predicted
       N       E                     dE             d eps       ncg     rms          rms(c)
DAV:   1    -0.443824542532E+02   -0.14825E-02   -0.77445E-01   632   0.192E+00    0.491E-02
DAV:   2    -0.443828088280E+02   -0.35457E-03   -0.35235E-03   672   0.181E-01    0.405E-02
DAV:   3    -0.443828057847E+02    0.30434E-05   -0.51622E-05   368   0.226E-02
  78 F= -.44382806E+02 E0= -.44382806E+02  d E =-.647529E-02  mag=     0.0000
 curvature:  -5.74 expect dE=-0.170E-02 dE for cont linesearch -0.104E-02
 ZBRENT: increasing intervall
 opt :  18.8306  next Energy=   -44.385318 (dE=-0.899E-02)
 bond charge predicted
       N       E                     dE             d eps       ncg     rms          rms(c)
DAV:   1    -0.443839805820E+02   -0.11718E-02   -0.30759E+00   624   0.382E+00    0.817E-02
DAV:   2    -0.443854160773E+02   -0.14355E-02   -0.14371E-02   672   0.365E-01    0.682E-02
DAV:   3    -0.443854055883E+02    0.10489E-04   -0.21133E-04   400   0.464E-02
  79 F= -.44385406E+02 E0= -.44385406E+02  d E =-.907509E-02  mag=     0.0000
 curvature: -13.80 expect dE=-0.397E-02 dE for cont linesearch -0.287E-03
 trial: gam= 0.20667 g(F)=  0.287E-03 g(S)=  0.000E+00 ort = 0.127E-03 (trialstep = 0.964E+01)
 search vector abs. value=  0.373E-03
 bond charge predicted
       N       E                     dE             d eps       ncg     rms          rms(c)
DAV:   1    -0.443870534073E+02   -0.16373E-02   -0.23323E+00   624   0.333E+00    0.645E-02
DAV:   2    -0.443881147960E+02   -0.10614E-02   -0.10640E-02   672   0.314E-01    0.560E-02
DAV:   3    -0.443881019999E+02    0.12796E-04   -0.15031E-04   368   0.384E-02
  80 F= -.44388102E+02 E0= -.44388102E+02  d E =-.269641E-02  mag=     0.0000
 trial-energy change:   -0.002696  1 .order   -0.002192   -0.003024   -0.001360
 step:  12.0454(harm= 17.5151)  dis= 0.00550  next Energy=   -44.388279 (dE=-0.287E-02)
 bond charge predicted
       N       E                     dE             d eps       ncg     rms          rms(c)
DAV:   1    -0.443884825655E+02   -0.36777E-03   -0.14795E-01   640   0.841E-01    0.262E-02
DAV:   2    -0.443885459787E+02   -0.63413E-04   -0.64387E-04   640   0.769E-02
  81 F= -.44388546E+02 E0= -.44388546E+02  d E =-.314039E-02  mag=     0.0000
 curvature:  -5.39 expect dE=-0.640E-03 dE for cont linesearch -0.235E-03
 trial: gam= 0.14300 g(F)=  0.119E-03 g(S)=  0.000E+00 ort = 0.127E-03 (trialstep = 0.101E+02)
 search vector abs. value=  0.163E-03
 bond charge predicted
       N       E                     dE             d eps       ncg     rms          rms(c)
DAV:   1    -0.443894903535E+02   -0.10078E-02   -0.11179E+00   624   0.230E+00    0.384E-02
DAV:   2    -0.443900004838E+02   -0.51013E-03   -0.51047E-03   672   0.220E-01    0.393E-02
DAV:   3    -0.443899945968E+02    0.58870E-05   -0.71640E-05   360   0.271E-02
  82 F= -.44389995E+02 E0= -.44389995E+02  d E =-.144862E-02  mag=     0.0000
 trial-energy change:   -0.001449  1 .order   -0.001175   -0.001385   -0.000965
 step:  33.3387(harm= 33.3387)  dis= 0.01104  next Energy=   -44.390827 (dE=-0.228E-02)
 bond charge predicted
       N       E                     dE             d eps       ncg     rms          rms(c)
DAV:   1    -0.443894098469E+02    0.59064E-03   -0.58820E+00   624   0.528E+00    0.921E-02
DAV:   2    -0.443920963053E+02   -0.26865E-02   -0.26733E-02   672   0.501E-01    0.903E-02
DAV:   3    -0.443920666894E+02    0.29616E-04   -0.41331E-04   616   0.614E-02
  83 F= -.44392067E+02 E0= -.44392067E+02  d E =-.352071E-02  mag=     0.0000
 curvature: -19.82 expect dE=-0.258E-02 dE for cont linesearch -0.259E-03
 trial: gam= 0.00000 g(F)=  0.130E-03 g(S)=  0.000E+00 ort = 0.461E-04 (trialstep = 0.148E+02)
 search vector abs. value=  0.130E-03
 bond charge predicted
       N       E                     dE             d eps       ncg     rms          rms(c)
DAV:   1    -0.443919348498E+02    0.16146E-03   -0.19149E+00   624   0.297E+00    0.844E-02
DAV:   2    -0.443927615301E+02   -0.82668E-03   -0.87394E-03   672   0.278E-01    0.672E-02
DAV:   3    -0.443927488576E+02    0.12672E-04   -0.14726E-04   400   0.360E-02
  84 F= -.44392749E+02 E0= -.44392749E+02  d E =-.682168E-03  mag=     0.0000
 trial-energy change:   -0.000682  1 .order   -0.000535   -0.001919    0.000849
 step:  10.2369(harm= 10.2369)  dis= 0.00318  next Energy=   -44.392732 (dE=-0.665E-03)
 bond charge predicted
       N       E                     dE             d eps       ncg     rms          rms(c)
DAV:   1    -0.443926656148E+02    0.95915E-04   -0.17714E-01   640   0.900E-01    0.209E-02
DAV:   2    -0.443927502976E+02   -0.84683E-04   -0.83352E-04   672   0.872E-02
  85 F= -.44392750E+02 E0= -.44392750E+02  d E =-.683608E-03  mag=     0.0000
 curvature:  -5.12 expect dE=-0.310E-03 dE for cont linesearch -0.121E-03
 trial: gam= 0.04001 g(F)=  0.605E-04 g(S)=  0.000E+00 ort = 0.553E-04 (trialstep = 0.139E+02)
 search vector abs. value=  0.652E-04
 reached required accuracy - stopping structural energy minimisation
Application 90934352 resources: utime ~48577s, stime ~397s, Rss ~71588, inblocks ~83335, outblocks ~157524
