unknown system                          
           1
    18.442008    0.000000    0.000000
     0.000000   18.442008    0.000000
     0.000000    0.000000   18.442008
   Ag
   7
Direct configuration=     1
   0.51551278  0.63419320  0.57226126
   0.62643353  0.54581992  0.58342525
   0.57084737  0.60583344  0.69852379
   0.45161641  0.54210357  0.49416308
   0.56079233  0.45719686  0.50303726
   0.40113693  0.46930216  0.39018982
   0.51266570  0.38631909  0.39668629
Direct configuration=     2
   0.51534416  0.63471831  0.57226422
   0.62696007  0.54573961  0.58351290
   0.57086981  0.60593679  0.69894730
   0.45120766  0.54230608  0.49418253
   0.56111556  0.45684037  0.50310502
   0.40071728  0.46929688  0.38986175
   0.51279053  0.38593021  0.39641303
Direct configuration=     3
   0.51483830  0.63629364  0.57227308
   0.62853968  0.54549867  0.58377584
   0.57093711  0.60624684  0.70021785
   0.44998143  0.54291362  0.49424088
   0.56208522  0.45577088  0.50330832
   0.39945832  0.46928102  0.38887753
   0.51316501  0.38476357  0.39559325
Direct configuration=     4
   0.51382658  0.63944431  0.57229080
   0.63169889  0.54501681  0.58430172
   0.57107172  0.60686693  0.70275895
   0.44752895  0.54412870  0.49435759
   0.56402456  0.45363190  0.50371491
   0.39694039  0.46924931  0.38690909
   0.51391397  0.38243028  0.39395369
Direct configuration=     5
   0.51343489  0.64066410  0.57229766
   0.63292199  0.54483025  0.58450531
   0.57112383  0.60710700  0.70374274
   0.44657947  0.54459912  0.49440278
   0.56477538  0.45280379  0.50387232
   0.39596557  0.46923704  0.38614701
   0.51420393  0.38152694  0.39331894
Direct configuration=     6
   0.51374601  0.64080733  0.57267703
   0.63302042  0.54520130  0.58493203
   0.57117780  0.60726141  0.70366442
   0.44642930  0.54442101  0.49436685
   0.56479192  0.45264694  0.50376703
   0.39596071  0.46900085  0.38591589
   0.51387891  0.38142941  0.39296350
Direct configuration=     7
   0.51402520  0.64093585  0.57301748
   0.63310875  0.54553426  0.58531496
   0.57122622  0.60739996  0.70359414
   0.44629454  0.54426118  0.49433461
   0.56480676  0.45250619  0.50367254
   0.39595634  0.46878891  0.38570849
   0.51358725  0.38134188  0.39264454
Direct configuration=     8
   0.51458359  0.64119291  0.57369836
   0.63328540  0.54620020  0.58608082
   0.57132308  0.60767708  0.70345359
   0.44602503  0.54394152  0.49427012
   0.56483644  0.45222469  0.50348357
   0.39594761  0.46836501  0.38529368
   0.51300392  0.38116683  0.39200661
Direct configuration=     9
   0.51461572  0.64111021  0.57370362
   0.63328054  0.54619787  0.58615667
   0.57140328  0.60796176  0.70376720
   0.44607820  0.54396386  0.49443726
   0.56504801  0.45228179  0.50347716
   0.39585012  0.46820012  0.38505053
   0.51272919  0.38105263  0.39169430
Direct configuration=    10
   0.51462927  0.64107534  0.57370584
   0.63327850  0.54619689  0.58618865
   0.57143708  0.60808177  0.70389941
   0.44610062  0.54397328  0.49450773
   0.56513721  0.45230587  0.50347447
   0.39580902  0.46813061  0.38494803
   0.51261337  0.38100448  0.39156263
Direct configuration=    11
   0.51467377  0.64102715  0.57376330
   0.63326215  0.54619977  0.58628060
   0.57150512  0.60829923  0.70407321
   0.44609148  0.54387200  0.49451125
   0.56525215  0.45227905  0.50332847
   0.39573254  0.46811206  0.38487345
   0.51248786  0.38097899  0.39145646
Direct configuration=    12
   0.51480728  0.64088256  0.57393569
   0.63321313  0.54620839  0.58655647
   0.57170923  0.60895160  0.70459463
   0.44606407  0.54356816  0.49452181
   0.56559697  0.45219859  0.50289049
   0.39550309  0.46805642  0.38464972
   0.51211131  0.38090252  0.39113794
Direct configuration=    13
   0.51507430  0.64059337  0.57428046
   0.63311507  0.54622564  0.58710819
   0.57211746  0.61025634  0.70563747
   0.44600924  0.54296049  0.49454294
   0.56628661  0.45203768  0.50201453
   0.39504419  0.46794514  0.38420227
   0.51135820  0.38074958  0.39050090
Direct configuration=    14
   0.51560833  0.64001501  0.57497000
   0.63291896  0.54626013  0.58821164
   0.57293390  0.61286583  0.70772314
   0.44589959  0.54174514  0.49458519
   0.56766588  0.45171585  0.50026261
   0.39412640  0.46772257  0.38330736
   0.50985200  0.38044370  0.38922683
Direct configuration=    15
   0.51563719  0.63988600  0.57507486
   0.63279500  0.54619291  0.58831176
   0.57302310  0.61312533  0.70778471
   0.44597365  0.54161448  0.49459986
   0.56786853  0.45174835  0.50012346
   0.39395933  0.46775521  0.38322158
   0.50974826  0.38044596  0.38917053
Direct configuration=    16
   0.51572377  0.63949898  0.57538945
   0.63242314  0.54599123  0.58861214
   0.57329070  0.61390381  0.70796941
   0.44619586  0.54122251  0.49464387
   0.56847645  0.45184584  0.49970602
   0.39345812  0.46785314  0.38296425
   0.50943704  0.38045273  0.38900162
Direct configuration=    17
   0.51589694  0.63872494  0.57601863
   0.63167940  0.54558787  0.58921288
   0.57382589  0.61546078  0.70833883
   0.44664026  0.54043856  0.49473189
   0.56969229  0.45204083  0.49887115
   0.39245569  0.46804900  0.38244959
   0.50881460  0.38046627  0.38866379
Direct configuration=    18
   0.51624327  0.63717685  0.57727698
   0.63019193  0.54478116  0.59041438
   0.57489627  0.61857472  0.70907765
   0.44752907  0.53887066  0.49490792
   0.57212398  0.45243080  0.49720141
   0.39045083  0.46844071  0.38142026
   0.50756972  0.38049334  0.38798814
Direct configuration=    19
   0.51693593  0.63408068  0.57979369
   0.62721699  0.54316773  0.59281738
   0.57703703  0.62480260  0.71055531
   0.44930668  0.53573486  0.49525999
   0.57698735  0.45321074  0.49386192
   0.38644112  0.46922412  0.37936161
   0.50507997  0.38054750  0.38663685
Direct configuration=    20
   0.51832125  0.62788834  0.58482710
   0.62126712  0.53994088  0.59762338
   0.58131854  0.63725837  0.71351062
   0.45286191  0.52946326  0.49596414
   0.58671410  0.45477063  0.48718294
   0.37842169  0.47079096  0.37524432
   0.50010045  0.38065580  0.38393426
Direct configuration=    21
   0.51738094  0.63209151  0.58141057
   0.62530571  0.54213117  0.59436121
   0.57841238  0.62880377  0.71150464
   0.45044873  0.53372023  0.49548619
   0.58011187  0.45371183  0.49171643
   0.38386504  0.46972744  0.37803902
   0.50348040  0.38058229  0.38576869
Direct configuration=    22
   0.51593330  0.63279059  0.58122472
   0.62563392  0.54162399  0.59523915
   0.57913436  0.62874261  0.71139925
   0.45143170  0.53227206  0.49442780
   0.57956142  0.45380307  0.49091850
   0.38493151  0.46942128  0.37843894
   0.50237885  0.38211463  0.38663840
Direct configuration=    23
   0.51291748  0.63424696  0.58083753
   0.62631768  0.54056738  0.59706813
   0.58063846  0.62861521  0.71117969
   0.45347950  0.52925511  0.49222288
   0.57841468  0.45399317  0.48925619
   0.38715327  0.46878347  0.37927211
   0.50008401  0.38530694  0.38845022
Direct configuration=    24
   0.51352862  0.63395184  0.58091599
   0.62617912  0.54078150  0.59669750
   0.58033366  0.62864103  0.71122418
   0.45306453  0.52986648  0.49266970
   0.57864706  0.45395465  0.48959305
   0.38670304  0.46891272  0.37910327
   0.50054904  0.38466003  0.38808307
Direct configuration=    25
   0.51264192  0.63351971  0.58120951
   0.62484516  0.54051401  0.59727219
   0.58113274  0.62846755  0.71039274
   0.45505787  0.52859861  0.49192774
   0.57954687  0.45457475  0.48974024
   0.38596980  0.46914521  0.37864146
   0.49981070  0.38594840  0.38910287
Direct configuration=    26
   0.50998183  0.63222332  0.58209010
   0.62084329  0.53971157  0.59899624
   0.58352997  0.62794710  0.70789839
   0.46103789  0.52479503  0.48970187
   0.58224632  0.45643505  0.49018183
   0.38377008  0.46984267  0.37725603
   0.49759569  0.38981350  0.39216229
Direct configuration=    27
   0.50927699  0.63179595  0.58221907
   0.61998637  0.53949559  0.59936704
   0.58403281  0.62806703  0.70766329
   0.46176921  0.52433503  0.48907532
   0.58385150  0.45622822  0.49016301
   0.38276767  0.47032243  0.37688012
   0.49732051  0.39052398  0.39291891
Direct configuration=    28
   0.50716247  0.63051386  0.58260601
   0.61741558  0.53884763  0.60047942
   0.58554133  0.62842681  0.70695800
   0.46396317  0.52295504  0.48719567
   0.58866705  0.45560773  0.49010652
   0.37976046  0.47176172  0.37575238
   0.49649500  0.39265545  0.39518876
Direct configuration=    29
   0.50293343  0.62794967  0.58337987
   0.61227402  0.53755172  0.60270418
   0.58855836  0.62914638  0.70554742
   0.46835110  0.52019506  0.48343637
   0.59829816  0.45436674  0.48999355
   0.37374603  0.47464030  0.37349690
   0.49484398  0.39691838  0.39972846
Direct configuration=    30
   0.50124753  0.62692746  0.58368837
   0.61022434  0.53703511  0.60359108
   0.58976110  0.62943323  0.70498510
   0.47010034  0.51909479  0.48193773
   0.60213758  0.45387203  0.48994852
   0.37134838  0.47578784  0.37259775
   0.49418580  0.39861779  0.40153820
Direct configuration=    31
   0.49807484  0.62587339  0.58383365
   0.60829503  0.53450305  0.60318399
   0.59038139  0.63195500  0.70644000
   0.47207933  0.51850948  0.48049099
   0.60733650  0.45174387  0.48804162
   0.37007356  0.47691277  0.37281077
   0.49276442  0.40127067  0.40348574
Direct configuration=    32
   0.49791081  0.62581889  0.58384116
   0.60819528  0.53437214  0.60316295
   0.59041346  0.63208538  0.70651522
   0.47218165  0.51847922  0.48041619
   0.60760529  0.45163384  0.48794303
   0.37000765  0.47697093  0.37282178
   0.49269093  0.40140783  0.40358643
Direct configuration=    33
   0.49727841  0.62561130  0.58426657
   0.60736899  0.53360977  0.60268796
   0.58969390  0.63329953  0.70657115
   0.47258210  0.52038045  0.48174611
   0.60850640  0.45004698  0.48605607
   0.37136072  0.47697163  0.37419156
   0.49221455  0.40084857  0.40276733
Direct configuration=    34
   0.49579976  0.62512592  0.58526125
   0.60543700  0.53182725  0.60157736
   0.58801145  0.63613841  0.70670194
   0.47351842  0.52482580  0.48485565
   0.61061335  0.44633665  0.48164407
   0.37452439  0.47697327  0.37739432
   0.49110070  0.39954093  0.40085217
Direct configuration=    35
   0.49635545  0.62530833  0.58488744
   0.60616306  0.53249714  0.60199474
   0.58864373  0.63507153  0.70665279
   0.47316654  0.52315519  0.48368705
   0.60982154  0.44773103  0.48330214
   0.37333545  0.47697266  0.37619069
   0.49151930  0.40003236  0.40157191
Direct configuration=    36
   0.49612514  0.62637910  0.58695392
   0.60462955  0.53125697  0.60023281
   0.58690986  0.63601725  0.70525551
   0.47483514  0.52319222  0.48405153
   0.60965944  0.44604147  0.48158528
   0.37496232  0.47763451  0.37848733
   0.49188362  0.40024672  0.40172038
Direct configuration=    37
   0.49589925  0.62742930  0.58898070
   0.60312550  0.53004062  0.59850472
   0.58520930  0.63694480  0.70388506
   0.47647169  0.52322853  0.48440900
   0.60950045  0.44438437  0.47990140
   0.37655793  0.47828365  0.38073986
   0.49224095  0.40045697  0.40186601
Direct configuration=    38
   0.49579721  0.62790369  0.58989624
   0.60244609  0.52949117  0.59772411
   0.58444112  0.63736379  0.70326601
   0.47721094  0.52324493  0.48457047
   0.60942863  0.44363583  0.47914076
   0.37727870  0.47857688  0.38175737
   0.49240236  0.40055194  0.40193179
Direct configuration=    39
   0.49455990  0.62878101  0.59058944
   0.59982320  0.52857509  0.59524969
   0.58372026  0.63755608  0.70231334
   0.47997679  0.52307917  0.48563798
   0.60995947  0.44248574  0.47841360
   0.37720961  0.48054594  0.38395290
   0.49375584  0.39974521  0.40212980
Direct configuration=    40
   0.49273766  0.63007307  0.59161035
   0.59596032  0.52722593  0.59160550
   0.58265862  0.63783928  0.70091031
   0.48405020  0.52283504  0.48721015
   0.61074125  0.44079195  0.47734266
   0.37710786  0.48344588  0.38718638
   0.49574916  0.39855709  0.40242141
Direct configuration=    41
   0.49317671  0.62976176  0.59136437
   0.59689104  0.52755100  0.59248352
   0.58291441  0.63777104  0.70124835
   0.48306876  0.52289386  0.48683136
   0.61055289  0.44120005  0.47760069
   0.37713238  0.48274717  0.38640731
   0.49526889  0.39884335  0.40235115
Direct configuration=    42
   0.49027903  0.63036840  0.59060269
   0.59405489  0.52771340  0.59095358
   0.58342717  0.63709594  0.70081081
   0.48559529  0.52214938  0.48733518
   0.61280075  0.43994991  0.47725716
   0.37789058  0.48495244  0.38938118
   0.49495734  0.39853877  0.40194617
Direct configuration=    43
   0.48868330  0.63070247  0.59018323
   0.59249304  0.52780283  0.59011104
   0.58370955  0.63672417  0.70056985
   0.48698665  0.52173939  0.48761263
   0.61403864  0.43926146  0.47706798
   0.37830812  0.48616687  0.39101888
   0.49478577  0.39837104  0.40172315
Direct configuration=    44
   0.48698755  0.63070866  0.58966606
   0.59292908  0.52891098  0.59142208
   0.58396758  0.63560895  0.69956741
   0.48647405  0.52081183  0.48627477
   0.61552977  0.43857903  0.47707490
   0.37921364  0.48685639  0.39254008
   0.49390340  0.39929240  0.40174145
Direct configuration=    45
   0.48669693  0.63070972  0.58957743
   0.59300381  0.52910089  0.59164676
   0.58401180  0.63541783  0.69939561
   0.48638620  0.52065286  0.48604549
   0.61578532  0.43846207  0.47707609
   0.37936883  0.48697456  0.39280078
   0.49375218  0.39945030  0.40174459
Direct configuration=    46
   0.48555375  0.63001005  0.58877469
   0.59360216  0.52980370  0.59224467
   0.58406430  0.63446349  0.69812193
   0.48699794  0.52047511  0.48637096
   0.61629656  0.43848223  0.47774253
   0.37869695  0.48767147  0.39321770
   0.49379341  0.39986220  0.40181428
Direct configuration=    47
   0.48390888  0.62900333  0.58761967
   0.59446310  0.53081493  0.59310498
   0.58413983  0.63309034  0.69628930
   0.48787815  0.52021934  0.48683925
   0.61703216  0.43851122  0.47870143
   0.37773022  0.48867421  0.39381759
   0.49385273  0.40045487  0.40191454
Direct configuration=    48
   0.48442394  0.62931857  0.58798134
   0.59419351  0.53049828  0.59283559
   0.58411618  0.63352032  0.69686316
   0.48760252  0.52029943  0.48669261
   0.61680182  0.43850214  0.47840117
   0.37803293  0.48836022  0.39362974
   0.49383415  0.40026928  0.40188315
Direct configuration=    49
   0.48372066  0.62852591  0.58732594
   0.59474541  0.52985320  0.59184426
   0.58390234  0.63371472  0.69648927
   0.48826227  0.52009136  0.48719799
   0.61659997  0.43896618  0.47946803
   0.37773480  0.48873217  0.39395877
   0.49403962  0.40088470  0.40200249
Direct configuration=    50
   0.48373039  0.62853687  0.58733500
   0.59473778  0.52986212  0.59185797
   0.58390529  0.63371203  0.69649444
   0.48825314  0.52009424  0.48719100
   0.61660276  0.43895976  0.47945328
   0.37773892  0.48872703  0.39395422
   0.49403678  0.40087619  0.40200084
Direct configuration=    51
   0.48372640  0.62802109  0.58728119
   0.59502874  0.52996149  0.59164018
   0.58345914  0.63403671  0.69604449
   0.48806823  0.51980263  0.48704888
   0.61655341  0.43877331  0.47995719
   0.37799876  0.48889236  0.39439455
   0.49417040  0.40128064  0.40192027
Direct configuration=    52
   0.48372594  0.62796093  0.58727492
   0.59506268  0.52997308  0.59161478
   0.58340709  0.63407459  0.69599200
   0.48804665  0.51976862  0.48703230
   0.61654765  0.43875156  0.48001597
   0.37802907  0.48891165  0.39444592
   0.49418599  0.40132782  0.40191087
Direct configuration=    53
   0.48370760  0.62775415  0.58724999
   0.59514972  0.53035137  0.59171632
   0.58311138  0.63442748  0.69581643
   0.48798997  0.51976621  0.48714597
   0.61661319  0.43821150  0.48015525
   0.37798162  0.48903392  0.39463859
   0.49445158  0.40122361  0.40156419
Direct configuration=    54
   0.48370624  0.62773878  0.58724813
   0.59515619  0.53037949  0.59172387
   0.58308940  0.63445372  0.69580338
   0.48798576  0.51976603  0.48715442
   0.61661806  0.43817135  0.48016561
   0.37797810  0.48904301  0.39465291
   0.49447133  0.40121586  0.40153842
Direct configuration=    55
   0.48348988  0.62784932  0.58720185
   0.59527823  0.53032573  0.59153164
   0.58298785  0.63481559  0.69588298
   0.48813090  0.51951426  0.48710533
   0.61652297  0.43791468  0.48044075
   0.37802617  0.48901232  0.39476452
   0.49456908  0.40133634  0.40135969
Direct configuration=    56
   0.48342210  0.62788395  0.58718734
   0.59531647  0.53030888  0.59147142
   0.58295603  0.63492897  0.69590791
   0.48817637  0.51943538  0.48708995
   0.61649317  0.43783427  0.48052695
   0.37804123  0.48900270  0.39479949
   0.49459970  0.40137409  0.40130369
Direct configuration=    57
   0.48336954  0.62785958  0.58714724
   0.59533017  0.53045351  0.59146154
   0.58285610  0.63511828  0.69584861
   0.48824847  0.51936492  0.48714096
   0.61646619  0.43757470  0.48068432
   0.37804639  0.48900340  0.39487409
   0.49468820  0.40139385  0.40113001
Direct configuration=    58
   0.48321187  0.62778649  0.58702691
   0.59537127  0.53088737  0.59143190
   0.58255632  0.63568622  0.69567068
   0.48846478  0.51915353  0.48729398
   0.61638526  0.43679599  0.48115640
   0.37806187  0.48900551  0.39509789
   0.49495369  0.40145313  0.40060898
Direct configuration=    59
   0.48289653  0.62764030  0.58678626
   0.59545348  0.53175511  0.59137261
   0.58195677  0.63682208  0.69531484
   0.48889741  0.51873076  0.48760003
   0.61622338  0.43523856  0.48210058
   0.37809284  0.48900973  0.39554551
   0.49548466  0.40157170  0.39956693
Direct configuration=    60
   0.48226585  0.62734791  0.58630495
   0.59561789  0.53349057  0.59125405
   0.58075765  0.63909382  0.69460315
   0.48976266  0.51788521  0.48821212
   0.61589963  0.43212371  0.48398893
   0.37815477  0.48901817  0.39644073
   0.49654661  0.40180884  0.39748281
Direct configuration=    61
   0.48202596  0.62755306  0.58622244
   0.59597868  0.53312637  0.59102537
   0.58086148  0.63911320  0.69455162
   0.48959524  0.51747092  0.48776321
   0.61561444  0.43233893  0.48433426
   0.37843700  0.48899029  0.39670436
   0.49649227  0.40217546  0.39768549
Direct configuration=    62
   0.48194904  0.62761884  0.58619598
   0.59609436  0.53300960  0.59095205
   0.58089478  0.63911942  0.69453510
   0.48954156  0.51733808  0.48761928
   0.61552299  0.43240794  0.48444499
   0.37852749  0.48898135  0.39678889
   0.49647484  0.40229300  0.39775047
Direct configuration=    63
   0.48194339  0.62754620  0.58603600
   0.59615607  0.53296562  0.59081756
   0.58096229  0.63906135  0.69433472
   0.48955179  0.51740518  0.48771536
   0.61536760  0.43244583  0.48466856
   0.37849467  0.48901381  0.39694189
   0.49652926  0.40233025  0.39777268
Direct configuration=    64
   0.48193428  0.62742887  0.58577760
   0.59625573  0.53289458  0.59060034
   0.58107134  0.63896757  0.69401107
   0.48956830  0.51751355  0.48787054
   0.61511660  0.43250703  0.48502966
   0.37844166  0.48906623  0.39718901
   0.49661716  0.40239041  0.39780854
Direct configuration=    65
   0.48193213  0.62745955  0.58568489
   0.59635843  0.53301230  0.59060697
   0.58115593  0.63890451  0.69371368
   0.48947379  0.51748241  0.48781378
   0.61502981  0.43233329  0.48516804
   0.37842876  0.48909383  0.39745389
   0.49662622  0.40248235  0.39784552
Direct configuration=    66
   0.48192957  0.62749600  0.58557476
   0.59648042  0.53315215  0.59061484
   0.58125641  0.63882959  0.69336041
   0.48936152  0.51744541  0.48774634
   0.61492671  0.43212691  0.48533241
   0.37841343  0.48912663  0.39776854
   0.49663700  0.40259155  0.39788945
Direct configuration=    67
   0.48191064  0.62751809  0.58547615
   0.59654115  0.53319736  0.59053211
   0.58133780  0.63883415  0.69317959
   0.48937687  0.51746109  0.48779321
   0.61486282  0.43199251  0.48545065
   0.37833293  0.48914162  0.39796758
   0.49664286  0.40262342  0.39788746
Direct configuration=    68
   0.48185385  0.62758436  0.58518030
   0.59672333  0.53333300  0.59028393
   0.58158194  0.63884782  0.69263716
   0.48942292  0.51750812  0.48793381
   0.61467113  0.43158931  0.48580535
   0.37809142  0.48918662  0.39856470
   0.49666046  0.40271900  0.39788151
Direct configuration=    69
   0.48184560  0.62761922  0.58517732
   0.59672874  0.53329450  0.59014091
   0.58160531  0.63895389  0.69270959
   0.48951277  0.51748023  0.48796760
   0.61466676  0.43154799  0.48582335
   0.37803152  0.48915582  0.39861117
   0.49661438  0.40271659  0.39785683
Direct configuration=    70
   0.48184089  0.62763909  0.58517561
   0.59673181  0.53327254  0.59005936
   0.58161863  0.63901437  0.69275088
   0.48956399  0.51746433  0.48798686
   0.61466427  0.43152442  0.48583361
   0.37799736  0.48913827  0.39863767
   0.49658811  0.40271521  0.39784275
