<?xml version="1.0" encoding="ISO-8859-1"?>
<modeling>
 <generator>
  <i name="program" type="string">vasp </i>
  <i name="version" type="string">5.3.5  </i>
  <i name="subversion" type="string">31Mar14 (build Feb 01 2018 12:10:03) gamma-only                       parallel </i>
  <i name="platform" type="string">LinuxIFC </i>
  <i name="date" type="string">2019 03 21 </i>
  <i name="time" type="string">21:17:32 </i>
 </generator>
 <incar>
  <i type="string" name="PREC">normal</i>
  <i type="int" name="ISPIN">     2</i>
  <i type="int" name="IBRION">     2</i>
  <i type="int" name="NSW">  1000</i>
  <i type="int" name="ISIF">     2</i>
  <i name="POTIM">      0.10000000</i>
  <i type="logical" name="LPLANE"> T  </i>
  <i type="int" name="ISMEAR">     0</i>
  <i name="SIGMA">      0.00010000</i>
  <i type="logical" name="LWAVE"> F  </i>
  <i type="logical" name="LCHARG"> F  </i>
  <i type="logical" name="LVTOT"> F  </i>
  <i type="string" name="GGA"> PE</i>
 </incar>
 <kpoints>
  <varray name="kpointlist" >
   <v>       0.00000000       0.00000000       0.00000000 </v>
  </varray>
  <varray name="weights" >
   <v>       1.00000000 </v>
  </varray>
 </kpoints>
 <parameters>
  <separator name="general" >
   <i type="string" name="SYSTEM">unknown system</i>
   <i type="logical" name="LCOMPAT"> F  </i>
  </separator>
  <separator name="electronic" >
   <i type="string" name="PREC">normal</i>
   <i name="ENMAX">    249.84400000</i>
   <i name="ENAUG">    412.49600000</i>
   <i name="EDIFF">      0.00010000</i>
   <i type="int" name="IALGO">    38</i>
   <i type="int" name="IWAVPR">    11</i>
   <i type="int" name="NBANDS">   144</i>
   <i name="NELECT">    220.00000000</i>
   <i type="int" name="TURBO">     0</i>
   <i type="int" name="IRESTART">     0</i>
   <i type="int" name="NREBOOT">     0</i>
   <i type="int" name="NMIN">     0</i>
   <i name="EREF">      0.00000000</i>
   <separator name="electronic smearing" >
    <i type="int" name="ISMEAR">     0</i>
    <i name="SIGMA">      0.00010000</i>
    <i name="KSPACING">      0.50000000</i>
    <i type="logical" name="KGAMMA"> T  </i>
   </separator>
   <separator name="electronic projectors" >
    <i type="logical" name="LREAL"> F  </i>
    <v name="ROPT">      0.00000000</v>
    <i type="int" name="LMAXPAW">  -100</i>
    <i type="int" name="LMAXMIX">     2</i>
    <i type="logical" name="NLSPLINE"> F  </i>
   </separator>
   <separator name="electronic startup" >
    <i type="int" name="ISTART">     0</i>
    <i type="int" name="ICHARG">     2</i>
    <i type="int" name="INIWAV">     1</i>
   </separator>
   <separator name="electronic spin" >
    <i type="int" name="ISPIN">     2</i>
    <i type="logical" name="LNONCOLLINEAR"> F  </i>
    <v name="MAGMOM">      1.00000000      1.00000000      1.00000000      1.00000000      1.00000000      1.00000000      1.00000000      1.00000000      1.00000000      1.00000000      1.00000000      1.00000000      1.00000000      1.00000000      1.00000000      1.00000000      1.00000000      1.00000000      1.00000000      1.00000000
</v>
    <i name="NUPDOWN">     -1.00000000</i>
    <i type="logical" name="LSORBIT"> F  </i>
    <v name="SAXIS">      0.00000000      0.00000000      1.00000000</v>
    <i type="logical" name="LSPIRAL"> F  </i>
    <v name="QSPIRAL">      0.00000000      0.00000000      0.00000000</v>
    <i type="logical" name="LZEROZ"> F  </i>
   </separator>
   <separator name="electronic exchange-correlation" >
    <i type="logical" name="LASPH"> F  </i>
    <i type="logical" name="LMETAGGA"> F  </i>
   </separator>
   <separator name="electronic convergence" >
    <i type="int" name="NELM">    60</i>
    <i type="int" name="NELMDL">    -5</i>
    <i type="int" name="NELMIN">     2</i>
    <i name="ENINI">    249.84400000</i>
    <separator name="electronic convergence detail" >
     <i type="logical" name="LDIAG"> T  </i>
     <i type="logical" name="LSUBROT"> F  </i>
     <i name="WEIMIN">      0.00100000</i>
     <i name="EBREAK">      0.00000017</i>
     <i name="DEPER">      0.30000000</i>
     <i type="int" name="NRMM">     4</i>
     <i name="TIME">      0.40000000</i>
    </separator>
   </separator>
   <separator name="electronic mixer" >
    <i name="AMIX">      0.40000000</i>
    <i name="BMIX">      1.00000000</i>
    <i name="AMIN">      0.10000000</i>
    <i name="AMIX_MAG">      1.60000000</i>
    <i name="BMIX_MAG">      1.00000000</i>
    <separator name="electronic mixer details" >
     <i type="int" name="IMIX">     4</i>
     <i type="int" name="MAXMIX">   -45</i>
     <i name="WC">    100.00000000</i>
     <i type="int" name="INIMIX">     1</i>
     <i type="int" name="MIXPRE">     1</i>
     <i type="int" name="MREMOVE">     5</i>
    </separator>
   </separator>
   <separator name="electronic dipolcorrection" >
    <i type="logical" name="LDIPOL"> F  </i>
    <i type="logical" name="LMONO"> F  </i>
    <i type="int" name="IDIPOL">     0</i>
    <i name="EPSILON">      1.00000000</i>
    <v name="DIPOL">   -100.00000000   -100.00000000   -100.00000000</v>
    <i name="EFIELD">      0.00000000</i>
   </separator>
  </separator>
  <separator name="grids" >
   <i type="int" name="NGX">    80</i>
   <i type="int" name="NGY">    80</i>
   <i type="int" name="NGZ">    80</i>
   <i type="int" name="NGXF">   160</i>
   <i type="int" name="NGYF">   160</i>
   <i type="int" name="NGZF">   160</i>
   <i type="logical" name="ADDGRID"> F  </i>
  </separator>
  <separator name="ionic" >
   <i type="int" name="NSW">  1000</i>
   <i type="int" name="IBRION">     2</i>
   <i type="int" name="ISIF">     2</i>
   <i name="PSTRESS">      0.00000000</i>
   <i name="EDIFFG">      0.00100000</i>
   <i type="int" name="NFREE">     1</i>
   <i name="POTIM">      0.10000000</i>
   <i name="SMASS">     -3.00000000</i>
   <i name="SCALEE">      1.00000000</i>
  </separator>
  <separator name="ionic md" >
   <i name="TEBEG">      0.00010000</i>
   <i name="TEEND">      0.00010000</i>
   <i type="int" name="NBLOCK">     1</i>
   <i type="int" name="KBLOCK">  1000</i>
   <i type="int" name="NPACO">   256</i>
   <i name="APACO">     16.00000000</i>
  </separator>
  <separator name="symmetry" >
   <i type="int" name="ISYM">     2</i>
   <i name="SYMPREC">      0.00001000</i>
  </separator>
  <separator name="dos" >
   <i type="logical" name="LORBIT"> F  </i>
   <v name="RWIGS">     -1.00000000</v>
   <i type="int" name="NEDOS">   301</i>
   <i name="EMIN">     10.00000000</i>
   <i name="EMAX">    -10.00000000</i>
   <i name="EFERMI">      0.00000000</i>
  </separator>
  <separator name="writing" >
   <i type="int" name="NWRITE">     2</i>
   <i type="logical" name="LWAVE"> F  </i>
   <i type="logical" name="LCHARG"> F  </i>
   <i type="logical" name="LPARD"> F  </i>
   <i type="logical" name="LVTOT"> F  </i>
   <i type="logical" name="LVHAR"> F  </i>
   <i type="logical" name="LELF"> F  </i>
   <i type="logical" name="LOPTICS"> F  </i>
   <v name="STM">      0.00000000      0.00000000      0.00000000      0.00000000      0.00000000      0.00000000      0.00000000</v>
  </separator>
  <separator name="performance" >
   <i type="int" name="NPAR">     4</i>
   <i type="int" name="NSIM">     4</i>
   <i type="int" name="NBLK">    -1</i>
   <i type="logical" name="LPLANE"> T  </i>
   <i type="logical" name="LSCALAPACK"> T  </i>
   <i type="logical" name="LSCAAWARE"> F  </i>
   <i type="logical" name="LSCALU"> F  </i>
   <i type="logical" name="LASYNC"> F  </i>
   <i type="logical" name="LORBITALREAL"> F  </i>
  </separator>
  <separator name="miscellaneous" >
   <i type="int" name="IDIOT">     3</i>
   <i type="logical" name="LMUSIC"> F  </i>
   <v name="POMASS">    107.86800000</v>
   <v name="DARWINR">      0.00000000</v>
   <v name="DARWINV">      1.00000000</v>
   <i type="logical" name="LCORR"> T  </i>
  </separator>
  <i type="logical" name="GGA_COMPAT"> T  </i>
  <i type="logical" name="LBERRY"> F  </i>
  <i type="int" name="ICORELEVEL">     0</i>
  <i type="logical" name="LDAU"> F  </i>
  <i type="int" name="I_CONSTRAINED_M">     0</i>
  <separator name="electronic exchange-correlation" >
   <i type="string" name="GGA">PE</i>
   <i type="int" name="VOSKOWN">     0</i>
   <i type="logical" name="LHFCALC"> F  </i>
   <i type="string" name="PRECFOCK"></i>
   <i type="logical" name="LSYMGRAD"> F  </i>
   <i type="logical" name="LHFONE"> F  </i>
   <i type="logical" name="LRHFCALC"> F  </i>
   <i type="logical" name="LTHOMAS"> F  </i>
   <i type="logical" name="LMODELHF"> F  </i>
   <i name="ENCUT4O">     -1.00000000</i>
   <i type="int" name="EXXOEP">     0</i>
   <i type="int" name="FOURORBIT">     0</i>
   <i name="AEXX">      0.00000000</i>
   <i name="HFALPHA">      0.00000000</i>
   <i name="MCALPHA">      0.00000000</i>
   <i name="ALDAX">      1.00000000</i>
   <i name="AGGAX">      1.00000000</i>
   <i name="ALDAC">      1.00000000</i>
   <i name="AGGAC">      1.00000000</i>
   <i type="int" name="NKREDX">     1</i>
   <i type="int" name="NKREDY">     1</i>
   <i type="int" name="NKREDZ">     1</i>
   <i type="logical" name="SHIFTRED"> F  </i>
   <i type="logical" name="ODDONLY"> F  </i>
   <i type="logical" name="EVENONLY"> F  </i>
   <i type="int" name="LMAXFOCK">     0</i>
   <i type="int" name="NMAXFOCKAE">     0</i>
   <i type="logical" name="LFOCKAEDFT"> F  </i>
   <i name="HFSCREEN">      0.00000000</i>
   <i name="HFSCREENC">      0.00000000</i>
   <i type="int" name="NBANDSGWLOW">     0</i>
  </separator>
  <separator name="vdW DFT" >
   <i type="logical" name="LUSE_VDW"> F  </i>
   <i name="Zab_VDW">     -0.84910000</i>
   <i name="PARAM1">      0.12340000</i>
   <i name="PARAM2">      1.00000000</i>
   <i name="PARAM3">      0.00000000</i>
  </separator>
  <separator name="model GW" >
   <i type="int" name="MODEL_GW">     0</i>
   <i name="MODEL_EPS0">    240.23423097</i>
   <i name="MODEL_ALPHA">      1.00000000</i>
  </separator>
  <separator name="linear response parameters" >
   <i type="logical" name="LEPSILON"> F  </i>
   <i type="logical" name="LRPA"> F  </i>
   <i type="logical" name="LNABLA"> F  </i>
   <i type="logical" name="LVEL"> F  </i>
   <i type="int" name="KINTER">     0</i>
   <i name="CSHIFT">      0.10000000</i>
   <i name="OMEGAMAX">     -1.00000000</i>
   <i name="DEG_THRESHOLD">      0.00200000</i>
  </separator>
  <separator name="orbital magnetization" >
   <i type="logical" name="NUCIND"> F  </i>
   <v name="MAGPOS">      0.00000000      0.00000000      0.00000000</v>
   <i type="logical" name="LNICSALL"> T  </i>
   <i type="logical" name="ORBITALMAG"> F  </i>
   <i type="logical" name="LMAGBLOCH"> F  </i>
   <i type="logical" name="LCHIMAG"> F  </i>
   <i type="logical" name="LGAUGE"> T  </i>
   <i type="int" name="MAGATOM">     0</i>
   <v name="MAGDIPOL">      0.00000000      0.00000000      0.00000000</v>
   <v name="AVECCONST">      0.00000000      0.00000000      0.00000000</v>
  </separator>
  <separator name="response functions" >
   <i type="logical" name="LADDER"> F  </i>
   <i type="logical" name="LFXC"> F  </i>
   <i type="logical" name="LHARTREE"> T  </i>
   <i type="int" name="IBSE">     0</i>
   <i type="logical" name="LTCTE"> F  </i>
   <i type="logical" name="LTETE"> F  </i>
   <i type="logical" name="LTRIPLET"> F  </i>
   <i type="logical" name="LFXCEPS"> F  </i>
   <i type="logical" name="LFXHEG"> F  </i>
   <i type="logical" name="L2ORDER"> F  </i>
   <i type="logical" name="LUSEW"> F  </i>
   <i name="ENCUTGW">     -2.00000000</i>
   <i name="ENCUTGWSOFT">     -2.00000000</i>
   <i name="ENCUTLF">     -1.00000000</i>
   <i type="int" name="LMAXMP2">    -1</i>
   <i name="SCISSOR">      0.00000000</i>
   <i type="int" name="NOMEGA">     0</i>
   <i type="int" name="NOMEGAR">     0</i>
   <i type="int" name="NBANDSGW">    -1</i>
   <i type="int" name="NBANDSO">    -1</i>
   <i type="int" name="NBANDSV">    -1</i>
   <i type="int" name="NELM">     1</i>
   <i type="int" name="DIM">     3</i>
   <i type="int" name="ANTIRES">     0</i>
   <i name="OMEGAMAX">    -30.00000000</i>
   <i name="OMEGAMIN">    -30.00000000</i>
   <i name="OMEGATL">   -200.00000000</i>
   <i type="int" name="OMEGAGRID">     0</i>
   <i name="CSHIFT">     -0.10000000</i>
   <i type="logical" name="SELFENERGY"> F  </i>
   <i type="logical" name="LSPECTRAL"> F  </i>
   <i type="logical" name="ODDONLYGW"> F  </i>
   <i type="logical" name="EVENONLYGW"> F  </i>
   <i type="int" name="NKREDLFX">     1</i>
   <i type="int" name="NKREDLFY">     1</i>
   <i type="int" name="NKREDLFZ">     1</i>
   <i type="int" name="MAXMEM">  1800</i>
   <i type="int" name="TELESCOPE">     0</i>
   <i type="int" name="TAUPAR">     1</i>
  </separator>
  <separator name="External order field" >
   <i name="OFIELD_KAPPA">      0.00000000</i>
   <v name="OFIELD_K">      0.00000000      0.00000000      0.00000000</v>
   <i name="OFIELD_Q6_NEAR">      0.00000000</i>
   <i name="OFIELD_Q6_FAR">      0.00000000</i>
   <i name="OFIELD_A">      0.00000000</i>
  </separator>
 </parameters>
 <atominfo>
  <atoms>      20 </atoms>
  <types>       1 </types>
  <array name="atoms" >
   <dimension dim="1">ion</dimension>
   <field type="string">element</field>
   <field type="int">atomtype</field>
   <set>
    <rc><c>Ag</c><c>   1</c></rc>
    <rc><c>Ag</c><c>   1</c></rc>
    <rc><c>Ag</c><c>   1</c></rc>
    <rc><c>Ag</c><c>   1</c></rc>
    <rc><c>Ag</c><c>   1</c></rc>
    <rc><c>Ag</c><c>   1</c></rc>
    <rc><c>Ag</c><c>   1</c></rc>
    <rc><c>Ag</c><c>   1</c></rc>
    <rc><c>Ag</c><c>   1</c></rc>
    <rc><c>Ag</c><c>   1</c></rc>
    <rc><c>Ag</c><c>   1</c></rc>
    <rc><c>Ag</c><c>   1</c></rc>
    <rc><c>Ag</c><c>   1</c></rc>
    <rc><c>Ag</c><c>   1</c></rc>
    <rc><c>Ag</c><c>   1</c></rc>
    <rc><c>Ag</c><c>   1</c></rc>
    <rc><c>Ag</c><c>   1</c></rc>
    <rc><c>Ag</c><c>   1</c></rc>
    <rc><c>Ag</c><c>   1</c></rc>
    <rc><c>Ag</c><c>   1</c></rc>
   </set>
  </array>
  <array name="atomtypes" >
   <dimension dim="1">type</dimension>
   <field type="int">atomspertype</field>
   <field type="string">element</field>
   <field>mass</field>
   <field>valence</field>
   <field type="string">pseudopotential</field>
   <set>
    <rc><c>  20</c><c>Ag</c><c>    107.86800000</c><c>     11.00000000</c><c>  PAW_PBE Ag 02Apr2005                  </c></rc>
   </set>
  </array>
 </atominfo>
 <structure name="initialpos" >
  <crystal>
   <varray name="basis" >
    <v>      20.00650430       0.00000000       0.00000000 </v>
    <v>       0.00000000      20.00650430       0.00000000 </v>
    <v>       0.00000000       0.00000000      20.00650430 </v>
   </varray>
   <i name="volume">   8007.80769902 </i>
   <varray name="rec_basis" >
    <v>       0.04998374       0.00000000       0.00000000 </v>
    <v>       0.00000000       0.04998374       0.00000000 </v>
    <v>       0.00000000       0.00000000       0.04998374 </v>
   </varray>
  </crystal>
  <varray name="positions" >
   <v>       0.68878136       0.44087563       0.47210867 </v>
   <v>       0.58802564       0.35831836       0.49094213 </v>
   <v>       0.67341701       0.56838821       0.41761214 </v>
   <v>       0.46676689       0.38776934       0.43173170 </v>
   <v>       0.55135991       0.60687425       0.37587446 </v>
   <v>       0.55475786       0.49841858       0.46940434 </v>
   <v>       0.45171989       0.51942044       0.37105093 </v>
   <v>       0.68451767       0.55981563       0.54910570 </v>
   <v>       0.35178287       0.43359785       0.38465023 </v>
   <v>       0.61840905       0.44904709       0.59898670 </v>
   <v>       0.57698594       0.63272074       0.51181169 </v>
   <v>       0.60156482       0.58724460       0.65182159 </v>
   <v>       0.48865381       0.55548418       0.58367679 </v>
   <v>       0.48927616       0.41137585       0.57351801 </v>
   <v>       0.52884455       0.48054929       0.70061899 </v>
   <v>       0.32931971       0.56149557       0.43253959 </v>
   <v>       0.44683946       0.62267629       0.47153285 </v>
   <v>       0.38568779       0.46963239       0.51335873 </v>
   <v>       0.35441546       0.59167883       0.57225657 </v>
   <v>       0.39490956       0.48655119       0.65190777 </v>
  </varray>
 </structure>
 <calculation>
  <scstep>
   <time name="dav">    1.64    1.64</time>
   <time name="total">    1.88    1.90</time>
   <energy>
    <i name="alphaZ">     42.48743731 </i>
    <i name="ewald">  33290.70754698 </i>
    <i name="hartreedc"> -53167.74938816 </i>
    <i name="XCdc">   -220.33738565 </i>
    <i name="pawpsdc">  20067.44356139 </i>
    <i name="pawaedc"> -19145.29217758 </i>
    <i name="eentropy">      0.00000000 </i>
    <i name="bandstr">    325.45676201 </i>
    <i name="atom">  20743.97260173 </i>
    <i name="e_fr_energy">   1936.68895803 </i>
    <i name="e_wo_entrp">   1936.68895803 </i>
    <i name="e_0_energy">   1936.68895803 </i>
   </energy>
  </scstep>
  <scstep>
   <time name="dav">    2.62    2.62</time>
   <time name="total">    2.62    2.63</time>
   <energy>
    <i name="e_fr_energy">    476.46017615 </i>
    <i name="e_wo_entrp">    476.46017615 </i>
    <i name="e_0_energy">    476.46017615 </i>
   </energy>
  </scstep>
  <scstep>
   <time name="dav">    2.13    2.13</time>
   <time name="total">    2.13    2.14</time>
   <energy>
    <i name="e_fr_energy">    -12.47697901 </i>
    <i name="e_wo_entrp">    -12.47697901 </i>
    <i name="e_0_energy">    -12.47697901 </i>
   </energy>
  </scstep>
  <scstep>
   <time name="dav">    1.82    1.82</time>
   <time name="total">    1.82    2.39</time>
   <energy>
    <i name="e_fr_energy">    -39.02000028 </i>
    <i name="e_wo_entrp">    -39.02000028 </i>
    <i name="e_0_energy">    -39.02000028 </i>
   </energy>
  </scstep>
  <scstep>
   <time name="dav">    1.86    1.87</time>
   <time name="total">    1.96    1.96</time>
   <energy>
    <i name="e_fr_energy">    -39.40758659 </i>
    <i name="e_wo_entrp">    -39.40758659 </i>
    <i name="e_0_energy">    -39.40758659 </i>
   </energy>
  </scstep>
  <scstep>
   <time name="dav">    1.69    1.69</time>
   <time name="total">    2.00    2.01</time>
   <energy>
    <i name="e_fr_energy">    -14.20397028 </i>
    <i name="e_wo_entrp">    -14.20397028 </i>
    <i name="e_0_energy">    -14.20397028 </i>
   </energy>
  </scstep>
  <scstep>
   <time name="dav">    1.77    1.77</time>
   <time name="total">    2.09    2.09</time>
   <energy>
    <i name="e_fr_energy">     -7.61431961 </i>
    <i name="e_wo_entrp">     -7.61431961 </i>
    <i name="e_0_energy">     -7.61431961 </i>
   </energy>
  </scstep>
  <scstep>
   <time name="dav">    1.76    1.76</time>
   <time name="total">    2.07    2.08</time>
   <energy>
    <i name="e_fr_energy">    -10.40291867 </i>
    <i name="e_wo_entrp">    -10.40291867 </i>
    <i name="e_0_energy">    -10.40291867 </i>
   </energy>
  </scstep>
  <scstep>
   <time name="dav">    1.78    1.78</time>
   <time name="total">    2.10    2.10</time>
   <energy>
    <i name="e_fr_energy">    -14.81536137 </i>
    <i name="e_wo_entrp">    -14.81536137 </i>
    <i name="e_0_energy">    -14.81536137 </i>
   </energy>
  </scstep>
  <scstep>
   <time name="dav">    1.74    1.75</time>
   <time name="total">    2.06    2.07</time>
   <energy>
    <i name="e_fr_energy">    -22.81551539 </i>
    <i name="e_wo_entrp">    -22.81551539 </i>
    <i name="e_0_energy">    -22.81551539 </i>
   </energy>
  </scstep>
  <scstep>
   <time name="dav">    1.71    1.71</time>
   <time name="total">    2.03    2.03</time>
   <energy>
    <i name="e_fr_energy">    -30.67115724 </i>
    <i name="e_wo_entrp">    -30.67115724 </i>
    <i name="e_0_energy">    -30.67115724 </i>
   </energy>
  </scstep>
  <scstep>
   <time name="dav">    1.86    1.86</time>
   <time name="total">    2.18    2.19</time>
   <energy>
    <i name="e_fr_energy">    -30.65982888 </i>
    <i name="e_wo_entrp">    -30.65982888 </i>
    <i name="e_0_energy">    -30.65982888 </i>
   </energy>
  </scstep>
  <scstep>
   <time name="dav">    1.76    1.76</time>
   <time name="total">    2.08    2.09</time>
   <energy>
    <i name="e_fr_energy">    -30.69182752 </i>
    <i name="e_wo_entrp">    -30.69182752 </i>
    <i name="e_0_energy">    -30.69182752 </i>
   </energy>
  </scstep>
  <scstep>
   <time name="dav">    1.73    1.73</time>
   <time name="total">    2.05    2.05</time>
   <energy>
    <i name="e_fr_energy">    -32.81638253 </i>
    <i name="e_wo_entrp">    -32.81638253 </i>
    <i name="e_0_energy">    -32.81638253 </i>
   </energy>
  </scstep>
  <scstep>
   <time name="dav">    1.71    1.71</time>
   <time name="total">    2.03    2.09</time>
   <energy>
    <i name="e_fr_energy">    -35.65977296 </i>
    <i name="e_wo_entrp">    -35.65977296 </i>
    <i name="e_0_energy">    -35.65977296 </i>
   </energy>
  </scstep>
  <scstep>
   <time name="dav">    1.74    1.75</time>
   <time name="total">    2.07    2.07</time>
   <energy>
    <i name="e_fr_energy">    -36.93606667 </i>
    <i name="e_wo_entrp">    -36.93606667 </i>
    <i name="e_0_energy">    -36.93606667 </i>
   </energy>
  </scstep>
  <scstep>
   <time name="dav">    1.82    1.82</time>
   <time name="total">    2.14    2.17</time>
   <energy>
    <i name="e_fr_energy">    -36.92188345 </i>
    <i name="e_wo_entrp">    -36.92188345 </i>
    <i name="e_0_energy">    -36.92188345 </i>
   </energy>
  </scstep>
  <scstep>
   <time name="dav">    1.72    1.72</time>
   <time name="total">    2.04    2.04</time>
   <energy>
    <i name="e_fr_energy">    -37.05970714 </i>
    <i name="e_wo_entrp">    -37.05970714 </i>
    <i name="e_0_energy">    -37.05970714 </i>
   </energy>
  </scstep>
  <scstep>
   <time name="dav">    1.72    1.72</time>
   <time name="total">    2.04    2.06</time>
   <energy>
    <i name="e_fr_energy">    -37.24069723 </i>
    <i name="e_wo_entrp">    -37.24069723 </i>
    <i name="e_0_energy">    -37.24069723 </i>
   </energy>
  </scstep>
  <scstep>
   <time name="dav">    1.72    1.72</time>
   <time name="total">    2.04    2.43</time>
   <energy>
    <i name="e_fr_energy">    -37.75880022 </i>
    <i name="e_wo_entrp">    -37.75880022 </i>
    <i name="e_0_energy">    -37.75880022 </i>
   </energy>
  </scstep>
  <scstep>
   <time name="dav">    1.80    1.80</time>
   <time name="total">    2.13    2.13</time>
   <energy>
    <i name="e_fr_energy">    -38.08340494 </i>
    <i name="e_wo_entrp">    -38.08340494 </i>
    <i name="e_0_energy">    -38.08340494 </i>
   </energy>
  </scstep>
  <scstep>
   <time name="dav">    1.74    1.74</time>
   <time name="total">    2.06    2.07</time>
   <energy>
    <i name="e_fr_energy">    -38.30698094 </i>
    <i name="e_wo_entrp">    -38.30698094 </i>
    <i name="e_0_energy">    -38.30698094 </i>
   </energy>
  </scstep>
  <scstep>
   <time name="dav">    1.79    1.79</time>
   <time name="total">    2.11    2.44</time>
   <energy>
    <i name="e_fr_energy">    -38.67777160 </i>
    <i name="e_wo_entrp">    -38.67777160 </i>
    <i name="e_0_energy">    -38.67777160 </i>
   </energy>
  </scstep>
  <scstep>
   <time name="dav">    1.82    1.82</time>
   <time name="total">    2.15    2.17</time>
   <energy>
    <i name="e_fr_energy">    -38.74120044 </i>
    <i name="e_wo_entrp">    -38.74120044 </i>
    <i name="e_0_energy">    -38.74120044 </i>
   </energy>
  </scstep>
  <scstep>
   <time name="dav">    1.74    1.74</time>
   <time name="total">    2.06    2.06</time>
   <energy>
    <i name="e_fr_energy">    -38.79222346 </i>
    <i name="e_wo_entrp">    -38.79222346 </i>
    <i name="e_0_energy">    -38.79222346 </i>
   </energy>
  </scstep>
  <scstep>
   <time name="dav">    1.81    1.81</time>
   <time name="total">    2.14    2.27</time>
   <energy>
    <i name="e_fr_energy">    -38.81320269 </i>
    <i name="e_wo_entrp">    -38.81320269 </i>
    <i name="e_0_energy">    -38.81320269 </i>
   </energy>
  </scstep>
  <scstep>
   <time name="dav">    1.38    1.38</time>
   <time name="total">    1.71    2.10</time>
   <energy>
    <i name="e_fr_energy">    -38.81642914 </i>
    <i name="e_wo_entrp">    -38.81642914 </i>
    <i name="e_0_energy">    -38.81642914 </i>
   </energy>
  </scstep>
  <scstep>
   <time name="dav">    1.36    1.37</time>
   <time name="total">    1.69    1.83</time>
   <energy>
    <i name="e_fr_energy">    -38.81851811 </i>
    <i name="e_wo_entrp">    -38.81851811 </i>
    <i name="e_0_energy">    -38.81851811 </i>
   </energy>
  </scstep>
  <scstep>
   <time name="dav">    1.38    1.39</time>
   <time name="total">    1.72    1.74</time>
   <energy>
    <i name="e_fr_energy">    -38.81943261 </i>
    <i name="e_wo_entrp">    -38.81943261 </i>
    <i name="e_0_energy">    -38.81943261 </i>
   </energy>
  </scstep>
  <scstep>
   <time name="dav">    1.34    1.33</time>
   <time name="total">    1.66    1.67</time>
   <energy>
    <i name="e_fr_energy">    -38.82031607 </i>
    <i name="e_wo_entrp">    -38.82031607 </i>
    <i name="e_0_energy">    -38.82031607 </i>
   </energy>
  </scstep>
  <scstep>
   <time name="dav">    1.37    1.37</time>
   <time name="total">    1.70    1.70</time>
   <energy>
    <i name="e_fr_energy">    -38.82091413 </i>
    <i name="e_wo_entrp">    -38.82091413 </i>
    <i name="e_0_energy">    -38.82091413 </i>
   </energy>
  </scstep>
  <scstep>
   <time name="dav">    1.32    1.32</time>
   <time name="total">    1.65    1.67</time>
   <energy>
    <i name="e_fr_energy">    -38.82111405 </i>
    <i name="e_wo_entrp">    -38.82111405 </i>
    <i name="e_0_energy">    -38.82111405 </i>
   </energy>
  </scstep>
  <scstep>
   <time name="dav">    1.34    1.34</time>
   <time name="total">    1.56    1.59</time>
   <energy>
    <i name="alphaZ">     42.48743731 </i>
    <i name="ewald">  33290.70754698 </i>
    <i name="hartreedc"> -53139.01603172 </i>
    <i name="XCdc">   -227.63511088 </i>
    <i name="pawpsdc">  21646.71139616 </i>
    <i name="pawaedc"> -20759.99354704 </i>
    <i name="eentropy">      0.00000000 </i>
    <i name="bandstr">  -1636.05549820 </i>
    <i name="atom">  20743.97260173 </i>
    <i name="e_fr_energy">    -38.82120567 </i>
    <i name="e_wo_entrp">    -38.82120567 </i>
    <i name="e_0_energy">    -38.82120567 </i>
   </energy>
  </scstep>
  <structure>
   <crystal>
    <varray name="basis" >
     <v>      20.00650430       0.00000000       0.00000000 </v>
     <v>       0.00000000      20.00650430       0.00000000 </v>
     <v>       0.00000000       0.00000000      20.00650430 </v>
    </varray>
    <i name="volume">   8007.80769902 </i>
    <varray name="rec_basis" >
     <v>       0.04998374       0.00000000       0.00000000 </v>
     <v>       0.00000000       0.04998374       0.00000000 </v>
     <v>       0.00000000       0.00000000       0.04998374 </v>
    </varray>
   </crystal>
   <varray name="positions" >
    <v>       0.68878136       0.44087563       0.47210867 </v>
    <v>       0.58802564       0.35831836       0.49094213 </v>
    <v>       0.67341701       0.56838821       0.41761214 </v>
    <v>       0.46676689       0.38776934       0.43173170 </v>
    <v>       0.55135991       0.60687425       0.37587446 </v>
    <v>       0.55475786       0.49841858       0.46940434 </v>
    <v>       0.45171989       0.51942044       0.37105093 </v>
    <v>       0.68451767       0.55981563       0.54910570 </v>
    <v>       0.35178287       0.43359785       0.38465023 </v>
    <v>       0.61840905       0.44904709       0.59898670 </v>
    <v>       0.57698594       0.63272074       0.51181169 </v>
    <v>       0.60156482       0.58724460       0.65182159 </v>
    <v>       0.48865381       0.55548418       0.58367679 </v>
    <v>       0.48927616       0.41137585       0.57351801 </v>
    <v>       0.52884455       0.48054929       0.70061899 </v>
    <v>       0.32931971       0.56149557       0.43253959 </v>
    <v>       0.44683946       0.62267629       0.47153285 </v>
    <v>       0.38568779       0.46963239       0.51335873 </v>
    <v>       0.35441546       0.59167883       0.57225657 </v>
    <v>       0.39490956       0.48655119       0.65190777 </v>
   </varray>
  </structure>
  <varray name="forces" >
   <v>       0.14331264       0.32274339      -0.02885257 </v>
   <v>      -0.39368127      -0.50805849       0.06845623 </v>
   <v>      -0.01889592       0.20457720      -0.27646280 </v>
   <v>       0.53734192      -0.07782498       0.14248375 </v>
   <v>       0.14193075       0.41884533       0.00034685 </v>
   <v>       0.06832266      -0.31851571      -0.17364974 </v>
   <v>       0.09021267      -0.13643753       0.23208739 </v>
   <v>       0.30334414      -0.20819975       0.09544769 </v>
   <v>      -0.62317994      -0.28927142      -0.21962554 </v>
   <v>      -0.03353508      -0.02633212      -0.13870450 </v>
   <v>       0.35097565       0.48552113      -0.04958221 </v>
   <v>      -0.20811934       0.21477035       0.09410194 </v>
   <v>      -0.02865170      -0.08749145       0.34754387 </v>
   <v>       0.16948138      -0.38064093       0.27709879 </v>
   <v>      -0.26896058      -0.10784619      -0.13503445 </v>
   <v>      -0.31569125       0.37214739      -0.08746532 </v>
   <v>      -0.07032908      -0.11987195      -0.25363618 </v>
   <v>       0.14459888       0.10616518      -0.13661305 </v>
   <v>      -0.11377096       0.28771878      -0.04221948 </v>
   <v>       0.12529443      -0.15199823       0.28427935 </v>
  </varray>
  <varray name="stress" >
   <v>      -0.77347880       0.13638053      -0.07756804 </v>
   <v>       0.13638052      -0.35317015      -0.23153137 </v>
   <v>      -0.07756805      -0.23153138      -1.04504469 </v>
  </varray>
  <energy>
   <i name="e_fr_energy">    -38.82120567 </i>
   <i name="e_wo_entrp">    -38.82120567 </i>
   <i name="e_0_energy">      0.00000000 </i>
  </energy>
  <time name="totalsc">   68.70   71.03</time>
 </calculation>
 <calculation>
  <scstep>
   <time name="dav">    1.79    1.79</time>
   <time name="total">    2.11    2.13</time>
   <energy>
    <i name="alphaZ">     42.48743731 </i>
    <i name="ewald">  33252.64150825 </i>
    <i name="hartreedc"> -53101.31656654 </i>
    <i name="XCdc">   -227.69812712 </i>
    <i name="pawpsdc">  21646.89558273 </i>
    <i name="pawaedc"> -20760.17714759 </i>
    <i name="eentropy">      0.00000000 </i>
    <i name="bandstr">  -1635.65909540 </i>
    <i name="atom">  20743.97260173 </i>
    <i name="e_fr_energy">    -38.85380663 </i>
    <i name="e_wo_entrp">    -38.85380663 </i>
    <i name="e_0_energy">    -38.85380663 </i>
   </energy>
  </scstep>
  <scstep>
   <time name="dav">    1.76    1.76</time>
   <time name="total">    2.08    2.08</time>
   <energy>
    <i name="e_fr_energy">    -38.85492512 </i>
    <i name="e_wo_entrp">    -38.85492512 </i>
    <i name="e_0_energy">    -38.85492512 </i>
   </energy>
  </scstep>
  <scstep>
   <time name="dav">    1.34    1.34</time>
   <time name="total">    1.57    3.21</time>
   <energy>
    <i name="alphaZ">     42.48743731 </i>
    <i name="ewald">  33252.64150825 </i>
    <i name="hartreedc"> -53101.70685398 </i>
    <i name="XCdc">   -227.68899253 </i>
    <i name="pawpsdc">  21641.59285655 </i>
    <i name="pawaedc"> -20754.78849456 </i>
    <i name="eentropy">      0.00000000 </i>
    <i name="bandstr">  -1635.36498365 </i>
    <i name="atom">  20743.97260173 </i>
    <i name="e_fr_energy">    -38.85492089 </i>
    <i name="e_wo_entrp">    -38.85492089 </i>
    <i name="e_0_energy">    -38.85492089 </i>
   </energy>
  </scstep>
  <structure>
   <crystal>
    <varray name="basis" >
     <v>      20.00650430       0.00000000       0.00000000 </v>
     <v>       0.00000000      20.00650430       0.00000000 </v>
     <v>       0.00000000       0.00000000      20.00650430 </v>
    </varray>
    <i name="volume">   8007.80769902 </i>
    <varray name="rec_basis" >
     <v>       0.04998374       0.00000000       0.00000000 </v>
     <v>       0.00000000       0.04998374       0.00000000 </v>
     <v>       0.00000000       0.00000000       0.04998374 </v>
    </varray>
   </crystal>
   <varray name="positions" >
    <v>       0.68885048       0.44103128       0.47209476 </v>
    <v>       0.58783578       0.35807333       0.49097514 </v>
    <v>       0.67340790       0.56848687       0.41747881 </v>
    <v>       0.46702603       0.38773180       0.43180041 </v>
    <v>       0.55142836       0.60707625       0.37587462 </v>
    <v>       0.55479081       0.49826497       0.46932060 </v>
    <v>       0.45176340       0.51935464       0.37116286 </v>
    <v>       0.68466397       0.55971522       0.54915173 </v>
    <v>       0.35148233       0.43345834       0.38454431 </v>
    <v>       0.61839288       0.44903439       0.59891981 </v>
    <v>       0.57715520       0.63295489       0.51178778 </v>
    <v>       0.60146445       0.58734818       0.65186698 </v>
    <v>       0.48863999       0.55544199       0.58384440 </v>
    <v>       0.48935790       0.41119228       0.57365165 </v>
    <v>       0.52871483       0.48049728       0.70055386 </v>
    <v>       0.32916746       0.56167504       0.43249741 </v>
    <v>       0.44680555       0.62261848       0.47141053 </v>
    <v>       0.38575752       0.46968359       0.51329285 </v>
    <v>       0.35436059       0.59181759       0.57223621 </v>
    <v>       0.39496998       0.48647788       0.65204487 </v>
   </varray>
  </structure>
  <varray name="forces" >
   <v>       0.10866106       0.28601591      -0.02514004 </v>
   <v>      -0.33392277      -0.47625415       0.06679675 </v>
   <v>      -0.01571318       0.19736015      -0.24881576 </v>
   <v>       0.46844540      -0.05526801       0.11839448 </v>
   <v>       0.12180169       0.39681396       0.00454398 </v>
   <v>       0.06869311      -0.28667617      -0.15960194 </v>
   <v>       0.07438723      -0.14148434       0.23186570 </v>
   <v>       0.27454872      -0.18926431       0.08446742 </v>
   <v>      -0.55213129      -0.26254749      -0.18496654 </v>
   <v>      -0.03143421      -0.02330051      -0.13402114 </v>
   <v>       0.32529943       0.44064613      -0.04171464 </v>
   <v>      -0.19372685       0.20431587       0.08255188 </v>
   <v>      -0.02368848      -0.07239060       0.29975372 </v>
   <v>       0.14234545      -0.35962186       0.26483928 </v>
   <v>      -0.25016724      -0.10400167      -0.12724201 </v>
   <v>      -0.29554785       0.33803312      -0.08511597 </v>
   <v>      -0.05142002      -0.12584381      -0.22826322 </v>
   <v>       0.15216676       0.11051643      -0.13703779 </v>
   <v>      -0.09900282       0.26404758      -0.03883577 </v>
   <v>       0.11040588      -0.14109621       0.25754160 </v>
  </varray>
  <varray name="stress" >
   <v>      -0.84665495       0.13158877      -0.07188443 </v>
   <v>       0.13158877      -0.43044270      -0.21753707 </v>
   <v>      -0.07188442      -0.21753707      -1.11038596 </v>
  </varray>
  <energy>
   <i name="e_fr_energy">    -38.85492089 </i>
   <i name="e_wo_entrp">    -38.85492089 </i>
   <i name="e_0_energy">      0.00000000 </i>
  </energy>
  <time name="totalsc">    8.67   10.38</time>
 </calculation>
 <calculation>
  <scstep>
   <time name="dav">    1.74    1.74</time>
   <time name="total">    2.06    2.07</time>
   <energy>
    <i name="alphaZ">     42.48743731 </i>
    <i name="ewald">  33138.95783580 </i>
    <i name="hartreedc"> -52989.23853667 </i>
    <i name="XCdc">   -227.87258794 </i>
    <i name="pawpsdc">  21638.11718827 </i>
    <i name="pawaedc"> -20751.25655962 </i>
    <i name="eentropy">      0.00000000 </i>
    <i name="bandstr">  -1634.09969381 </i>
    <i name="atom">  20743.97260173 </i>
    <i name="e_fr_energy">    -38.93231493 </i>
    <i name="e_wo_entrp">    -38.93231493 </i>
    <i name="e_0_energy">    -38.93231493 </i>
   </energy>
  </scstep>
  <scstep>
   <time name="dav">    1.79    1.79</time>
   <time name="total">    2.11    2.12</time>
   <energy>
    <i name="e_fr_energy">    -38.94198586 </i>
    <i name="e_wo_entrp">    -38.94198586 </i>
    <i name="e_0_energy">    -38.94198586 </i>
   </energy>
  </scstep>
  <scstep>
   <time name="dav">    1.83    1.83</time>
   <time name="total">    2.15    2.17</time>
   <energy>
    <i name="e_fr_energy">    -38.94181345 </i>
    <i name="e_wo_entrp">    -38.94181345 </i>
    <i name="e_0_energy">    -38.94181345 </i>
   </energy>
  </scstep>
  <scstep>
   <time name="dav">    1.79    1.79</time>
   <time name="total">    2.11    2.14</time>
   <energy>
    <i name="e_fr_energy">    -38.94155048 </i>
    <i name="e_wo_entrp">    -38.94155048 </i>
    <i name="e_0_energy">    -38.94155048 </i>
   </energy>
  </scstep>
  <scstep>
   <time name="dav">    1.36    1.36</time>
   <time name="total">    1.59    1.59</time>
   <energy>
    <i name="alphaZ">     42.48743731 </i>
    <i name="ewald">  33138.95783580 </i>
    <i name="hartreedc"> -52990.93532863 </i>
    <i name="XCdc">   -227.83621645 </i>
    <i name="pawpsdc">  21610.37297666 </i>
    <i name="pawaedc"> -20723.06984263 </i>
    <i name="eentropy">      0.00000000 </i>
    <i name="bandstr">  -1632.89097105 </i>
    <i name="atom">  20743.97260173 </i>
    <i name="e_fr_energy">    -38.94150726 </i>
    <i name="e_wo_entrp">    -38.94150726 </i>
    <i name="e_0_energy">    -38.94150726 </i>
   </energy>
  </scstep>
  <structure>
   <crystal>
    <varray name="basis" >
     <v>      20.00650430       0.00000000       0.00000000 </v>
     <v>       0.00000000      20.00650430       0.00000000 </v>
     <v>       0.00000000       0.00000000      20.00650430 </v>
    </varray>
    <i name="volume">   8007.80769902 </i>
    <varray name="rec_basis" >
     <v>       0.04998374       0.00000000       0.00000000 </v>
     <v>       0.00000000       0.04998374       0.00000000 </v>
     <v>       0.00000000       0.00000000       0.04998374 </v>
    </varray>
   </crystal>
   <varray name="positions" >
    <v>       0.68905783       0.44149823       0.47205302 </v>
    <v>       0.58726619       0.35733827       0.49107419 </v>
    <v>       0.67338056       0.56878285       0.41707882 </v>
    <v>       0.46780346       0.38761921       0.43200656 </v>
    <v>       0.55163371       0.60768223       0.37587513 </v>
    <v>       0.55488966       0.49780414       0.46906936 </v>
    <v>       0.45189392       0.51915724       0.37149864 </v>
    <v>       0.68510285       0.55941399       0.54928983 </v>
    <v>       0.35058071       0.43303982       0.38422655 </v>
    <v>       0.61834436       0.44899629       0.59871913 </v>
    <v>       0.57766300       0.63365735       0.51171605 </v>
    <v>       0.60116334       0.58765891       0.65200312 </v>
    <v>       0.48859854       0.55531540       0.58434723 </v>
    <v>       0.48960311       0.41064156       0.57405256 </v>
    <v>       0.52832570       0.48034124       0.70035850 </v>
    <v>       0.32871071       0.56221347       0.43237086 </v>
    <v>       0.44670379       0.62244504       0.47104356 </v>
    <v>       0.38596673       0.46983719       0.51309519 </v>
    <v>       0.35419598       0.59223386       0.57217512 </v>
    <v>       0.39515126       0.48625797       0.65245616 </v>
   </varray>
  </structure>
  <varray name="forces" >
   <v>       0.02931997       0.21222911      -0.01798173 </v>
   <v>      -0.19537322      -0.42686713       0.06865515 </v>
   <v>      -0.00716514       0.19723925      -0.19310435 </v>
   <v>       0.32011974      -0.00095674       0.06250862 </v>
   <v>       0.07629303       0.36728141       0.01671942 </v>
   <v>       0.07527441      -0.22730950      -0.13715351 </v>
   <v>       0.03764637      -0.16621852       0.24754511 </v>
   <v>       0.21937718      -0.15295532       0.06222330 </v>
   <v>      -0.41158693      -0.21327235      -0.10844542 </v>
   <v>      -0.02696196      -0.01822061      -0.13090775 </v>
   <v>       0.28321922       0.35228046      -0.02449654 </v>
   <v>      -0.16974672       0.19287696       0.05827410 </v>
   <v>      -0.01528275      -0.03916239       0.19668950 </v>
   <v>       0.07854197      -0.32714706       0.25029151 </v>
   <v>      -0.21753572      -0.10203334      -0.11306893 </v>
   <v>      -0.26371836       0.27232544      -0.08520762 </v>
   <v>      -0.00706168      -0.15019292      -0.17933079 </v>
   <v>       0.18383407       0.12976376      -0.14925205 </v>
   <v>      -0.06790246       0.22513394      -0.03320187 </v>
   <v>       0.07870900      -0.12479446       0.20924386 </v>
  </varray>
  <varray name="stress" >
   <v>      -1.00606138       0.11787468      -0.05905894 </v>
   <v>       0.11787468      -0.60890453      -0.18387320 </v>
   <v>      -0.05905895      -0.18387320      -1.25075359 </v>
  </varray>
  <energy>
   <i name="e_fr_energy">    -38.94150726 </i>
   <i name="e_wo_entrp">    -38.94150726 </i>
   <i name="e_0_energy">      0.00000000 </i>
  </energy>
  <time name="totalsc">   12.93   13.04</time>
 </calculation>
 <calculation>
  <scstep>
   <time name="dav">    1.69    1.69</time>
   <time name="total">    2.01    2.02</time>
   <energy>
    <i name="alphaZ">     42.48743731 </i>
    <i name="ewald">  32913.87739511 </i>
    <i name="hartreedc"> -52767.70374214 </i>
    <i name="XCdc">   -228.18318176 </i>
    <i name="pawpsdc">  21610.61688021 </i>
    <i name="pawaedc"> -20723.31670047 </i>
    <i name="eentropy">      0.00000000 </i>
    <i name="bandstr">  -1630.76907203 </i>
    <i name="atom">  20743.97260173 </i>
    <i name="e_fr_energy">    -39.01838205 </i>
    <i name="e_wo_entrp">    -39.01838205 </i>
    <i name="e_0_energy">    -39.01838205 </i>
   </energy>
  </scstep>
  <scstep>
   <time name="dav">    1.78    1.78</time>
   <time name="total">    2.10    2.10</time>
   <energy>
    <i name="e_fr_energy">    -39.05719107 </i>
    <i name="e_wo_entrp">    -39.05719107 </i>
    <i name="e_0_energy">    -39.05719107 </i>
   </energy>
  </scstep>
  <scstep>
   <time name="dav">    1.80    1.80</time>
   <time name="total">    2.12    2.12</time>
   <energy>
    <i name="e_fr_energy">    -39.05677041 </i>
    <i name="e_wo_entrp">    -39.05677041 </i>
    <i name="e_0_energy">    -39.05677041 </i>
   </energy>
  </scstep>
  <scstep>
   <time name="dav">    1.78    1.78</time>
   <time name="total">    2.10    2.11</time>
   <energy>
    <i name="e_fr_energy">    -39.05602951 </i>
    <i name="e_wo_entrp">    -39.05602951 </i>
    <i name="e_0_energy">    -39.05602951 </i>
   </energy>
  </scstep>
  <scstep>
   <time name="dav">    1.30    1.30</time>
   <time name="total">    1.54    1.71</time>
   <energy>
    <i name="alphaZ">     42.48743731 </i>
    <i name="ewald">  32913.87739511 </i>
    <i name="hartreedc"> -52771.06804370 </i>
    <i name="XCdc">   -228.11259403 </i>
    <i name="pawpsdc">  21562.54377684 </i>
    <i name="pawaedc"> -20674.45573677 </i>
    <i name="eentropy">      0.00000000 </i>
    <i name="bandstr">  -1628.30090979 </i>
    <i name="atom">  20743.97260173 </i>
    <i name="e_fr_energy">    -39.05607330 </i>
    <i name="e_wo_entrp">    -39.05607330 </i>
    <i name="e_0_energy">    -39.05607330 </i>
   </energy>
  </scstep>
  <structure>
   <crystal>
    <varray name="basis" >
     <v>      20.00650430       0.00000000       0.00000000 </v>
     <v>       0.00000000      20.00650430       0.00000000 </v>
     <v>       0.00000000       0.00000000      20.00650430 </v>
    </varray>
    <i name="volume">   8007.80769902 </i>
    <varray name="rec_basis" >
     <v>       0.04998374       0.00000000       0.00000000 </v>
     <v>       0.00000000       0.04998374       0.00000000 </v>
     <v>       0.00000000       0.00000000       0.04998374 </v>
    </varray>
   </crystal>
   <varray name="positions" >
    <v>       0.68947252       0.44243212       0.47196953 </v>
    <v>       0.58612703       0.35586814       0.49127227 </v>
    <v>       0.67332588       0.56937482       0.41627885 </v>
    <v>       0.46935832       0.38739401       0.43241885 </v>
    <v>       0.55204440       0.60889421       0.37587613 </v>
    <v>       0.55508736       0.49688248       0.46856688 </v>
    <v>       0.45215496       0.51876244       0.37217022 </v>
    <v>       0.68598061       0.55881154       0.54956602 </v>
    <v>       0.34877746       0.43220278       0.38359104 </v>
    <v>       0.61824732       0.44892010       0.59831777 </v>
    <v>       0.57867859       0.63506226       0.51157257 </v>
    <v>       0.60056112       0.58828037       0.65227542 </v>
    <v>       0.48851563       0.55506224       0.58535289 </v>
    <v>       0.49009352       0.40954013       0.57485438 </v>
    <v>       0.52754743       0.48002918       0.69996776 </v>
    <v>       0.32779722       0.56329032       0.43211777 </v>
    <v>       0.44650029       0.62209818       0.47030964 </v>
    <v>       0.38638514       0.47014439       0.51269989 </v>
    <v>       0.35386677       0.59306641       0.57205296 </v>
    <v>       0.39551381       0.48581814       0.65327876 </v>
   </varray>
  </structure>
  <varray name="forces" >
   <v>      -0.10577144       0.07285774      -0.01228409 </v>
   <v>       0.08332670      -0.33344445       0.08550703 </v>
   <v>       0.01179610       0.17742474      -0.07443775 </v>
   <v>       0.02593501       0.09414924      -0.05248143 </v>
   <v>      -0.02098404       0.29020049       0.03626347 </v>
   <v>       0.09129387      -0.09971524      -0.08883121 </v>
   <v>      -0.03600696      -0.20629174       0.26024793 </v>
   <v>       0.10061044      -0.06389202       0.02369088 </v>
   <v>      -0.15151718      -0.10313727       0.03704337 </v>
   <v>      -0.01712867      -0.00384177      -0.11773671 </v>
   <v>       0.20142946       0.17424646       0.00873962 </v>
   <v>      -0.10969103       0.16286296       0.01042477 </v>
   <v>      -0.00849168       0.02386436      -0.01372746 </v>
   <v>      -0.05324660      -0.25145475       0.21130179 </v>
   <v>      -0.13204714      -0.09503354      -0.07275076 </v>
   <v>      -0.18662595       0.13690778      -0.07891374 </v>
   <v>       0.07538643      -0.18474364      -0.07604704 </v>
   <v>       0.23249893       0.16132334      -0.16681914 </v>
   <v>      -0.00534679       0.13853177      -0.02544229 </v>
   <v>       0.00458054      -0.09081448       0.10625275 </v>
  </varray>
  <varray name="stress" >
   <v>      -1.27493989       0.09156143      -0.02097559 </v>
   <v>       0.09156144      -0.93305738      -0.12120380 </v>
   <v>      -0.02097559      -0.12120381      -1.51012591 </v>
  </varray>
  <energy>
   <i name="e_fr_energy">    -39.05607330 </i>
   <i name="e_wo_entrp">    -39.05607330 </i>
   <i name="e_0_energy">      0.00000000 </i>
  </energy>
  <time name="totalsc">   12.80   13.03</time>
 </calculation>
 <calculation>
  <scstep>
   <time name="dav">    1.69    1.69</time>
   <time name="total">    2.01    2.02</time>
   <energy>
    <i name="alphaZ">     42.48743731 </i>
    <i name="ewald">  32472.62806383 </i>
    <i name="hartreedc"> -52332.78807148 </i>
    <i name="XCdc">   -228.71412278 </i>
    <i name="pawpsdc">  21562.96394917 </i>
    <i name="pawaedc"> -20674.87906837 </i>
    <i name="eentropy">      0.00000000 </i>
    <i name="bandstr">  -1624.59491413 </i>
    <i name="atom">  20743.97260173 </i>
    <i name="e_fr_energy">    -38.92412473 </i>
    <i name="e_wo_entrp">    -38.92412473 </i>
    <i name="e_0_energy">    -38.92412473 </i>
   </energy>
  </scstep>
  <scstep>
   <time name="dav">    1.78    1.78</time>
   <time name="total">    2.10    2.10</time>
   <energy>
    <i name="e_fr_energy">    -39.08269808 </i>
    <i name="e_wo_entrp">    -39.08269808 </i>
    <i name="e_0_energy">    -39.08269808 </i>
   </energy>
  </scstep>
  <scstep>
   <time name="dav">    1.80    1.80</time>
   <time name="total">    2.12    3.07</time>
   <energy>
    <i name="e_fr_energy">    -39.08204010 </i>
    <i name="e_wo_entrp">    -39.08204010 </i>
    <i name="e_0_energy">    -39.08204010 </i>
   </energy>
  </scstep>
  <scstep>
   <time name="dav">    1.80    1.80</time>
   <time name="total">    2.12    2.14</time>
   <energy>
    <i name="e_fr_energy">    -39.07896545 </i>
    <i name="e_wo_entrp">    -39.07896545 </i>
    <i name="e_0_energy">    -39.07896545 </i>
   </energy>
  </scstep>
  <scstep>
   <time name="dav">    1.81    1.81</time>
   <time name="total">    2.13    2.14</time>
   <energy>
    <i name="e_fr_energy">    -39.07918089 </i>
    <i name="e_wo_entrp">    -39.07918089 </i>
    <i name="e_0_energy">    -39.07918089 </i>
   </energy>
  </scstep>
  <scstep>
   <time name="dav">    1.44    1.44</time>
   <time name="total">    1.67    1.68</time>
   <energy>
    <i name="alphaZ">     42.48743731 </i>
    <i name="ewald">  32472.62806383 </i>
    <i name="hartreedc"> -52338.82652924 </i>
    <i name="XCdc">   -228.58027018 </i>
    <i name="pawpsdc">  21490.53230519 </i>
    <i name="pawaedc"> -20601.16672357 </i>
    <i name="eentropy">      0.00000000 </i>
    <i name="bandstr">  -1620.12599391 </i>
    <i name="atom">  20743.97260173 </i>
    <i name="e_fr_energy">    -39.07910884 </i>
    <i name="e_wo_entrp">    -39.07910884 </i>
    <i name="e_0_energy">    -39.07910884 </i>
   </energy>
  </scstep>
  <structure>
   <crystal>
    <varray name="basis" >
     <v>      20.00650430       0.00000000       0.00000000 </v>
     <v>       0.00000000      20.00650430       0.00000000 </v>
     <v>       0.00000000       0.00000000      20.00650430 </v>
    </varray>
    <i name="volume">   8007.80769902 </i>
    <varray name="rec_basis" >
     <v>       0.04998374       0.00000000       0.00000000 </v>
     <v>       0.00000000       0.04998374       0.00000000 </v>
     <v>       0.00000000       0.00000000       0.04998374 </v>
    </varray>
   </crystal>
   <varray name="positions" >
    <v>       0.69030190       0.44429991       0.47180255 </v>
    <v>       0.58384870       0.35292789       0.49166844 </v>
    <v>       0.67321652       0.57055876       0.41467889 </v>
    <v>       0.47246805       0.38694362       0.43324344 </v>
    <v>       0.55286579       0.61131817       0.37587814 </v>
    <v>       0.55548275       0.49503915       0.46756193 </v>
    <v>       0.45267704       0.51797284       0.37351336 </v>
    <v>       0.68773613       0.55760664       0.55011839 </v>
    <v>       0.34517097       0.43052870       0.38232002 </v>
    <v>       0.61805324       0.44876771       0.59751506 </v>
    <v>       0.58070977       0.63787209       0.51128563 </v>
    <v>       0.59935669       0.58952330       0.65282001 </v>
    <v>       0.48834982       0.55455590       0.58736421 </v>
    <v>       0.49107435       0.40733727       0.57645801 </v>
    <v>       0.52599089       0.47940505       0.69918628 </v>
    <v>       0.32597024       0.56544403       0.43161159 </v>
    <v>       0.44609328       0.62140445       0.46884179 </v>
    <v>       0.38722197       0.47075879       0.51190928 </v>
    <v>       0.35320836       0.59473151       0.57180862 </v>
    <v>       0.39623892       0.48493849       0.65492395 </v>
   </varray>
  </structure>
  <varray name="forces" >
   <v>      -0.27921887      -0.13072516      -0.02919179 </v>
   <v>       0.62404933      -0.23872809       0.18081639 </v>
   <v>       0.05371482       0.12263480       0.13506428 </v>
   <v>      -0.56929475       0.24088765      -0.29087562 </v>
   <v>      -0.19185388       0.15058930       0.07082240 </v>
   <v>       0.14290497       0.12149941      -0.00056493 </v>
   <v>      -0.16289279      -0.26265253       0.24568553 </v>
   <v>      -0.10418149       0.12076820      -0.02195200 </v>
   <v>       0.22546907       0.09843023       0.25020992 </v>
   <v>       0.00746556       0.02641163      -0.08896111 </v>
   <v>       0.08844205      -0.11105707       0.05649766 </v>
   <v>       0.01597050       0.10939371      -0.06675260 </v>
   <v>      -0.03411588       0.11868652      -0.38662975 </v>
   <v>      -0.29260694      -0.13274952       0.14274109 </v>
   <v>       0.07324739      -0.08898660       0.03760890 </v>
   <v>      -0.05192261      -0.08506698      -0.05782393 </v>
   <v>       0.20512832      -0.22019692       0.10805697 </v>
   <v>       0.30376875       0.21050873      -0.19260227 </v>
   <v>       0.11089281      -0.00155898      -0.02829157 </v>
   <v>      -0.16496637      -0.04808833      -0.06385758 </v>
  </varray>
  <varray name="stress" >
   <v>      -1.58842379       0.04242230       0.08851184 </v>
   <v>       0.04242229      -1.40307417      -0.02390150 </v>
   <v>       0.08851184      -0.02390150      -1.88516459 </v>
  </varray>
  <energy>
   <i name="e_fr_energy">    -39.07910884 </i>
   <i name="e_wo_entrp">    -39.07910884 </i>
   <i name="e_0_energy">      0.00000000 </i>
  </energy>
  <time name="totalsc">   15.08   16.23</time>
 </calculation>
 <calculation>
  <scstep>
   <time name="dav">    1.70    1.70</time>
   <time name="total">    2.02    2.03</time>
   <energy>
    <i name="alphaZ">     42.48743731 </i>
    <i name="ewald">  32642.55970672 </i>
    <i name="hartreedc"> -52508.02845434 </i>
    <i name="XCdc">   -228.35245852 </i>
    <i name="pawpsdc">  21491.13424269 </i>
    <i name="pawaedc"> -20601.76914575 </i>
    <i name="eentropy">      0.00000000 </i>
    <i name="bandstr">  -1621.08043778 </i>
    <i name="atom">  20743.97260173 </i>
    <i name="e_fr_energy">    -39.07650794 </i>
    <i name="e_wo_entrp">    -39.07650794 </i>
    <i name="e_0_energy">    -39.07650794 </i>
   </energy>
  </scstep>
  <scstep>
   <time name="dav">    1.78    1.78</time>
   <time name="total">    2.10    2.10</time>
   <energy>
    <i name="e_fr_energy">    -39.10082563 </i>
    <i name="e_wo_entrp">    -39.10082563 </i>
    <i name="e_0_energy">    -39.10082563 </i>
   </energy>
  </scstep>
  <scstep>
   <time name="dav">    1.85    1.85</time>
   <time name="total">    2.18    2.37</time>
   <energy>
    <i name="e_fr_energy">    -39.10059940 </i>
    <i name="e_wo_entrp">    -39.10059940 </i>
    <i name="e_0_energy">    -39.10059940 </i>
   </energy>
  </scstep>
  <scstep>
   <time name="dav">    1.75    1.75</time>
   <time name="total">    2.06    2.07</time>
   <energy>
    <i name="e_fr_energy">    -39.10034464 </i>
    <i name="e_wo_entrp">    -39.10034464 </i>
    <i name="e_0_energy">    -39.10034464 </i>
   </energy>
  </scstep>
  <scstep>
   <time name="dav">    1.36    1.36</time>
   <time name="total">    1.59    1.61</time>
   <energy>
    <i name="alphaZ">     42.48743731 </i>
    <i name="ewald">  32642.55970672 </i>
    <i name="hartreedc"> -52506.04205768 </i>
    <i name="XCdc">   -228.40693570 </i>
    <i name="pawpsdc">  21515.94421091 </i>
    <i name="pawaedc"> -20627.02905473 </i>
    <i name="eentropy">      0.00000000 </i>
    <i name="bandstr">  -1622.58630735 </i>
    <i name="atom">  20743.97260173 </i>
    <i name="e_fr_energy">    -39.10039880 </i>
    <i name="e_wo_entrp">    -39.10039880 </i>
    <i name="e_0_energy">    -39.10039880 </i>
   </energy>
  </scstep>
  <structure>
   <crystal>
    <varray name="basis" >
     <v>      20.00650430       0.00000000       0.00000000 </v>
     <v>       0.00000000      20.00650430       0.00000000 </v>
     <v>       0.00000000       0.00000000      20.00650430 </v>
    </varray>
    <i name="volume">   8007.80769902 </i>
    <varray name="rec_basis" >
     <v>       0.04998374       0.00000000       0.00000000 </v>
     <v>       0.00000000       0.04998374       0.00000000 </v>
     <v>       0.00000000       0.00000000       0.04998374 </v>
    </varray>
   </crystal>
   <varray name="positions" >
    <v>       0.68997989       0.44357473       0.47186738 </v>
    <v>       0.58473328       0.35406947       0.49151463 </v>
    <v>       0.67325898       0.57009908       0.41530009 </v>
    <v>       0.47126067       0.38711849       0.43292329 </v>
    <v>       0.55254688       0.61037705       0.37587736 </v>
    <v>       0.55532924       0.49575484       0.46795211 </v>
    <v>       0.45247434       0.51827941       0.37299187 </v>
    <v>       0.68705454       0.55807446       0.54990393 </v>
    <v>       0.34657123       0.43117868       0.38281350 </v>
    <v>       0.61812860       0.44882687       0.59782672 </v>
    <v>       0.57992114       0.63678115       0.51139704 </v>
    <v>       0.59982432       0.58904072       0.65260857 </v>
    <v>       0.48841420       0.55475249       0.58658330 </v>
    <v>       0.49069353       0.40819255       0.57583539 </v>
    <v>       0.52659523       0.47964737       0.69948970 </v>
    <v>       0.32667958       0.56460783       0.43180812 </v>
    <v>       0.44625130       0.62167380       0.46941169 </v>
    <v>       0.38689707       0.47052024       0.51221624 </v>
    <v>       0.35346399       0.59408502       0.57190349 </v>
    <v>       0.39595739       0.48528003       0.65428519 </v>
   </varray>
  </structure>
  <varray name="forces" >
   <v>      -0.22638612      -0.06647111      -0.01832226 </v>
   <v>       0.41885139      -0.25491907       0.13509753 </v>
   <v>       0.03645067       0.14400569       0.06074656 </v>
   <v>      -0.33839133       0.18896761      -0.19748403 </v>
   <v>      -0.12967737       0.19923124       0.05832915 </v>
   <v>       0.11854723       0.04342938      -0.03142534 </v>
   <v>      -0.11804031      -0.24476836       0.25399310 </v>
   <v>      -0.03327255       0.05118348      -0.00931066 </v>
   <v>       0.10568513       0.02317794       0.17711995 </v>
   <v>      -0.00293921       0.01496484      -0.09940552 </v>
   <v>       0.12062744      -0.01673962       0.03995614 </v>
   <v>      -0.03238495       0.12758174      -0.04016578 </v>
   <v>      -0.01844224       0.08514911      -0.25098781 </v>
   <v>      -0.20409114      -0.17181428       0.16531129 </v>
   <v>      -0.01018511      -0.08957716      -0.00874218 </v>
   <v>      -0.09907712      -0.00780180      -0.06623556 </v>
   <v>       0.16094344      -0.21075661       0.04301892 </v>
   <v>       0.27857930       0.19324173      -0.18357393 </v>
   <v>       0.06826554       0.05215846      -0.02414030 </v>
   <v>      -0.09506266      -0.06024320      -0.00377925 </v>
  </varray>
  <varray name="stress" >
   <v>      -1.48931124       0.06051631       0.04267986 </v>
   <v>       0.06051631      -1.23359417      -0.05676868 </v>
   <v>       0.04267986      -0.05676866      -1.75458625 </v>
  </varray>
  <energy>
   <i name="e_fr_energy">    -39.10039880 </i>
   <i name="e_wo_entrp">    -39.10039880 </i>
   <i name="e_0_energy">      0.00000000 </i>
  </energy>
  <time name="totalsc">   12.88   13.84</time>
 </calculation>
 <calculation>
  <scstep>
   <time name="dav">    1.69    1.69</time>
   <time name="total">    2.01    2.03</time>
   <energy>
    <i name="alphaZ">     42.48743731 </i>
    <i name="ewald">  32599.58269865 </i>
    <i name="hartreedc"> -52463.58534180 </i>
    <i name="XCdc">   -228.48118144 </i>
    <i name="pawpsdc">  21515.62854232 </i>
    <i name="pawaedc"> -20626.71081972 </i>
    <i name="eentropy">      0.00000000 </i>
    <i name="bandstr">  -1622.03155457 </i>
    <i name="atom">  20743.97260173 </i>
    <i name="e_fr_energy">    -39.13761753 </i>
    <i name="e_wo_entrp">    -39.13761753 </i>
    <i name="e_0_energy">    -39.13761753 </i>
   </energy>
  </scstep>
  <scstep>
   <time name="dav">    1.77    1.77</time>
   <time name="total">    2.08    5.45</time>
   <energy>
    <i name="e_fr_energy">    -39.14700987 </i>
    <i name="e_wo_entrp">    -39.14700987 </i>
    <i name="e_0_energy">    -39.14700987 </i>
   </energy>
  </scstep>
  <scstep>
   <time name="dav">    1.86    1.86</time>
   <time name="total">    2.18    2.20</time>
   <energy>
    <i name="e_fr_energy">    -39.14690757 </i>
    <i name="e_wo_entrp">    -39.14690757 </i>
    <i name="e_0_energy">    -39.14690757 </i>
   </energy>
  </scstep>
  <scstep>
   <time name="dav">    1.76    1.77</time>
   <time name="total">    2.08    2.39</time>
   <energy>
    <i name="e_fr_energy">    -39.14662942 </i>
    <i name="e_wo_entrp">    -39.14662942 </i>
    <i name="e_0_energy">    -39.14662942 </i>
   </energy>
  </scstep>
  <scstep>
   <time name="dav">    1.38    1.38</time>
   <time name="total">    1.61    2.82</time>
   <energy>
    <i name="alphaZ">     42.48743731 </i>
    <i name="ewald">  32599.58269865 </i>
    <i name="hartreedc"> -52464.38570347 </i>
    <i name="XCdc">   -228.46654855 </i>
    <i name="pawpsdc">  21504.27653070 </i>
    <i name="pawaedc"> -20615.17506802 </i>
    <i name="eentropy">      0.00000000 </i>
    <i name="bandstr">  -1621.43859028 </i>
    <i name="atom">  20743.97260173 </i>
    <i name="e_fr_energy">    -39.14664194 </i>
    <i name="e_wo_entrp">    -39.14664194 </i>
    <i name="e_0_energy">    -39.14664194 </i>
   </energy>
  </scstep>
  <structure>
   <crystal>
    <varray name="basis" >
     <v>      20.00650430       0.00000000       0.00000000 </v>
     <v>       0.00000000      20.00650430       0.00000000 </v>
     <v>       0.00000000       0.00000000      20.00650430 </v>
    </varray>
    <i name="volume">   8007.80769902 </i>
    <varray name="rec_basis" >
     <v>       0.04998374       0.00000000       0.00000000 </v>
     <v>       0.00000000       0.04998374       0.00000000 </v>
     <v>       0.00000000       0.00000000       0.04998374 </v>
    </varray>
   </crystal>
   <varray name="positions" >
    <v>       0.68962403       0.44368594       0.47180749 </v>
    <v>       0.58529290       0.35315428       0.49184532 </v>
    <v>       0.67331949       0.57055273       0.41521266 </v>
    <v>       0.47097708       0.38744765       0.43262629 </v>
    <v>       0.55238902       0.61110904       0.37599769 </v>
    <v>       0.55562576       0.49559945       0.46775397 </v>
    <v>       0.45230069       0.51767072       0.37369306 </v>
    <v>       0.68721917       0.55801980       0.54995812 </v>
    <v>       0.34630984       0.43100407       0.38300930 </v>
    <v>       0.61809677       0.44883744       0.59751550 </v>
    <v>       0.58043918       0.63711983       0.51144118 </v>
    <v>       0.59959771       0.58946839       0.65259821 </v>
    <v>       0.48835422       0.55486052       0.58633376 </v>
    <v>       0.49040368       0.40754636       0.57638862 </v>
    <v>       0.52636756       0.47938010       0.69936792 </v>
    <v>       0.32623303       0.56487778       0.43160456 </v>
    <v>       0.44652854       0.62114785       0.46930532 </v>
    <v>       0.38758163       0.47099961       0.51173338 </v>
    <v>       0.35351708       0.59441350       0.57182135 </v>
    <v>       0.39585801       0.48503921       0.65449589 </v>
   </varray>
  </structure>
  <varray name="forces" >
   <v>      -0.21420856      -0.06694926      -0.03539511 </v>
   <v>       0.29059872      -0.19123861       0.11631279 </v>
   <v>       0.02217775       0.13373466       0.07460086 </v>
   <v>      -0.21071200       0.12677050      -0.12461727 </v>
   <v>      -0.13946655       0.15472099       0.05739709 </v>
   <v>       0.11251267       0.03925114      -0.02011533 </v>
   <v>      -0.07976300      -0.18676721       0.22293539 </v>
   <v>      -0.03936368       0.06147738      -0.00626356 </v>
   <v>       0.07147488       0.01871162       0.16703888 </v>
   <v>      -0.03825155       0.01306785      -0.08865423 </v>
   <v>       0.10072385      -0.01915745       0.04026708 </v>
   <v>      -0.03882343       0.10008028      -0.05292639 </v>
   <v>      -0.01468909       0.04276720      -0.21078831 </v>
   <v>      -0.16263402      -0.16866758       0.10976787 </v>
   <v>       0.00844439      -0.06620416      -0.02665408 </v>
   <v>      -0.07703986      -0.01398631      -0.06058907 </v>
   <v>       0.14450447      -0.19426224       0.04684473 </v>
   <v>       0.27844641       0.21664436      -0.15066856 </v>
   <v>       0.07187342       0.03235177      -0.01699826 </v>
   <v>      -0.08580480      -0.03234493      -0.04149451 </v>
  </varray>
  <varray name="stress" >
   <v>      -1.59706204       0.05144311       0.03199265 </v>
   <v>       0.05144310      -1.30655251      -0.03998945 </v>
   <v>       0.03199265      -0.03998945      -1.80527145 </v>
  </varray>
  <energy>
   <i name="e_fr_energy">    -39.14664194 </i>
   <i name="e_wo_entrp">    -39.14664194 </i>
   <i name="e_0_energy">      0.00000000 </i>
  </energy>
  <time name="totalsc">   12.88   17.84</time>
 </calculation>
 <calculation>
  <scstep>
   <time name="dav">    1.69    1.69</time>
   <time name="total">    2.01    2.02</time>
   <energy>
    <i name="alphaZ">     42.48743731 </i>
    <i name="ewald">  32470.75430820 </i>
    <i name="hartreedc"> -52336.74826357 </i>
    <i name="XCdc">   -228.66149062 </i>
    <i name="pawpsdc">  21504.24580230 </i>
    <i name="pawaedc"> -20615.14242426 </i>
    <i name="eentropy">      0.00000000 </i>
    <i name="bandstr">  -1620.05020900 </i>
    <i name="atom">  20743.97260173 </i>
    <i name="e_fr_energy">    -39.14223792 </i>
    <i name="e_wo_entrp">    -39.14223792 </i>
    <i name="e_0_energy">    -39.14223792 </i>
   </energy>
  </scstep>
  <scstep>
   <time name="dav">    1.80    1.80</time>
   <time name="total">    2.11    2.12</time>
   <energy>
    <i name="e_fr_energy">    -39.22803347 </i>
    <i name="e_wo_entrp">    -39.22803347 </i>
    <i name="e_0_energy">    -39.22803347 </i>
   </energy>
  </scstep>
  <scstep>
   <time name="dav">    1.82    1.82</time>
   <time name="total">    2.14    2.38</time>
   <energy>
    <i name="e_fr_energy">    -39.22736996 </i>
    <i name="e_wo_entrp">    -39.22736996 </i>
    <i name="e_0_energy">    -39.22736996 </i>
   </energy>
  </scstep>
  <scstep>
   <time name="dav">    1.75    1.75</time>
   <time name="total">    2.06    2.07</time>
   <energy>
    <i name="e_fr_energy">    -39.22498633 </i>
    <i name="e_wo_entrp">    -39.22498633 </i>
    <i name="e_0_energy">    -39.22498633 </i>
   </energy>
  </scstep>
  <scstep>
   <time name="dav">    1.80    1.80</time>
   <time name="total">    2.12    2.12</time>
   <energy>
    <i name="e_fr_energy">    -39.22493309 </i>
    <i name="e_wo_entrp">    -39.22493309 </i>
    <i name="e_0_energy">    -39.22493309 </i>
   </energy>
  </scstep>
  <scstep>
   <time name="dav">    1.42    1.43</time>
   <time name="total">    1.66    3.33</time>
   <energy>
    <i name="alphaZ">     42.48743731 </i>
    <i name="ewald">  32470.75430820 </i>
    <i name="hartreedc"> -52338.89317481 </i>
    <i name="XCdc">   -228.62161161 </i>
    <i name="pawpsdc">  21477.99087103 </i>
    <i name="pawaedc"> -20588.41332684 </i>
    <i name="eentropy">      0.00000000 </i>
    <i name="bandstr">  -1618.50197859 </i>
    <i name="atom">  20743.97260173 </i>
    <i name="e_fr_energy">    -39.22487358 </i>
    <i name="e_wo_entrp">    -39.22487358 </i>
    <i name="e_0_energy">    -39.22487358 </i>
   </energy>
  </scstep>
  <structure>
   <crystal>
    <varray name="basis" >
     <v>      20.00650430       0.00000000       0.00000000 </v>
     <v>       0.00000000      20.00650430       0.00000000 </v>
     <v>       0.00000000       0.00000000      20.00650430 </v>
    </varray>
    <i name="volume">   8007.80769902 </i>
    <varray name="rec_basis" >
     <v>       0.04998374       0.00000000       0.00000000 </v>
     <v>       0.00000000       0.04998374       0.00000000 </v>
     <v>       0.00000000       0.00000000       0.04998374 </v>
    </varray>
   </crystal>
   <varray name="positions" >
    <v>       0.68855646       0.44401957       0.47162783 </v>
    <v>       0.58697175       0.35040873       0.49283742 </v>
    <v>       0.67350102       0.57191367       0.41495038 </v>
    <v>       0.47012632       0.38843514       0.43173528 </v>
    <v>       0.55191547       0.61330502       0.37635869 </v>
    <v>       0.55651535       0.49513327       0.46715955 </v>
    <v>       0.45177976       0.51584465       0.37579662 </v>
    <v>       0.68771309       0.55785585       0.55012068 </v>
    <v>       0.34552568       0.43048026       0.38359670 </v>
    <v>       0.61800130       0.44886914       0.59658186 </v>
    <v>       0.58199328       0.63813586       0.51157360 </v>
    <v>       0.59891789       0.59075141       0.65256714 </v>
    <v>       0.48817427       0.55518462       0.58558514 </v>
    <v>       0.48953412       0.40560776       0.57804833 </v>
    <v>       0.52568456       0.47857829       0.69900261 </v>
    <v>       0.32489335       0.56568761       0.43099388 </v>
    <v>       0.44736026       0.61957000       0.46898619 </v>
    <v>       0.38963530       0.47243769       0.51028479 </v>
    <v>       0.35367632       0.59539895       0.57157494 </v>
    <v>       0.39555985       0.48431675       0.65512798 </v>
   </varray>
  </structure>
  <varray name="forces" >
   <v>      -0.16548250      -0.08015247      -0.08375211 </v>
   <v>      -0.02363381       0.00963103       0.07025547 </v>
   <v>      -0.02162809       0.08870997       0.11942260 </v>
   <v>       0.11092214      -0.09374097       0.06965862 </v>
   <v>      -0.14645589       0.01796803       0.04749706 </v>
   <v>       0.08988992       0.04435083       0.01462630 </v>
   <v>       0.00975747       0.01958991       0.07991688 </v>
   <v>      -0.06196874       0.09543399      -0.00053079 </v>
   <v>      -0.02493640       0.01449678       0.13167898 </v>
   <v>      -0.14058528       0.00062419      -0.04516816 </v>
   <v>       0.04010650      -0.03696531       0.04408007 </v>
   <v>      -0.04616183       0.01488320      -0.08917577 </v>
   <v>       0.00799615      -0.07647998      -0.08212269 </v>
   <v>      -0.05352344      -0.13018780      -0.05286912 </v>
   <v>       0.07465638       0.01149531      -0.06796380 </v>
   <v>       0.00563550      -0.04823246      -0.04041628 </v>
   <v>       0.08252384      -0.12708299       0.06352043 </v>
   <v>       0.24131482       0.25941996      -0.02348147 </v>
   <v>       0.08478963      -0.03538738       0.00107661 </v>
   <v>      -0.06321636       0.05162616      -0.15625284 </v>
  </varray>
  <varray name="stress" >
   <v>      -1.84068422       0.01882534       0.00758588 </v>
   <v>       0.01882534      -1.44173809       0.00337415 </v>
   <v>       0.00758589       0.00337415      -1.89689477 </v>
  </varray>
  <energy>
   <i name="e_fr_energy">    -39.22487358 </i>
   <i name="e_wo_entrp">    -39.22487358 </i>
   <i name="e_0_energy">      0.00000000 </i>
  </energy>
  <time name="totalsc">   15.03   17.06</time>
 </calculation>
 <calculation>
  <scstep>
   <time name="dav">    1.70    1.70</time>
   <time name="total">    2.02    2.28</time>
   <energy>
    <i name="alphaZ">     42.48743731 </i>
    <i name="ewald">  32423.24319312 </i>
    <i name="hartreedc"> -52291.72461995 </i>
    <i name="XCdc">   -228.68578325 </i>
    <i name="pawpsdc">  21477.84093216 </i>
    <i name="pawaedc"> -20588.25598806 </i>
    <i name="eentropy">     -0.00000000 </i>
    <i name="bandstr">  -1618.09799997 </i>
    <i name="atom">  20743.97260173 </i>
    <i name="e_fr_energy">    -39.22022692 </i>
    <i name="e_wo_entrp">    -39.22022692 </i>
    <i name="e_0_energy">    -39.22022692 </i>
   </energy>
  </scstep>
  <scstep>
   <time name="dav">    1.80    1.80</time>
   <time name="total">    2.12    2.13</time>
   <energy>
    <i name="e_fr_energy">    -39.23170917 </i>
    <i name="e_wo_entrp">    -39.23170917 </i>
    <i name="e_0_energy">    -39.23170917 </i>
   </energy>
  </scstep>
  <scstep>
   <time name="dav">    1.79    1.79</time>
   <time name="total">    2.11    2.12</time>
   <energy>
    <i name="e_fr_energy">    -39.23161114 </i>
    <i name="e_wo_entrp">    -39.23161114 </i>
    <i name="e_0_energy">    -39.23161114 </i>
   </energy>
  </scstep>
  <scstep>
   <time name="dav">    1.79    1.80</time>
   <time name="total">    2.11    2.12</time>
   <energy>
    <i name="e_fr_energy">    -39.23129598 </i>
    <i name="e_wo_entrp">    -39.23129598 </i>
    <i name="e_0_energy">    -39.23129598 </i>
   </energy>
  </scstep>
  <scstep>
   <time name="dav">    1.60    1.60</time>
   <time name="total">    1.83    3.47</time>
   <energy>
    <i name="alphaZ">     42.48743731 </i>
    <i name="ewald">  32423.24319312 </i>
    <i name="hartreedc"> -52292.71726359 </i>
    <i name="XCdc">   -228.66801314 </i>
    <i name="pawpsdc">  21470.24482388 </i>
    <i name="pawaedc"> -20580.51078706 </i>
    <i name="eentropy">     -0.00000000 </i>
    <i name="bandstr">  -1617.28330315 </i>
    <i name="atom">  20743.97260173 </i>
    <i name="e_fr_energy">    -39.23131091 </i>
    <i name="e_wo_entrp">    -39.23131091 </i>
    <i name="e_0_energy">    -39.23131091 </i>
   </energy>
  </scstep>
  <structure>
   <crystal>
    <varray name="basis" >
     <v>      20.00650430       0.00000000       0.00000000 </v>
     <v>       0.00000000      20.00650430       0.00000000 </v>
     <v>       0.00000000       0.00000000      20.00650430 </v>
    </varray>
    <i name="volume">   8007.80769902 </i>
    <varray name="rec_basis" >
     <v>       0.04998374       0.00000000       0.00000000 </v>
     <v>       0.00000000       0.04998374       0.00000000 </v>
     <v>       0.00000000       0.00000000       0.04998374 </v>
    </varray>
   </crystal>
   <varray name="positions" >
    <v>       0.68816212       0.44414281       0.47156146 </v>
    <v>       0.58759188       0.34939457       0.49320387 </v>
    <v>       0.67356807       0.57241637       0.41485350 </v>
    <v>       0.46981206       0.38879990       0.43140616 </v>
    <v>       0.55174054       0.61411617       0.37649203 </v>
    <v>       0.55684394       0.49496107       0.46693998 </v>
    <v>       0.45158734       0.51517014       0.37657364 </v>
    <v>       0.68789554       0.55779529       0.55018073 </v>
    <v>       0.34523603       0.43028678       0.38381367 </v>
    <v>       0.61796604       0.44888085       0.59623698 </v>
    <v>       0.58256734       0.63851116       0.51162252 </v>
    <v>       0.59866678       0.59122533       0.65255566 </v>
    <v>       0.48810781       0.55530434       0.58530861 </v>
    <v>       0.48921292       0.40489169       0.57866140 </v>
    <v>       0.52543227       0.47828212       0.69886766 </v>
    <v>       0.32439850       0.56598675       0.43076831 </v>
    <v>       0.44766748       0.61898718       0.46886831 </v>
    <v>       0.39039389       0.47296889       0.50974971 </v>
    <v>       0.35373515       0.59576296       0.57148392 </v>
    <v>       0.39544971       0.48404988       0.65536146 </v>
   </varray>
  </structure>
  <varray name="forces" >
   <v>      -0.14523709      -0.08946350      -0.10159260 </v>
   <v>      -0.10808246       0.06575770       0.06436021 </v>
   <v>      -0.03729206       0.07318498       0.13512090 </v>
   <v>       0.21056899      -0.18669842       0.13059438 </v>
   <v>      -0.14323916      -0.02161749       0.04104867 </v>
   <v>       0.07921630       0.04939795       0.02560282 </v>
   <v>       0.03593501       0.10496571       0.01598432 </v>
   <v>      -0.06915997       0.10744458       0.00115405 </v>
   <v>      -0.06503726       0.01262351       0.11854139 </v>
   <v>      -0.17842890      -0.00616312      -0.03029400 </v>
   <v>       0.01884662      -0.04182098       0.04613577 </v>
   <v>      -0.04954883      -0.01162061      -0.10141350 </v>
   <v>       0.01942957      -0.11574981      -0.03262641 </v>
   <v>      -0.02040511      -0.11435202      -0.10468219 </v>
   <v>       0.09920296       0.03905166      -0.08133111 </v>
   <v>       0.03491167      -0.06006563      -0.03136344 </v>
   <v>       0.05787348      -0.10325470       0.06858159 </v>
   <v>       0.22688862       0.27579473       0.02673583 </v>
   <v>       0.08992706      -0.05717741       0.00534656 </v>
   <v>      -0.05636945       0.07976286      -0.19590324 </v>
  </varray>
  <varray name="stress" >
   <v>      -1.91057922       0.00590618       0.00147388 </v>
   <v>       0.00590618      -1.47829979       0.01728440 </v>
   <v>       0.00147388       0.01728441      -1.91715919 </v>
  </varray>
  <energy>
   <i name="e_fr_energy">    -39.23131091 </i>
   <i name="e_wo_entrp">    -39.23131091 </i>
   <i name="e_0_energy">     -0.00000000 </i>
  </energy>
  <time name="totalsc">   13.11   15.39</time>
 </calculation>
 <calculation>
  <scstep>
   <time name="dav">    1.70    1.70</time>
   <time name="total">    2.01    2.04</time>
   <energy>
    <i name="alphaZ">     42.48743731 </i>
    <i name="ewald">  32511.22115010 </i>
    <i name="hartreedc"> -52380.38994763 </i>
    <i name="XCdc">   -228.56495848 </i>
    <i name="pawpsdc">  21470.16017527 </i>
    <i name="pawaedc"> -20580.42270299 </i>
    <i name="eentropy">      0.00000000 </i>
    <i name="bandstr">  -1617.71754430 </i>
    <i name="atom">  20743.97260173 </i>
    <i name="e_fr_energy">    -39.25378900 </i>
    <i name="e_wo_entrp">    -39.25378900 </i>
    <i name="e_0_energy">    -39.25378900 </i>
   </energy>
  </scstep>
  <scstep>
   <time name="dav">    1.80    1.80</time>
   <time name="total">    2.12    2.13</time>
   <energy>
    <i name="e_fr_energy">    -39.27023845 </i>
    <i name="e_wo_entrp">    -39.27023845 </i>
    <i name="e_0_energy">    -39.27023845 </i>
   </energy>
  </scstep>
  <scstep>
   <time name="dav">    1.78    1.78</time>
   <time name="total">    2.10    2.11</time>
   <energy>
    <i name="e_fr_energy">    -39.27004672 </i>
    <i name="e_wo_entrp">    -39.27004672 </i>
    <i name="e_0_energy">    -39.27004672 </i>
   </energy>
  </scstep>
  <scstep>
   <time name="dav">    1.80    1.80</time>
   <time name="total">    2.11    2.13</time>
   <energy>
    <i name="e_fr_energy">    -39.26966356 </i>
    <i name="e_wo_entrp">    -39.26966356 </i>
    <i name="e_0_energy">    -39.26966356 </i>
   </energy>
  </scstep>
  <scstep>
   <time name="dav">    1.63    1.63</time>
   <time name="total">    1.86    1.87</time>
   <energy>
    <i name="alphaZ">     42.48743731 </i>
    <i name="ewald">  32511.22115010 </i>
    <i name="hartreedc"> -52380.06445553 </i>
    <i name="XCdc">   -228.58279653 </i>
    <i name="pawpsdc">  21482.58468861 </i>
    <i name="pawaedc"> -20593.04201465 </i>
    <i name="eentropy">      0.00000000 </i>
    <i name="bandstr">  -1617.84629844 </i>
    <i name="atom">  20743.97260173 </i>
    <i name="e_fr_energy">    -39.26968741 </i>
    <i name="e_wo_entrp">    -39.26968741 </i>
    <i name="e_0_energy">    -39.26968741 </i>
   </energy>
  </scstep>
  <structure>
   <crystal>
    <varray name="basis" >
     <v>      20.00650430       0.00000000       0.00000000 </v>
     <v>       0.00000000      20.00650430       0.00000000 </v>
     <v>       0.00000000       0.00000000      20.00650430 </v>
    </varray>
    <i name="volume">   8007.80769902 </i>
    <varray name="rec_basis" >
     <v>       0.04998374       0.00000000       0.00000000 </v>
     <v>       0.00000000       0.04998374       0.00000000 </v>
     <v>       0.00000000       0.00000000       0.04998374 </v>
    </varray>
   </crystal>
   <varray name="positions" >
    <v>       0.68735157       0.44389047       0.47113576 </v>
    <v>       0.58760485       0.34895716       0.49369236 </v>
    <v>       0.67347346       0.57302983       0.41529481 </v>
    <v>       0.47038968       0.38834585       0.43167388 </v>
    <v>       0.55108547       0.61458219       0.37673588 </v>
    <v>       0.55736259       0.49503016       0.46688790 </v>
    <v>       0.45159230       0.51510881       0.37715762 </v>
    <v>       0.68775925       0.55815733       0.55022556 </v>
[...]
       <r>    -1.0033     0.0000   121.0000 </r>
       <r>    -0.9647     0.0000   121.0000 </r>
       <r>    -0.9262     0.0000   121.0000 </r>
       <r>    -0.8876     0.0000   122.0000 </r>
       <r>    -0.8491     0.0000   122.0000 </r>
       <r>    -0.8105     0.0000   122.0000 </r>
       <r>    -0.7720     0.0000   123.0000 </r>
       <r>    -0.7335     0.0000   123.0000 </r>
       <r>    -0.6949     0.0000   124.0000 </r>
       <r>    -0.6564     0.0000   125.0000 </r>
       <r>    -0.6178     0.0000   125.0000 </r>
       <r>    -0.5793     0.0000   125.0000 </r>
       <r>    -0.5408     0.0000   126.0000 </r>
       <r>    -0.5022     0.0000   126.0000 </r>
       <r>    -0.4637     0.0000   126.0000 </r>
       <r>    -0.4251     0.0000   127.0000 </r>
       <r>    -0.3866     0.0000   127.0000 </r>
       <r>    -0.3481     0.0000   127.0000 </r>
       <r>    -0.3095     0.0000   128.0000 </r>
       <r>    -0.2710     0.0000   129.0000 </r>
       <r>    -0.2324     0.0000   129.0000 </r>
       <r>    -0.1939     0.0000   129.0000 </r>
       <r>    -0.1554     0.0000   130.0000 </r>
       <r>    -0.1168     0.0000   130.0000 </r>
       <r>    -0.0783     0.0000   130.0000 </r>
       <r>    -0.0397     0.0000   130.0000 </r>
       <r>    -0.0012     0.0000   131.0000 </r>
       <r>     0.0374     0.0000   131.0000 </r>
       <r>     0.0759     0.0000   132.0000 </r>
       <r>     0.1144     0.0000   132.0000 </r>
       <r>     0.1530     0.0000   132.0000 </r>
       <r>     0.1915     0.0000   132.0000 </r>
       <r>     0.2301     0.0000   132.0000 </r>
       <r>     0.2686     0.0000   132.0000 </r>
       <r>     0.3071     0.0000   132.0000 </r>
       <r>     0.3457     0.0000   133.0000 </r>
       <r>     0.3842     0.0000   134.0000 </r>
       <r>     0.4228     0.0000   134.0000 </r>
       <r>     0.4613     0.0000   134.0000 </r>
       <r>     0.4998    25.9456   135.0000 </r>
       <r>     0.5384     0.0000   135.0000 </r>
       <r>     0.5769     0.0000   135.0000 </r>
       <r>     0.6155     0.0000   135.0000 </r>
       <r>     0.6540     0.0000   135.0000 </r>
       <r>     0.6925     0.0000   136.0000 </r>
       <r>     0.7311     0.0000   137.0000 </r>
       <r>     0.7696     0.0000   139.0000 </r>
       <r>     0.8082     0.0000   139.0000 </r>
       <r>     0.8467     0.0000   141.0000 </r>
       <r>     0.8852     0.0000   141.0000 </r>
       <r>     0.9238     0.0000   142.0000 </r>
       <r>     0.9623     0.0000   143.0000 </r>
       <r>     1.0009     0.0000   144.0000 </r>
       <r>     1.0394     0.0000   144.0000 </r>
       <r>     1.0780     0.0000   144.0000 </r>
       <r>     1.1165     0.0000   144.0000 </r>
       <r>     1.1550     0.0000   144.0000 </r>
       <r>     1.1936     0.0000   144.0000 </r>
       <r>     1.2321     0.0000   144.0000 </r>
       <r>     1.2707     0.0000   144.0000 </r>
       <r>     1.3092     0.0000   144.0000 </r>
       <r>     1.3477     0.0000   144.0000 </r>
       <r>     1.3863     0.0000   144.0000 </r>
       <r>     1.4248     0.0000   144.0000 </r>
       <r>     1.4634     0.0000   144.0000 </r>
       <r>     1.5019     0.0000   144.0000 </r>
      </set>
      <set comment="spin 2">
       <r>   -10.0603     0.0000     0.0000 </r>
       <r>   -10.0218     0.0000     0.0000 </r>
       <r>    -9.9833     0.0000     0.0000 </r>
       <r>    -9.9447     0.0000     0.0000 </r>
       <r>    -9.9062     0.0000     0.0000 </r>
       <r>    -9.8676     0.0000     0.0000 </r>
       <r>    -9.8291     0.0000     0.0000 </r>
       <r>    -9.7906     0.0000     0.0000 </r>
       <r>    -9.7520     0.0000     0.0000 </r>
       <r>    -9.7135     0.0000     0.0000 </r>
       <r>    -9.6749     0.0000     0.0000 </r>
       <r>    -9.6364     0.0000     0.0000 </r>
       <r>    -9.5979     0.0000     0.0000 </r>
       <r>    -9.5593     0.0000     0.0000 </r>
       <r>    -9.5208     0.0000     1.0000 </r>
       <r>    -9.4822     0.0000     1.0000 </r>
       <r>    -9.4437     0.0000     1.0000 </r>
       <r>    -9.4052     0.0000     1.0000 </r>
       <r>    -9.3666     0.0000     1.0000 </r>
       <r>    -9.3281     0.0000     1.0000 </r>
       <r>    -9.2895     0.0000     1.0000 </r>
       <r>    -9.2510     0.0000     2.0000 </r>
       <r>    -9.2124     0.0000     2.0000 </r>
       <r>    -9.1739     0.0000     2.0000 </r>
       <r>    -9.1354     0.0000     2.0000 </r>
       <r>    -9.0968     0.0000     3.0000 </r>
       <r>    -9.0583     0.0000     4.0000 </r>
       <r>    -9.0197     0.0000     5.0000 </r>
       <r>    -8.9812     0.0000     6.0000 </r>
       <r>    -8.9427     0.0000     6.0000 </r>
       <r>    -8.9041     0.0000     7.0000 </r>
       <r>    -8.8656     0.0000     7.0000 </r>
       <r>    -8.8270     0.0000     9.0000 </r>
       <r>    -8.7885     0.0000     9.0000 </r>
       <r>    -8.7500     0.0000     9.0000 </r>
       <r>    -8.7114     0.0000    10.0000 </r>
       <r>    -8.6729     0.0000    10.0000 </r>
       <r>    -8.6343     0.0000    10.0000 </r>
       <r>    -8.5958     0.0000    12.0000 </r>
       <r>    -8.5573     0.0000    13.0000 </r>
       <r>    -8.5187     0.0000    14.0000 </r>
       <r>    -8.4802     0.0000    15.0000 </r>
       <r>    -8.4416     0.0000    16.0000 </r>
       <r>    -8.4031     0.0000    17.0000 </r>
       <r>    -8.3645     0.0000    18.0000 </r>
       <r>    -8.3260     0.0000    19.0000 </r>
       <r>    -8.2875     0.0000    20.0000 </r>
       <r>    -8.2489     0.0000    21.0000 </r>
       <r>    -8.2104    25.9465    23.0000 </r>
       <r>    -8.1718     0.0000    23.0000 </r>
       <r>    -8.1333     0.0000    25.0000 </r>
       <r>    -8.0948     0.0000    27.0000 </r>
       <r>    -8.0562     0.0000    28.0000 </r>
       <r>    -8.0177     0.0000    29.0000 </r>
       <r>    -7.9791     0.0000    32.0000 </r>
       <r>    -7.9406     0.0000    32.0000 </r>
       <r>    -7.9021     0.0000    32.0000 </r>
       <r>    -7.8635     0.0000    33.0000 </r>
       <r>    -7.8250     0.0000    35.0000 </r>
       <r>    -7.7864     0.0000    37.0000 </r>
       <r>    -7.7479     0.0000    38.0000 </r>
       <r>    -7.7094     0.0000    39.0000 </r>
       <r>    -7.6708     0.0000    41.0000 </r>
       <r>    -7.6323     0.0000    43.0000 </r>
       <r>    -7.5937     0.0000    45.0000 </r>
       <r>    -7.5552     0.0000    46.0000 </r>
       <r>    -7.5167     0.0000    46.0000 </r>
       <r>    -7.4781     0.0000    47.0000 </r>
       <r>    -7.4396     0.0000    48.0000 </r>
       <r>    -7.4010     0.0000    49.0000 </r>
       <r>    -7.3625     0.0000    51.0000 </r>
       <r>    -7.3239     0.0000    52.0000 </r>
       <r>    -7.2854     0.0000    53.0000 </r>
       <r>    -7.2469     0.0000    55.0000 </r>
       <r>    -7.2083     0.0000    55.0000 </r>
       <r>    -7.1698     0.0000    58.0000 </r>
       <r>    -7.1312     0.0000    59.0000 </r>
       <r>    -7.0927     0.0000    61.0000 </r>
       <r>    -7.0542     0.0000    64.0000 </r>
       <r>    -7.0156     0.0000    66.0000 </r>
       <r>    -6.9771     0.0000    67.0000 </r>
       <r>    -6.9385     0.0000    70.0000 </r>
       <r>    -6.9000     0.0000    72.0000 </r>
       <r>    -6.8615     0.0000    73.0000 </r>
       <r>    -6.8229     0.0000    75.0000 </r>
       <r>    -6.7844     0.0000    77.0000 </r>
       <r>    -6.7458     0.0000    79.0000 </r>
       <r>    -6.7073     0.0000    80.0000 </r>
       <r>    -6.6688     0.0000    82.0000 </r>
       <r>    -6.6302     0.0000    85.0000 </r>
       <r>    -6.5917     0.0000    87.0000 </r>
       <r>    -6.5531     0.0000    89.0000 </r>
       <r>    -6.5146     0.0000    90.0000 </r>
       <r>    -6.4760     0.0000    91.0000 </r>
       <r>    -6.4375     0.0000    92.0000 </r>
       <r>    -6.3990     0.0000    94.0000 </r>
       <r>    -6.3604     0.0000    97.0000 </r>
       <r>    -6.3219     0.0000    99.0000 </r>
       <r>    -6.2833     0.0000   100.0000 </r>
       <r>    -6.2448     0.0000   101.0000 </r>
       <r>    -6.2063     0.0000   102.0000 </r>
       <r>    -6.1677     0.0000   103.0000 </r>
       <r>    -6.1292     0.0000   103.0000 </r>
       <r>    -6.0906     0.0000   104.0000 </r>
       <r>    -6.0521     0.0000   104.0000 </r>
       <r>    -6.0136     0.0000   104.0000 </r>
       <r>    -5.9750     0.0000   104.0000 </r>
       <r>    -5.9365     0.0000   104.0000 </r>
       <r>    -5.8979     0.0000   104.0000 </r>
       <r>    -5.8594     0.0000   104.0000 </r>
       <r>    -5.8209     0.0000   104.0000 </r>
       <r>    -5.7823     0.0000   104.0000 </r>
       <r>    -5.7438     0.0000   104.0000 </r>
       <r>    -5.7052     0.0000   104.0000 </r>
       <r>    -5.6667     0.0000   104.0000 </r>
       <r>    -5.6281     0.0000   104.0000 </r>
       <r>    -5.5896     0.0000   104.0000 </r>
       <r>    -5.5511     0.0000   104.0000 </r>
       <r>    -5.5125     0.0000   104.0000 </r>
       <r>    -5.4740     0.0000   104.0000 </r>
       <r>    -5.4354     0.0000   104.0000 </r>
       <r>    -5.3969     0.0000   104.0000 </r>
       <r>    -5.3584     0.0000   104.0000 </r>
       <r>    -5.3198     0.0000   104.0000 </r>
       <r>    -5.2813     0.0000   104.0000 </r>
       <r>    -5.2427     0.0000   104.0000 </r>
       <r>    -5.2042     0.0000   104.0000 </r>
       <r>    -5.1657     0.0000   104.0000 </r>
       <r>    -5.1271     0.0000   104.0000 </r>
       <r>    -5.0886     0.0000   104.0000 </r>
       <r>    -5.0500    25.2254   104.9722 </r>
       <r>    -5.0115     0.0000   105.0000 </r>
       <r>    -4.9730     0.0000   105.0000 </r>
       <r>    -4.9344     0.0000   105.0000 </r>
       <r>    -4.8959     0.0000   105.0000 </r>
       <r>    -4.8573     0.0000   105.0000 </r>
       <r>    -4.8188     0.0000   106.0000 </r>
       <r>    -4.7803     0.0000   106.0000 </r>
       <r>    -4.7417     0.0000   106.0000 </r>
       <r>    -4.7032     0.0000   106.0000 </r>
       <r>    -4.6646     0.0000   106.0000 </r>
       <r>    -4.6261     0.0000   106.0000 </r>
       <r>    -4.5875     0.0000   107.0000 </r>
       <r>    -4.5490     0.0000   107.0000 </r>
       <r>    -4.5105     0.0000   107.0000 </r>
       <r>    -4.4719     0.0000   107.0000 </r>
       <r>    -4.4334     0.0000   107.0000 </r>
       <r>    -4.3948     0.0000   107.0000 </r>
       <r>    -4.3563     0.0000   107.0000 </r>
       <r>    -4.3178     0.0000   107.0000 </r>
       <r>    -4.2792     0.0000   107.0000 </r>
       <r>    -4.2407     0.0000   107.0000 </r>
       <r>    -4.2021     0.0000   108.0000 </r>
       <r>    -4.1636     0.0000   108.0000 </r>
       <r>    -4.1251     0.0000   108.0000 </r>
       <r>    -4.0865     0.0000   108.0000 </r>
       <r>    -4.0480     0.0000   108.0000 </r>
       <r>    -4.0094     0.0000   109.0000 </r>
       <r>    -3.9709     0.0000   109.0000 </r>
       <r>    -3.9324     0.0000   109.0000 </r>
       <r>    -3.8938     0.0000   109.0000 </r>
       <r>    -3.8553     0.0000   109.0000 </r>
       <r>    -3.8167     0.0000   109.0000 </r>
       <r>    -3.7782     0.0000   109.0000 </r>
       <r>    -3.7396     0.0000   109.0000 </r>
       <r>    -3.7011     0.0000   110.0000 </r>
       <r>    -3.6626     0.0000   110.0000 </r>
       <r>    -3.6240     0.0000   110.0000 </r>
       <r>    -3.5855     0.0000   110.0000 </r>
       <r>    -3.5469     0.0000   110.0000 </r>
       <r>    -3.5084     0.0000   110.0000 </r>
       <r>    -3.4699     0.0000   110.0000 </r>
       <r>    -3.4313     0.0000   110.0000 </r>
       <r>    -3.3928     0.0000   110.0000 </r>
       <r>    -3.3542     0.0000   110.0000 </r>
       <r>    -3.3157     0.0000   110.0000 </r>
       <r>    -3.2772     0.0000   110.0000 </r>
       <r>    -3.2386     0.0000   110.0000 </r>
       <r>    -3.2001     0.0000   110.0000 </r>
       <r>    -3.1615     0.0000   110.0000 </r>
       <r>    -3.1230     0.0000   110.0000 </r>
       <r>    -3.0845     0.0000   110.0000 </r>
       <r>    -3.0459     0.0000   110.0000 </r>
       <r>    -3.0074     0.0000   110.0000 </r>
       <r>    -2.9688     0.0000   110.0000 </r>
       <r>    -2.9303     0.0000   110.0000 </r>
       <r>    -2.8918     0.0000   111.0000 </r>
       <r>    -2.8532     0.0000   111.0000 </r>
       <r>    -2.8147     0.0000   111.0000 </r>
       <r>    -2.7761     0.0000   111.0000 </r>
       <r>    -2.7376     0.0000   112.0000 </r>
       <r>    -2.6990     0.0000   112.0000 </r>
       <r>    -2.6605     0.0000   112.0000 </r>
       <r>    -2.6220     0.0000   112.0000 </r>
       <r>    -2.5834     0.0000   113.0000 </r>
       <r>    -2.5449     0.0000   113.0000 </r>
       <r>    -2.5063     0.0000   113.0000 </r>
       <r>    -2.4678     0.0000   114.0000 </r>
       <r>    -2.4293     0.0000   114.0000 </r>
       <r>    -2.3907     0.0000   114.0000 </r>
       <r>    -2.3522     0.0000   115.0000 </r>
       <r>    -2.3136     0.0000   116.0000 </r>
       <r>    -2.2751     0.0000   116.0000 </r>
       <r>    -2.2366     0.0000   116.0000 </r>
       <r>    -2.1980     0.0000   116.0000 </r>
       <r>    -2.1595     0.0000   116.0000 </r>
       <r>    -2.1209     0.0000   116.0000 </r>
       <r>    -2.0824     0.0000   117.0000 </r>
       <r>    -2.0439     0.0000   117.0000 </r>
       <r>    -2.0053     0.0000   117.0000 </r>
       <r>    -1.9668     0.0000   117.0000 </r>
       <r>    -1.9282     0.0000   117.0000 </r>
       <r>    -1.8897     0.0000   118.0000 </r>
       <r>    -1.8511     0.0000   119.0000 </r>
       <r>    -1.8126     0.0000   119.0000 </r>
       <r>    -1.7741     0.0000   119.0000 </r>
       <r>    -1.7355     0.0000   119.0000 </r>
       <r>    -1.6970     0.0000   119.0000 </r>
       <r>    -1.6584     0.0000   119.0000 </r>
       <r>    -1.6199     0.0000   119.0000 </r>
       <r>    -1.5814     0.0000   119.0000 </r>
       <r>    -1.5428     0.0000   119.0000 </r>
       <r>    -1.5043     0.0000   120.0000 </r>
       <r>    -1.4657     0.0000   120.0000 </r>
       <r>    -1.4272     0.0000   120.0000 </r>
       <r>    -1.3887     0.0000   120.0000 </r>
       <r>    -1.3501     0.0000   120.0000 </r>
       <r>    -1.3116     0.0000   120.0000 </r>
       <r>    -1.2730     0.0000   120.0000 </r>
       <r>    -1.2345     0.0000   120.0000 </r>
       <r>    -1.1960     0.0000   120.0000 </r>
       <r>    -1.1574     0.0000   120.0000 </r>
       <r>    -1.1189     0.0000   120.0000 </r>
       <r>    -1.0803     0.0000   120.0000 </r>
       <r>    -1.0418     0.0000   121.0000 </r>
       <r>    -1.0033     0.0000   121.0000 </r>
       <r>    -0.9647     0.0000   121.0000 </r>
       <r>    -0.9262     0.0000   121.0000 </r>
       <r>    -0.8876     0.0000   122.0000 </r>
       <r>    -0.8491     0.0000   122.0000 </r>
       <r>    -0.8105     0.0000   122.0000 </r>
       <r>    -0.7720     0.0000   123.0000 </r>
       <r>    -0.7335     0.0000   123.0000 </r>
       <r>    -0.6949     0.0000   124.0000 </r>
       <r>    -0.6564     0.0000   125.0000 </r>
       <r>    -0.6178     0.0000   125.0000 </r>
       <r>    -0.5793     0.0000   125.0000 </r>
       <r>    -0.5408     0.0000   126.0000 </r>
       <r>    -0.5022     0.0000   126.0000 </r>
       <r>    -0.4637     0.0000   126.0000 </r>
       <r>    -0.4251     0.0000   127.0000 </r>
       <r>    -0.3866     0.0000   127.0000 </r>
       <r>    -0.3481     0.0000   127.0000 </r>
       <r>    -0.3095     0.0000   128.0000 </r>
       <r>    -0.2710     0.0000   129.0000 </r>
       <r>    -0.2324     0.0000   129.0000 </r>
       <r>    -0.1939     0.0000   129.0000 </r>
       <r>    -0.1554     0.0000   130.0000 </r>
       <r>    -0.1168     0.0000   130.0000 </r>
       <r>    -0.0783     0.0000   130.0000 </r>
       <r>    -0.0397     0.0000   130.0000 </r>
       <r>    -0.0012     0.0000   131.0000 </r>
       <r>     0.0374     0.0000   131.0000 </r>
       <r>     0.0759     0.0000   132.0000 </r>
       <r>     0.1144     0.0000   132.0000 </r>
       <r>     0.1530     0.0000   132.0000 </r>
       <r>     0.1915     0.0000   132.0000 </r>
       <r>     0.2301     0.0000   132.0000 </r>
       <r>     0.2686     0.0000   132.0000 </r>
       <r>     0.3071     0.0000   132.0000 </r>
       <r>     0.3457     0.0000   133.0000 </r>
       <r>     0.3842     0.0000   134.0000 </r>
       <r>     0.4228     0.0000   134.0000 </r>
       <r>     0.4613     0.0000   134.0000 </r>
       <r>     0.4998    25.9454   135.0000 </r>
       <r>     0.5384     0.0000   135.0000 </r>
       <r>     0.5769     0.0000   135.0000 </r>
       <r>     0.6155     0.0000   135.0000 </r>
       <r>     0.6540     0.0000   135.0000 </r>
       <r>     0.6925     0.0000   136.0000 </r>
       <r>     0.7311     0.0000   137.0000 </r>
       <r>     0.7696     0.0000   139.0000 </r>
       <r>     0.8082     0.0000   139.0000 </r>
       <r>     0.8467     0.0000   141.0000 </r>
       <r>     0.8852     0.0000   141.0000 </r>
       <r>     0.9238     0.0000   142.0000 </r>
       <r>     0.9623     0.0000   143.0000 </r>
       <r>     1.0009     0.0000   144.0000 </r>
       <r>     1.0394     0.0000   144.0000 </r>
       <r>     1.0780     0.0000   144.0000 </r>
       <r>     1.1165     0.0000   144.0000 </r>
       <r>     1.1550     0.0000   144.0000 </r>
       <r>     1.1936     0.0000   144.0000 </r>
       <r>     1.2321     0.0000   144.0000 </r>
       <r>     1.2707     0.0000   144.0000 </r>
       <r>     1.3092     0.0000   144.0000 </r>
       <r>     1.3477     0.0000   144.0000 </r>
       <r>     1.3863     0.0000   144.0000 </r>
       <r>     1.4248     0.0000   144.0000 </r>
       <r>     1.4634     0.0000   144.0000 </r>
       <r>     1.5019     0.0000   144.0000 </r>
      </set>
     </set>
    </array>
   </total>
  </dos>
 </calculation>
 <structure name="finalpos" >
  <crystal>
   <varray name="basis" >
    <v>      20.00650430       0.00000000       0.00000000 </v>
    <v>       0.00000000      20.00650430       0.00000000 </v>
    <v>       0.00000000       0.00000000      20.00650430 </v>
   </varray>
   <i name="volume">   8007.80769902 </i>
   <varray name="rec_basis" >
    <v>       0.04998374       0.00000000       0.00000000 </v>
    <v>       0.00000000       0.04998374       0.00000000 </v>
    <v>       0.00000000       0.00000000       0.04998374 </v>
   </varray>
  </crystal>
  <varray name="positions" >
   <v>       0.64571696       0.42653596       0.45095272 </v>
   <v>       0.57913604       0.31470187       0.51537446 </v>
   <v>       0.67168708       0.57199440       0.41426677 </v>
   <v>       0.50444003       0.39705627       0.43844973 </v>
   <v>       0.55071713       0.62700187       0.37181266 </v>
   <v>       0.55392238       0.52587123       0.46791994 </v>
   <v>       0.45639039       0.51816897       0.37069171 </v>
   <v>       0.66850156       0.54539678       0.54866294 </v>
   <v>       0.36898591       0.41545446       0.40431010 </v>
   <v>       0.58872212       0.43911359       0.57878623 </v>
   <v>       0.58538821       0.65332103       0.51430858 </v>
   <v>       0.60384731       0.60247733       0.65895670 </v>
   <v>       0.49240545       0.57485004       0.59155128 </v>
   <v>       0.46981638       0.37714308       0.58530311 </v>
   <v>       0.53087800       0.48716964       0.69328654 </v>
   <v>       0.33121060       0.55602968       0.42882045 </v>
   <v>       0.44876692       0.62446711       0.46647767 </v>
   <v>       0.42049827       0.48477999       0.50967397 </v>
   <v>       0.35404454       0.59375148       0.56700047 </v>
   <v>       0.40096013       0.48664950       0.64790354 </v>
  </varray>
 </structure>
</modeling>
