 vasp.5.3.5 31Mar14 (build Feb 01 2018 12:10:03) gamma-only                     
  
 executed on             LinuxIFC date 2019.03.21  20:33:52
 running on   32 total cores
 distrk:  each k-point on   32 cores,    1 groups
 distr:  one band on NCORES_PER_BAND=   8 cores,    4 groups


--------------------------------------------------------------------------------------------------------


 INCAR:
 POTCAR:    PAW_PBE Ag 02Apr2005                  
 POTCAR:    PAW_PBE Ag 02Apr2005                  
   VRHFIN =Ag : s1 d10                                                          
   LEXCH  = PE                                                                  
   EATOM  =  1037.2675 eV,   76.2370 Ry                                         
                                                                                
   TITEL  = PAW_PBE Ag 02Apr2005                                                
   LULTRA =        F    use ultrasoft PP ?                                      
   IUNSCR =        1    unscreen: 0-lin 1-nonlin 2-no                           
   RPACOR =    2.000    partial core radius                                     
   POMASS =  107.868; ZVAL   =   11.000    mass and valenz                      
   RCORE  =    2.500    outmost cutoff radius                                   
   RWIGS  =    2.840; RWIGS  =    1.503    wigner-seitz radius (au A)           
   ENMAX  =  249.844; ENMIN  =  187.383 eV                                      
   ICORE  =        3    local potential                                         
   LCOR   =        T    correct aug charges                                     
   LPAW   =        T    paw PP                                                  
   EAUG   =  412.496                                                            
   DEXC   =    0.000                                                            
   RMAX   =    2.560    core radius for proj-oper                               
   RAUG   =    1.300    factor for augmentation sphere                          
   RDEP   =    2.576    radius for radial grids                                 
   RDEPT  =    2.072    core radius for aug-charge                              
                                                                                
   Atomic configuration                                                         
   12 entries                                                                   
     n  l   j            E        occ.                                          
     1  0  0.50    -25324.9161   2.0000                                         
     2  0  0.50     -3728.5341   2.0000                                         
     2  1  1.50     -3344.0404   6.0000                                         
     3  0  0.50      -683.5581   2.0000                                         
     3  1  1.50      -557.3225   6.0000                                         
     3  2  2.50      -358.3853  10.0000                                         
     4  0  0.50       -95.0341   2.0000                                         
     4  1  1.50       -58.5511   6.0000                                         
     4  2  2.50        -7.4440  10.0000                                         
     5  0  0.50        -4.4045   1.0000                                         
     5  1  0.50        -1.3606   0.0000                                         
     4  3  2.50        -1.3606   0.0000                                         
   Description                                                                  
     l       E           TYP  RCUT    TYP  RCUT                                 
     2     -7.4439781     23  2.400                                             
     2     -8.8045607     23  2.400                                             
     0     -4.4044681     23  2.400                                             
     0      1.9520038     23  2.400                                             
     1     -1.3605826     23  2.500                                             
     1     27.2116520     23  2.500                                             
     3     -4.0817478     23  2.400                                             
  local pseudopotential read in
  partial core-charges read in
  partial kinetic energy density read in
  atomic valenz-charges read in
  non local Contribution for L=           2  read in
    real space projection operators read in
  non local Contribution for L=           2  read in
    real space projection operators read in
  non local Contribution for L=           0  read in
    real space projection operators read in
  non local Contribution for L=           0  read in
    real space projection operators read in
  non local Contribution for L=           1  read in
    real space projection operators read in
  non local Contribution for L=           1  read in
    real space projection operators read in
    PAW grid and wavefunctions read in
 
   number of l-projection  operators is LMAX  =           6
   number of lm-projection operators is LMMAX =          18
 

 ----------------------------------------------------------------------------- 
|                                                                             |
|  ADVICE TO THIS USER RUNNING 'VASP/VAMP'   (HEAR YOUR MASTER'S VOICE ...):  |
|                                                                             |
|      You have a (more or less) 'large supercell' and for larger cells       |
|      it might be more efficient to use real space projection opertators     |
|      So try LREAL= Auto  in the INCAR   file.                               |
|      Mind: At the moment your POTCAR file does not contain real space       |
|       projectors, and has to be modified,  BUT if you                       |
|      want to do an extremely  accurate calculation you might also keep the  |
|      reciprocal projection scheme          (i.e. LREAL=.FALSE.)             |
|                                                                             |
 ----------------------------------------------------------------------------- 

  PAW_PBE Ag 02Apr2005                  :
 energy of atom  1       EATOM=-1037.2675
 kinetic energy error for atom=    0.0689 (will be added to EATOM!!)
 
 
 POSCAR: Ag18, -744.0 <s> Ag </s>                
  positions in direct lattice
  No initial velocities read in
 exchange correlation table for  LEXCH =        8
   RHO(1)=    0.500       N(1)  =     2000
   RHO(2)=  100.500       N(2)  =     4000
 


--------------------------------------------------------------------------------------------------------


 ion  position               nearest neighbor table
   1  0.500  0.500  0.381-   4 2.83  12 2.83  10 2.88  11 2.88   5 2.88  16 2.88
   2  0.500  0.613  0.636-   6 2.83  17 2.83   8 2.86  18 2.86  15 2.87
   3  0.330  0.500  0.500-  18 2.79  16 2.85   5 2.85   6 2.85   7 2.85
   4  0.500  0.358  0.397-   1 2.83   7 2.85   9 2.85  11 2.85  16 2.85
   5  0.375  0.572  0.385-   3 2.85   6 2.85  12 2.85   1 2.88  16 2.88
   6  0.426  0.606  0.515-   2 2.83  12 2.85   5 2.85   3 2.85  18 2.89  17 2.94
   7  0.426  0.394  0.515-  14 2.83   4 2.85  16 2.85   3 2.85  18 2.89   9 2.94
   8  0.587  0.500  0.614-  13 2.79  15 2.82  14 2.86   2 2.86   9 2.89  17 2.89  18 3.43
   9  0.574  0.394  0.515-  14 2.83   4 2.85  11 2.85  13 2.85   8 2.89   7 2.94
  10  0.625  0.572  0.385-  13 2.85  17 2.85  12 2.85   1 2.88  11 2.88
  11  0.625  0.428  0.385-  13 2.85   9 2.85   4 2.85   1 2.88  10 2.88
  12  0.500  0.642  0.397-   1 2.83   6 2.85  17 2.85  10 2.85   5 2.85
  13  0.670  0.500  0.500-   8 2.79  10 2.85  11 2.85   9 2.85  17 2.85
  14  0.500  0.387  0.636-   7 2.83   9 2.83   8 2.86  18 2.86  15 2.87
  15  0.500  0.500  0.726-   8 2.82  18 2.82  14 2.87   2 2.87
  16  0.375  0.428  0.385-   3 2.85   7 2.85   4 2.85   1 2.88   5 2.88
  17  0.574  0.606  0.515-   2 2.83  12 2.85  10 2.85  13 2.85   8 2.89   6 2.94
  18  0.413  0.500  0.614-   3 2.79  15 2.82  14 2.86   2 2.86   6 2.89   7 2.89   8 3.43
 
  LATTYP: Found a simple cubic cell.
 ALAT       =    19.8456930000
  
  Lattice vectors:
  
 A1 = (  19.8456930000,   0.0000000000,   0.0000000000)
 A2 = (   0.0000000000,  19.8456930000,   0.0000000000)
 A3 = (   0.0000000000,   0.0000000000,  19.8456930000)


Analysis of symmetry for initial positions (statically):
=====================================================================
 Subroutine PRICEL returns:
 Original cell was already a primitive cell.
 

 Routine SETGRP: Setting up the symmetry group for a 
 simple cubic supercell.


 Subroutine GETGRP returns: Found  4 space group operations
 (whereof  4 operations were pure point group operations)
 out of a pool of 48 trial point group operations.


The static configuration has the point symmetry C_2v.


Analysis of symmetry for dynamics (positions and initial velocities):
=====================================================================
 Subroutine PRICEL returns:
 Original cell was already a primitive cell.
 

 Routine SETGRP: Setting up the symmetry group for a 
 simple cubic supercell.


 Subroutine GETGRP returns: Found  4 space group operations
 (whereof  4 operations were pure point group operations)
 out of a pool of 48 trial point group operations.


The dynamic configuration has the point symmetry C_2v.


Analysis of magnetic symmetry:
=====================================================================
 Subroutine PRICEL returns:
 Original cell was already a primitive cell.
 

 Subroutine MAGSYM returns: Found  4 space group operations
 (whereof  4 operations were pure point group operations)
 out of a pool of  4 trial space group operations
 (whereof  4 operations were pure point group operations)
 and found also     1 'primitive' translations


The magnetic configuration has the point symmetry C_2v.
 
 
 KPOINTS: Gamma-point only                        
  k-points in reciprocal lattice
Space group operators:
 irot       det(A)        alpha          n_x          n_y          n_z        tau_x        tau_y        tau_z
    1     1.000000     0.000000     1.000000     0.000000     0.000000     0.000000     0.000000     0.000000
    2     1.000000   180.000000     0.000000     0.000000     1.000000     0.000000     0.000000     0.000000
    3    -1.000000   180.000000     1.000000     0.000000     0.000000     0.000000     0.000000     0.000000
    4    -1.000000   180.000000     0.000000     1.000000     0.000000     0.000000     0.000000     0.000000


--------------------------------------------------------------------------------------------------------




 Dimension of arrays:
   k-points           NKPTS =      1   k-points in BZ     NKDIM =      1   number of bands    NBANDS=    128
   number of dos      NEDOS =    301   number of ions     NIONS =     18
   non local maximal  LDIM  =      6   non local SUM 2l+1 LMDIM =     18
   total plane-waves  NPLWV = 512000
   max r-space proj   IRMAX =      1   max aug-charges    IRDMAX=   3420
   dimension x,y,z NGX =    80 NGY =   80 NGZ =   80
   dimension x,y,z NGXF=   160 NGYF=  160 NGZF=  160
   support grid    NGXF=   160 NGYF=  160 NGZF=  160
   ions per type =              18
 NGX,Y,Z   is equivalent  to a cutoff of   6.70,  6.70,  6.70 a.u.
 NGXF,Y,Z  is equivalent  to a cutoff of  13.40, 13.40, 13.40 a.u.


 I would recommend the setting:
   dimension x,y,z NGX =    77 NGY =   77 NGZ =   77
 SYSTEM =  unknown system                          
 POSCAR =  Ag18, -744.0 <s> Ag </s>                

 Startparameter for this run:
   NWRITE =      2    write-flag & timer
   PREC   = normal    normal or accurate (medium, high low for compatibility)
   ISTART =      0    job   : 0-new  1-cont  2-samecut
   ICHARG =      2    charge: 1-file 2-atom 10-const
   ISPIN  =      2    spin polarized calculation?
   LNONCOLLINEAR =      F non collinear calculations
   LSORBIT =      F    spin-orbit coupling
   INIWAV =      1    electr: 0-lowe 1-rand  2-diag
   LASPH  =      F    aspherical Exc in radial PAW
   METAGGA=      F    non-selfconsistent MetaGGA calc.

 Electronic Relaxation 1
   ENCUT  =  249.8 eV  18.36 Ry    4.29 a.u.  25.58 25.58 25.58*2*pi/ulx,y,z
   ENINI  =  249.8     initial cutoff
   ENAUG  =  412.5 eV  augmentation charge cutoff
   NELM   =     60;   NELMIN=  2; NELMDL= -5     # of ELM steps 
   EDIFF  = 0.1E-03   stopping-criterion for ELM
   LREAL  =      F    real-space projection
   NLSPLINE    = F    spline interpolate recip. space projectors
   LCOMPAT=      F    compatible to vasp.4.4
   GGA_COMPAT  = T    GGA compatible to vasp.4.4-vasp.4.6
   LMAXPAW     = -100 max onsite density
   LMAXMIX     =    2 max onsite mixed and CHGCAR
   VOSKOWN=      0    Vosko Wilk Nusair interpolation
   ROPT   =    0.00000
 Ionic relaxation
   EDIFFG = 0.1E-02   stopping-criterion for IOM
   NSW    =   1000    number of steps for IOM
   NBLOCK =      1;   KBLOCK =   1000    inner block; outer block 
   IBRION =      2    ionic relax: 0-MD 1-quasi-New 2-CG
   NFREE  =      1    steps in history (QN), initial steepest desc. (CG)
   ISIF   =      2    stress and relaxation
   IWAVPR =     11    prediction:  0-non 1-charg 2-wave 3-comb
   ISYM   =      2    0-nonsym 1-usesym 2-fastsym
   LCORR  =      T    Harris-Foulkes like correction to forces

   POTIM  = 0.1000    time-step for ionic-motion
   TEIN   =    0.0    initial temperature
   TEBEG  =    0.0;   TEEND  =   0.0 temperature during run
   SMASS  =  -3.00    Nose mass-parameter (am)
   estimated Nose-frequenzy (Omega)   =  0.10E-29 period in steps =****** mass=  -0.900E-26a.u.
   SCALEE = 1.0000    scale energy and forces
   NPACO  =    256;   APACO  = 16.0  distance and # of slots for P.C.
   PSTRESS=    0.0 pullay stress

  Mass of Ions in am
   POMASS = 107.87
  Ionic Valenz
   ZVAL   =  11.00
  Atomic Wigner-Seitz radii
   RWIGS  =  -1.00
  virtual crystal weights 
   VCA    =   1.00
   NELECT =     198.0000    total number of electrons
   NUPDOWN=      -1.0000    fix difference up-down

 DOS related values:
   EMIN   =  10.00;   EMAX   =-10.00  energy-range for DOS
   EFERMI =   0.00
   ISMEAR =     0;   SIGMA  =   0.00  broadening in eV -4-tet -1-fermi 0-gaus

 Electronic relaxation 2 (details)
   IALGO  =     38    algorithm
   LDIAG  =      T    sub-space diagonalisation (order eigenvalues)
   LSUBROT=      F    optimize rotation matrix (better conditioning)
   TURBO    =      0    0=normal 1=particle mesh
   IRESTART =      0    0=no restart 2=restart with 2 vectors
   NREBOOT  =      0    no. of reboots
   NMIN     =      0    reboot dimension
   EREF     =   0.00    reference energy to select bands
   IMIX   =      4    mixing-type and parameters
     AMIX     =   0.40;   BMIX     =  1.00
     AMIX_MAG =   1.60;   BMIX_MAG =  1.00
     AMIN     =   0.10
     WC   =   100.;   INIMIX=   1;  MIXPRE=   1;  MAXMIX= -45

 Intra band minimization:
   WEIMIN = 0.0010     energy-eigenvalue tresh-hold
   EBREAK =  0.20E-06  absolut break condition
   DEPER  =   0.30     relativ break condition  

   TIME   =   0.40     timestep for ELM

  volume/ion in A,a.u.               =     434.24      2930.37
  Fermi-wavevector in a.u.,A,eV,Ry     =   0.480799  0.908579  3.145228  0.231168
  Thomas-Fermi vector in A             =   1.478549
 
 Write flags
   LWAVE  =      F    write WAVECAR
   LCHARG =      F    write CHGCAR
   LVTOT  =      F    write LOCPOT, total local potential
   LVHAR  =      F    write LOCPOT, Hartree potential only
   LELF   =      F    write electronic localiz. function (ELF)
   LORBIT =      0    0 simple, 1 ext, 2 COOP (PROOUT)


 Dipole corrections
   LMONO  =      F    monopole corrections only (constant potential shift)
   LDIPOL =      F    correct potential (dipole corrections)
   IDIPOL =      0    1-x, 2-y, 3-z, 4-all directions 
   EPSILON=  1.0000000 bulk dielectric constant

 Exchange correlation treatment:
   GGA     =    PE    GGA type
   LEXCH   =     8    internal setting for exchange type
   VOSKOWN=      0    Vosko Wilk Nusair interpolation
   LHFCALC =     F    Hartree Fock is set to
   LHFONE  =     F    Hartree Fock one center treatment
   AEXX    =    0.0000 exact exchange contribution

 Linear response parameters
   LEPSILON=     F    determine dielectric tensor
   LRPA    =     F    only Hartree local field effects (RPA)
   LNABLA  =     F    use nabla operator in PAW spheres
   LVEL    =     F    velocity operator in full k-point grid
   LINTERFAST=   F  fast interpolation
   KINTER  =     0    interpolate to denser k-point grid
   CSHIFT  =0.1000    complex shift for real part using Kramers Kronig
   OMEGAMAX=  -1.0    maximum frequency
   DEG_THRESHOLD= 0.2000000E-02 threshold for treating states as degnerate
   RTIME   =    0.100 relaxation time in fs

 Orbital magnetization related:
   ORBITALMAG=     F  switch on orbital magnetization
   LCHIMAG   =     F  perturbation theory with respect to B field
   DQ        =  0.001000  dq finite difference perturbation B field



--------------------------------------------------------------------------------------------------------


 conjugate gradient relaxation of ions
 charge density and potential will be updated during run
 spin polarized calculation
 Variant of blocked Davidson
 Davidson routine will perform the subspace rotation
 perform sub-space diagonalisation
    after iterative eigenvector-optimisation
 modified Broyden-mixing scheme, WC =      100.0
 initial mixing is a Kerker type mixing with AMIX =  0.4000 and BMIX =      1.0000
 Hartree-type preconditioning will be used
 using additional bands           29
 reciprocal scheme for non local part
 use partial core corrections
 calculate Harris-corrections to forces 
   (improved forces if not selfconsistent)
 use gradient corrections 
 use of overlap-Matrix (Vanderbilt PP)
 Gauss-broadening in eV      SIGMA  =   0.00


--------------------------------------------------------------------------------------------------------


  energy-cutoff  :      249.84
  volume of cell :     7816.26
      direct lattice vectors                 reciprocal lattice vectors
    19.845693000  0.000000000  0.000000000     0.050388767  0.000000000  0.000000000
     0.000000000 19.845693000  0.000000000     0.000000000  0.050388767  0.000000000
     0.000000000  0.000000000 19.845693000     0.000000000  0.000000000  0.050388767

  length of vectors
    19.845693000 19.845693000 19.845693000     0.050388767  0.050388767  0.050388767


 
 k-points in units of 2pi/SCALE and weight: Gamma-point only                        
   0.00000000  0.00000000  0.00000000       1.000
 
 k-points in reciprocal lattice and weights: Gamma-point only                        
   0.00000000  0.00000000  0.00000000       1.000
 
 position of ions in fractional coordinates (direct lattice) 
   0.50000000  0.50000000  0.38136086
   0.50000000  0.61301011  0.63599399
   0.32999682  0.50000000  0.50040160
   0.50000000  0.35823624  0.39713295
   0.37459753  0.57246227  0.38492390
   0.42580743  0.60632982  0.51459400
   0.42580743  0.39367018  0.51459400
   0.58653752  0.50000000  0.61360178
   0.57419257  0.39367018  0.51459400
   0.62540247  0.57246227  0.38492390
   0.62540247  0.42753773  0.38492390
   0.50000000  0.64176376  0.39713295
   0.67000318  0.50000000  0.50040160
   0.50000000  0.38698989  0.63599399
   0.50000000  0.50000000  0.72630689
   0.37459753  0.42753773  0.38492390
   0.57419257  0.60632982  0.51459400
   0.41346248  0.50000000  0.61360178
 
 position of ions in cartesian coordinates  (Angst):
   9.92284650  9.92284650  7.56837056
   9.92284650 12.16561050 12.62174156
   6.54901550  9.92284650  9.93081656
   9.92284650  7.10944650  7.88137856
   7.43414750 11.36091050  7.63908156
   8.45044350 12.03303550 10.21247456
   8.45044350  7.81265750 10.21247456
  11.64024350  9.92284650 12.17735256
  11.39524950  7.81265750 10.21247456
  12.41154550 11.36091050  7.63908156
  12.41154550  8.48478250  7.63908156
   9.92284650 12.73624650  7.88137856
  13.29667750  9.92284650  9.93081656
   9.92284650  7.68008250 12.62174156
   9.92284650  9.92284650 14.41406356
   7.43414750  8.48478250  7.63908156
  11.39524950 12.03303550 10.21247456
   8.20544950  9.92284650 12.17735256
 


--------------------------------------------------------------------------------------------------------


 use parallel FFT for wavefunctions z direction half grid
 k-point  1 :   0.0000 0.0000 0.0000  plane waves:   35160

 maximum and minimum number of plane-waves per node :      4399     4390

 maximum number of plane-waves:     35160
 maximum index in each direction: 
   IXMAX=   25   IYMAX=   25   IZMAX=   25
   IXMIN=  -25   IYMIN=  -25   IZMIN=    0

 WARNING: aliasing errors must be expected set NGX to 102 to avoid them
 WARNING: aliasing errors must be expected set NGY to 102 to avoid them
 WARNING: aliasing errors must be expected set NGZ to 102 to avoid them
 aliasing errors are usually negligible using standard VASP settings
 and one can safely disregard these warnings

 parallel 3D FFT for wavefunctions:
    minimum data exchange during FFTs selected (reduces bandwidth)
 parallel 3D FFT for charge:
    minimum data exchange during FFTs selected (reduces bandwidth)


 total amount of memory used by VASP on root node    56696. kBytes
========================================================================

   base      :      30000. kBytes
   nonl-proj :       1899. kBytes
   fftplans  :       5770. kBytes
   grid      :      14451. kBytes
   one-center:         46. kBytes
   wavefun   :       4530. kBytes
 
     INWAV:  cpu time    0.00: real time    0.00
 Broyden mixing: mesh for mixing (old mesh)
   NGX = 51   NGY = 51   NGZ = 51
  (NGX  =160   NGY  =160   NGZ  =160)
  gives a total of 132651 points

 initial charge density was supplied:
 charge density of overlapping atoms calculated
 number of electron     198.0000000 magnetization      18.0000000
 keeping initial charge density in first step


--------------------------------------------------------------------------------------------------------


 Maximum index for augmentation-charges          243 (set IRDMAX)


--------------------------------------------------------------------------------------------------------


 First call to EWALD:  gamma=   0.089
 Maximum number of real-space cells 3x 3x 3
 Maximum number of reciprocal cells 3x 3x 3

 FEWALD executed in parallel
    FEWALD:  cpu time    0.00: real time    0.00


----------------------------------------- Iteration    1(   1)  ---------------------------------------


    POTLOK:  cpu time    0.24: real time    0.24
    SETDIJ:  cpu time    0.01: real time    0.01
     EDDAV:  cpu time    1.41: real time    1.41
       DOS:  cpu time    0.00: real time    0.00
    --------------------------------------------
      LOOP:  cpu time    1.66: real time    1.73

 eigenvalue-minimisations  :   512
 total energy-change (2. order) : 0.1732137E+04  (-0.3415117E+04)
 number of electron     198.0000000 magnetization      18.0000000
 augmentation part      198.0000000 magnetization      18.0000000

 Free energy of the ion-electron system (eV)
  ---------------------------------------------------
  alpha Z        PSCENC =        35.25822010
  Ewald energy   TEWEN  =     25685.76678276
  -Hartree energ DENC   =    -43590.46304004
  -exchange      EXHF   =         0.00000000
  -V(xc)+E(xc)   XCENC  =      -201.39141853
  PAW double counting   =     18060.69920525   -17230.76295982
  entropy T*S    EENTRO =         0.00000000
  eigenvalues    EBANDS =       303.45534872
  atomic energy  EATOM  =     18669.57534155
  ---------------------------------------------------
  free energy    TOTEN  =      1732.13748000 eV

  energy without entropy =     1732.13748000  energy(sigma->0) =     1732.13748000


--------------------------------------------------------------------------------------------------------




----------------------------------------- Iteration    1(   2)  ---------------------------------------


     EDDAV:  cpu time    2.30: real time    2.31
       DOS:  cpu time    0.00: real time    0.00
    --------------------------------------------
      LOOP:  cpu time    2.30: real time    2.31

 eigenvalue-minimisations  :   920
 total energy-change (2. order) :-0.1243698E+04  (-0.1105468E+04)
 number of electron     198.0000000 magnetization      18.0000000
 augmentation part      198.0000000 magnetization      18.0000000

 Free energy of the ion-electron system (eV)
  ---------------------------------------------------
  alpha Z        PSCENC =        35.25822010
  Ewald energy   TEWEN  =     25685.76678276
  -Hartree energ DENC   =    -43590.46304004
  -exchange      EXHF   =         0.00000000
  -V(xc)+E(xc)   XCENC  =      -201.39141853
  PAW double counting   =     18060.69920525   -17230.76295982
  entropy T*S    EENTRO =         0.00000000
  eigenvalues    EBANDS =      -940.24288944
  atomic energy  EATOM  =     18669.57534155
  ---------------------------------------------------
  free energy    TOTEN  =       488.43924184 eV

  energy without entropy =      488.43924184  energy(sigma->0) =      488.43924184


--------------------------------------------------------------------------------------------------------




----------------------------------------- Iteration    1(   3)  ---------------------------------------


     EDDAV:  cpu time    1.90: real time    1.90
       DOS:  cpu time    0.00: real time    0.00
    --------------------------------------------
      LOOP:  cpu time    1.90: real time    1.91

 eigenvalue-minimisations  :   720
 total energy-change (2. order) :-0.4897666E+03  (-0.4530488E+03)
 number of electron     198.0000000 magnetization      18.0000000
 augmentation part      198.0000000 magnetization      18.0000000

 Free energy of the ion-electron system (eV)
  ---------------------------------------------------
  alpha Z        PSCENC =        35.25822010
  Ewald energy   TEWEN  =     25685.76678276
  -Hartree energ DENC   =    -43590.46304004
  -exchange      EXHF   =         0.00000000
  -V(xc)+E(xc)   XCENC  =      -201.39141853
  PAW double counting   =     18060.69920525   -17230.76295982
  entropy T*S    EENTRO =         0.00000000
  eigenvalues    EBANDS =     -1430.00950525
  atomic energy  EATOM  =     18669.57534155
  ---------------------------------------------------
  free energy    TOTEN  =        -1.32737397 eV

  energy without entropy =       -1.32737397  energy(sigma->0) =       -1.32737397


--------------------------------------------------------------------------------------------------------




----------------------------------------- Iteration    1(   4)  ---------------------------------------


     EDDAV:  cpu time    1.57: real time    1.57
       DOS:  cpu time    0.00: real time    0.00
    --------------------------------------------
      LOOP:  cpu time    1.57: real time    2.29

 eigenvalue-minimisations  :   568
 total energy-change (2. order) :-0.3389699E+02  (-0.3337555E+02)
 number of electron     198.0000000 magnetization      18.0000000
 augmentation part      198.0000000 magnetization      18.0000000

 Free energy of the ion-electron system (eV)
  ---------------------------------------------------
  alpha Z        PSCENC =        35.25822010
  Ewald energy   TEWEN  =     25685.76678276
  -Hartree energ DENC   =    -43590.46304004
  -exchange      EXHF   =         0.00000000
  -V(xc)+E(xc)   XCENC  =      -201.39141853
  PAW double counting   =     18060.69920525   -17230.76295982
  entropy T*S    EENTRO =         0.00000000
  eigenvalues    EBANDS =     -1463.90649295
  atomic energy  EATOM  =     18669.57534155
  ---------------------------------------------------
  free energy    TOTEN  =       -35.22436167 eV

  energy without entropy =      -35.22436167  energy(sigma->0) =      -35.22436167


--------------------------------------------------------------------------------------------------------




----------------------------------------- Iteration    1(   5)  ---------------------------------------


     EDDAV:  cpu time    1.57: real time    1.57
       DOS:  cpu time    0.00: real time    0.00
    CHARGE:  cpu time    0.17: real time    0.17
    MIXING:  cpu time    0.01: real time    0.01
    --------------------------------------------
      LOOP:  cpu time    1.75: real time    1.75

 eigenvalue-minimisations  :   568
 total energy-change (2. order) :-0.5515209E+00  (-0.5510978E+00)
 number of electron     198.0000353 magnetization      15.3761832
 augmentation part       93.5980709 magnetization      15.7417128

 Broyden mixing:
  rms(total) = 0.22321E+01    rms(broyden)= 0.22317E+01
  rms(prec ) = 0.22807E+01
  weight for this iteration     100.00

 Free energy of the ion-electron system (eV)
  ---------------------------------------------------
  alpha Z        PSCENC =        35.25822010
  Ewald energy   TEWEN  =     25685.76678276
  -Hartree energ DENC   =    -43590.46304004
  -exchange      EXHF   =         0.00000000
  -V(xc)+E(xc)   XCENC  =      -201.39141853
  PAW double counting   =     18060.69920525   -17230.76295982
  entropy T*S    EENTRO =         0.00000000
  eigenvalues    EBANDS =     -1464.45801380
  atomic energy  EATOM  =     18669.57534155
  ---------------------------------------------------
  free energy    TOTEN  =       -35.77588252 eV

  energy without entropy =      -35.77588252  energy(sigma->0) =      -35.77588252


--------------------------------------------------------------------------------------------------------




----------------------------------------- Iteration    1(   6)  ---------------------------------------


    POTLOK:  cpu time    0.22: real time    0.23
    SETDIJ:  cpu time    0.01: real time    0.01
     EDDAV:  cpu time    1.50: real time    1.49
       DOS:  cpu time    0.00: real time    0.00
    CHARGE:  cpu time    0.16: real time    0.17
    MIXING:  cpu time    0.01: real time    0.01
    --------------------------------------------
      LOOP:  cpu time    1.90: real time    1.91

 eigenvalue-minimisations  :   528
 total energy-change (2. order) : 0.2779153E+02  (-0.7859573E+01)
 number of electron     198.0000362 magnetization      13.6333035
 augmentation part       95.4817202 magnetization      10.2774594

 Broyden mixing:
  rms(total) = 0.11051E+01    rms(broyden)= 0.11049E+01
  rms(prec ) = 0.11300E+01
  weight for this iteration     100.00

 eigenvalues of (default mixing * dielectric matrix)
  average eigenvalue GAMMA=   0.8391
  0.8391

 Free energy of the ion-electron system (eV)
  ---------------------------------------------------
  alpha Z        PSCENC =        35.25822010
  Ewald energy   TEWEN  =     25685.76678276
  -Hartree energ DENC   =    -43532.30995741
  -exchange      EXHF   =         0.00000000
  -V(xc)+E(xc)   XCENC  =      -187.14241090
  PAW double counting   =     18515.98221315   -17696.43739005
  entropy T*S    EENTRO =         0.00000000
  eigenvalues    EBANDS =     -1498.67715012
  atomic energy  EATOM  =     18669.57534155
  ---------------------------------------------------
  free energy    TOTEN  =        -7.98435092 eV

  energy without entropy =       -7.98435092  energy(sigma->0) =       -7.98435092


--------------------------------------------------------------------------------------------------------




----------------------------------------- Iteration    1(   7)  ---------------------------------------


    POTLOK:  cpu time    0.22: real time    0.23
    SETDIJ:  cpu time    0.01: real time    0.01
     EDDAV:  cpu time    1.54: real time    1.54
       DOS:  cpu time    0.00: real time    0.00
    CHARGE:  cpu time    0.17: real time    0.17
    MIXING:  cpu time    0.00: real time    0.01
    --------------------------------------------
      LOOP:  cpu time    1.94: real time    1.95

 eigenvalue-minimisations  :   552
 total energy-change (2. order) : 0.4153512E+01  (-0.4426894E+00)
 number of electron     198.0000362 magnetization      11.2269222
 augmentation part       95.4166173 magnetization       8.0788579

 Broyden mixing:
  rms(total) = 0.67273E+00    rms(broyden)= 0.67271E+00
  rms(prec ) = 0.68886E+00
  weight for this iteration     100.00

 eigenvalues of (default mixing * dielectric matrix)
  average eigenvalue GAMMA=   0.8997
  0.7352  1.0642

 Free energy of the ion-electron system (eV)
  ---------------------------------------------------
  alpha Z        PSCENC =        35.25822010
  Ewald energy   TEWEN  =     25685.76678276
  -Hartree energ DENC   =    -43574.76700804
  -exchange      EXHF   =         0.00000000
  -V(xc)+E(xc)   XCENC  =      -183.26488605
  PAW double counting   =     18801.66483881   -17989.01464972
  entropy T*S    EENTRO =         0.00000000
  eigenvalues    EBANDS =     -1449.04947784
  atomic energy  EATOM  =     18669.57534155
  ---------------------------------------------------
  free energy    TOTEN  =        -3.83083843 eV

  energy without entropy =       -3.83083843  energy(sigma->0) =       -3.83083843


--------------------------------------------------------------------------------------------------------




----------------------------------------- Iteration    1(   8)  ---------------------------------------


    POTLOK:  cpu time    0.22: real time    0.22
    SETDIJ:  cpu time    0.01: real time    0.01
     EDDAV:  cpu time    1.52: real time    1.52
       DOS:  cpu time    0.00: real time    0.00
    CHARGE:  cpu time    0.17: real time    0.17
    MIXING:  cpu time    0.01: real time    0.01
    --------------------------------------------
      LOOP:  cpu time    1.93: real time    1.93

 eigenvalue-minimisations  :   544
 total energy-change (2. order) :-0.4503058E+01  (-0.2083372E+00)
 number of electron     198.0000361 magnetization       9.1434391
 augmentation part       95.2187108 magnetization       6.1890202

 Broyden mixing:
  rms(total) = 0.37772E+00    rms(broyden)= 0.37771E+00
  rms(prec ) = 0.38391E+00
  weight for this iteration     100.00

 eigenvalues of (default mixing * dielectric matrix)
  average eigenvalue GAMMA=   1.1888
  0.6224  0.9250  2.0191

 Free energy of the ion-electron system (eV)
  ---------------------------------------------------
  alpha Z        PSCENC =        35.25822010
  Ewald energy   TEWEN  =     25685.76678276
  -Hartree energ DENC   =    -43623.04173894
  -exchange      EXHF   =         0.00000000
  -V(xc)+E(xc)   XCENC  =      -185.92912550
  PAW double counting   =     19110.87926372   -18304.89707383
  entropy T*S    EENTRO =         0.00000000
  eigenvalues    EBANDS =     -1395.94556611
  atomic energy  EATOM  =     18669.57534155
  ---------------------------------------------------
  free energy    TOTEN  =        -8.33389625 eV

  energy without entropy =       -8.33389625  energy(sigma->0) =       -8.33389625


--------------------------------------------------------------------------------------------------------




----------------------------------------- Iteration    1(   9)  ---------------------------------------


    POTLOK:  cpu time    0.22: real time    0.22
    SETDIJ:  cpu time    0.01: real time    0.01
     EDDAV:  cpu time    1.49: real time    1.49
       DOS:  cpu time    0.00: real time    0.00
    CHARGE:  cpu time    0.17: real time    0.17
    MIXING:  cpu time    0.01: real time    0.01
    --------------------------------------------
      LOOP:  cpu time    1.90: real time    1.90

 eigenvalue-minimisations  :   528
 total energy-change (2. order) :-0.5638567E+01  (-0.2394144E+00)
 number of electron     198.0000361 magnetization       7.2542521
 augmentation part       95.1569737 magnetization       4.5108033

 Broyden mixing:
  rms(total) = 0.23022E+00    rms(broyden)= 0.23021E+00
  rms(prec ) = 0.23531E+00
  weight for this iteration     100.00

 eigenvalues of (default mixing * dielectric matrix)
  average eigenvalue GAMMA=   1.2632
  0.6188  0.8250  1.8045  1.8045

 Free energy of the ion-electron system (eV)
  ---------------------------------------------------
  alpha Z        PSCENC =        35.25822010
  Ewald energy   TEWEN  =     25685.76678276
  -Hartree energ DENC   =    -43644.89757395
  -exchange      EXHF   =         0.00000000
  -V(xc)+E(xc)   XCENC  =      -189.70797199
  PAW double counting   =     19274.30471470   -18471.65809338
  entropy T*S    EENTRO =         0.00000000
  eigenvalues    EBANDS =     -1372.61388315
  atomic energy  EATOM  =     18669.57534155
  ---------------------------------------------------
  free energy    TOTEN  =       -13.97246335 eV

  energy without entropy =      -13.97246335  energy(sigma->0) =      -13.97246335


--------------------------------------------------------------------------------------------------------




----------------------------------------- Iteration    1(  10)  ---------------------------------------


    POTLOK:  cpu time    0.22: real time    0.22
    SETDIJ:  cpu time    0.01: real time    0.01
     EDDAV:  cpu time    1.49: real time    1.49
       DOS:  cpu time    0.00: real time    0.00
    CHARGE:  cpu time    0.16: real time    0.17
    MIXING:  cpu time    0.01: real time    0.01
    --------------------------------------------
      LOOP:  cpu time    1.89: real time    1.90

 eigenvalue-minimisations  :   528
 total energy-change (2. order) :-0.8157619E+01  (-0.3566583E+00)
 number of electron     198.0000358 magnetization       6.4237718
 augmentation part       95.2397579 magnetization       5.9165020

 Broyden mixing:
  rms(total) = 0.25049E+00    rms(broyden)= 0.25031E+00
  rms(prec ) = 0.26005E+00
  weight for this iteration     100.00

 eigenvalues of (default mixing * dielectric matrix)
  average eigenvalue GAMMA=   1.1123
  2.1386  1.6732  0.6206  0.8351  0.2940

 Free energy of the ion-electron system (eV)
  ---------------------------------------------------
  alpha Z        PSCENC =        35.25822010
  Ewald energy   TEWEN  =     25685.76678276
  -Hartree energ DENC   =    -43641.01936256
  -exchange      EXHF   =         0.00000000
  -V(xc)+E(xc)   XCENC  =      -195.75579656
  PAW double counting   =     19260.50489878   -18457.78175614
  entropy T*S    EENTRO =         0.00000000
  eigenvalues    EBANDS =     -1378.67841002
  atomic energy  EATOM  =     18669.57534155
  ---------------------------------------------------
  free energy    TOTEN  =       -22.13008208 eV

  energy without entropy =      -22.13008208  energy(sigma->0) =      -22.13008208


--------------------------------------------------------------------------------------------------------




----------------------------------------- Iteration    1(  11)  ---------------------------------------


    POTLOK:  cpu time    0.22: real time    0.22
    SETDIJ:  cpu time    0.01: real time    0.01
     EDDAV:  cpu time    1.58: real time    1.59
       DOS:  cpu time    0.00: real time    0.00
    CHARGE:  cpu time    0.17: real time    0.17
    MIXING:  cpu time    0.01: real time    0.01
    --------------------------------------------
      LOOP:  cpu time    2.00: real time    2.00

 eigenvalue-minimisations  :   576
 total energy-change (2. order) :-0.1426475E+01  (-0.3143905E-01)
 number of electron     198.0000357 magnetization       4.7675967
 augmentation part       95.2225403 magnetization       4.3549032

 Broyden mixing:
  rms(total) = 0.20337E+00    rms(broyden)= 0.20336E+00
  rms(prec ) = 0.21147E+00
  weight for this iteration     100.00

 eigenvalues of (default mixing * dielectric matrix)
  average eigenvalue GAMMA=   1.1668
  2.4827  1.6198  0.8060  0.8060  0.5718  0.7141

 Free energy of the ion-electron system (eV)
  ---------------------------------------------------
  alpha Z        PSCENC =        35.25822010
  Ewald energy   TEWEN  =     25685.76678276
  -Hartree energ DENC   =    -43644.77182007
  -exchange      EXHF   =         0.00000000
  -V(xc)+E(xc)   XCENC  =      -196.72073003
  PAW double counting   =     19271.86586028   -18469.50126361
  entropy T*S    EENTRO =         0.00000000
  eigenvalues    EBANDS =     -1375.02894848
  atomic energy  EATOM  =     18669.57534155
  ---------------------------------------------------
  free energy    TOTEN  =       -23.55655748 eV

  energy without entropy =      -23.55655748  energy(sigma->0) =      -23.55655748


--------------------------------------------------------------------------------------------------------




----------------------------------------- Iteration    1(  12)  ---------------------------------------


    POTLOK:  cpu time    0.22: real time    0.22
    SETDIJ:  cpu time    0.01: real time    0.01
     EDDAV:  cpu time    1.45: real time    1.45
       DOS:  cpu time    0.00: real time    0.00
    CHARGE:  cpu time    0.16: real time    0.17
    MIXING:  cpu time    0.01: real time    0.01
    --------------------------------------------
      LOOP:  cpu time    1.86: real time    1.86

 eigenvalue-minimisations  :   512
 total energy-change (2. order) :-0.3875664E+01  (-0.1457694E+00)
 number of electron     198.0000357 magnetization       2.4805396
 augmentation part       95.1952063 magnetization       2.2155924

 Broyden mixing:
  rms(total) = 0.13931E+00    rms(broyden)= 0.13930E+00
  rms(prec ) = 0.14340E+00
  weight for this iteration     100.00

 eigenvalues of (default mixing * dielectric matrix)
  average eigenvalue GAMMA=   1.3693
  3.4240  1.9869  1.3314  1.0061  0.6349  0.6008  0.6008

 Free energy of the ion-electron system (eV)
  ---------------------------------------------------
  alpha Z        PSCENC =        35.25822010
  Ewald energy   TEWEN  =     25685.76678276
  -Hartree energ DENC   =    -43647.68384252
  -exchange      EXHF   =         0.00000000
  -V(xc)+E(xc)   XCENC  =      -199.50890164
  PAW double counting   =     19250.45734480   -18448.14642791
  entropy T*S    EENTRO =         0.00000000
  eigenvalues    EBANDS =     -1373.15073906
  atomic energy  EATOM  =     18669.57534155
  ---------------------------------------------------
  free energy    TOTEN  =       -27.43222193 eV

  energy without entropy =      -27.43222193  energy(sigma->0) =      -27.43222193


--------------------------------------------------------------------------------------------------------




----------------------------------------- Iteration    1(  13)  ---------------------------------------


    POTLOK:  cpu time    0.22: real time    0.22
    SETDIJ:  cpu time    0.00: real time    0.01
     EDDAV:  cpu time    1.49: real time    1.49
       DOS:  cpu time    0.00: real time    0.00
    CHARGE:  cpu time    0.16: real time    0.17
    MIXING:  cpu time    0.01: real time    0.01
    --------------------------------------------
      LOOP:  cpu time    1.90: real time    1.90

 eigenvalue-minimisations  :   528
 total energy-change (2. order) :-0.4305170E+01  (-0.1876757E+00)
 number of electron     198.0000357 magnetization       1.7381175
 augmentation part       95.2057050 magnetization       1.6483560

 Broyden mixing:
  rms(total) = 0.75514E-01    rms(broyden)= 0.75502E-01
  rms(prec ) = 0.79631E-01
  weight for this iteration     100.00

 eigenvalues of (default mixing * dielectric matrix)
  average eigenvalue GAMMA=   1.4657
  4.4710  2.0272  1.2745  1.2745  0.8601  0.6563  0.5811  0.5811

 Free energy of the ion-electron system (eV)
  ---------------------------------------------------
  alpha Z        PSCENC =        35.25822010
  Ewald energy   TEWEN  =     25685.76678276
  -Hartree energ DENC   =    -43644.32316674
  -exchange      EXHF   =         0.00000000
  -V(xc)+E(xc)   XCENC  =      -202.97373998
  PAW double counting   =     19204.06040930   -18401.38875012
  entropy T*S    EENTRO =         0.00000000
  eigenvalues    EBANDS =     -1377.71248846
  atomic energy  EATOM  =     18669.57534155
  ---------------------------------------------------
  free energy    TOTEN  =       -31.73739159 eV

  energy without entropy =      -31.73739159  energy(sigma->0) =      -31.73739159


--------------------------------------------------------------------------------------------------------




----------------------------------------- Iteration    1(  14)  ---------------------------------------


    POTLOK:  cpu time    0.22: real time    0.22
    SETDIJ:  cpu time    0.01: real time    0.01
     EDDAV:  cpu time    1.49: real time    1.49
       DOS:  cpu time    0.00: real time    0.00
    CHARGE:  cpu time    0.16: real time    0.17
    MIXING:  cpu time    0.01: real time    0.01
    --------------------------------------------
      LOOP:  cpu time    1.90: real time    1.90

 eigenvalue-minimisations  :   528
 total energy-change (2. order) :-0.1485820E+01  (-0.3626465E-01)
 number of electron     198.0000357 magnetization       1.2019472
 augmentation part       95.2047871 magnetization       1.1575141

 Broyden mixing:
  rms(total) = 0.57379E-01    rms(broyden)= 0.57373E-01
  rms(prec ) = 0.63608E-01
  weight for this iteration     100.00

 eigenvalues of (default mixing * dielectric matrix)
  average eigenvalue GAMMA=   1.5036
  4.4345  2.2755  1.5248  1.5248  0.9676  0.9676  0.6609  0.6001  0.5761

 Free energy of the ion-electron system (eV)
  ---------------------------------------------------
  alpha Z        PSCENC =        35.25822010
  Ewald energy   TEWEN  =     25685.76678276
  -Hartree energ DENC   =    -43639.91616851
  -exchange      EXHF   =         0.00000000
  -V(xc)+E(xc)   XCENC  =      -204.25833194
  PAW double counting   =     19194.42829462   -18391.62633924
  entropy T*S    EENTRO =         0.00000000
  eigenvalues    EBANDS =     -1382.45101052
  atomic energy  EATOM  =     18669.57534155
  ---------------------------------------------------
  free energy    TOTEN  =       -33.22321117 eV

  energy without entropy =      -33.22321117  energy(sigma->0) =      -33.22321117


--------------------------------------------------------------------------------------------------------




----------------------------------------- Iteration    1(  15)  ---------------------------------------


    POTLOK:  cpu time    0.23: real time    0.23
    SETDIJ:  cpu time    0.00: real time    0.01
     EDDAV:  cpu time    1.46: real time    1.46
       DOS:  cpu time    0.00: real time    0.00
    CHARGE:  cpu time    0.16: real time    0.17
    MIXING:  cpu time    0.01: real time    0.01
    --------------------------------------------
      LOOP:  cpu time    1.87: real time    1.87

 eigenvalue-minimisations  :   512
 total energy-change (2. order) :-0.1220713E+01  (-0.2268545E-01)
 number of electron     198.0000357 magnetization       0.5285546
 augmentation part       95.2233376 magnetization       0.4901711

 Broyden mixing:
  rms(total) = 0.34272E-01    rms(broyden)= 0.34260E-01
  rms(prec ) = 0.37999E-01
  weight for this iteration     100.00

 eigenvalues of (default mixing * dielectric matrix)
  average eigenvalue GAMMA=   1.6528
  5.4643  3.1418  1.5982  1.5982  1.0806  1.0806  0.7485  0.5765  0.6196  0.6196

 Free energy of the ion-electron system (eV)
  ---------------------------------------------------
  alpha Z        PSCENC =        35.25822010
  Ewald energy   TEWEN  =     25685.76678276
  -Hartree energ DENC   =    -43625.28067486
  -exchange      EXHF   =         0.00000000
  -V(xc)+E(xc)   XCENC  =      -205.52853050
  PAW double counting   =     19162.97161935   -18359.57257553
  entropy T*S    EENTRO =         0.00000000
  eigenvalues    EBANDS =     -1397.63410754
  atomic energy  EATOM  =     18669.57534155
  ---------------------------------------------------
  free energy    TOTEN  =       -34.44392467 eV

  energy without entropy =      -34.44392467  energy(sigma->0) =      -34.44392467


--------------------------------------------------------------------------------------------------------




----------------------------------------- Iteration    1(  16)  ---------------------------------------


    POTLOK:  cpu time    0.23: real time    0.23
    SETDIJ:  cpu time    0.00: real time    0.01
     EDDAV:  cpu time    1.46: real time    1.46
       DOS:  cpu time    0.00: real time    0.00
    CHARGE:  cpu time    0.17: real time    0.17
    MIXING:  cpu time    0.01: real time    0.01
    --------------------------------------------
      LOOP:  cpu time    1.87: real time    1.87

 eigenvalue-minimisations  :   512
 total energy-change (2. order) :-0.9405261E+00  (-0.1077771E-01)
 number of electron     198.0000357 magnetization       0.3766857
 augmentation part       95.2400681 magnetization       0.3637540

 Broyden mixing:
  rms(total) = 0.20236E-01    rms(broyden)= 0.20224E-01
  rms(prec ) = 0.22836E-01
  weight for this iteration     100.00

 eigenvalues of (default mixing * dielectric matrix)
  average eigenvalue GAMMA=   1.6434
  5.8767  3.1243  2.1829  1.2341  1.2341  1.0394  0.8055  0.5641  0.6160  0.7003
  0.7003

 Free energy of the ion-electron system (eV)
  ---------------------------------------------------
  alpha Z        PSCENC =        35.25822010
  Ewald energy   TEWEN  =     25685.76678276
  -Hartree energ DENC   =    -43614.33246429
  -exchange      EXHF   =         0.00000000
  -V(xc)+E(xc)   XCENC  =      -206.54878333
  PAW double counting   =     19148.30402820   -18344.66763176
  entropy T*S    EENTRO =         0.00000000
  eigenvalues    EBANDS =     -1408.73994396
  atomic energy  EATOM  =     18669.57534155
  ---------------------------------------------------
  free energy    TOTEN  =       -35.38445073 eV

  energy without entropy =      -35.38445073  energy(sigma->0) =      -35.38445073


--------------------------------------------------------------------------------------------------------




----------------------------------------- Iteration    1(  17)  ---------------------------------------


    POTLOK:  cpu time    0.22: real time    0.23
    SETDIJ:  cpu time    0.01: real time    0.01
     EDDAV:  cpu time    1.58: real time    1.58
       DOS:  cpu time    0.00: real time    0.00
    CHARGE:  cpu time    0.16: real time    0.17
    MIXING:  cpu time    0.01: real time    0.01
    --------------------------------------------
      LOOP:  cpu time    1.99: real time    1.99

 eigenvalue-minimisations  :   568
 total energy-change (2. order) :-0.1702598E+00  (-0.6644436E-03)
 number of electron     198.0000357 magnetization       0.0986000
 augmentation part       95.2311003 magnetization       0.0902997

 Broyden mixing:
  rms(total) = 0.13200E-01    rms(broyden)= 0.13198E-01
  rms(prec ) = 0.16122E-01
  weight for this iteration     100.00

 eigenvalues of (default mixing * dielectric matrix)
  average eigenvalue GAMMA=   1.6764
  6.2582  3.3299  2.0362  1.5132  1.5132  1.0595  1.0595  0.8564  0.6620  0.6620
  0.5746  0.5927

 Free energy of the ion-electron system (eV)
  ---------------------------------------------------
  alpha Z        PSCENC =        35.25822010
  Ewald energy   TEWEN  =     25685.76678276
  -Hartree energ DENC   =    -43612.54632043
  -exchange      EXHF   =         0.00000000
  -V(xc)+E(xc)   XCENC  =      -206.72457223
  PAW double counting   =     19156.73463687   -18353.21634984
  entropy T*S    EENTRO =         0.00000000
  eigenvalues    EBANDS =     -1410.40244932
  atomic energy  EATOM  =     18669.57534155
  ---------------------------------------------------
  free energy    TOTEN  =       -35.55471054 eV

  energy without entropy =      -35.55471054  energy(sigma->0) =      -35.55471054


--------------------------------------------------------------------------------------------------------




----------------------------------------- Iteration    1(  18)  ---------------------------------------


    POTLOK:  cpu time    0.23: real time    0.23
    SETDIJ:  cpu time    0.00: real time    0.01
     EDDAV:  cpu time    1.53: real time    1.53
       DOS:  cpu time    0.00: real time    0.00
    CHARGE:  cpu time    0.17: real time    0.17
    MIXING:  cpu time    0.01: real time    0.01
    --------------------------------------------
      LOOP:  cpu time    1.94: real time    1.94

 eigenvalue-minimisations  :   544
 total energy-change (2. order) :-0.1901974E+00  (-0.1088288E-02)
 number of electron     198.0000357 magnetization       0.0496480
 augmentation part       95.2372939 magnetization       0.0514369

 Broyden mixing:
  rms(total) = 0.72414E-02    rms(broyden)= 0.72395E-02
  rms(prec ) = 0.98890E-02
  weight for this iteration     100.00

 eigenvalues of (default mixing * dielectric matrix)
  average eigenvalue GAMMA=   1.7123
  6.4961  3.4879  2.5252  1.7442  1.4338  1.4338  1.0543  0.7978  0.7978  0.6870
  0.5797  0.5797  0.6423

 Free energy of the ion-electron system (eV)
  ---------------------------------------------------
  alpha Z        PSCENC =        35.25822010
  Ewald energy   TEWEN  =     25685.76678276
  -Hartree energ DENC   =    -43607.57696001
  -exchange      EXHF   =         0.00000000
  -V(xc)+E(xc)   XCENC  =      -206.95664101
  PAW double counting   =     19160.46882811   -18356.94307504
  entropy T*S    EENTRO =         0.00000000
  eigenvalues    EBANDS =     -1415.33740437
  atomic energy  EATOM  =     18669.57534155
  ---------------------------------------------------
  free energy    TOTEN  =       -35.74490792 eV

  energy without entropy =      -35.74490792  energy(sigma->0) =      -35.74490792


--------------------------------------------------------------------------------------------------------




----------------------------------------- Iteration    1(  19)  ---------------------------------------


    POTLOK:  cpu time    0.22: real time    0.23
    SETDIJ:  cpu time    0.01: real time    0.01
     EDDAV:  cpu time    1.55: real time    1.55
       DOS:  cpu time    0.00: real time    0.00
    CHARGE:  cpu time    0.16: real time    0.17
    MIXING:  cpu time    0.01: real time    0.01
    --------------------------------------------
      LOOP:  cpu time    1.96: real time    1.98

 eigenvalue-minimisations  :   552
 total energy-change (2. order) :-0.5650133E-01  (-0.2810629E-03)
 number of electron     198.0000357 magnetization       0.0378584
 augmentation part       95.2373926 magnetization       0.0378222

 Broyden mixing:
  rms(total) = 0.44752E-02    rms(broyden)= 0.44744E-02
  rms(prec ) = 0.63855E-02
  weight for this iteration     100.00

 eigenvalues of (default mixing * dielectric matrix)
  average eigenvalue GAMMA=   1.7153
  6.6668  3.7984  2.6630  2.0295  1.4231  1.4231  1.0057  1.0057  0.8584  0.5727
  0.5995  0.6581  0.6581  0.6517

 Free energy of the ion-electron system (eV)
  ---------------------------------------------------
  alpha Z        PSCENC =        35.25822010
  Ewald energy   TEWEN  =     25685.76678276
  -Hartree energ DENC   =    -43604.43504017
  -exchange      EXHF   =         0.00000000
  -V(xc)+E(xc)   XCENC  =      -207.03656772
  PAW double counting   =     19165.69985792   -18362.20443303
  entropy T*S    EENTRO =        -0.00000000
  eigenvalues    EBANDS =     -1418.42557066
  atomic energy  EATOM  =     18669.57534155
  ---------------------------------------------------
  free energy    TOTEN  =       -35.80140924 eV

  energy without entropy =      -35.80140924  energy(sigma->0) =      -35.80140924


--------------------------------------------------------------------------------------------------------




----------------------------------------- Iteration    1(  20)  ---------------------------------------


    POTLOK:  cpu time    0.23: real time    0.22
    SETDIJ:  cpu time    0.00: real time    0.01
     EDDAV:  cpu time    1.28: real time    1.28
       DOS:  cpu time    0.00: real time    0.00
    CHARGE:  cpu time    0.16: real time    0.17
    MIXING:  cpu time    0.01: real time    0.01
    --------------------------------------------
      LOOP:  cpu time    1.69: real time    1.70

 eigenvalue-minimisations  :   424
 total energy-change (2. order) :-0.7973489E-02  (-0.8184221E-04)
 number of electron     198.0000357 magnetization       0.0275745
 augmentation part       95.2386949 magnetization       0.0265374

 Broyden mixing:
  rms(total) = 0.22368E-02    rms(broyden)= 0.22362E-02
  rms(prec ) = 0.38475E-02
  weight for this iteration     100.00

 eigenvalues of (default mixing * dielectric matrix)
  average eigenvalue GAMMA=   1.7277
  6.7476  4.1922  2.5595  2.2725  1.5179  1.5179  1.1679  1.1679  0.8502  0.7496
  0.7496  0.5683  0.6131  0.6131  0.6290

 Free energy of the ion-electron system (eV)
  ---------------------------------------------------
  alpha Z        PSCENC =        35.25822010
  Ewald energy   TEWEN  =     25685.76678276
  -Hartree energ DENC   =    -43602.24192581
  -exchange      EXHF   =         0.00000000
  -V(xc)+E(xc)   XCENC  =      -207.06027233
  PAW double counting   =     19165.92389156   -18362.41548150
  entropy T*S    EENTRO =         0.00000000
  eigenvalues    EBANDS =     -1420.61593906
  atomic energy  EATOM  =     18669.57534155
  ---------------------------------------------------
  free energy    TOTEN  =       -35.80938273 eV

  energy without entropy =      -35.80938273  energy(sigma->0) =      -35.80938273


--------------------------------------------------------------------------------------------------------




----------------------------------------- Iteration    1(  21)  ---------------------------------------


    POTLOK:  cpu time    0.22: real time    0.22
    SETDIJ:  cpu time    0.01: real time    0.01
     EDDAV:  cpu time    1.18: real time    1.19
       DOS:  cpu time    0.00: real time    0.00
    CHARGE:  cpu time    0.16: real time    0.17
    MIXING:  cpu time    0.01: real time    0.01
    --------------------------------------------
      LOOP:  cpu time    1.60: real time    1.61

 eigenvalue-minimisations  :   376
 total energy-change (2. order) :-0.3614379E-03  (-0.5817268E-04)
 number of electron     198.0000357 magnetization       0.0104565
 augmentation part       95.2395723 magnetization       0.0090194

 Broyden mixing:
  rms(total) = 0.19540E-02    rms(broyden)= 0.19537E-02
  rms(prec ) = 0.28018E-02
  weight for this iteration     100.00

 eigenvalues of (default mixing * dielectric matrix)
  average eigenvalue GAMMA=   1.7293
  6.8223  4.3516  2.8983  2.2253  1.4887  1.4887  1.5703  1.0402  1.0402  0.8517
  0.7885  0.6627  0.6627  0.5823  0.5823  0.6128

 Free energy of the ion-electron system (eV)
  ---------------------------------------------------
  alpha Z        PSCENC =        35.25822010
  Ewald energy   TEWEN  =     25685.76678276
  -Hartree energ DENC   =    -43600.11668894
  -exchange      EXHF   =         0.00000000
  -V(xc)+E(xc)   XCENC  =      -207.07396696
  PAW double counting   =     19165.82790387   -18362.31088083
  entropy T*S    EENTRO =         0.00000000
  eigenvalues    EBANDS =     -1422.73645572
  atomic energy  EATOM  =     18669.57534155
  ---------------------------------------------------
  free energy    TOTEN  =       -35.80974417 eV

  energy without entropy =      -35.80974417  energy(sigma->0) =      -35.80974417


--------------------------------------------------------------------------------------------------------




----------------------------------------- Iteration    1(  22)  ---------------------------------------


    POTLOK:  cpu time    0.22: real time    0.23
    SETDIJ:  cpu time    0.01: real time    0.01
     EDDAV:  cpu time    1.20: real time    1.20
       DOS:  cpu time    0.00: real time    0.00
    CHARGE:  cpu time    0.17: real time    0.17
    MIXING:  cpu time    0.01: real time    0.01
    --------------------------------------------
      LOOP:  cpu time    1.62: real time    1.64

 eigenvalue-minimisations  :   384
 total energy-change (2. order) :-0.2948907E-02  (-0.2525816E-04)
 number of electron     198.0000357 magnetization       0.0003840
 augmentation part       95.2399572 magnetization      -0.0004150

 Broyden mixing:
  rms(total) = 0.11117E-02    rms(broyden)= 0.11116E-02
  rms(prec ) = 0.17014E-02
  weight for this iteration     100.00

 eigenvalues of (default mixing * dielectric matrix)
  average eigenvalue GAMMA=   1.7622
  6.8110  4.6620  3.3669  2.1458  2.1458  1.4711  1.4711  1.1543  1.0242  1.0242
  0.7838  0.7838  0.6871  0.5738  0.6396  0.6068  0.6068

 Free energy of the ion-electron system (eV)
  ---------------------------------------------------
  alpha Z        PSCENC =        35.25822010
  Ewald energy   TEWEN  =     25685.76678276
  -Hartree energ DENC   =    -43598.94183301
  -exchange      EXHF   =         0.00000000
  -V(xc)+E(xc)   XCENC  =      -207.08316322
  PAW double counting   =     19166.04075237   -18362.52898570
  entropy T*S    EENTRO =        -0.00000000
  eigenvalues    EBANDS =     -1423.89980792
  atomic energy  EATOM  =     18669.57534155
  ---------------------------------------------------
  free energy    TOTEN  =       -35.81269308 eV

  energy without entropy =      -35.81269308  energy(sigma->0) =      -35.81269308


--------------------------------------------------------------------------------------------------------




----------------------------------------- Iteration    1(  23)  ---------------------------------------


    POTLOK:  cpu time    0.23: real time    0.22
    SETDIJ:  cpu time    0.00: real time    0.01
     EDDAV:  cpu time    1.19: real time    1.19
       DOS:  cpu time    0.00: real time    0.00
    CHARGE:  cpu time    0.16: real time    0.17
    MIXING:  cpu time    0.02: real time    0.01
    --------------------------------------------
      LOOP:  cpu time    1.60: real time    1.62

 eigenvalue-minimisations  :   376
 total energy-change (2. order) :-0.3530324E-02  (-0.1581703E-04)
 number of electron     198.0000357 magnetization      -0.0015590
 augmentation part       95.2400386 magnetization      -0.0017461

 Broyden mixing:
  rms(total) = 0.52214E-03    rms(broyden)= 0.52181E-03
  rms(prec ) = 0.91314E-03
  weight for this iteration     100.00

 eigenvalues of (default mixing * dielectric matrix)
  average eigenvalue GAMMA=   1.7900
  6.7485  5.3751  3.5669  2.3230  2.3230  1.4949  1.4949  1.2987  1.0769  1.0769
  0.8015  0.8015  0.7428  0.6561  0.6561  0.5763  0.5920  0.6150

 Free energy of the ion-electron system (eV)
  ---------------------------------------------------
  alpha Z        PSCENC =        35.25822010
  Ewald energy   TEWEN  =     25685.76678276
  -Hartree energ DENC   =    -43598.05758572
  -exchange      EXHF   =         0.00000000
  -V(xc)+E(xc)   XCENC  =      -207.09086785
  PAW double counting   =     19166.16862038   -18362.66110841
  entropy T*S    EENTRO =         0.00000000
  eigenvalues    EBANDS =     -1424.77562621
  atomic energy  EATOM  =     18669.57534155
  ---------------------------------------------------
  free energy    TOTEN  =       -35.81622340 eV

  energy without entropy =      -35.81622340  energy(sigma->0) =      -35.81622340


--------------------------------------------------------------------------------------------------------




----------------------------------------- Iteration    1(  24)  ---------------------------------------


    POTLOK:  cpu time    0.22: real time    0.22
    SETDIJ:  cpu time    0.01: real time    0.01
     EDDAV:  cpu time    1.19: real time    1.19
       DOS:  cpu time    0.00: real time    0.00
    CHARGE:  cpu time    0.16: real time    0.17
    MIXING:  cpu time    0.02: real time    0.01
    --------------------------------------------
      LOOP:  cpu time    1.60: real time    1.60

 eigenvalue-minimisations  :   376
 total energy-change (2. order) :-0.1021545E-02  (-0.3055977E-05)
 number of electron     198.0000357 magnetization      -0.0015128
 augmentation part       95.2402173 magnetization      -0.0015161

 Broyden mixing:
  rms(total) = 0.40980E-03    rms(broyden)= 0.40968E-03
  rms(prec ) = 0.65917E-03
  weight for this iteration     100.00

 eigenvalues of (default mixing * dielectric matrix)
  average eigenvalue GAMMA=   1.8250
  6.7149  6.0749  3.8640  2.4237  2.4237  1.6678  1.4877  1.4877  1.0934  1.0934
  0.9630  0.8026  0.8026  0.6775  0.6775  0.6456  0.5746  0.6003  0.6003

 Free energy of the ion-electron system (eV)
  ---------------------------------------------------
  alpha Z        PSCENC =        35.25822010
  Ewald energy   TEWEN  =     25685.76678276
  -Hartree energ DENC   =    -43597.65135260
  -exchange      EXHF   =         0.00000000
  -V(xc)+E(xc)   XCENC  =      -207.09387239
  PAW double counting   =     19166.14542392   -18362.63695173
  entropy T*S    EENTRO =         0.00000000
  eigenvalues    EBANDS =     -1425.18083657
  atomic energy  EATOM  =     18669.57534155
  ---------------------------------------------------
  free energy    TOTEN  =       -35.81724494 eV

  energy without entropy =      -35.81724494  energy(sigma->0) =      -35.81724494


--------------------------------------------------------------------------------------------------------




----------------------------------------- Iteration    1(  25)  ---------------------------------------


    POTLOK:  cpu time    0.22: real time    0.22
    SETDIJ:  cpu time    0.01: real time    0.01
     EDDAV:  cpu time    1.17: real time    1.17
       DOS:  cpu time    0.00: real time    0.00
    CHARGE:  cpu time    0.16: real time    0.17
    MIXING:  cpu time    0.02: real time    0.01
    --------------------------------------------
      LOOP:  cpu time    1.58: real time    1.61

 eigenvalue-minimisations  :   368
 total energy-change (2. order) :-0.1171976E-03  (-0.1404801E-05)
 number of electron     198.0000357 magnetization       0.0006335
 augmentation part       95.2402995 magnetization       0.0007276

 Broyden mixing:
  rms(total) = 0.30568E-03    rms(broyden)= 0.30561E-03
  rms(prec ) = 0.45226E-03
  weight for this iteration     100.00

 eigenvalues of (default mixing * dielectric matrix)
  average eigenvalue GAMMA=   1.8624
  6.7499  6.7499  3.9441  2.6209  2.6209  1.8852  1.5022  1.5022  1.2039  1.2039
  1.0252  0.8535  0.8535  0.7663  0.6944  0.6506  0.6506  0.5737  0.5982  0.5982

 Free energy of the ion-electron system (eV)
  ---------------------------------------------------
  alpha Z        PSCENC =        35.25822010
  Ewald energy   TEWEN  =     25685.76678276
  -Hartree energ DENC   =    -43597.40610943
  -exchange      EXHF   =         0.00000000
  -V(xc)+E(xc)   XCENC  =      -207.09517300
  PAW double counting   =     19166.20452502   -18362.69549470
  entropy T*S    EENTRO =         0.00000000
  eigenvalues    EBANDS =     -1425.42545445
  atomic energy  EATOM  =     18669.57534155
  ---------------------------------------------------
  free energy    TOTEN  =       -35.81736214 eV

  energy without entropy =      -35.81736214  energy(sigma->0) =      -35.81736214


--------------------------------------------------------------------------------------------------------




----------------------------------------- Iteration    1(  26)  ---------------------------------------


    POTLOK:  cpu time    0.23: real time    0.23
    SETDIJ:  cpu time    0.00: real time    0.01
     EDDAV:  cpu time    1.19: real time    1.19
       DOS:  cpu time    0.00: real time    0.00
    --------------------------------------------
      LOOP:  cpu time    1.42: real time    1.45

 eigenvalue-minimisations  :   376
 total energy-change (2. order) :-0.9427007E-05  (-0.7662418E-06)
 number of electron     198.0000357 magnetization       0.0006335
 augmentation part       95.2402995 magnetization       0.0007276

 Free energy of the ion-electron system (eV)
  ---------------------------------------------------
  alpha Z        PSCENC =        35.25822010
  Ewald energy   TEWEN  =     25685.76678276
  -Hartree energ DENC   =    -43597.21798079
  -exchange      EXHF   =         0.00000000
  -V(xc)+E(xc)   XCENC  =      -207.09608330
  PAW double counting   =     19166.26403449   -18362.75365331
  entropy T*S    EENTRO =         0.00000000
  eigenvalues    EBANDS =     -1425.61403308
  atomic energy  EATOM  =     18669.57534155
  ---------------------------------------------------
  free energy    TOTEN  =       -35.81737157 eV

  energy without entropy =      -35.81737157  energy(sigma->0) =      -35.81737157


--------------------------------------------------------------------------------------------------------




 average (electrostatic) potential at core
  the test charge radii are     1.1249
  (the norm of the test charge is              1.0000)
       1 -82.2333       2 -82.1859       3 -82.0802       4 -82.2623       5 -82.1477
       6 -82.0837       7 -82.0837       8 -82.1606       9 -82.0837      10 -82.1477
      11 -82.1477      12 -82.2623      13 -82.0802      14 -82.1859      15 -82.2336
      16 -82.1477      17 -82.0837      18 -82.1606
 
 
 
 E-fermi :  -4.0868     XC(G=0):  -0.9264     alpha+bet : -0.5286


 spin component 1

 k-point     1 :       0.0000    0.0000    0.0000
  band No.  band energies     occupation 
      1      -8.7162      1.00000
      2      -8.6403      1.00000
      3      -8.5740      1.00000
      4      -8.4942      1.00000
      5      -8.4810      1.00000
      6      -8.4569      1.00000
      7      -8.4559      1.00000
      8      -8.4525      1.00000
      9      -8.3972      1.00000
     10      -8.3884      1.00000
     11      -8.3510      1.00000
     12      -8.3373      1.00000
     13      -8.3006      1.00000
     14      -8.2790      1.00000
     15      -8.2532      1.00000
     16      -8.2171      1.00000
     17      -8.1895      1.00000
     18      -8.1479      1.00000
     19      -8.1429      1.00000
     20      -8.1321      1.00000
     21      -8.1103      1.00000
     22      -8.1088      1.00000
     23      -8.0704      1.00000
     24      -8.0086      1.00000
     25      -7.9977      1.00000
     26      -7.9946      1.00000
     27      -7.8917      1.00000
     28      -7.8679      1.00000
     29      -7.8594      1.00000
     30      -7.8186      1.00000
     31      -7.8056      1.00000
     32      -7.7813      1.00000
     33      -7.7471      1.00000
     34      -7.6987      1.00000
     35      -7.6453      1.00000
     36      -7.6291      1.00000
     37      -7.6254      1.00000
     38      -7.5138      1.00000
     39      -7.5126      1.00000
     40      -7.5055      1.00000
     41      -7.5017      1.00000
     42      -7.4872      1.00000
     43      -7.4625      1.00000
     44      -7.3527      1.00000
     45      -7.3456      1.00000
     46      -7.3327      1.00000
     47      -7.2670      1.00000
     48      -7.2384      1.00000
     49      -7.1843      1.00000
     50      -7.1716      1.00000
     51      -7.1479      1.00000
     52      -7.1176      1.00000
     53      -7.1151      1.00000
     54      -7.1025      1.00000
     55      -7.0782      1.00000
     56      -7.0695      1.00000
     57      -7.0546      1.00000
     58      -6.9720      1.00000
     59      -6.9675      1.00000
     60      -6.9253      1.00000
     61      -6.9059      1.00000
     62      -6.8951      1.00000
     63      -6.8569      1.00000
     64      -6.8553      1.00000
     65      -6.8490      1.00000
     66      -6.8042      1.00000
     67      -6.7870      1.00000
     68      -6.7581      1.00000
     69      -6.7368      1.00000
     70      -6.7347      1.00000
     71      -6.7103      1.00000
     72      -6.6840      1.00000
     73      -6.6836      1.00000
     74      -6.6780      1.00000
     75      -6.6449      1.00000
     76      -6.6163      1.00000
     77      -6.6036      1.00000
     78      -6.5876      1.00000
     79      -6.5839      1.00000
     80      -6.5828      1.00000
     81      -6.5438      1.00000
     82      -6.5058      1.00000
     83      -6.4741      1.00000
     84      -6.4444      1.00000
     85      -6.4378      1.00000
     86      -6.4353      1.00000
     87      -6.3960      1.00000
     88      -6.3910      1.00000
     89      -6.3044      1.00000
     90      -6.2952      1.00000
     91      -6.2095      1.00000
     92      -6.2093      1.00000
     93      -6.0149      1.00000
     94      -5.8512      1.00000
     95      -4.7041      1.00000
     96      -4.6666      1.00000
     97      -4.4171      1.00000
     98      -4.3527      1.00000
     99      -4.1024      1.00000
    100      -3.1050      0.00000
    101      -2.5577      0.00000
    102      -2.4825      0.00000
    103      -2.4609      0.00000
    104      -2.2937      0.00000
    105      -2.2744      0.00000
    106      -2.1584      0.00000
    107      -2.0956      0.00000
    108      -1.7839      0.00000
    109      -1.3190      0.00000
    110      -1.1598      0.00000
    111      -0.7538      0.00000
    112      -0.6131      0.00000
    113      -0.4313      0.00000
    114      -0.2926      0.00000
    115      -0.2869      0.00000
    116      -0.2416      0.00000
    117      -0.1740      0.00000
    118      -0.1647      0.00000
    119       0.2047      0.00000
    120       0.2425      0.00000
    121       0.2723      0.00000
    122       0.3129      0.00000
    123       0.4305      0.00000
    124       0.5050      0.00000
    125       0.6781      0.00000
    126       0.7667      0.00000
    127       0.7847      0.00000
    128       0.7865      0.00000

 spin component 2

 k-point     1 :       0.0000    0.0000    0.0000
  band No.  band energies     occupation 
      1      -8.7162      1.00000
      2      -8.6403      1.00000
      3      -8.5740      1.00000
      4      -8.4942      1.00000
      5      -8.4810      1.00000
      6      -8.4570      1.00000
      7      -8.4559      1.00000
      8      -8.4525      1.00000
      9      -8.3972      1.00000
     10      -8.3884      1.00000
     11      -8.3510      1.00000
     12      -8.3373      1.00000
     13      -8.3006      1.00000
     14      -8.2790      1.00000
     15      -8.2532      1.00000
     16      -8.2171      1.00000
     17      -8.1895      1.00000
     18      -8.1479      1.00000
     19      -8.1429      1.00000
     20      -8.1321      1.00000
     21      -8.1103      1.00000
     22      -8.1088      1.00000
     23      -8.0704      1.00000
     24      -8.0085      1.00000
     25      -7.9977      1.00000
     26      -7.9946      1.00000
     27      -7.8917      1.00000
     28      -7.8679      1.00000
     29      -7.8594      1.00000
     30      -7.8186      1.00000
     31      -7.8056      1.00000
     32      -7.7813      1.00000
     33      -7.7471      1.00000
     34      -7.6987      1.00000
     35      -7.6453      1.00000
     36      -7.6290      1.00000
     37      -7.6254      1.00000
     38      -7.5138      1.00000
     39      -7.5126      1.00000
     40      -7.5055      1.00000
     41      -7.5017      1.00000
     42      -7.4872      1.00000
     43      -7.4625      1.00000
     44      -7.3527      1.00000
     45      -7.3456      1.00000
     46      -7.3327      1.00000
     47      -7.2670      1.00000
     48      -7.2384      1.00000
     49      -7.1843      1.00000
     50      -7.1716      1.00000
     51      -7.1479      1.00000
     52      -7.1176      1.00000
     53      -7.1151      1.00000
     54      -7.1025      1.00000
     55      -7.0782      1.00000
     56      -7.0695      1.00000
     57      -7.0546      1.00000
     58      -6.9720      1.00000
     59      -6.9675      1.00000
     60      -6.9253      1.00000
     61      -6.9059      1.00000
     62      -6.8951      1.00000
     63      -6.8569      1.00000
     64      -6.8553      1.00000
     65      -6.8490      1.00000
     66      -6.8042      1.00000
     67      -6.7870      1.00000
     68      -6.7581      1.00000
     69      -6.7367      1.00000
     70      -6.7347      1.00000
     71      -6.7103      1.00000
     72      -6.6840      1.00000
     73      -6.6836      1.00000
     74      -6.6779      1.00000
     75      -6.6449      1.00000
     76      -6.6163      1.00000
     77      -6.6036      1.00000
     78      -6.5876      1.00000
     79      -6.5839      1.00000
     80      -6.5828      1.00000
     81      -6.5438      1.00000
     82      -6.5058      1.00000
     83      -6.4741      1.00000
     84      -6.4444      1.00000
     85      -6.4378      1.00000
     86      -6.4353      1.00000
     87      -6.3960      1.00000
     88      -6.3910      1.00000
     89      -6.3044      1.00000
     90      -6.2952      1.00000
     91      -6.2095      1.00000
     92      -6.2093      1.00000
     93      -6.0149      1.00000
     94      -5.8511      1.00000
     95      -4.7041      1.00000
     96      -4.6666      1.00000
     97      -4.4171      1.00000
     98      -4.3526      1.00000
     99      -4.1023      1.00000
    100      -3.1048      0.00000
    101      -2.5576      0.00000
    102      -2.4824      0.00000
    103      -2.4608      0.00000
    104      -2.2935      0.00000
    105      -2.2744      0.00000
    106      -2.1582      0.00000
    107      -2.0955      0.00000
    108      -1.7836      0.00000
    109      -1.3185      0.00000
    110      -1.1590      0.00000
    111      -0.7525      0.00000
    112      -0.6126      0.00000
    113      -0.4310      0.00000
    114      -0.2908      0.00000
    115      -0.2860      0.00000
    116      -0.2404      0.00000
    117      -0.1740      0.00000
    118      -0.1633      0.00000
    119       0.2055      0.00000
    120       0.2440      0.00000
    121       0.2796      0.00000
    122       0.3152      0.00000
    123       0.4326      0.00000
    124       0.5125      0.00000
    125       0.6920      0.00000
    126       0.7658      0.00000
    127       0.7700      0.00000
    128       0.7850      0.00000


--------------------------------------------------------------------------------------------------------


 soft charge-density along one line, spin component           1
         0         1         2         3         4         5         6         7         8         9
 total charge-density along one line
 
 soft charge-density along one line, spin component           2
         0         1         2         3         4         5         6         7         8         9
 total charge-density along one line
 
 pseudopotential strength for first ion, spin component:           1
-10.344  -0.000  -0.000   0.000  -0.000 -10.317  -0.000  -0.000
 -0.000 -10.334   0.000   0.000  -0.000  -0.000 -10.308   0.000
 -0.000   0.000 -10.332  -0.000  -0.004  -0.000   0.000 -10.306
  0.000   0.000  -0.000 -10.329  -0.000   0.000   0.000  -0.000
 -0.000  -0.000  -0.004  -0.000 -10.347  -0.000  -0.000  -0.003
-10.317  -0.000  -0.000   0.000  -0.000 -10.267  -0.000  -0.000
 -0.000 -10.308   0.000   0.000  -0.000  -0.000 -10.258   0.000
 -0.000   0.000 -10.306  -0.000  -0.003  -0.000   0.000 -10.256
  0.000   0.000  -0.000 -10.303  -0.000   0.000   0.000  -0.000
 -0.000  -0.000  -0.003  -0.000 -10.320  -0.000  -0.000  -0.003
 -0.000  -0.000  -0.009   0.000  -0.002  -0.000  -0.000  -0.009
 -0.000  -0.000  -0.015   0.000  -0.003  -0.000  -0.000  -0.015
  0.000  -0.001   0.000  -0.000   0.000   0.000  -0.001   0.000
 -0.000  -0.000  -0.001   0.000   0.000  -0.000  -0.000  -0.001
 -0.000  -0.000  -0.000  -0.001   0.000  -0.000  -0.000  -0.000
  0.000  -0.002   0.000  -0.000   0.000   0.000  -0.001   0.000
 -0.000  -0.000  -0.002   0.000   0.000  -0.000  -0.000  -0.002
 -0.000  -0.000  -0.000  -0.001   0.000  -0.000  -0.000  -0.000
 pseudopotential strength for first ion, spin component:           2
-10.344  -0.000  -0.000   0.000  -0.000 -10.317  -0.000  -0.000
 -0.000 -10.334   0.000   0.000  -0.000  -0.000 -10.308   0.000
 -0.000   0.000 -10.332  -0.000  -0.004  -0.000   0.000 -10.306
  0.000   0.000  -0.000 -10.329  -0.000   0.000   0.000  -0.000
[...]
     35      -7.7555      1.00000
     36      -7.7528      1.00000
     37      -7.7514      1.00000
     38      -7.6080      1.00000
     39      -7.6067      1.00000
     40      -7.6054      1.00000
     41      -7.6028      1.00000
     42      -7.5920      1.00000
     43      -7.5581      1.00000
     44      -7.4464      1.00000
     45      -7.4409      1.00000
     46      -7.4102      1.00000
     47      -7.3529      1.00000
     48      -7.3200      1.00000
     49      -7.2579      1.00000
     50      -7.2457      1.00000
     51      -7.2104      1.00000
     52      -7.1731      1.00000
     53      -7.1692      1.00000
     54      -7.1617      1.00000
     55      -7.1363      1.00000
     56      -7.1362      1.00000
     57      -7.1052      1.00000
     58      -7.0279      1.00000
     59      -7.0100      1.00000
     60      -6.9699      1.00000
     61      -6.9450      1.00000
     62      -6.9415      1.00000
     63      -6.8938      1.00000
     64      -6.8863      1.00000
     65      -6.8801      1.00000
     66      -6.8275      1.00000
     67      -6.8100      1.00000
     68      -6.7853      1.00000
     69      -6.7594      1.00000
     70      -6.7562      1.00000
     71      -6.7310      1.00000
     72      -6.7047      1.00000
     73      -6.6978      1.00000
     74      -6.6914      1.00000
     75      -6.6560      1.00000
     76      -6.6306      1.00000
     77      -6.6141      1.00000
     78      -6.5976      1.00000
     79      -6.5917      1.00000
     80      -6.5907      1.00000
     81      -6.5496      1.00000
     82      -6.5031      1.00000
     83      -6.4681      1.00000
     84      -6.4328      1.00000
     85      -6.4308      1.00000
     86      -6.4248      1.00000
     87      -6.3839      1.00000
     88      -6.3757      1.00000
     89      -6.2820      1.00000
     90      -6.2799      1.00000
     91      -6.2337      1.00000
     92      -6.1764      1.00000
     93      -6.0412      1.00000
     94      -5.8799      1.00000
     95      -4.7253      1.00000
     96      -4.6902      1.00000
     97      -4.4325      1.00000
     98      -4.3702      1.00000
     99      -4.1177      1.00000
    100      -3.1183      0.00000
    101      -2.5176      0.00000
    102      -2.4560      0.00000
    103      -2.4196      0.00000
    104      -2.2863      0.00000
    105      -2.2483      0.00000
    106      -2.1213      0.00000
    107      -2.0655      0.00000
    108      -1.7648      0.00000
    109      -1.3174      0.00000
    110      -1.1457      0.00000
    111      -0.6965      0.00000
    112      -0.5784      0.00000
    113      -0.3813      0.00000
    114      -0.2297      0.00000
    115      -0.2097      0.00000
    116      -0.1718      0.00000
    117      -0.1117      0.00000
    118      -0.0814      0.00000
    119       0.2871      0.00000
    120       0.2987      0.00000
    121       0.3013      0.00000
    122       0.3767      0.00000
    123       0.4510      0.00000
    124       0.5706      0.00000
    125       0.6798      0.00000
    126       0.7628      0.00000
    127       0.7725      0.00000
    128       0.7788      0.00000


--------------------------------------------------------------------------------------------------------


 soft charge-density along one line, spin component           1
         0         1         2         3         4         5         6         7         8         9
 total charge-density along one line
 
 soft charge-density along one line, spin component           2
         0         1         2         3         4         5         6         7         8         9
 total charge-density along one line
 
 pseudopotential strength for first ion, spin component:           1
-10.380  -0.000   0.000  -0.000  -0.000 -10.352  -0.000   0.000
 -0.000 -10.367   0.000  -0.000   0.000  -0.000 -10.340   0.000
  0.000   0.000 -10.365  -0.000  -0.004   0.000   0.000 -10.337
 -0.000  -0.000  -0.000 -10.361  -0.000  -0.000  -0.000  -0.000
 -0.000   0.000  -0.004  -0.000 -10.383  -0.000   0.000  -0.004
-10.352  -0.000   0.000  -0.000  -0.000 -10.300  -0.000   0.000
 -0.000 -10.340   0.000  -0.000   0.000  -0.000 -10.288   0.000
  0.000   0.000 -10.337  -0.000  -0.004   0.000   0.000 -10.286
 -0.000  -0.000  -0.000 -10.333  -0.000  -0.000  -0.000  -0.000
 -0.000   0.000  -0.004  -0.000 -10.355  -0.000   0.000  -0.004
  0.000  -0.000  -0.010   0.000  -0.002   0.000  -0.000  -0.010
  0.000  -0.000  -0.016   0.000  -0.003   0.000  -0.000  -0.016
  0.000  -0.001  -0.000  -0.000  -0.000   0.000  -0.001  -0.000
 -0.000   0.000  -0.002   0.000   0.000  -0.000   0.000  -0.002
  0.000  -0.000  -0.000  -0.001   0.000   0.000  -0.000  -0.000
  0.000  -0.002  -0.000  -0.000  -0.000   0.000  -0.001  -0.000
 -0.000   0.000  -0.003   0.000   0.000  -0.000   0.000  -0.002
  0.000  -0.000  -0.000  -0.002   0.000   0.000  -0.000  -0.000
 pseudopotential strength for first ion, spin component:           2
-10.380  -0.000   0.000  -0.000  -0.000 -10.352  -0.000   0.000
 -0.000 -10.367   0.000  -0.000   0.000  -0.000 -10.340   0.000
  0.000   0.000 -10.365  -0.000  -0.004   0.000   0.000 -10.337
 -0.000  -0.000  -0.000 -10.361  -0.000  -0.000  -0.000  -0.000
 -0.000   0.000  -0.004  -0.000 -10.383  -0.000   0.000  -0.004
-10.352  -0.000   0.000  -0.000  -0.000 -10.300  -0.000   0.000
 -0.000 -10.340   0.000  -0.000   0.000  -0.000 -10.288   0.000
  0.000   0.000 -10.337  -0.000  -0.004   0.000   0.000 -10.286
 -0.000  -0.000  -0.000 -10.333  -0.000  -0.000  -0.000  -0.000
 -0.000   0.000  -0.004  -0.000 -10.355  -0.000   0.000  -0.004
  0.000  -0.000  -0.010   0.000  -0.002   0.000  -0.000  -0.010
  0.000  -0.000  -0.016   0.000  -0.003   0.000  -0.000  -0.016
  0.000  -0.001  -0.000  -0.000  -0.000   0.000  -0.001  -0.000
 -0.000   0.000  -0.002   0.000   0.000  -0.000   0.000  -0.002
  0.000  -0.000  -0.000  -0.001   0.000   0.000  -0.000  -0.000
  0.000  -0.002  -0.000  -0.000  -0.000   0.000  -0.001  -0.000
 -0.000   0.000  -0.003   0.000   0.000  -0.000   0.000  -0.002
  0.000  -0.000  -0.000  -0.002   0.000   0.000  -0.000  -0.000
 total augmentation occupancy for first ion, spin component:           1
  3.435   0.000   0.000   0.000   0.000  -1.500   0.000   0.000   0.000   0.000   0.000   0.000   0.000   0.000   0.000   0.000
  0.000   2.693   0.000   0.000   0.000   0.000  -0.607   0.000   0.000   0.000   0.000   0.000  -0.114   0.000   0.000   0.008
  0.000   0.000   2.903   0.000  -0.026   0.000   0.000  -0.829   0.000   0.006   1.085  -0.172   0.000  -0.025   0.000   0.000
  0.000   0.000   0.000   2.640   0.000   0.000   0.000   0.000  -0.535   0.000   0.000   0.000   0.000   0.000  -0.050   0.000
  0.000   0.000  -0.026   0.000   3.302   0.000   0.000   0.007   0.000  -1.401   0.135  -0.026   0.000   0.028   0.000   0.000
 -1.500   0.000   0.000   0.000   0.000   1.525   0.000   0.000   0.000   0.000   0.000   0.000   0.000   0.000   0.000   0.000
  0.000  -0.607   0.000   0.000   0.000   0.000   0.500   0.000   0.000   0.000   0.000   0.000   0.102   0.000   0.000  -0.007
  0.000   0.000  -0.829   0.000   0.007   0.000   0.000   0.736   0.000   0.012  -0.990   0.176   0.000   0.021   0.000   0.000
  0.000   0.000   0.000  -0.535   0.000   0.000   0.000   0.000   0.413   0.000   0.000   0.000   0.000   0.000   0.043   0.000
  0.000   0.000   0.006   0.000  -1.401   0.000   0.000   0.012   0.000   1.454  -0.106   0.016   0.000  -0.027   0.000   0.000
  0.000   0.000   1.085   0.000   0.135   0.000   0.000  -0.990   0.000  -0.106   1.838  -0.323   0.000   0.021   0.000   0.000
  0.000   0.000  -0.172   0.000  -0.026   0.000   0.000   0.176   0.000   0.016  -0.323   0.065   0.000  -0.014   0.000   0.000
  0.000  -0.114   0.000   0.000   0.000   0.000   0.102   0.000   0.000   0.000   0.000   0.000   0.156   0.000   0.000  -0.009
  0.000   0.000  -0.025   0.000   0.028   0.000   0.000   0.021   0.000  -0.027   0.021  -0.014   0.000   0.031   0.000   0.000
  0.000   0.000   0.000  -0.050   0.000   0.000   0.000   0.000   0.043   0.000   0.000   0.000   0.000   0.000   0.147   0.000
  0.000   0.008   0.000   0.000   0.000   0.000  -0.007   0.000   0.000   0.000   0.000   0.000  -0.009   0.000   0.000   0.001
  0.000   0.000   0.001   0.000  -0.001   0.000   0.000  -0.001   0.000   0.001  -0.003   0.001   0.000  -0.002   0.000   0.000
  0.000   0.000   0.000   0.005   0.000   0.000   0.000   0.000  -0.004   0.000   0.000   0.000   0.000   0.000  -0.009   0.000
 total augmentation occupancy for first ion, spin component:           2
  0.000   0.000   0.000   0.000   0.000   0.000   0.000   0.000   0.000   0.000   0.000   0.000   0.000   0.000   0.000   0.000
  0.000  -0.000   0.000   0.000   0.000   0.000   0.000   0.000   0.000   0.000   0.000   0.000   0.000   0.000   0.000  -0.000
  0.000   0.000  -0.000   0.000   0.000   0.000   0.000   0.000   0.000  -0.000   0.000  -0.000   0.000   0.000   0.000   0.000
  0.000   0.000   0.000   0.000   0.000   0.000   0.000   0.000  -0.000   0.000   0.000   0.000   0.000   0.000  -0.000   0.000
  0.000   0.000   0.000   0.000  -0.000   0.000   0.000  -0.000   0.000   0.000  -0.000   0.000   0.000  -0.000   0.000   0.000
  0.000   0.000   0.000   0.000   0.000  -0.000   0.000   0.000   0.000   0.000   0.000   0.000   0.000   0.000   0.000   0.000
  0.000   0.000   0.000   0.000   0.000   0.000  -0.000   0.000   0.000   0.000   0.000   0.000  -0.000   0.000   0.000   0.000
  0.000   0.000   0.000   0.000  -0.000   0.000   0.000  -0.000   0.000   0.000   0.000   0.000   0.000  -0.000   0.000   0.000
  0.000   0.000   0.000  -0.000   0.000   0.000   0.000   0.000  -0.000   0.000   0.000   0.000   0.000   0.000  -0.000   0.000
  0.000   0.000  -0.000   0.000   0.000   0.000   0.000   0.000   0.000  -0.000  -0.000  -0.000   0.000   0.000   0.000   0.000
  0.000   0.000   0.000   0.000  -0.000   0.000   0.000   0.000   0.000  -0.000   0.000  -0.000   0.000   0.000   0.000   0.000
  0.000   0.000  -0.000   0.000   0.000   0.000   0.000   0.000   0.000  -0.000  -0.000   0.000   0.000   0.000   0.000   0.000
  0.000   0.000   0.000   0.000   0.000   0.000  -0.000   0.000   0.000   0.000   0.000   0.000  -0.000   0.000   0.000  -0.000
  0.000   0.000   0.000   0.000  -0.000   0.000   0.000  -0.000   0.000   0.000   0.000   0.000   0.000  -0.000   0.000   0.000
  0.000   0.000   0.000  -0.000   0.000   0.000   0.000   0.000  -0.000   0.000   0.000   0.000   0.000   0.000  -0.000   0.000
  0.000  -0.000   0.000   0.000   0.000   0.000   0.000   0.000   0.000   0.000   0.000   0.000  -0.000   0.000   0.000   0.000
  0.000   0.000  -0.000   0.000   0.000   0.000   0.000   0.000   0.000  -0.000  -0.000   0.000   0.000  -0.000   0.000   0.000
  0.000   0.000   0.000   0.000   0.000   0.000   0.000   0.000  -0.000   0.000   0.000   0.000   0.000   0.000  -0.000   0.000


------------------------ aborting loop because EDIFF is reached ----------------------------------------


    CHARGE:  cpu time    0.16: real time    0.16
    FORLOC:  cpu time    0.01: real time    0.01
    FORNL :  cpu time    0.79: real time    0.79
    STRESS:  cpu time    0.97: real time    0.97
    FORCOR:  cpu time    0.23: real time    0.23
    FORHAR:  cpu time    0.03: real time    0.03
    MIXING:  cpu time    0.00: real time    0.01
    OFIELD:  cpu time    0.00: real time    0.00

  FORCE on cell =-STRESS in cart. coord.  units (eV):
  Direction    XX          YY          ZZ          XY          YZ          ZX
  --------------------------------------------------------------------------------------
  Alpha Z    35.25822    35.25822    35.25822
  Ewald    8576.68862  6747.93779 11529.84176     0.00000    -0.00000     0.00000
  Hartree 14597.40587 12897.10824 17252.08766    -0.00000    -0.00000    -0.00000
  E(xc)   -1043.68013 -1043.96240 -1042.98024    -0.00000    -0.00000     0.00000
  Local  -26100.40315-22571.54608-31700.09737    -0.00000    -0.00000     0.00000
  n-local  -192.34409  -193.07925  -193.45431    -0.00000    -0.00000    -0.00000
  augment  1653.20167  1653.59506  1651.11461     0.00000     0.00000    -0.00000
  Kinetic  2467.70262  2468.62937  2462.05924     0.00000    -0.00000     0.00000
  Fock        0.00000     0.00000     0.00000     0.00000     0.00000     0.00000
  -------------------------------------------------------------------------------------
  Total      -6.17037    -6.05904    -6.17043     0.00000     0.00000     0.00000
  in kB      -1.26480    -1.24198    -1.26482     0.00000     0.00000     0.00000
  external pressure =       -1.26 kB  Pullay stress =        0.00 kB


 VOLUME and BASIS-vectors are now :
 -----------------------------------------------------------------------------
  energy-cutoff  :      249.84
  volume of cell :     7816.26
      direct lattice vectors                 reciprocal lattice vectors
    19.845693000  0.000000000  0.000000000     0.050388767  0.000000000  0.000000000
     0.000000000 19.845693000  0.000000000     0.000000000  0.050388767  0.000000000
     0.000000000  0.000000000 19.845693000     0.000000000  0.000000000  0.050388767

  length of vectors
    19.845693000 19.845693000 19.845693000     0.050388767  0.050388767  0.050388767


 FORCES acting on ions
    electron-ion (+dipol)            ewald-force                    non-local-force                 convergence-correction
 -----------------------------------------------------------------------------------------------
   -.110E-12 0.236E-11 0.831E+03   -.817E-13 -.569E-13 -.831E+03   0.309E-28 0.340E-27 0.475E+00   -.403E-11 0.269E-11 -.238E-01
   -.189E-13 -.886E+03 -.745E+03   0.853E-13 0.881E+03 0.741E+03   0.383E-25 0.413E+01 0.357E+01   0.181E-11 0.740E-01 0.230E-01
   0.114E+04 -.342E-11 -.125E+03   -.114E+04 -.284E-13 0.125E+03   -.491E+01 0.465E-25 -.140E+00   -.393E-01 0.103E-11 0.161E-01
   -.114E-12 0.997E+03 0.611E+03   -.178E-13 -.992E+03 -.608E+03   -.576E-26 -.510E+01 -.249E+01   -.304E-11 -.553E-01 -.839E-02
   0.771E+03 -.509E+03 0.710E+03   -.767E+03 0.507E+03 -.707E+03   -.331E+01 0.188E+01 -.325E+01   -.261E-01 0.218E-01 -.283E-01
   0.533E+03 -.835E+03 -.162E+03   -.532E+03 0.833E+03 0.163E+03   -.905E+00 0.152E+01 -.338E+00   0.954E-02 -.131E-02 0.957E-02
   0.533E+03 0.835E+03 -.162E+03   -.532E+03 -.833E+03 0.163E+03   -.905E+00 -.152E+01 -.338E+00   0.954E-02 0.131E-02 0.957E-02
   -.729E+03 -.111E-11 -.687E+03   0.729E+03 0.265E-17 0.685E+03   0.256E+00 0.413E-26 0.207E+01   0.987E-02 0.332E-11 0.231E-01
   -.533E+03 0.835E+03 -.162E+03   0.532E+03 -.833E+03 0.163E+03   0.905E+00 -.152E+01 -.338E+00   -.954E-02 0.131E-02 0.957E-02
   -.771E+03 -.509E+03 0.710E+03   0.767E+03 0.507E+03 -.707E+03   0.331E+01 0.188E+01 -.325E+01   0.261E-01 0.218E-01 -.283E-01
   -.771E+03 0.509E+03 0.710E+03   0.767E+03 -.507E+03 -.707E+03   0.331E+01 -.188E+01 -.325E+01   0.261E-01 -.218E-01 -.283E-01
   -.129E-12 -.997E+03 0.611E+03   -.355E-13 0.992E+03 -.608E+03   0.985E-26 0.510E+01 -.249E+01   -.379E-11 0.553E-01 -.839E-02
   -.114E+04 -.149E-10 -.125E+03   0.114E+04 -.114E-12 0.125E+03   0.491E+01 0.212E-25 -.140E+00   0.393E-01 0.169E-11 0.161E-01
   -.542E-13 0.886E+03 -.745E+03   -.284E-13 -.881E+03 0.741E+03   -.152E-25 -.413E+01 0.357E+01   -.352E-11 -.740E-01 0.230E-01
   0.108E-12 0.305E-11 -.113E+04   0.000E+00 0.604E-13 0.112E+04   -.276E-27 -.875E-28 0.657E+01   -.133E-11 0.452E-11 -.829E-02
   0.771E+03 0.509E+03 0.710E+03   -.767E+03 -.507E+03 -.707E+03   -.331E+01 -.188E+01 -.325E+01   -.261E-01 -.218E-01 -.283E-01
   -.533E+03 -.835E+03 -.162E+03   0.532E+03 0.833E+03 0.163E+03   0.905E+00 0.152E+01 -.338E+00   -.954E-02 -.131E-02 0.957E-02
   0.729E+03 0.934E-11 -.687E+03   -.729E+03 -.355E-13 0.685E+03   -.256E+00 0.364E-26 0.207E+01   -.987E-02 -.117E-11 0.231E-01
 -----------------------------------------------------------------------------------------------
   0.789E-11 -.265E-10 0.129E+01   0.568E-12 -.263E-12 0.227E-12   0.500E-15 0.222E-15 -.130E+01   -.248E-10 0.297E-10 0.739E-03
 
 
 POSITION                                       TOTAL-FORCE (eV/Angst)
 -----------------------------------------------------------------------------------
      9.92285      9.92285      7.57466         0.000000      0.000000     -0.008913
      9.92285     12.11306     12.57646         0.000000      0.022103     -0.000001
      6.62023      9.92285      9.92712         0.011144      0.000000      0.007321
      9.92285      7.16888      7.91813        -0.000000     -0.006323      0.004470
      7.48084     11.33760      7.68521         0.003515      0.001845      0.002569
      8.47987     11.99381     10.20968         0.007058     -0.016770      0.001463
      8.47987      7.85188     10.20968         0.007058      0.016770      0.001463
     11.60735      9.92285     12.13580        -0.001410      0.000000     -0.011727
     11.36583      7.85188     10.20968        -0.007058      0.016770      0.001463
     12.36485     11.33760      7.68521        -0.003515      0.001845      0.002569
     12.36485      8.50809      7.68521        -0.003515     -0.001845      0.002569
      9.92285     12.67681      7.91813         0.000000      0.006323      0.004470
     13.22546      9.92285      9.92712        -0.011144      0.000000      0.007321
      9.92285      7.73263     12.57646         0.000000     -0.022103     -0.000001
      9.92285      9.92285     14.34200        -0.000000      0.000000     -0.007344
      7.48084      8.50809      7.68521         0.003515     -0.001845      0.002569
     11.36583     11.99381     10.20968        -0.007058     -0.016770      0.001463
      8.23835      9.92285     12.13580         0.001410      0.000000     -0.011727
 -----------------------------------------------------------------------------------
    total drift:                               -0.000000      0.000000     -0.014334


--------------------------------------------------------------------------------------------------------



  FREE ENERGIE OF THE ION-ELECTRON SYSTEM (eV)
  ---------------------------------------------------
  free  energy   TOTEN  =       -35.99289178 eV

  energy  without entropy=      -35.99289178  energy(sigma->0) =      -35.99289178
 
 d Force = 0.5226539E-03[ 0.179E-03, 0.866E-03]  d Energy = 0.7513808E-03-0.229E-03
 d Force = 0.3683537E+02[ 0.368E+02, 0.369E+02]  d Ewald  = 0.3683536E+02 0.607E-05


--------------------------------------------------------------------------------------------------------


    POTLOK:  cpu time    0.24: real time    0.24


--------------------------------------------------------------------------------------------------------




--------------------------------------------------------------------------------------------------------


  
 reached required accuracy - stopping structural energy minimisation
     LOOP+:  cpu time    7.69: real time    7.76
    4ORBIT:  cpu time    0.00: real time    0.00

 total amount of memory used by VASP on root node    56696. kBytes
========================================================================

   base      :      30000. kBytes
   nonl-proj :       1899. kBytes
   fftplans  :       5770. kBytes
   grid      :      14451. kBytes
   one-center:         46. kBytes
   wavefun   :       4530. kBytes
 
  
  
 General timing and accounting informations for this job:
 ========================================================
  
                  Total CPU time used (sec):      121.988
                            User time (sec):      119.423
                          System time (sec):        2.564
                         Elapsed time (sec):      129.911
  
                   Maximum memory used (kb):       64732.
                   Average memory used (kb):           0.
  
                          Minor page faults:       503845
                          Major page faults:            0
                 Voluntary context switches:         3456
