   48   48 1000    2
  0.2737951E+03  0.2359875E-08  0.2359875E-08  0.2359875E-08  0.1000000E-15
  1.000000000000000E-004
  CAR 
 unknown system                          
    528      1    340
 
  0.0000000E+00  0.0000000E+00  0.0000000E+00  0.1000000E+01
    1       -9.732330     -9.732330
    2       -9.225132     -9.225132
    3       -9.170530     -9.170530
    4       -9.095143     -9.095143
    5       -9.078740     -9.078740
    6       -9.063010     -9.063010
    7       -9.036002     -9.036002
    8       -9.013171     -9.013171
    9       -8.981566     -8.981566
   10       -8.971914     -8.971914
   11       -8.929634     -8.929634
   12       -8.912934     -8.912934
   13       -8.903426     -8.903426
   14       -8.876145     -8.876145
   15       -8.856580     -8.856580
   16       -8.840319     -8.840319
   17       -8.826301     -8.826301
   18       -8.801698     -8.801698
   19       -8.769712     -8.769712
   20       -8.760393     -8.760393
   21       -8.736206     -8.736206
   22       -8.716184     -8.716184
   23       -8.706943     -8.706943
   24       -8.662256     -8.662256
   25       -8.655911     -8.655911
   26       -8.642166     -8.642166
   27       -8.627353     -8.627353
   28       -8.601972     -8.601972
   29       -8.596904     -8.596904
   30       -8.590138     -8.590138
   31       -8.560006     -8.560006
   32       -8.546755     -8.546755
   33       -8.528940     -8.528940
   34       -8.523166     -8.523166
   35       -8.507912     -8.507912
   36       -8.486802     -8.486802
   37       -8.456361     -8.456361
   38       -8.441706     -8.441706
   39       -8.427386     -8.427386
   40       -8.422597     -8.422597
   41       -8.402816     -8.402816
   42       -8.400011     -8.400011
   43       -8.380740     -8.380740
   44       -8.368201     -8.368201
   45       -8.362672     -8.362672
   46       -8.330701     -8.330701
   47       -8.315523     -8.315523
   48       -8.304157     -8.304157
   49       -8.303700     -8.303700
   50       -8.294621     -8.294621
   51       -8.285101     -8.285101
   52       -8.254983     -8.254983
   53       -8.245948     -8.245948
   54       -8.231878     -8.231878
   55       -8.222416     -8.222416
   56       -8.197345     -8.197345
   57       -8.191865     -8.191865
   58       -8.179171     -8.179171
   59       -8.164029     -8.164029
   60       -8.140289     -8.140289
   61       -8.131937     -8.131937
   62       -8.118321     -8.118321
   63       -8.103645     -8.103645
   64       -8.101473     -8.101473
   65       -8.081906     -8.081906
   66       -8.063983     -8.063983
   67       -8.057301     -8.057301
   68       -8.041635     -8.041635
   69       -8.038356     -8.038356
   70       -8.023935     -8.023935
   71       -8.004255     -8.004255
   72       -7.988080     -7.988080
   73       -7.977581     -7.977581
   74       -7.973908     -7.973908
   75       -7.944334     -7.944334
   76       -7.933769     -7.933769
   77       -7.925199     -7.925199
   78       -7.906319     -7.906319
   79       -7.887103     -7.887103
   80       -7.878857     -7.878857
   81       -7.865782     -7.865781
   82       -7.843238     -7.843238
   83       -7.830571     -7.830571
   84       -7.820544     -7.820544
   85       -7.805611     -7.805611
   86       -7.804591     -7.804591
   87       -7.794879     -7.794879
   88       -7.786222     -7.786222
   89       -7.755650     -7.755650
   90       -7.743177     -7.743177
   91       -7.732275     -7.732275
   92       -7.727440     -7.727440
   93       -7.703551     -7.703551
   94       -7.691543     -7.691543
   95       -7.669623     -7.669623
   96       -7.655601     -7.655601
   97       -7.645442     -7.645442
   98       -7.626500     -7.626500
   99       -7.608149     -7.608149
  100       -7.603121     -7.603121
  101       -7.596162     -7.596162
  102       -7.568683     -7.568683
  103       -7.553228     -7.553228
  104       -7.548511     -7.548511
  105       -7.538816     -7.538816
  106       -7.530363     -7.530363
  107       -7.512278     -7.512278
  108       -7.505904     -7.505904
  109       -7.491206     -7.491206
  110       -7.482993     -7.482993
  111       -7.464760     -7.464760
  112       -7.463059     -7.463059
  113       -7.449224     -7.449224
  114       -7.426897     -7.426897
  115       -7.420087     -7.420087
  116       -7.401729     -7.401729
  117       -7.396466     -7.396466
  118       -7.387765     -7.387765
  119       -7.379956     -7.379956
  120       -7.370053     -7.370053
  121       -7.343912     -7.343912
  122       -7.334063     -7.334063
  123       -7.319131     -7.319131
  124       -7.299390     -7.299390
  125       -7.297826     -7.297826
  126       -7.293230     -7.293230
  127       -7.283980     -7.283980
  128       -7.253490     -7.253490
  129       -7.242391     -7.242391
  130       -7.234906     -7.234906
  131       -7.223887     -7.223887
  132       -7.202810     -7.202810
  133       -7.195862     -7.195862
  134       -7.189739     -7.189739
  135       -7.181084     -7.181084
  136       -7.161595     -7.161595
  137       -7.160470     -7.160470
  138       -7.145070     -7.145070
  139       -7.126995     -7.126995
  140       -7.120605     -7.120605
  141       -7.098160     -7.098160
  142       -7.093368     -7.093368
  143       -7.092329     -7.092329
  144       -7.067478     -7.067478
  145       -7.055802     -7.055802
  146       -7.045837     -7.045837
  147       -7.033248     -7.033248
  148       -7.021882     -7.021882
  149       -6.999445     -6.999445
  150       -6.983949     -6.983949
  151       -6.981447     -6.981447
  152       -6.975884     -6.975884
  153       -6.968463     -6.968463
  154       -6.955198     -6.955198
  155       -6.939607     -6.939607
  156       -6.933726     -6.933726
  157       -6.927317     -6.927317
  158       -6.913510     -6.913510
  159       -6.900163     -6.900163
  160       -6.898416     -6.898416
  161       -6.895253     -6.895253
  162       -6.878723     -6.878723
  163       -6.871221     -6.871221
  164       -6.867685     -6.867685
  165       -6.850425     -6.850425
  166       -6.844448     -6.844448
  167       -6.830427     -6.830427
  168       -6.814335     -6.814335
  169       -6.807637     -6.807637
  170       -6.792892     -6.792892
  171       -6.786696     -6.786696
  172       -6.780506     -6.780506
  173       -6.771218     -6.771218
  174       -6.762042     -6.762042
  175       -6.754738     -6.754738
  176       -6.751867     -6.751867
  177       -6.741513     -6.741513
  178       -6.732181     -6.732181
  179       -6.717648     -6.717648
  180       -6.704671     -6.704671
  181       -6.696748     -6.696748
  182       -6.687595     -6.687595
  183       -6.682771     -6.682771
  184       -6.672609     -6.672609
  185       -6.663685     -6.663685
  186       -6.659882     -6.659882
  187       -6.652222     -6.652222
  188       -6.649969     -6.649969
  189       -6.638736     -6.638736
  190       -6.622612     -6.622612
  191       -6.617065     -6.617065
  192       -6.612955     -6.612955
  193       -6.602060     -6.602060
  194       -6.590150     -6.590150
  195       -6.581411     -6.581411
  196       -6.573460     -6.573460
  197       -6.570151     -6.570151
  198       -6.566117     -6.566117
  199       -6.558010     -6.558010
  200       -6.553644     -6.553644
  201       -6.546718     -6.546718
  202       -6.539393     -6.539393
  203       -6.530114     -6.530114
  204       -6.526951     -6.526951
  205       -6.515268     -6.515268
  206       -6.501408     -6.501408
  207       -6.498113     -6.498113
  208       -6.485954     -6.485954
  209       -6.478195     -6.478195
  210       -6.467751     -6.467751
  211       -6.463572     -6.463572
  212       -6.447091     -6.447091
  213       -6.439922     -6.439922
  214       -6.437275     -6.437275
  215       -6.421103     -6.421103
  216       -6.412692     -6.412692
  217       -6.410729     -6.410729
  218       -6.404097     -6.404097
  219       -6.377500     -6.377500
  220       -6.367791     -6.367791
  221       -6.362591     -6.362591
  222       -6.359566     -6.359566
  223       -6.347894     -6.347894
  224       -6.333204     -6.333204
  225       -6.322059     -6.322059
  226       -6.315608     -6.315608
  227       -6.307491     -6.307491
  228       -6.298995     -6.298995
  229       -6.290173     -6.290173
  230       -6.265706     -6.265706
  231       -6.261180     -6.261180
  232       -6.245062     -6.245062
  233       -6.242008     -6.242008
  234       -6.234717     -6.234717
  235       -6.215770     -6.215770
  236       -6.193137     -6.193137
  237       -6.182680     -6.182680
  238       -6.163164     -6.163164
  239       -6.151715     -6.151715
  240       -6.142745     -6.142745
  241       -6.129308     -6.129308
  242       -6.111293     -6.111293
  243       -6.107585     -6.107585
  244       -6.098658     -6.098658
  245       -6.056159     -6.056159
  246       -6.023663     -6.023663
  247       -6.003834     -6.003834
  248       -5.874701     -5.874701
  249       -5.814557     -5.814557
  250       -5.405077     -5.405077
  251       -5.262517     -5.262517
  252       -5.205497     -5.205497
  253       -5.034795     -5.034795
  254       -4.942078     -4.942078
  255       -4.631888     -4.631888
  256       -4.557228     -4.557228
  257       -4.462326     -4.462326
  258       -3.997293     -3.997293
  259       -3.904879     -3.904879
  260       -3.812303     -3.812303
  261       -3.749898     -3.749898
  262       -3.681311     -3.681311
  263       -3.574022     -3.574022
  264       -3.458897     -3.458897
  265       -3.277256     -3.277256
  266       -2.986567     -2.986567
  267       -2.975494     -2.975494
  268       -2.843424     -2.843424
  269       -2.810828     -2.810828
  270       -2.585851     -2.585851
  271       -2.436678     -2.436678
  272       -2.346295     -2.346295
  273       -2.238700     -2.238700
  274       -2.206195     -2.206195
  275       -2.146656     -2.146656
  276       -2.105796     -2.105796
  277       -1.937660     -1.937660
  278       -1.842209     -1.842209
  279       -1.755173     -1.755174
  280       -1.707460     -1.707460
  281       -1.549407     -1.549407
  282       -1.471053     -1.471053
  283       -1.401925     -1.401925
  284       -1.342079     -1.342079
  285       -1.278875     -1.278875
  286       -1.172629     -1.172629
  287       -1.115497     -1.115497
  288       -1.031473     -1.031474
  289       -0.949490     -0.949489
  290       -0.805176     -0.805176
  291       -0.795281     -0.795281
  292       -0.644736     -0.644736
  293       -0.578383     -0.578384
  294       -0.533915     -0.533915
  295       -0.483216     -0.483216
  296       -0.412886     -0.412887
  297       -0.264854     -0.264854
  298       -0.250671     -0.250671
  299       -0.179071     -0.179071
  300       -0.081551     -0.081551
  301       -0.062508     -0.062508
  302       -0.022755     -0.022755
  303        0.022605      0.022606
  304        0.245509      0.245508
  305        0.274270      0.274270
  306        0.320930      0.320930
  307        0.484815      0.484816
  308        0.521085      0.521085
  309        0.568362      0.568362
  310        0.627382      0.627381
  311        0.712511      0.712509
  312        0.731551      0.731553
  313        0.749312      0.749311
  314        0.790667      0.790653
  315        0.867792      0.867786
  316        0.891017      0.891016
  317        0.900104      0.900102
  318        0.934454      0.934449
  319        0.971224      0.971224
  320        1.006604      1.006600
  321        1.025395      1.025393
  322        1.033039      1.033037
  323        1.052468      1.052466
  324        1.072190      1.072187
  325        1.089358      1.089356
  326        1.100173      1.100173
  327        1.121268      1.121263
  328        1.140255      1.140251
  329        1.163370      1.163370
  330        1.207910      1.207907
  331        1.236316      1.236314
  332        1.263651      1.263647
  333        1.284490      1.284489
  334        1.296093      1.296091
  335        1.306220      1.306216
  336        1.336873      1.336869
  337        1.368991      1.368987
  338        1.385521      1.385520
  339        1.394738      1.394733
  340        1.398959      1.398954
