15
Energy = -122.04910294 eV
Hf 9.335528985479197 9.877033265633196 6.772238706998939
Hf 11.993981210709086 9.852937454435 6.944699553870642
Hf 10.70392878722831 12.143455538698054 8.269531330215985
Hf 7.917282824889392 8.310458791334959 8.617934321949525
Hf 11.206354920770268 7.818364872067872 8.836944160576312
Hf 7.605475052370339 11.177749300967445 8.493872608686418
Hf 12.9026949501799 10.168456726145084 9.440758296841604
Hf 9.913865198005224 10.026508326870877 9.753279044022777
Hf 8.796786404652465 12.485438117902255 10.691498220503385
Hf 9.183104320184283 7.372122316935679 10.859874245973772
Hf 11.615893727300074 11.888580703414107 11.197078769457736
Hf 7.3609151400401664 9.748763006713522 11.17446937617517
Hf 11.650195354465819 8.856716115222108 11.753983913144298
Hf 9.634380988283617 10.845105526471219 12.760734246481311
Hf 9.057679951486323 8.306377753232765 13.311171021147072
