14
Energy = -111.92503401 eV
Hf 9.146645158156465 10.793732103093067 12.991103025765035
Hf 10.187714657289732 13.258725907704015 13.330008555905556
Hf 13.188665795746438 9.244801281578377 11.288441446544404
Hf 10.850598210596448 8.661014147794106 12.885932673301475
Hf 11.239523832613678 11.47547722197311 11.051897245982525
Hf 13.073156070806915 11.478458133343244 8.901000776735552
Hf 11.414599945796171 7.126286114829682 10.696906811144169
Hf 11.779485317481424 9.032501128093507 8.771433326070701
Hf 9.040906357550446 13.038261154346094 10.69585053197698
Hf 11.974664864755189 11.041868814618098 13.747157739744528
Hf 11.527559014543218 14.434684733435331 11.386207782598138
Hf 9.36584704371959 9.22621766776983 10.425295036347293
Hf 11.195721865348332 13.660888474110317 8.885460941386691
Hf 10.201993641856777 11.218134313001494 8.320815367111614
