12
Energy = -94.52864258 eV
Hf 8.942462901636448 8.428567325942755 8.465196696820897
Hf 7.283054886708911 10.985381965479728 9.879272675429974
Hf 11.59654797010103 9.253817061679406 7.8802481090986065
Hf 8.182725150547649 11.939698753035483 12.437436058203334
Hf 11.88323354683135 11.422325137616712 9.717378947502372
Hf 12.047935075366224 8.560582889157676 10.626072844027696
Hf 10.962409794601909 11.892287420787785 12.378802380473159
Hf 9.47759453315765 11.188817739877594 8.01006570886274
Hf 9.558115592035731 7.059816142613105 10.94528379743191
Hf 11.188172335990407 6.645813746259149 8.746267856215049
Hf 9.467634499109513 12.906656791006533 10.215847682419799
Hf 9.590031100168433 9.972229262091783 10.885565356061436
