16
Energy = -130.52564218 eV
Hf 13.271415492490332 13.183030968161098 10.960872728629377
Hf 10.51657155950655 13.961887398119515 10.407045131841807
Hf 8.451395806440082 12.916119723585737 11.917927880802925
Hf 12.658477165680187 10.866321985172494 9.371585944152226
Hf 11.179582208915072 12.491680732268458 12.753126303145905
Hf 8.18630091461151 12.564136689052914 9.09403036820656
Hf 15.226870932714077 11.089507647493596 10.278421384969548
Hf 13.496200197561926 10.71682206122316 12.317646303177863
Hf 10.063233613343927 10.950327830877063 10.523256512095495
Hf 13.85321910432569 8.581726341152152 10.428974609817807
Hf 7.206012858250781 10.577681283423491 10.885000224625035
Hf 9.136582325204575 10.332813632566346 13.147151495977583
Hf 8.51575583682146 9.653523381117672 8.527022622910334
Hf 11.440150199790278 8.721973419207437 12.157167691064931
Hf 11.118604356505934 8.319203174001894 9.327913488672893
Hf 8.895484624849008 8.301900003861688 11.006298129978287
