14
Energy = -112.15765163 eV
Hf 7.596416423221495 8.899682512194302 6.92262913078503
Hf 9.323400960266488 6.734912829089134 7.216806033344053
Hf 10.30768151950489 9.460552101901193 7.983428733213224
Hf 6.426487211619383 6.742138794792211 8.400493829254335
Hf 8.186289128883114 11.40294304484419 8.638293381195709
Hf 11.004237075053553 12.133765472306598 7.801195944167744
Hf 11.65590724462689 7.325098649754969 8.985906864923239
Hf 12.699261313058237 10.254948173607504 9.262474303951729
Hf 8.757597118920526 7.648789532231912 9.710633475281188
Hf 10.46584050768078 11.545416836971496 10.354737481284102
Hf 6.172134010338188 9.39603270923256 9.257881112035077
Hf 10.996966805885648 8.938791120456191 11.15789625196847
Hf 6.421951251278311 7.569882104261984 11.19928403006747
Hf 8.117846145252518 10.07906283394634 11.24035614411894
