20
Energy = -165.91810237 eV
Hf 13.776421268987718 8.147132081590817 11.099322873871484
Hf 12.102936719326193 9.167850669608484 13.837814042121277
Hf 11.208717454477572 7.894589947616322 11.671270110680947
Hf 13.13123153084927 10.737962269738905 11.871205602869937
Hf 11.349795341883624 7.624426945267939 8.935929892962859
Hf 12.960269444862552 10.085435995756296 9.15608156147244
Hf 9.897634518030063 10.494286859617965 9.987033397686776
Hf 10.518825730741504 11.388766380970186 12.967525205179498
Hf 8.883729781189663 8.88186510825434 12.891028487194884
Hf 8.90337636058919 7.362622650624732 10.363875892909471
Hf 11.065002873983776 9.514012544470233 7.088472208841333
Hf 8.270550270874486 8.950973441015849 8.028641239307692
Hf 11.841129999438346 12.806199381193437 10.552561405711096
Hf 7.635857757190427 11.243502250600105 12.230557758893957
Hf 9.138838965300291 13.287869473038354 11.356180103611388
Hf 7.0201398472446135 9.253477549703932 10.58037536159224
Hf 11.765147497279282 12.216823775185457 7.7133804747041355
Hf 9.1276011318635 11.446807894901518 7.076883092113999
Hf 7.32668311654374 11.819400190955312 9.340043356782735
Hf 9.629285957320615 13.512469357108847 8.770106774040535
