24
Energy = -197.79145661 eV
Hf 12.363019303985851 13.465701073415532 8.975034589028096
Hf 9.742331704484934 13.596868711695622 9.98505635671652
Hf 15.090565372174295 13.374981398104484 10.088025479638608
Hf 13.838843715915099 10.988300005754972 9.234400058063994
Hf 9.775542583570957 13.557413527719435 7.208794581909247
Hf 12.920978955234862 14.232267641431948 11.772928290359905
Hf 10.03737362326907 13.90228530643435 13.015246711036987
Hf 10.732335598240402 11.214984172018667 8.312362176010154
Hf 16.34571957479736 10.949163930406213 10.4502620525434
Hf 14.552777832294034 11.859255621614716 12.527540917902835
Hf 12.386014420774284 12.783254189200354 14.134669759547368
Hf 7.958997422982636 11.94036736901718 8.6577535151596
Hf 11.554549591192215 11.519366292916676 11.444861760383265
Hf 9.974319290375243 13.696041167555858 15.863143530028529
Hf 8.306546228885614 11.890830198951072 11.808455123056493
Hf 14.232307546996369 9.203770202765666 11.533994041674653
Hf 11.864367682625335 8.678217705938795 10.122268476105484
Hf 7.740366162599385 13.104219365738086 14.47889760245986
Hf 9.202545483118215 9.679489339806354 10.113687910840017
Hf 12.612585091690992 9.785960032454833 13.800516793496152
Hf 9.974762864482832 11.346738948324957 14.278367747496134
Hf 10.129219455955397 8.842404656239669 12.621601515018657
Hf 12.295169309354064 7.044475116771968 12.408468610657776
Hf 9.973842285624382 6.762803838943258 10.814113545812896
