21
Energy = -176.72150134 eV
Hf 11.73328192649882 7.402398566392151 11.355613915313688
Hf 12.71711437271819 9.244517076944446 13.017583999818852
Hf 9.82668010119923 8.925358727020633 13.015059652149727
Hf 9.306434877049108 8.2841445456057 9.944085986478166
Hf 7.437627121930382 9.858222872318859 11.590338657332822
Hf 12.000127956954033 7.7073664966381745 8.600143979049681
Hf 8.374625048495213 11.384615455059816 13.82477185487801
Hf 14.18914528040803 9.1584857817754 10.380306007747478
Hf 11.241071919469595 11.50987088751723 14.00504620136458
Hf 11.660017323436202 10.091012332637527 10.127984929309052
Hf 13.818448794021878 12.054937047241559 9.476275928499414
Hf 13.03230816399739 10.184490779121187 7.645249686014014
Hf 10.241379490356364 9.663297361164323 7.527323119415172
Hf 7.264112875459205 12.705850413902615 11.555926597115251
Hf 13.529307369699758 11.664720912421684 12.135299715961427
Hf 9.662392767802523 13.914897813839092 12.831920939145093
Hf 11.113409141072289 12.398374415946583 8.2185013489674
Hf 9.846027149362119 11.52236974884874 11.47483109878279
Hf 8.29520664552837 11.182012216879283 9.053059111242634
Hf 11.877321970723099 13.700543766404055 10.790327125854434
Hf 9.193815529214156 13.859633319764761 9.904245604813866
