22
Energy = -179.14346495 eV
Hf 13.017894543659972 8.824097503534798 13.377760068718885
Hf 13.312379381168634 6.965330141466523 11.203655016569458
Hf 14.198776790594579 11.464509487013498 12.94583522207358
Hf 10.293292735833175 9.138132444551816 14.284040822509752
Hf 10.780088756217511 8.003344960670516 11.731276411791084
Hf 13.625985479513595 9.731893540162057 10.713628542354915
Hf 11.315571627413478 11.359077617285491 12.702404016928408
Hf 12.92212025580822 14.075718749828178 12.637936724978994
Hf 8.853782700096321 11.561308870773665 14.254872323517594
Hf 11.860460210242657 8.186111785511153 9.044300100170936
Hf 8.407559391763247 9.702724114554732 12.104810840369694
Hf 10.52925654216541 10.928183111480191 9.74192366027942
Hf 13.168035341467228 15.239574562838227 10.034281696895146
Hf 13.659190401338655 12.54104359322199 10.290881884263955
Hf 10.229881588333743 13.92020757376674 13.60362358827284
Hf 9.0322590048778 8.435358255309987 9.539045345682947
Hf 12.910417189742738 10.754417564067912 8.111928561871638
Hf 8.364592894693088 12.695863744311676 11.682135532004592
Hf 7.623367221793867 10.884322758387341 9.596730112909613
Hf 10.660606305501325 14.38106386084728 10.833969010546967
Hf 8.964892452562415 13.241681527362623 8.85782098168725
Hf 11.762034483518832 13.44565007259588 8.300751614514288
