29
Energy = -243.75680741 eV
Hf 9.648185285892328 14.659541435524739 14.44653546685988
Hf 12.622682655878702 9.58727500197 14.499846073700127
Hf 8.140500645069077 12.378079871234398 13.523660125437157
Hf 10.801114689276316 12.128833484353812 15.06576932764286
Hf 10.016829900586096 10.03857391881492 13.18048460731615
Hf 12.019700831414399 7.675746399032214 12.650352119381418
Hf 9.210461978561998 7.843581728814374 11.59574941972917
Hf 8.35447637141546 14.801323533994085 11.964147979622238
Hf 7.507257952563056 10.021102936005827 11.797566060595502
Hf 10.686245581458014 12.973308914458833 12.146684288982266
Hf 12.525391437208864 14.665600527178603 14.330307190376706
Hf 8.103916388233538 12.602411581906566 10.429843837789374
Hf 13.580751531507346 12.103115532529822 13.740382592813654
Hf 9.82475634770672 10.232705410679788 10.096840706504704
Hf 12.463651428984013 10.37189360690322 11.41626961974562
Hf 11.619609496438938 7.790973438444692 9.79364449277533
Hf 10.969374390742185 16.017683411760263 12.312855760046503
Hf 14.897472522469183 9.633662066484895 12.647049837741022
Hf 14.23700420225447 7.493017376550335 10.835495512215843
Hf 13.780989674604564 16.784177590343084 12.915097844296037
Hf 10.37724231531489 14.655186010276385 9.77188528052184
Hf 15.284772333391244 14.516060763616924 13.405451287368438
Hf 10.081508896105108 12.319928652423437 8.289976150027158
Hf 13.305142191701215 14.457651532968864 11.408013041388664
Hf 12.793811334347392 12.529965759770894 9.191218572455158
Hf 15.045364933285471 12.21765408473365 11.280479197173538
Hf 12.067168864423166 10.039839668416054 8.111172247284113
Hf 14.660367311192855 10.036869205225342 9.490268183467562
Hf 13.917474300579325 7.690917699099046 8.088936072535974
