24
Energy = -200.60792829 eV
Hf 11.02465383175643 9.412624664790833 14.340660269973085
Hf 9.791119481766257 12.55534737836605 9.508406653629256
Hf 14.831376243165169 12.091239739626392 11.612689529347081
Hf 10.887497941117742 15.031750684284658 13.372858465473099
Hf 9.750606327167922 15.199490788587454 10.52835960913137
Hf 13.047893708561157 13.62985214489772 15.715546479587907
Hf 13.575108082703183 8.868318512375481 15.117091236796938
Hf 14.575227590688947 14.76555331684553 10.014132943634749
Hf 9.000092223954864 13.133753425612525 12.157611962198825
Hf 15.36530104877906 16.865540402944323 11.76639406989886
Hf 13.13083285527703 11.519496960210976 13.849212466657754
Hf 16.21516131714881 15.804937301750615 14.317582650380617
Hf 11.816939616416416 14.561082138740995 8.757591753672823
Hf 12.01531533578165 11.004436848518477 16.520276618142866
Hf 13.134085916389544 9.237648875229478 12.267112674107294
Hf 15.650805534711683 10.05956762633511 13.648883636066788
Hf 16.684795559472 14.412892691526153 11.970309672374166
Hf 12.371704046887537 16.242467640237884 10.977013370470765
Hf 11.857196084979124 13.263964617949489 11.307021241942001
Hf 15.834911197017439 12.947378321404448 14.359728530152799
Hf 10.378194673892828 12.317208226345945 14.57079246535729
Hf 14.773736497427523 11.181537094571 16.269853855259374
Hf 10.415110505937749 10.687377510723362 12.004895807887893
Hf 13.963943222751022 14.602594523434526 12.94207787134689
