37
Energy = -316.73027436 eV
Hf 11.914054953969734 9.72826243622705 16.35181969450352
Hf 9.202222917951088 9.491528172188994 16.28709848513583
Hf 13.171624550074528 12.279236518757243 16.176435768205994
Hf 10.348429143133925 12.190759169773344 16.25375518650002
Hf 14.184338206352951 9.552706837185498 14.23054118882987
Hf 14.804245817957527 14.538721748939956 16.26537943102597
Hf 15.513954238785574 8.62588964581911 11.596686161312878
Hf 12.002143401945192 14.981100365122334 15.712428370476378
Hf 10.536627677435012 8.478778230958195 13.936577505788318
Hf 15.893772962815795 12.156038167890772 14.96644058694794
Hf 14.134536656326617 16.7271725365058 14.760501327672143
Hf 16.99695424176006 10.083076733133113 13.271895498985275
Hf 11.807170027073562 11.050636645654132 13.763497995819941
Hf 16.413506741541507 15.047138044074359 13.862544708021623
Hf 8.849479528823348 10.990713730390276 13.938130848772872
Hf 12.624563317651916 9.270785727716397 11.429652318195528
Hf 17.5192186283741 12.659275733575797 12.681800536338724
Hf 13.69270703575172 14.118144901537086 13.466991979489189
Hf 9.856764691614625 10.01670492721141 11.49623828064773
Hf 14.717924532408782 11.473321573237152 12.060115732633601
Hf 10.651019791703268 13.59059609252498 13.459054364028827
Hf 16.94017757250552 11.069644726442114 10.39952704302351
Hf 15.87570082284387 14.218268059205219 10.949492606348343
Hf 14.674352031924109 16.56886155034014 12.07373849750057
Hf 11.95478362427483 10.579315500115168 8.678583361896123
Hf 8.442536625119551 12.848999640690465 11.37517560333415
Hf 14.61068699229321 9.80111714903009 9.36475071810876
Hf 11.853358665047049 16.357941821085948 12.96293400989167
Hf 11.595330264972972 12.311696666748594 10.955502321787439
Hf 8.502945244126845 15.218487877279577 13.237139055953726
Hf 9.334928939550943 11.511443256438957 8.942100645553229
Hf 14.151032621271053 12.570959811505574 9.083214938824229
Hf 13.062665637682027 15.05181245439262 10.40624231842719
Hf 10.117665624889435 15.103821282280778 10.808931746374384
Hf 7.331236745882553 15.454657396641895 10.771576027340524
Hf 8.452272390816445 14.14339716612436 8.652301360367208
Hf 11.396592033715782 13.38435478244245 8.293113299397156
