3
Energy = -18.10434912 eV
Hf 8.833902809070551 7.768311725192635 9.839959366169111
Hf 9.000457133523765 7.795715009517868 7.187205589133327
Hf 7.254020222417215 9.276432023328434 8.31497702075051
