33
Energy = -279.93217804 eV
Hf 9.939284819473881 10.476248339027588 7.742776272410861
Hf 7.079327314056002 11.451808215766006 7.844826526623997
Hf 9.119563944304822 13.176115420470211 7.50437865823131
Hf 12.860098642387305 10.01566336223779 8.377730044090479
Hf 11.979061689226146 12.70453599891955 7.506084256543771
Hf 15.569072727451173 9.645526290905709 9.166683569314406
Hf 14.791785866452535 12.107839451922283 8.083502934418062
Hf 10.755385442866054 9.005567472487016 10.390001927396627
Hf 8.201136085697572 10.367826924566572 10.117320401792824
Hf 13.73106895227576 8.493699867511786 11.008697405796573
Hf 8.006428474952608 13.260817366676266 10.110616056848217
Hf 10.835009018669991 12.043376783134121 10.070752481146686
Hf 10.378277352328109 14.878492249227207 9.472874469869549
Hf 13.983053075961003 11.57002366495344 10.805284506463474
Hf 13.246771843800104 14.170547698188539 9.796557304393017
Hf 9.074158122104466 8.842797242481504 12.756162662652118
Hf 16.058597748743164 9.894062859411582 11.912554070728103
Hf 14.094898480999312 9.008004736017247 13.90113888095807
Hf 12.04709912376468 13.39699088143251 12.499942680997641
Hf 11.980697523275621 16.23099788365486 11.422046977440344
Hf 11.665907164515744 7.459712937659072 12.961591688206768
Hf 11.772936223657464 10.402980258390876 12.909419469756608
Hf 9.676226794004064 10.34109681202011 15.165058792519993
Hf 9.49170364981071 14.873730903546928 12.330218624993984
Hf 9.099436793655897 11.795767888574174 12.54953630315925
Hf 9.450301366020078 7.308919375638349 15.014047066267104
Hf 13.234174135908606 14.039040863711348 15.216327535068542
Hf 14.23282941487622 15.054978311215287 12.735947734813532
Hf 14.508934293417957 11.965810110531114 13.613910374096145
Hf 12.409329735957824 11.327855344420819 15.61927585207865
Hf 11.793960501529538 8.504370866948653 15.590221657580049
Hf 11.623115255309775 15.882363385927448 14.07613807337509
Hf 10.347150530948591 13.378312024565624 14.918719365467268
