38
Energy = -327.95987319 eV
Hf 17.795969154933278 12.264332579087515 10.08767530416833
Hf 16.918581731848132 14.949710627971278 10.060156053133145
Hf 18.45596662013139 13.933712472102563 12.239470462057007
Hf 17.664708939054172 11.222091358350223 12.903116858722834
Hf 15.260221157319908 12.732336750946963 8.911154142367776
Hf 15.810213885951148 10.148175436791798 10.248808554670072
Hf 16.309916019919207 15.859808109520445 12.701699203361862
Hf 15.69447857338096 13.093460540496936 11.994301961353854
Hf 14.11052031094196 15.27901042645557 10.761688352439053
Hf 13.293644822252967 10.578063924398153 8.830724286164596
Hf 15.439584957581172 9.325984214957433 12.842901526068081
Hf 15.601985168238942 11.041260845620453 15.117427865524522
Hf 13.398942592866588 11.392436362162377 11.574489248325987
Hf 12.304722280053216 13.313750769992359 9.273759517830367
Hf 16.867755399816645 13.66871726834803 14.64280372292134
Hf 13.192987335794145 8.70211924268243 11.09443986181662
Hf 12.543982511277731 16.880272077605287 12.629051866056532
Hf 13.125869361581223 9.117184557888887 14.310664461511234
Hf 11.4251847831078 16.105746706993955 10.096415984695215
Hf 12.930643659602778 12.071270659196244 14.346385225270446
Hf 14.127294001314073 14.838739694340596 14.126488355182488
Hf 14.363478143683329 13.345943288951135 16.58108037284093
Hf 9.496425726529612 13.908442496232055 10.147919529118711
Hf 11.744010618865092 14.084024920692995 12.140539076923831
Hf 13.228441754812275 10.85003813243724 16.85946358694732
Hf 10.75052981807087 11.236357008632384 10.328497218618306
Hf 9.722562521680183 16.234749163053923 12.597420079371314
Hf 10.755804912894972 9.77947994302469 12.722435468334165
Hf 11.40534614268919 15.629172191452682 14.874595205580787
Hf 10.695661521613966 10.361954045226181 15.524742093260741
Hf 9.72317463387854 12.576788904625054 13.620383399224247
Hf 11.182573129130859 13.129687697519843 16.336278622436996
Hf 7.645147973672664 14.41673725116535 12.175534812776322
Hf 7.969259472475854 11.56229045948063 11.506462610212001
Hf 8.575340345460202 14.832287581746927 15.035960656968479
Hf 8.420616908131297 12.090806281471238 16.242946028118126
Hf 8.173700902008724 10.156570620623752 14.117032298316628
Hf 6.84666699395054 12.63126203372459 14.00141361762751
