34
Energy = -292.32601817 eV
Hf 14.811273857390125 12.450834807186464 15.339940725167194
Hf 10.069080093467145 13.428333207819412 15.13795647248848
Hf 12.396614536749325 12.544497309689419 16.626206104221552
Hf 12.819632251892257 14.698635599451272 14.749818642129277
Hf 10.21250628325918 15.642104814572964 13.32445005239234
Hf 10.582352247423723 10.668022144584933 16.001080555775317
Hf 15.117139482125932 10.781529789586997 13.038978279325386
Hf 8.807181040076195 10.872915628918552 13.8439820615166
Hf 8.4522246155482 13.516832739083629 12.493080375946501
Hf 9.582831301530165 15.295803026723734 10.340106064505568
Hf 14.86353494266855 13.523382142283893 12.67231420647394
Hf 12.31944150120257 11.990081047006894 13.770506903751594
Hf 13.350761344857641 9.887645983717627 15.456575736480465
Hf 12.125523446837171 14.386540353530203 11.861178011188
Hf 10.199586214642087 12.453615258405593 10.332673598650809
Hf 10.85660859075482 8.449551364741067 14.25449562736591
Hf 12.042379985025814 14.615837240693919 8.962032729581923
Hf 14.593152959622115 14.552652685318169 10.096068658520226
Hf 13.432875024709201 8.417704285466902 12.713075819743004
Hf 13.383096523066529 11.801933906742413 10.576018427715674
Hf 8.651919672110822 8.404990673047257 12.32376474612785
Hf 16.07714624008584 12.023343654220774 9.994174412878634
Hf 7.548035776330708 13.394979183703036 9.690902386315846
Hf 7.766631212004818 10.810902614920998 11.071790985192004
Hf 15.206094543434379 9.313814524272363 10.588864885308192
Hf 9.705135432257476 13.63232489877771 7.775824900891216
Hf 11.048435949102089 10.085287675354925 11.877867164385924
Hf 14.072839413422736 12.938830131534841 7.854630625037098
Hf 14.400318986690117 10.31660336153786 8.1830828545296
Hf 11.084500391683322 7.2632374638112225 11.600814799247322
Hf 8.516690760864119 11.148965764770237 8.286077302707575
Hf 9.621087861041216 8.9016897424444 9.589441432390748
Hf 11.529717185866646 11.082392152533972 8.031731027523907
Hf 12.591697002195062 8.605615694622356 9.57874091904478
