31
Energy = -264.33104597 eV
Hf 14.418312009307767 11.5715281360097 8.949963405358185
Hf 13.765354696032253 8.889071190894207 9.592078035847283
Hf 12.311514662066026 10.057559852543365 7.417726013410095
Hf 11.329051873462758 7.220160643498075 9.657752423330383
Hf 12.73731306752747 13.00424931098495 7.261655482888724
Hf 11.512165635905259 11.828848245593024 9.550715349595784
Hf 10.167675042094302 11.883116231979368 7.005109234079672
Hf 15.095256583831912 9.400044812020765 12.147132535228897
Hf 13.502728718330813 7.147163604910869 11.758846179737695
Hf 9.583713980479875 9.602916260397242 8.821535370253768
Hf 8.337125436341102 12.436376829480059 9.110684662167081
Hf 10.906495912922647 6.785345488258965 12.637473602709255
Hf 11.390426127865503 9.428302873145979 11.478348183342192
Hf 13.213753226069068 14.189413928993245 9.972096234067541
Hf 10.543482289805581 14.441006419792187 8.544718799662318
Hf 8.898524634761163 7.861175806663394 11.102944581567527
Hf 12.433619343589493 8.846548942139693 14.167930986736268
Hf 15.027547437062465 7.96575201681717 14.438037998721777
Hf 10.048483314899121 13.11935178642327 11.732090806351387
Hf 8.278692214160326 10.585213051874604 11.509394539076464
Hf 13.609227789055195 11.694481428169464 11.736518051169636
Hf 14.362635541325627 10.909758031273933 14.465496470287782
Hf 10.95743414870038 15.77250400617951 11.622501595828982
Hf 6.9808950716005 13.157522275225965 11.670682196938506
Hf 8.386045115903853 15.069236786650592 10.221545862972288
Hf 9.45997489567106 9.121692103629297 13.67753624240332
Hf 11.363547657785322 11.535800346443985 13.932602772817633
Hf 8.432843448350111 12.291800790886574 13.990169897004783
Hf 12.902381759454192 14.007396228525826 12.933171818243174
Hf 10.601120041781414 14.305048623277159 14.346630822276888
Hf 8.367902884014605 15.168662791786165 13.000877505507594
