43
Energy = -373.39520793 eV
Hf 16.626774224222498 14.41392494710146 14.629132142051745
Hf 16.086521610657655 14.713268943131048 11.812935294362156
Hf 17.154200772531265 12.099546275231402 12.900254996557974
Hf 15.823054814893178 11.760822631879092 15.809199263348702
Hf 14.21613266124388 15.846610761102093 13.708161060244336
Hf 14.166925625078555 14.214043162463604 16.088524992234365
Hf 15.242622185556794 12.229484945884682 10.488518071261565
Hf 14.455243751466021 13.022448408950462 13.40634145713088
Hf 12.975119280675155 14.544126498566257 11.300004257132809
Hf 16.195660162465746 9.657951791457354 11.476952101870573
Hf 16.7610595269661 9.51457937327995 14.281144710813127
Hf 12.971141012902198 11.611082442056482 16.239548664135125
Hf 11.84972584850226 14.098615257997542 14.21289078939505
Hf 12.832993332182447 13.199132134773192 8.657094884790919
Hf 10.726207315293546 16.09132086798746 12.554172243897941
Hf 13.48168480518133 10.526846003070778 8.507839458777795
Hf 12.57118810304703 11.515533598623792 11.107019194220312
Hf 14.977321349837885 7.6745720965552735 13.229728380556132
Hf 14.015414621721701 10.30109135423139 13.447491036736443
Hf 10.567662592225204 14.199986236414516 7.391115339276505
Hf 10.55366703148559 16.005258904077095 9.69643948283271
Hf 14.217704317885802 8.938274725369238 15.819827760435864
Hf 10.849925174502086 9.124352465419511 11.18454616210921
Hf 11.312575019897006 11.494045658630075 6.474371516679889
Hf 10.144330594146483 11.496684279448752 9.012372646463714
Hf 13.56175407465521 8.57540143692243 10.859198303291178
Hf 10.059945545364428 13.591443499865969 11.100503715905594
Hf 10.8707061627602 11.280847999995352 13.591303128472822
Hf 8.534951680275077 12.54902645787401 6.678559903901731
Hf 8.215596951826456 15.769844426277206 11.47534198691244
Hf 12.14661126880358 7.9939201900035135 13.701205840417545
Hf 10.25751261577487 12.535068528773651 16.15250768240246
Hf 8.08370607569679 14.40784330964097 8.875516670879355
Hf 8.908665006964878 13.71706107081188 13.73409695869567
Hf 11.179451720787805 8.8439816773938 8.231210503912232
Hf 10.865308331357197 9.592488452461055 15.928893380418367
Hf 8.867312211183883 9.86903149715023 6.932651139036083
Hf 8.563761362960035 8.961445500175227 9.573194896501636
Hf 8.482059120116023 10.887163508841335 11.827089753784469
Hf 7.203715413282621 11.486512984313368 9.057342517082306
Hf 7.045388013114005 13.293476229468398 11.401110179632383
Hf 9.331340267327112 8.702293668815793 13.636355359874559
Hf 8.317661318754093 10.93176637494836 14.88754574799787
