42
Energy = -364.43547121 eV
Hf 9.351128978190332 8.315182516469196 12.208706963824454
Hf 9.319410959362758 8.258146970161151 15.116542837601362
Hf 11.834328808694737 7.652044045674783 13.481116030848236
Hf 10.075231012544872 9.504645939608665 17.7128451567144
Hf 7.897869446593244 10.622972269585237 16.25129005326909
Hf 11.668250409605308 8.347308926555723 10.431073670000952
Hf 8.08645731594485 10.584875193367001 13.42462825443015
Hf 12.135958915504567 8.465232493688386 16.22132302911164
Hf 11.557664908251317 10.27965945385425 12.524566054203715
Hf 9.636667123175362 10.4401609777608 9.995058949844235
Hf 12.529356898127535 11.121854629791379 17.340058127368785
Hf 9.779740578421048 12.307418089099455 17.566723351261096
Hf 10.618215409679676 10.86960433883969 15.165885458190875
Hf 14.209869581158962 9.156411462200653 11.593276371553348
Hf 8.723410369551685 13.130786350545339 15.001813020776634
Hf 13.723369397888968 10.151721864256052 14.68075480940531
Hf 13.978670380881592 8.839507389370885 8.67857775647449
Hf 9.840369951797168 12.67837565436721 12.395210190876606
Hf 11.415743678108973 9.512967072506854 7.717954337075919
Hf 12.896869298141743 12.926409400023545 13.312236027502394
Hf 10.713597855886354 12.302743437208571 7.653156894928371
Hf 8.766793165529533 13.148917187828907 9.572510756064219
Hf 11.624509143704488 13.691834681884442 15.879133535624314
Hf 12.542244972159466 11.083423372961182 9.841534628778831
Hf 9.078552898055552 15.34321345784237 11.148048945677449
Hf 15.511024495898546 11.519514622725108 12.589863481609264
Hf 13.81004055802867 11.352038604707625 7.277903712210489
Hf 11.022818507513103 15.398081780098744 13.321498027351954
Hf 11.510631716118976 13.97403937484471 10.415094288885207
Hf 12.84176224208609 14.024209032655087 7.441195467355956
Hf 15.8107224277764 10.888820625547899 9.510966103541422
Hf 10.369713576375585 15.421673226290395 8.422245567071789
Hf 13.623955540825659 15.354547604575947 14.778164028554725
Hf 14.358707358611268 13.399916403632595 10.525902086572628
Hf 14.610870719407211 12.813503699934504 15.554626107479404
Hf 11.32756228126709 16.945704400137583 10.804474837273855
Hf 15.694601854106711 13.745678639744645 8.158488146313637
Hf 13.514307030050636 16.075607756402075 9.08016988839971
Hf 13.751804447708189 16.27037628824721 12.02730881958287
Hf 17.148610433333698 13.12356111388344 10.69607962062935
Hf 15.72415284963933 14.322168902656626 13.052078733336101
Hf 16.082718920882012 15.70296073280248 10.443804928871767
