4
Energy = -25.83852239 eV
Hf 10.393435162212446 9.580873954447087 10.468317333349585
Hf 10.52121777674351 11.387916852683428 8.579417340582191
Hf 11.037896302808944 10.168238436867442 12.921340548075584
Hf 11.176002847430583 11.985128598749728 11.044756428394338
