44
Energy = -381.85455217 eV
Hf 16.518287884391675 9.380157814545445 11.056173444314501
Hf 15.037839468212345 9.048389941397142 8.611948955312158
Hf 14.703057270022454 14.702030825183694 9.655893880924715
Hf 14.8418589730917 11.680628077782279 9.869774809148357
Hf 16.063678855036155 13.17462116711568 11.917197672946264
Hf 15.085433251876667 6.908145095494984 10.520642546960023
Hf 15.601586149286327 15.958500284965805 12.155698751794919
Hf 15.509854434369565 10.605817436787193 13.512954020237602
Hf 13.582784425491457 12.992193425451992 7.530922858486854
Hf 15.188407447852585 7.76575824722724 13.155164824047793
Hf 13.207616824813776 17.132644388046632 10.980311406508223
Hf 13.599136483415295 9.314717453343063 11.199246679376229
Hf 12.363538522674009 10.371104251413584 8.50002926325313
Hf 12.9575386046733 14.765489583990568 12.250072210828822
Hf 11.979064431232327 15.320747139812003 8.461214580413245
Hf 15.04814294521513 14.143411293586436 14.418365211248114
Hf 13.341567339970169 12.110460239010948 12.879032283824653
Hf 13.73395547905263 16.79040044215732 14.037352212193456
Hf 12.540096823964602 6.834410522818794 11.99974856022026
Hf 12.679511572131672 7.382959450279822 9.045597021574768
Hf 12.015240189425883 12.86305932179023 9.934403974059599
Hf 12.948852642381045 9.391925305852352 14.282765885433214
Hf 12.307739665664682 14.5227697419581 15.232556682411724
Hf 10.80008721381132 12.64369246018496 7.308291580940448
Hf 10.330753784395254 8.946902143478109 7.512540803906445
Hf 13.340132895061283 11.73019740204924 15.943804905236371
Hf 10.81465479528962 16.46841097829807 13.39608186694789
Hf 10.960375583552388 10.761256668110041 11.841837529081124
Hf 10.358421502872208 8.370822035173893 10.375966253856282
Hf 10.644317326328476 11.708423788829558 14.577491441734239
Hf 10.402668204615717 16.31874301149203 10.669400819632493
Hf 10.375592483663024 8.446882113640603 13.48484166970697
Hf 11.066050912652832 12.85844227530313 17.232343300215096
Hf 10.137805719284902 13.632335789689218 12.277344608839082
Hf 10.834609770141647 9.926241698885342 16.62661729833526
Hf 9.425358592480752 11.12667461921221 9.351636476709524
Hf 9.186774275491626 14.233807198758123 9.33041771282608
Hf 9.38338185943013 14.415081115861913 15.200142097750094
Hf 8.336084485422601 9.791177940413117 14.90991141355514
Hf 8.169552887529722 10.078609124929669 12.111429584951514
Hf 8.592004856300845 11.888756306601524 16.61267197466088
Hf 8.069644327624442 15.235032098442337 12.212760991533225
Hf 7.5280731978960835 12.621442730227384 10.978510403031486
Hf 7.645671674408023 12.447592968497988 13.82310053371527
