53
Energy = -464.08665011 eV
Hf 10.400856441928946 8.36115061349718 8.805653967756584
Hf 9.470816378047326 10.526186997094596 7.179072673157312
Hf 7.966345417677938 9.937146046209152 9.650946096654966
Hf 12.29240175719692 10.244769766958466 7.448263322662333
Hf 12.82868158968242 7.528385512401516 12.575572510037897
Hf 12.916674896764933 9.068304192359191 10.173683289561346
Hf 10.244215761374761 8.829965790174402 11.766483144335908
Hf 14.97905554885032 10.679183826800594 8.996317080604443
Hf 15.392052653631168 9.300888141875262 12.465306759638313
Hf 13.914526112473812 8.372964280871914 15.216110223718703
Hf 10.621598929801806 11.019617038259716 9.764019834433237
Hf 11.01884824888816 13.087618096337165 7.361194475234351
Hf 8.277310089607942 12.718170384463145 8.474599315561422
Hf 11.116480755689059 8.30288756819655 14.580881548229845
Hf 6.921721504022055 12.438313333561352 11.082534018658734
Hf 13.80863486084135 12.691292306992203 7.210892297066359
Hf 7.63197944087956 9.915835669799598 12.649748659904184
Hf 14.98497506226772 12.020594062792306 11.721247818949557
Hf 15.759933676250302 13.431581699912423 9.219662868200139
Hf 12.868830746455863 12.743207261738933 9.970433722783245
Hf 14.872991606855742 11.236873300792109 14.775014735799706
Hf 12.507260677217385 10.415200629380946 12.760003619189634
Hf 16.670521580855723 9.186011425386303 15.278171121670374
Hf 9.583557777277392 12.037252167029115 12.337036623427567
Hf 17.390379868648765 11.298223393940091 10.561991357957291
Hf 9.510654893514246 10.66326993085147 14.8980408008803
Hf 17.535418262167855 11.431895573878265 13.445999235134696
Hf 12.87449972450132 15.206464928945222 8.354611800165275
Hf 7.434852896252829 15.0881957406978 9.854078385459891
Hf 7.256815869941202 12.307599979334743 13.980198900698477
Hf 11.935378773007805 9.74152231541295 17.069249787068063
Hf 17.354713876158716 13.955673820629718 11.84717244768051
Hf 10.205394193919378 14.262287749712758 10.48791468621649
Hf 14.416020145450522 15.228037592556639 11.048213459589515
Hf 11.979863755178336 13.852879099276533 12.915872310869627
Hf 9.876305505446265 15.922898305840821 8.346393042767003
Hf 14.896064428234432 10.264094880623013 17.447394641680397
Hf 17.27918539711325 11.645036268554616 16.430620981467705
Hf 10.157186046321153 12.035333404323191 17.340087695533246
Hf 12.098183483177001 11.98008493632844 15.26301767744264
Hf 14.694780151425416 14.059133365277438 13.82542734810669
Hf 7.934035787967271 14.838510230615633 12.687835813141652
Hf 17.359005094102965 14.158065391850727 14.90973542681707
Hf 9.111073138878004 16.957570296899483 10.934506090454517
Hf 11.880285703134819 16.774145945926545 10.667695030580235
Hf 16.242844646398456 16.3268603437688 13.109844668069544
Hf 13.33275508414035 16.590231629702938 13.534901956330573
Hf 9.632807571395658 13.784436421607607 14.932724544575796
Hf 12.826398812551266 12.374692261390985 18.053459797586854
Hf 15.21141714927601 13.481570145306362 17.00076937099614
Hf 10.417598722242001 16.329626387589702 13.359192053264918
Hf 12.529985482080482 14.780711465773848 15.81526618975006
Hf 15.252039115292307 16.075695230719944 15.749646156572219
