51
Energy = -445.28750693 eV
Hf 17.417818458669558 15.145199089472626 11.268277921480582
Hf 16.165889545859507 17.17829340519708 12.611215206640603
Hf 16.722079412507867 13.74065588550822 9.066200315999183
Hf 15.73758663389675 16.582178092566526 9.499212507270615
Hf 13.420586464507085 16.937944801811806 11.966532591824297
Hf 15.82971713833897 15.525779207520301 16.297343853324158
Hf 10.822203911220758 17.68147221318547 11.009586923871677
Hf 14.41939545743902 14.609594734384908 7.7308889647694645
Hf 14.04220294118382 17.359965285592672 14.716101843302708
Hf 17.687612468647735 15.1318357008948 14.013494616469783
Hf 12.638202213055232 16.536156620930797 9.066651071191798
Hf 16.40256435761983 12.556238730382056 12.284133331294255
Hf 11.076937126880708 16.75906991277538 13.890751065914436
Hf 14.843291214040521 14.636949470233068 13.72531572906934
Hf 14.327634178493106 11.849240384797389 8.834416466143765
Hf 13.018028877531906 15.838002401379164 17.01767842731965
Hf 9.76794905213201 15.587486350865156 9.278736783170904
Hf 10.094939436250648 15.537824056906377 16.441544811956206
Hf 14.4096237723352 14.287808463876736 10.596287259594254
Hf 11.352048495346724 14.858026102364013 11.65191373608307
Hf 8.68339748034584 16.083651596286224 11.835974753299295
Hf 14.308393144163624 13.06260974406986 16.935532114290638
Hf 11.833037760122242 13.695404036737507 8.749740632157655
Hf 12.055906493531594 14.020149308322406 14.94399888744757
Hf 16.770108690871893 12.98543490927182 15.361292970220964
Hf 13.15539772534567 12.495821491914478 12.49241149550675
Hf 11.60470390503825 13.508273673417078 17.791294011316513
Hf 9.31755005524842 14.224024743510942 13.840230250109597
Hf 9.035974878039202 13.083210864114701 11.070221291330045
Hf 14.692905877136937 11.273051502319396 14.513524476995281
Hf 9.413917563850244 11.940220984681734 8.415372804891875
Hf 10.522964617393768 11.441567535893332 13.303772118140177
Hf 11.928929379160893 11.216196541888795 7.275997752207523
Hf 9.484715164256045 12.627843273845022 16.042571514703315
Hf 14.472589653317662 10.197846888738573 11.320193269857247
Hf 11.612562158934159 11.142427252125419 10.237742539220491
Hf 14.060000047010062 8.941015224461859 16.095614740973836
Hf 10.28945327264213 9.208395216143243 8.41577133495049
Hf 7.829880842549645 11.411063618658297 13.532975445757442
Hf 8.768585316577049 10.187251976137869 10.749441619375839
Hf 12.066475539894777 11.09620161857466 16.061548789502872
Hf 13.17723657000125 9.074531049164776 8.862566901242962
Hf 12.618135596672303 9.147925753927472 13.443744018439366
Hf 15.557938270125117 8.655711678936466 13.623606631188736
Hf 9.379418417660125 8.54126407997264 13.24261570578579
Hf 9.31892465041991 9.918988978441961 15.617760113457583
Hf 11.158444144403132 8.151251366987847 10.845049005970948
Hf 13.883194625192212 7.239457948778188 11.627364612959575
Hf 13.76178476686537 6.652544445992251 14.52648971255035
Hf 11.262562480372809 7.792775751343307 15.57222863907026
Hf 11.458863611509972 6.41085977291665 13.040359322660324
