unknown system                          
           1
    20.700724    0.000000    0.000000
     0.000000   20.700724    0.000000
     0.000000    0.000000   20.700724
   Ag
  22
Direct configuration=     1
   0.65591529  0.36378370  0.59833442
   0.59294751  0.40556261  0.37530986
   0.53974667  0.37039885  0.53405674
   0.64097003  0.43788033  0.49314780
   0.50643781  0.49807621  0.32802739
   0.40791828  0.37747257  0.52918710
   0.59825311  0.53304557  0.41145222
   0.54984385  0.42580130  0.65124981
   0.47471971  0.42519250  0.42858711
   0.64092036  0.50208347  0.60375452
   0.69857439  0.55757433  0.49510390
   0.58091864  0.53286362  0.71672906
   0.58818516  0.60212531  0.54493093
   0.57091388  0.66141290  0.43013065
   0.45071388  0.48140001  0.59550880
   0.47065413  0.57711800  0.42484134
   0.50097219  0.59113050  0.63952390
   0.38282990  0.49775499  0.48395729
   0.47481863  0.66212145  0.52527576
   0.37897875  0.59145167  0.59205617
   0.35474835  0.62165405  0.46336576
   0.35658002  0.71413687  0.55250635
Direct configuration=     2
   0.65603513  0.36371910  0.59849219
   0.59298948  0.40545344  0.37538704
   0.53954769  0.37029310  0.53389918
   0.64114878  0.43781007  0.49283276
   0.50634156  0.49809810  0.32759156
   0.40787661  0.37720413  0.52924354
   0.59837615  0.53315035  0.41148428
   0.54981036  0.42554035  0.65158859
   0.47483525  0.42512221  0.42858238
   0.64123248  0.50212035  0.60400170
   0.69873108  0.55761967  0.49506846
   0.58107996  0.53285084  0.71695499
   0.58816845  0.60222638  0.54487508
   0.57098788  0.66149921  0.43000546
   0.45058132  0.48131906  0.59552204
   0.47064548  0.57700016  0.42473790
   0.50087119  0.59131637  0.63951747
   0.38264939  0.49782721  0.48396359
   0.47465761  0.66220998  0.52539379
   0.37889808  0.59144691  0.59207200
   0.35459855  0.62184687  0.46320063
   0.35649807  0.71436695  0.55262226
Direct configuration=     3
   0.65639464  0.36352529  0.59896548
   0.59311538  0.40512594  0.37561858
   0.53895075  0.36997585  0.53342648
   0.64168503  0.43759929  0.49188765
   0.50605282  0.49816379  0.32628406
   0.40775160  0.37639879  0.52941288
   0.59874527  0.53346471  0.41158048
   0.54970990  0.42475750  0.65260494
   0.47518188  0.42491133  0.42856819
   0.64216884  0.50223098  0.60474323
   0.69920113  0.55775570  0.49496214
   0.58156392  0.53281248  0.71763279
   0.58811832  0.60252960  0.54470751
   0.57120989  0.66175815  0.42962987
   0.45018363  0.48107624  0.59556175
   0.47061953  0.57664664  0.42442758
   0.50056818  0.59187398  0.63949819
   0.38210785  0.49804386  0.48398249
   0.47417455  0.66247556  0.52574786
   0.37865608  0.59143262  0.59211950
   0.35414913  0.62242531  0.46270525
   0.35625221  0.71505719  0.55296999
Direct configuration=     4
   0.65711366  0.36313768  0.59991205
   0.59336719  0.40447095  0.37608165
   0.53775687  0.36934135  0.53248108
   0.64275752  0.43717774  0.48999741
   0.50547535  0.49829516  0.32366906
   0.40750157  0.37478812  0.52975155
   0.59948350  0.53409341  0.41177287
   0.54950897  0.42319181  0.65463764
   0.47587513  0.42448958  0.42853980
   0.64404156  0.50245224  0.60622630
   0.70014125  0.55802776  0.49474950
   0.58253183  0.53273576  0.71898838
   0.58801807  0.60313605  0.54437238
   0.57165391  0.66227601  0.42887871
   0.44938824  0.48059058  0.59564119
   0.47056763  0.57593961  0.42380694
   0.49996217  0.59298922  0.63945962
   0.38102479  0.49847716  0.48402029
   0.47320843  0.66300672  0.52645601
   0.37817208  0.59140404  0.59221449
   0.35325030  0.62358219  0.46171450
   0.35576051  0.71643767  0.55366545
Direct configuration=     5
   0.65855170  0.36236247  0.60180521
   0.59387080  0.40316096  0.37700779
   0.53536912  0.36807234  0.53059029
   0.64490252  0.43633463  0.48621694
   0.50432039  0.49855790  0.31843907
   0.40700152  0.37156677  0.53042889
   0.60095997  0.53535083  0.41215767
   0.54910713  0.42006042  0.65870305
   0.47726164  0.42364607  0.42848303
   0.64778701  0.50289477  0.60919244
   0.70202147  0.55857189  0.49432421
   0.58446766  0.53258232  0.72169958
   0.58781757  0.60434893  0.54370212
   0.57254195  0.66331175  0.42737639
   0.44779747  0.47961926  0.59580007
   0.47046383  0.57452554  0.42256565
   0.49875015  0.59521968  0.63938247
   0.37885866  0.49934376  0.48409590
   0.47127618  0.66406905  0.52787231
   0.37720408  0.59134689  0.59240446
   0.35145263  0.62589596  0.45973299
   0.35477709  0.71919863  0.55505639
Direct configuration=     6
   0.65782879  0.36275217  0.60085351
   0.59361763  0.40381949  0.37654221
   0.53656945  0.36871027  0.53154080
   0.64382422  0.43675846  0.48811740
   0.50490099  0.49842582  0.32106820
   0.40725290  0.37318616  0.53008839
   0.60021774  0.53471872  0.41196423
   0.54930914  0.42163458  0.65665935
   0.47656464  0.42407010  0.42851157
   0.64590416  0.50267231  0.60770135
   0.70107628  0.55829835  0.49453800
   0.58349451  0.53265945  0.72033665
   0.58791836  0.60373921  0.54403906
   0.57209553  0.66279108  0.42813161
   0.44859715  0.48010754  0.59572020
   0.47051601  0.57523640  0.42318965
   0.49935944  0.59409842  0.63942125
   0.37994758  0.49890812  0.48405789
   0.47224753  0.66353501  0.52716033
   0.37769070  0.59137562  0.59230896
   0.35235633  0.62473282  0.46072910
   0.35527146  0.71781069  0.55435716
Direct configuration=     7
   0.65771170  0.36311983  0.60077280
   0.59353873  0.40356747  0.37622250
   0.53717707  0.36860959  0.53160070
   0.64464794  0.43638747  0.48881791
   0.50484120  0.49830618  0.32049608
   0.40693789  0.37271553  0.53002641
   0.60005164  0.53481817  0.41143292
   0.54939527  0.42126929  0.65731606
   0.47640670  0.42456123  0.42821823
   0.64664728  0.50243421  0.60802960
   0.70135642  0.55835280  0.49472621
   0.58370311  0.53266420  0.72059762
   0.58806642  0.60360485  0.54390563
   0.57192737  0.66294610  0.42783818
   0.44860102  0.47964630  0.59602785
   0.47050171  0.57494219  0.42296741
   0.49954960  0.59422792  0.63983096
   0.37945627  0.49891281  0.48405885
   0.47179674  0.66362440  0.52696834
   0.37719346  0.59159633  0.59195720
   0.35219014  0.62543808  0.46054702
   0.35486287  0.71829585  0.55467840
Direct configuration=     8
   0.65741309  0.36405752  0.60056694
   0.59333749  0.40292468  0.37540709
   0.53872680  0.36835279  0.53175348
   0.64674881  0.43544127  0.49060453
   0.50468869  0.49800106  0.31903689
   0.40613446  0.37151522  0.52986833
   0.59962800  0.53507181  0.41007784
   0.54961496  0.42033762  0.65899097
   0.47600390  0.42581385  0.42747009
   0.64854258  0.50182695  0.60886680
   0.70207090  0.55849165  0.49520624
   0.58423513  0.53267630  0.72126322
   0.58844403  0.60326217  0.54356533
   0.57149848  0.66334149  0.42708981
   0.44861087  0.47846992  0.59681249
   0.47046522  0.57419181  0.42240059
   0.50003459  0.59455822  0.64087592
   0.37820319  0.49892477  0.48406129
   0.47064702  0.66385238  0.52647867
   0.37592526  0.59215926  0.59106003
   0.35176629  0.62723683  0.46008264
   0.35382076  0.71953325  0.55549771
Direct configuration=     9
   0.65735213  0.36428470  0.60067241
   0.59336324  0.40311868  0.37580840
   0.53901543  0.36859653  0.53173299
   0.64730670  0.43556947  0.49043379
   0.50480513  0.49782048  0.31876323
   0.40645623  0.37158943  0.52940769
   0.59970292  0.53449009  0.40973380
   0.54980409  0.42044251  0.65941764
   0.47567669  0.42637044  0.42759938
   0.64885568  0.50164960  0.60914017
   0.70194306  0.55832733  0.49539954
   0.58436574  0.53259674  0.72117816
   0.58827536  0.60287532  0.54341313
   0.57100200  0.66324897  0.42709068
   0.44860189  0.47830897  0.59706987
   0.47015626  0.57404084  0.42235126
   0.49999233  0.59435062  0.64084627
   0.37792800  0.49904156  0.48428595
   0.47055607  0.66353057  0.52615079
   0.37602007  0.59216370  0.59060595
   0.35200683  0.62769997  0.46012114
   0.35337468  0.71992428  0.55581464
Direct configuration=    10
   0.65716928  0.36496624  0.60098880
   0.59344047  0.40370069  0.37701234
   0.53988132  0.36932772  0.53167151
   0.64898038  0.43595407  0.48992156
   0.50515443  0.49727874  0.31794226
   0.40742156  0.37181204  0.52802575
   0.59992770  0.53274495  0.40870171
   0.55037146  0.42075716  0.66069764
   0.47469506  0.42804020  0.42798725
   0.64979496  0.50111757  0.60996027
   0.70155954  0.55783439  0.49597947
   0.58475756  0.53235806  0.72092300
   0.58776936  0.60171480  0.54295652
   0.56951255  0.66297142  0.42709330
   0.44857493  0.47782613  0.59784202
   0.46922937  0.57358794  0.42220324
   0.49986555  0.59372783  0.64075733
   0.37710242  0.49939194  0.48495991
   0.47028319  0.66256512  0.52516717
   0.37630452  0.59217702  0.58924373
   0.35272847  0.62908939  0.46023665
   0.35203645  0.72109738  0.55676546
Direct configuration=    11
   0.65711178  0.36518057  0.60108829
   0.59346475  0.40388371  0.37739094
   0.54015361  0.36955766  0.53165218
   0.64950669  0.43607502  0.48976048
   0.50526427  0.49710839  0.31768409
   0.40772513  0.37188204  0.52759118
   0.59999838  0.53219616  0.40837716
   0.55054989  0.42085611  0.66110016
   0.47438637  0.42856528  0.42810922
   0.65009034  0.50095026  0.61021816
   0.70143893  0.55767937  0.49616184
   0.58488078  0.53228301  0.72084276
   0.58761024  0.60134986  0.54281294
   0.56904417  0.66288414  0.42709412
   0.44856646  0.47767429  0.59808483
   0.46893790  0.57344551  0.42215669
   0.49982568  0.59353199  0.64072937
   0.37684280  0.49950212  0.48517185
   0.47019738  0.66226153  0.52485785
   0.37639397  0.59218121  0.58881535
   0.35295540  0.62952632  0.46027297
   0.35161562  0.72146628  0.55706445
Direct configuration=    12
   0.65722051  0.36531560  0.60124026
   0.59309268  0.40348520  0.37808888
   0.54056453  0.37068030  0.53144561
   0.65038740  0.43602627  0.48982609
   0.50547253  0.49690087  0.31730878
   0.40853519  0.37206746  0.52691267
   0.59999406  0.53240394  0.40817906
   0.55058712  0.42093228  0.66138716
   0.47449622  0.42935856  0.42796398
   0.65042197  0.50085825  0.61031750
   0.70131428  0.55768844  0.49633273
   0.58510585  0.53259011  0.72100188
   0.58708824  0.60034638  0.54251197
   0.56816576  0.66199379  0.42703474
   0.44843492  0.47734484  0.59832457
   0.46866594  0.57283266  0.42152498
   0.49966099  0.59295785  0.64043936
   0.37626105  0.49998454  0.48584682
   0.46993069  0.66211686  0.52476482
   0.37664401  0.59222286  0.58847391
   0.35310712  0.63038666  0.46030730
   0.35140947  0.72154709  0.55780381
Direct configuration=    13
   0.65754669  0.36572070  0.60169617
   0.59197647  0.40228967  0.38018270
   0.54179728  0.37404822  0.53082589
   0.65302951  0.43588003  0.49002292
   0.50609731  0.49627830  0.31618285
   0.41096538  0.37262372  0.52487713
   0.59998107  0.53302728  0.40758479
   0.55069883  0.42116079  0.66224818
   0.47482578  0.43173840  0.42752825
   0.65141687  0.50058224  0.61061553
   0.70094031  0.55771562  0.49684541
   0.58578107  0.53351142  0.72147924
   0.58552225  0.59733596  0.54160907
   0.56553053  0.65932275  0.42685662
   0.44804032  0.47635650  0.59904378
   0.46785006  0.57099408  0.41962985
   0.49916691  0.59123545  0.63956935
   0.37451581  0.50143179  0.48787171
   0.46913061  0.66168285  0.52448573
   0.37739413  0.59234783  0.58744956
   0.35356229  0.63296767  0.46041029
   0.35079103  0.72178955  0.56002186
Direct configuration=    14
   0.65784911  0.36557573  0.60193241
   0.59169413  0.40154343  0.38111913
   0.54248204  0.37561224  0.53044857
   0.65393611  0.43574628  0.48985798
   0.50669270  0.49606154  0.31546246
   0.41144480  0.37260673  0.52445284
   0.60026905  0.53272671  0.40756825
   0.55071591  0.42138201  0.66231539
   0.47464386  0.43279516  0.42731056
   0.65151360  0.50058925  0.61077633
   0.70116329  0.55819496  0.49681638
   0.58600600  0.53404762  0.72162099
   0.58475897  0.59617051  0.54113305
   0.56452716  0.65894913  0.42663854
   0.44773547  0.47577242  0.59909124
   0.46663674  0.57044280  0.41895972
   0.49929356  0.59037994  0.63965086
   0.37426164  0.50181240  0.48816530
   0.46923340  0.66185430  0.52452727
   0.37708896  0.59232425  0.58796420
   0.35353370  0.63393791  0.46017150
   0.35108033  0.72151551  0.56105392
Direct configuration=    15
   0.65851452  0.36525677  0.60245221
   0.59107291  0.39990149  0.38317953
   0.54398870  0.37905349  0.52961836
   0.65593087  0.43545198  0.48949507
   0.50800272  0.49558461  0.31387739
   0.41249963  0.37256935  0.52351928
   0.60090268  0.53206537  0.40753187
   0.55075349  0.42186875  0.66246328
   0.47424359  0.43512030  0.42683158
   0.65172643  0.50060467  0.61113013
   0.70165389  0.55924962  0.49675250
   0.58650089  0.53522741  0.72193287
   0.58307957  0.59360621  0.54008568
   0.56231948  0.65812705  0.42615870
   0.44706473  0.47448729  0.59919566
   0.46396712  0.56922983  0.41748525
   0.49957221  0.58849761  0.63983020
   0.37370241  0.50264985  0.48881125
   0.46945954  0.66223155  0.52461869
   0.37641750  0.59227237  0.58909655
   0.35347077  0.63607268  0.45964611
   0.35171688  0.72091255  0.56332472
Direct configuration=    16
   0.65866402  0.36524273  0.60248950
   0.59086561  0.39916812  0.38429064
   0.54409711  0.37993539  0.52924343
   0.65750504  0.43604615  0.48959913
   0.50951522  0.49560960  0.31368557
   0.41244325  0.37208914  0.52349091
   0.60077605  0.53111600  0.40769790
   0.55094442  0.42244426  0.66227088
   0.47352283  0.43590077  0.42660229
   0.65148510  0.50064210  0.61089207
   0.70167073  0.55991147  0.49671405
   0.58684404  0.53535341  0.72211894
   0.58284430  0.59265587  0.53910812
   0.56158585  0.65822175  0.42569066
   0.44648502  0.47431741  0.59899828
   0.46295119  0.56986754  0.41640557
   0.49939303  0.58789360  0.63998755
   0.37354825  0.50273980  0.48863743
   0.46927140  0.66196796  0.52519765
   0.37624246  0.59215328  0.59000052
   0.35345145  0.63623846  0.45995412
   0.35245416  0.72052600  0.56396168
Direct configuration=    17
   0.65900079  0.36521110  0.60257349
   0.59039865  0.39751618  0.38679346
   0.54434131  0.38192191  0.52839888
   0.66105093  0.43738452  0.48983354
   0.51292220  0.49566588  0.31325347
   0.41231625  0.37100745  0.52342699
   0.60049081  0.52897750  0.40807189
   0.55137450  0.42374062  0.66183749
   0.47189928  0.43765880  0.42608579
   0.65094149  0.50072642  0.61035582
   0.70170866  0.56140233  0.49662743
   0.58761700  0.53563723  0.72253807
   0.58231434  0.59051517  0.53690614
   0.55993332  0.65843506  0.42463638
   0.44517919  0.47393477  0.59855368
   0.46066275  0.57130400  0.41397354
   0.49898941  0.58653303  0.64034197
   0.37320098  0.50294242  0.48824590
   0.46884762  0.66137421  0.52650178
   0.37584817  0.59188502  0.59203677
   0.35340793  0.63661190  0.46064794
   0.35411494  0.71965529  0.56539646
Direct configuration=    18
   0.65882518  0.36549369  0.60227339
   0.59007364  0.39673831  0.38853763
   0.54464847  0.38296581  0.52781443
   0.66224748  0.43737859  0.49003801
   0.51432074  0.49584396  0.31343827
   0.41237547  0.37063581  0.52332046
   0.60013448  0.52861673  0.40870537
   0.55126608  0.42438463  0.66138484
   0.47139366  0.43791792  0.42570353
   0.65080716  0.50091558  0.61014160
   0.70206982  0.56234514  0.49641700
   0.58803353  0.53566461  0.72273254
   0.58122769  0.58989109  0.53611882
   0.55943796  0.65813212  0.42427767
   0.44459008  0.47365617  0.59831123
   0.46024311  0.57231221  0.41254130
   0.49948572  0.58604378  0.64016731
   0.37288948  0.50324449  0.48816191
   0.46912441  0.66048096  0.52690408
   0.37556657  0.59133828  0.59271622
   0.35317246  0.63634011  0.46142322
   0.35462734  0.71970083  0.56590807
Direct configuration=    19
   0.65869065  0.36571017  0.60204350
   0.58982466  0.39614243  0.38987373
   0.54488377  0.38376547  0.52736671
   0.66316409  0.43737405  0.49019464
   0.51539208  0.49598037  0.31357983
   0.41242084  0.37035111  0.52323885
   0.59986151  0.52834037  0.40919064
   0.55118302  0.42487797  0.66103809
   0.47100632  0.43811642  0.42541070
   0.65070426  0.50106048  0.60997749
   0.70234649  0.56306737  0.49625580
   0.58835261  0.53568559  0.72288152
   0.58039527  0.58941301  0.53551570
   0.55905850  0.65790006  0.42400289
   0.44413879  0.47344275  0.59812550
   0.45992164  0.57308454  0.41144414
   0.49986591  0.58566899  0.64003351
   0.37265086  0.50347588  0.48809757
   0.46933644  0.65979670  0.52721226
   0.37535085  0.59091946  0.59323671
   0.35299208  0.63613191  0.46201712
   0.35501987  0.71973572  0.56629998
Direct configuration=    20
   0.65838485  0.36590842  0.60188678
   0.58975680  0.39595684  0.39054131
   0.54501103  0.38416576  0.52716281
   0.66307301  0.43732084  0.49018966
   0.51509891  0.49608954  0.31377025
   0.41277980  0.37052191  0.52294544
   0.59994025  0.52884711  0.41002381
   0.55075111  0.42498807  0.66075055
   0.47084114  0.43797707  0.42518953
   0.65094103  0.50152125  0.60983065
   0.70202911  0.56318510  0.49623823
   0.58851886  0.53560011  0.72297063
   0.58032020  0.58917045  0.53555117
   0.55958217  0.65778910  0.42392969
   0.44402719  0.47329515  0.59810927
   0.45996798  0.57276115  0.41111375
   0.50044146  0.58546681  0.63987162
   0.37276171  0.50367940  0.48791687
   0.46911955  0.65935576  0.52697941
   0.37537508  0.59072078  0.59321007
   0.35278694  0.63581254  0.46261922
   0.35505235  0.71990766  0.56623616
Direct configuration=    21
   0.65809115  0.36609883  0.60173627
   0.58969163  0.39577860  0.39118248
   0.54513325  0.38455020  0.52696698
   0.66298553  0.43726973  0.49018487
   0.51481733  0.49619439  0.31395314
   0.41312456  0.37068595  0.52266363
   0.60001587  0.52933381  0.41082403
   0.55033629  0.42509381  0.66047439
   0.47068250  0.43784323  0.42497711
   0.65116844  0.50196378  0.60968962
   0.70172430  0.56329818  0.49622135
   0.58867853  0.53551802  0.72305621
   0.58024810  0.58893748  0.53558523
   0.56008512  0.65768252  0.42385938
   0.44392001  0.47315339  0.59809369
   0.46001248  0.57245055  0.41079644
   0.50099424  0.58527264  0.63971614
   0.37286817  0.50387487  0.48774332
   0.46891124  0.65893227  0.52675578
   0.37539835  0.59052995  0.59318448
   0.35258991  0.63550580  0.46319749
   0.35508354  0.72007280  0.56617487
Direct configuration=    22
   0.65777169  0.36628787  0.60179521
   0.58959937  0.39588210  0.39116468
   0.54507899  0.38468042  0.52693720
   0.66311169  0.43747547  0.49031984
   0.51463704  0.49625600  0.31419349
   0.41333610  0.37073102  0.52241160
   0.59974614  0.52918901  0.41087985
   0.55025590  0.42528582  0.66036266
   0.47050809  0.43762941  0.42460488
   0.65137741  0.50218941  0.60990412
   0.70179256  0.56333073  0.49625278
   0.58887028  0.53523149  0.72315229
   0.58016826  0.58913167  0.53569521
   0.56045631  0.65767493  0.42399478
   0.44367167  0.47334546  0.59808450
   0.46015800  0.57242653  0.41093608
   0.50113316  0.58503190  0.63965453
   0.37302102  0.50376179  0.48761540
   0.46881966  0.65857808  0.52632636
   0.37566583  0.59051612  0.59330881
   0.35229962  0.63522175  0.46337609
   0.35508173  0.72018384  0.56606654
Direct configuration=    23
   0.65734412  0.36654088  0.60187410
   0.58947589  0.39602062  0.39114086
   0.54500638  0.38485470  0.52689734
   0.66328054  0.43775082  0.49050047
   0.51439575  0.49633846  0.31451517
   0.41361922  0.37079135  0.52207430
   0.59938514  0.52899521  0.41095455
   0.55014832  0.42554280  0.66021313
   0.47027467  0.43734325  0.42410670
   0.65165710  0.50249139  0.61019121
   0.70188391  0.56337431  0.49629485
   0.58912690  0.53484801  0.72328088
   0.58006141  0.58939157  0.53584240
   0.56095311  0.65766476  0.42417599
   0.44333931  0.47360252  0.59807219
   0.46035277  0.57239438  0.41112296
   0.50131910  0.58470970  0.63957206
   0.37322558  0.50361044  0.48744419
   0.46869710  0.65810403  0.52575163
   0.37602382  0.59049760  0.59347522
   0.35191110  0.63484158  0.46361512
   0.35507930  0.72033245  0.56592155
Direct configuration=    24
   0.65708749  0.36668260  0.60199042
   0.58960886  0.39613016  0.39109141
   0.54501548  0.38500305  0.52678328
   0.66328005  0.43789228  0.49055466
   0.51427359  0.49640512  0.31432510
   0.41364659  0.37076690  0.52198395
   0.59924074  0.52879515  0.41103148
   0.55003227  0.42576877  0.66009895
   0.47000569  0.43705141  0.42376661
   0.65187901  0.50270921  0.61032265
   0.70188694  0.56350354  0.49633287
   0.58926288  0.53469533  0.72352672
   0.58041490  0.58947228  0.53590589
   0.56128895  0.65767213  0.42422474
   0.44301045  0.47348978  0.59807466
   0.46050607  0.57257898  0.41143412
   0.50150168  0.58451786  0.63979922
   0.37329070  0.50342088  0.48735370
   0.46844415  0.65789015  0.52539946
   0.37613060  0.59073856  0.59362885
   0.35158839  0.63457472  0.46365489
   0.35516505  0.72028197  0.56575328
Direct configuration=    25
   0.65669152  0.36690128  0.60216990
   0.58981405  0.39629917  0.39101510
   0.54502953  0.38523195  0.52660728
   0.66327929  0.43811056  0.49063828
   0.51408510  0.49650797  0.31403182
   0.41368881  0.37072917  0.52184453
   0.59901793  0.52848645  0.41115017
   0.54985319  0.42611743  0.65992278
   0.46959066  0.43660112  0.42324185
   0.65222142  0.50304532  0.61052547
   0.70189161  0.56370294  0.49639153
   0.58947268  0.53445974  0.72390605
   0.58096034  0.58959680  0.53600385
   0.56180716  0.65768351  0.42429995
   0.44250303  0.47331583  0.59807847
   0.46074262  0.57286380  0.41191423
   0.50178340  0.58422185  0.64014973
   0.37339118  0.50312841  0.48721408
   0.46805385  0.65756013  0.52485606
   0.37629536  0.59111036  0.59386591
   0.35109046  0.63416295  0.46371624
   0.35529737  0.72020409  0.56549362
Direct configuration=    26
   0.65642409  0.36706924  0.60230531
   0.59001600  0.39638552  0.39092132
   0.54498900  0.38545935  0.52630125
   0.66323441  0.43817907  0.49073559
   0.51395241  0.49667672  0.31371662
   0.41354120  0.37048180  0.52187379
   0.59892157  0.52842535  0.41118075
   0.54966416  0.42650793  0.65976587
   0.46937986  0.43630989  0.42262939
   0.65247597  0.50321489  0.61066901
   0.70215823  0.56390870  0.49626295
   0.58964062  0.53444252  0.72441136
   0.58105075  0.58987634  0.53627458
   0.56220619  0.65763216  0.42430225
   0.44196401  0.47318682  0.59826068
   0.46105370  0.57286732  0.41221007
   0.50200167  0.58392909  0.64018640
   0.37331801  0.50302431  0.48721800
   0.46819294  0.65719598  0.52474561
   0.37636017  0.59124988  0.59423639
   0.35061469  0.63382061  0.46358545
   0.35540088  0.72019733  0.56524425
Direct configuration=    27
   0.65623493  0.36718805  0.60240108
   0.59015885  0.39644661  0.39085499
   0.54496033  0.38562020  0.52608478
   0.66320267  0.43822752  0.49080443
   0.51385855  0.49679609  0.31349366
   0.41343679  0.37030683  0.52189449
   0.59885341  0.52838213  0.41120238
   0.54953045  0.42678415  0.65965488
   0.46923076  0.43610389  0.42219617
   0.65265602  0.50333484  0.61077054
   0.70234682  0.56405424  0.49617200
   0.58975941  0.53443034  0.72476878
   0.58111470  0.59007408  0.53646608
   0.56248844  0.65759583  0.42430387
   0.44158274  0.47309556  0.59838957
   0.46127374  0.57286980  0.41241934
   0.50215606  0.58372202  0.64021235
   0.37326626  0.50295067  0.48722078
   0.46829133  0.65693840  0.52466748
   0.37640601  0.59134857  0.59449844
   0.35027817  0.63357845  0.46349295
   0.35547410  0.72019254  0.56506786
Direct configuration=    28
   0.65596317  0.36732204  0.60245539
   0.59022434  0.39649278  0.39074563
   0.54463546  0.38582255  0.52573421
   0.66326675  0.43841054  0.49093334
   0.51386759  0.49704615  0.31337944
   0.41344449  0.37018968  0.52184067
   0.59889855  0.52854999  0.41119252
   0.54942223  0.42729140  0.65952931
   0.46899480  0.43590186  0.42184886
   0.65271381  0.50346850  0.61084036
   0.70238802  0.56407136  0.49599393
   0.58983669  0.53455128  0.72513009
   0.58146791  0.59020607  0.53656627
   0.56273573  0.65752412  0.42425236
   0.44099017  0.47299961  0.59864730
   0.46147367  0.57249410  0.41247247
   0.50224207  0.58327286  0.64019210
   0.37329080  0.50298309  0.48729043
   0.46835317  0.65664463  0.52491303
   0.37643590  0.59130678  0.59481416
   0.35027110  0.63335243  0.46353121
   0.35564411  0.72013900  0.56473381
Direct configuration=    29
   0.65514789  0.36772399  0.60261829
   0.59042081  0.39663130  0.39041754
   0.54366084  0.38642958  0.52468251
   0.66345901  0.43895959  0.49132006
   0.51389469  0.49779632  0.31303677
   0.41346757  0.36983825  0.52167923
   0.59903398  0.52905357  0.41116294
   0.54909757  0.42881316  0.65915261
   0.46828690  0.43529576  0.42080693
   0.65288717  0.50386945  0.61104982
   0.70251164  0.56412271  0.49545973
   0.59006854  0.53491412  0.72621402
   0.58252752  0.59060203  0.53686682
   0.56347761  0.65730901  0.42409782
   0.43921245  0.47271177  0.59942050
   0.46207348  0.57136699  0.41263187
   0.50250010  0.58192538  0.64013134
   0.37336445  0.50308035  0.48749939
   0.46853869  0.65576333  0.52564970
   0.37652557  0.59118142  0.59576132
   0.35024989  0.63267437  0.46364600
   0.35615415  0.71997835  0.56373167
Direct configuration=    30
   0.65458502  0.36784151  0.60243348
   0.59037405  0.39706676  0.39078405
   0.54422013  0.38654972  0.52493517
   0.66297209  0.43863614  0.49105518
   0.51412734  0.49763831  0.31307013
   0.41319516  0.36994094  0.52162788
   0.59917093  0.52864673  0.41098016
   0.54906291  0.42889979  0.65907551
   0.46802895  0.43529421  0.42072499
   0.65288270  0.50398107  0.61125675
   0.70287559  0.56424637  0.49537119
   0.59011142  0.53497100  0.72611874
   0.58240510  0.59082813  0.53678121
   0.56297993  0.65736013  0.42427537
   0.43922178  0.47229102  0.59949045
   0.46196778  0.57184840  0.41280435
   0.50277578  0.58160051  0.64016292
   0.37346299  0.50290014  0.48747299
   0.46882160  0.65539082  0.52534740
   0.37626658  0.59137947  0.59569980
   0.35080304  0.63268758  0.46368841
   0.35624964  0.72004204  0.56388077
Direct configuration=    31
   0.65453204  0.36785257  0.60241608
   0.59036965  0.39710774  0.39081854
   0.54427277  0.38656103  0.52495894
   0.66292627  0.43860570  0.49103025
   0.51414924  0.49762344  0.31307327
   0.41316953  0.36995061  0.52162304
   0.59918381  0.52860845  0.41096296
   0.54905965  0.42890795  0.65906826
   0.46800467  0.43529406  0.42071728
   0.65288228  0.50399157  0.61127622
   0.70290984  0.56425801  0.49536286
   0.59011546  0.53497635  0.72610977
   0.58239358  0.59084941  0.53677315
   0.56293309  0.65736494  0.42429208
   0.43922266  0.47225142  0.59949704
   0.46195784  0.57189371  0.41282058
   0.50280173  0.58156994  0.64016590
   0.37347226  0.50288318  0.48747051
   0.46884823  0.65535576  0.52531895
   0.37624221  0.59139811  0.59569401
   0.35085509  0.63268882  0.46369240
   0.35625862  0.72004804  0.56389480
Direct configuration=    32
   0.65397527  0.36786005  0.60236949
   0.59006960  0.39724040  0.39082323
   0.54414331  0.38661859  0.52513257
   0.66293565  0.43877335  0.49103470
   0.51430848  0.49748775  0.31318964
   0.41312660  0.37002521  0.52147954
   0.59937075  0.52868401  0.41089286
   0.54897532  0.42904168  0.65913214
   0.46770557  0.43529274  0.42065361
   0.65289096  0.50420459  0.61123984
   0.70299203  0.56411990  0.49532922
   0.59024270  0.53504428  0.72618214
   0.58280432  0.59083227  0.53664229
   0.56255538  0.65745375  0.42430460
   0.43911010  0.47206991  0.59959437
   0.46190353  0.57206330  0.41272684
   0.50282963  0.58105747  0.64003594
   0.37356904  0.50274463  0.48752727
   0.46892222  0.65504175  0.52532029
   0.37625410  0.59143722  0.59565520
   0.35134320  0.63282844  0.46374195
   0.35653277  0.72011953  0.56402915
Direct configuration=    33
   0.65247392  0.36788023  0.60224386
   0.58926052  0.39759813  0.39083586
   0.54379423  0.38677380  0.52560074
   0.66296094  0.43922541  0.49104671
   0.51473788  0.49712186  0.31350343
   0.41301085  0.37022636  0.52109260
   0.59987484  0.52888776  0.41070383
   0.54874793  0.42940230  0.65930440
   0.46689905  0.43528917  0.42048195
   0.65291437  0.50477898  0.61114175
   0.70321364  0.56374748  0.49523852
   0.59058580  0.53522743  0.72637730
   0.58391186  0.59078606  0.53628942
   0.56153687  0.65769322  0.42433836
   0.43880657  0.47158046  0.59985684
   0.46175711  0.57252062  0.41247406
   0.50290485  0.57967559  0.63968552
   0.37383001  0.50237103  0.48768035
   0.46912173  0.65419502  0.52532390
   0.37628616  0.59154267  0.59555054
   0.35265939  0.63320494  0.46387554
   0.35727200  0.72031230  0.56439142
Direct configuration=    34
   0.65296985  0.36787356  0.60228536
   0.58952779  0.39747996  0.39083169
   0.54390954  0.38672253  0.52544609
   0.66295259  0.43907609  0.49104275
   0.51459604  0.49724272  0.31339978
   0.41304909  0.37015991  0.52122042
   0.59970833  0.52882045  0.41076627
   0.54882304  0.42928317  0.65924750
   0.46716546  0.43529035  0.42053865
   0.65290664  0.50458924  0.61117415
   0.70314044  0.56387050  0.49526848
   0.59047247  0.53516693  0.72631284
   0.58354601  0.59080132  0.53640598
   0.56187331  0.65761412  0.42432720
   0.43890683  0.47174214  0.59977014
   0.46180547  0.57236955  0.41255756
   0.50288000  0.58013206  0.63980127
   0.37374381  0.50249444  0.48762979
   0.46905583  0.65447472  0.52532271
   0.37627557  0.59150784  0.59558511
   0.35222462  0.63308057  0.46383141
   0.35702781  0.72024862  0.56427175
Direct configuration=    35
   0.65273043  0.36784848  0.60228363
   0.58937935  0.39752834  0.39085253
   0.54374685  0.38678497  0.52544909
   0.66291945  0.43910596  0.49104620
   0.51464967  0.49719465  0.31345825
   0.41299742  0.37014665  0.52115375
   0.59979703  0.52895229  0.41072519
   0.54877113  0.42940968  0.65933510
   0.46702553  0.43529476  0.42046346
   0.65290582  0.50466824  0.61119693