  54  54   0   0
  0.2700248E+03  0.2443051E-08  0.2443051E-08  0.2443051E-08  0.1000000E-15
  1.000000000000000E-004
  CAR 
 unknown system                          
      2.07164624    -10.36026263  301     -3.34659404      1.00000000
    -10.360  0.0000E+00  0.0000E+00  0.0000E+00  0.0000E+00
    -10.319  0.0000E+00  0.0000E+00  0.0000E+00  0.0000E+00
    -10.277  0.0000E+00  0.0000E+00  0.0000E+00  0.0000E+00
    -10.236  0.0000E+00  0.0000E+00  0.0000E+00  0.0000E+00
    -10.195  0.0000E+00  0.0000E+00  0.0000E+00  0.0000E+00
    -10.153  0.0000E+00  0.0000E+00  0.0000E+00  0.0000E+00
    -10.112  0.0000E+00  0.0000E+00  0.0000E+00  0.0000E+00
    -10.070  0.0000E+00  0.0000E+00  0.0000E+00  0.0000E+00
    -10.029  0.0000E+00  0.0000E+00  0.0000E+00  0.0000E+00
     -9.987  0.0000E+00  0.0000E+00  0.0000E+00  0.0000E+00
     -9.946  0.0000E+00  0.0000E+00  0.0000E+00  0.0000E+00
     -9.904  0.0000E+00  0.0000E+00  0.0000E+00  0.0000E+00
     -9.863  0.0000E+00  0.0000E+00  0.0000E+00  0.0000E+00
     -9.822  0.0000E+00  0.0000E+00  0.0000E+00  0.0000E+00
     -9.780  0.0000E+00  0.0000E+00  0.1000E-02  0.1000E-02
     -9.739  0.0000E+00  0.0000E+00  0.1000E-02  0.1000E-02
     -9.697  0.0000E+00  0.0000E+00  0.1000E-02  0.1000E-02
     -9.656  0.0000E+00  0.0000E+00  0.1000E-02  0.1000E-02
     -9.614  0.0000E+00  0.0000E+00  0.1000E-02  0.1000E-02
     -9.573  0.0000E+00  0.0000E+00  0.1000E-02  0.1000E-02
     -9.531  0.0000E+00  0.0000E+00  0.1000E-02  0.1000E-02
     -9.490  0.0000E+00  0.0000E+00  0.1000E-02  0.1000E-02
     -9.449  0.0000E+00  0.0000E+00  0.1000E-02  0.1000E-02
     -9.407  0.0000E+00  0.0000E+00  0.1000E-02  0.1000E-02
     -9.366  0.0000E+00  0.0000E+00  0.1000E-02  0.1000E-02
     -9.324  0.0000E+00  0.0000E+00  0.2000E-02  0.2000E-02
     -9.283  0.0000E+00  0.0000E+00  0.2000E-02  0.2000E-02
     -9.241  0.0000E+00  0.0000E+00  0.2000E-02  0.2000E-02
     -9.200  0.0000E+00  0.0000E+00  0.2000E-02  0.2000E-02
     -9.159  0.0000E+00  0.0000E+00  0.4000E-02  0.4000E-02
     -9.117  0.0000E+00  0.0000E+00  0.5000E-02  0.5000E-02
     -9.076  0.0000E+00  0.0000E+00  0.7000E-02  0.7000E-02
     -9.034  0.0000E+00  0.0000E+00  0.8000E-02  0.8000E-02
     -8.993  0.0000E+00  0.0000E+00  0.1000E-01  0.1000E-01
     -8.951  0.0000E+00  0.0000E+00  0.1100E-01  0.1100E-01
     -8.910  0.0000E+00  0.0000E+00  0.1300E-01  0.1300E-01
     -8.868  0.0000E+00  0.0000E+00  0.1500E-01  0.1500E-01
     -8.827  0.0000E+00  0.0000E+00  0.1800E-01  0.1800E-01
     -8.786  0.0000E+00  0.0000E+00  0.2100E-01  0.2100E-01
     -8.744  0.0000E+00  0.0000E+00  0.2300E-01  0.2300E-01
     -8.703  0.1913E-01  0.1914E-01  0.2579E-01  0.2579E-01
     -8.661  0.0000E+00  0.0000E+00  0.2800E-01  0.2800E-01
     -8.620  0.0000E+00  0.0000E+00  0.3200E-01  0.3200E-01
     -8.578  0.0000E+00  0.0000E+00  0.3400E-01  0.3400E-01
     -8.537  0.0000E+00  0.0000E+00  0.3700E-01  0.3700E-01
     -8.495  0.0000E+00  0.0000E+00  0.4000E-01  0.4000E-01
     -8.454  0.0000E+00  0.0000E+00  0.4300E-01  0.4300E-01
     -8.413  0.0000E+00  0.0000E+00  0.4500E-01  0.4500E-01
     -8.371  0.0000E+00  0.0000E+00  0.4800E-01  0.4800E-01
     -8.330  0.0000E+00  0.0000E+00  0.5100E-01  0.5100E-01
     -8.288  0.0000E+00  0.0000E+00  0.5400E-01  0.5400E-01
     -8.247  0.0000E+00  0.0000E+00  0.5800E-01  0.5800E-01
     -8.205  0.0000E+00  0.0000E+00  0.6100E-01  0.6100E-01
     -8.164  0.0000E+00  0.0000E+00  0.6500E-01  0.6500E-01
     -8.123  0.0000E+00  0.0000E+00  0.6800E-01  0.6800E-01
     -8.081  0.0000E+00  0.0000E+00  0.7000E-01  0.7000E-01
     -8.040  0.0000E+00  0.0000E+00  0.7500E-01  0.7500E-01
     -7.998  0.0000E+00  0.0000E+00  0.7900E-01  0.7900E-01
     -7.957  0.0000E+00  0.0000E+00  0.8300E-01  0.8300E-01
     -7.915  0.0000E+00  0.0000E+00  0.8600E-01  0.8600E-01
     -7.874  0.0000E+00  0.0000E+00  0.8800E-01  0.8800E-01
     -7.832  0.0000E+00  0.0000E+00  0.9200E-01  0.9200E-01
     -7.791  0.0000E+00  0.0000E+00  0.9700E-01  0.9700E-01
     -7.750  0.0000E+00  0.0000E+00  0.1000E+00  0.1000E+00
     -7.708  0.2157E-15  0.2157E-15  0.1030E+00  0.1030E+00
     -7.667  0.0000E+00  0.0000E+00  0.1080E+00  0.1080E+00
     -7.625  0.0000E+00  0.0000E+00  0.1110E+00  0.1110E+00
     -7.584  0.0000E+00  0.0000E+00  0.1150E+00  0.1150E+00
     -7.542  0.0000E+00  0.0000E+00  0.1180E+00  0.1180E+00
     -7.501  0.0000E+00  0.0000E+00  0.1210E+00  0.1210E+00
     -7.459  0.0000E+00  0.0000E+00  0.1240E+00  0.1240E+00
     -7.418  0.0000E+00  0.0000E+00  0.1260E+00  0.1260E+00
     -7.377  0.0000E+00  0.0000E+00  0.1300E+00  0.1300E+00
     -7.335  0.0000E+00  0.0000E+00  0.1330E+00  0.1330E+00
     -7.294  0.0000E+00  0.0000E+00  0.1350E+00  0.1350E+00
     -7.252  0.0000E+00  0.0000E+00  0.1390E+00  0.1390E+00
     -7.211  0.0000E+00  0.0000E+00  0.1440E+00  0.1440E+00
     -7.169  0.0000E+00  0.0000E+00  0.1490E+00  0.1490E+00
     -7.128  0.0000E+00  0.0000E+00  0.1520E+00  0.1520E+00
     -7.087  0.0000E+00  0.0000E+00  0.1560E+00  0.1560E+00
     -7.045  0.0000E+00  0.0000E+00  0.1600E+00  0.1600E+00
     -7.004  0.0000E+00  0.0000E+00  0.1650E+00  0.1650E+00
     -6.962  0.2413E-01  0.2413E-01  0.1690E+00  0.1690E+00
     -6.921  0.0000E+00  0.0000E+00  0.1740E+00  0.1740E+00
     -6.879  0.0000E+00  0.0000E+00  0.1790E+00  0.1790E+00
     -6.838  0.0000E+00  0.0000E+00  0.1840E+00  0.1840E+00
     -6.796  0.0000E+00  0.0000E+00  0.1890E+00  0.1890E+00
     -6.755  0.0000E+00  0.0000E+00  0.1950E+00  0.1950E+00
     -6.714  0.0000E+00  0.0000E+00  0.2010E+00  0.2010E+00
     -6.672  0.0000E+00  0.0000E+00  0.2060E+00  0.2060E+00
     -6.631  0.0000E+00  0.0000E+00  0.2110E+00  0.2110E+00
     -6.589  0.0000E+00  0.0000E+00  0.2170E+00  0.2170E+00
     -6.548  0.0000E+00  0.0000E+00  0.2230E+00  0.2230E+00
     -6.506  0.0000E+00  0.0000E+00  0.2300E+00  0.2300E+00
     -6.465  0.0000E+00  0.0000E+00  0.2340E+00  0.2340E+00
     -6.423  0.0000E+00  0.0000E+00  0.2390E+00  0.2390E+00
     -6.382  0.0000E+00  0.0000E+00  0.2440E+00  0.2440E+00
     -6.341  0.0000E+00  0.0000E+00  0.2480E+00  0.2480E+00
     -6.299  0.0000E+00  0.0000E+00  0.2530E+00  0.2530E+00
     -6.258  0.0000E+00  0.0000E+00  0.2580E+00  0.2580E+00
     -6.216  0.2480E-03  0.2483E-03  0.2620E+00  0.2620E+00
     -6.175  0.0000E+00  0.0000E+00  0.2660E+00  0.2660E+00
     -6.133  0.0000E+00  0.0000E+00  0.2700E+00  0.2700E+00
     -6.092  0.0000E+00  0.0000E+00  0.2740E+00  0.2740E+00
     -6.051  0.0000E+00  0.0000E+00  0.2750E+00  0.2750E+00
     -6.009  0.0000E+00  0.0000E+00  0.2770E+00  0.2770E+00
     -5.968  0.0000E+00  0.0000E+00  0.2770E+00  0.2770E+00
     -5.926  0.0000E+00  0.0000E+00  0.2770E+00  0.2770E+00
     -5.885  0.0000E+00  0.0000E+00  0.2780E+00  0.2780E+00
     -5.843  0.0000E+00  0.0000E+00  0.2790E+00  0.2790E+00
     -5.802  0.0000E+00  0.0000E+00  0.2790E+00  0.2790E+00
     -5.760  0.0000E+00  0.0000E+00  0.2790E+00  0.2790E+00
     -5.719  0.0000E+00  0.0000E+00  0.2790E+00  0.2790E+00
     -5.678  0.0000E+00  0.0000E+00  0.2790E+00  0.2790E+00
     -5.636  0.0000E+00  0.0000E+00  0.2790E+00  0.2790E+00
     -5.595  0.0000E+00  0.0000E+00  0.2800E+00  0.2800E+00
     -5.553  0.0000E+00  0.0000E+00  0.2800E+00  0.2800E+00
     -5.512  0.0000E+00  0.0000E+00  0.2810E+00  0.2810E+00
     -5.470  0.0000E+00  0.0000E+00  0.2810E+00  0.2810E+00
     -5.429  0.0000E+00  0.0000E+00  0.2810E+00  0.2810E+00
     -5.387  0.0000E+00  0.0000E+00  0.2810E+00  0.2810E+00
     -5.346  0.0000E+00  0.0000E+00  0.2810E+00  0.2810E+00
     -5.305  0.0000E+00  0.0000E+00  0.2820E+00  0.2820E+00
     -5.263  0.0000E+00  0.0000E+00  0.2820E+00  0.2820E+00
     -5.222  0.0000E+00  0.0000E+00  0.2820E+00  0.2820E+00
     -5.180  0.0000E+00  0.0000E+00  0.2820E+00  0.2820E+00
     -5.139  0.0000E+00  0.0000E+00  0.2830E+00  0.2830E+00
     -5.097  0.0000E+00  0.0000E+00  0.2830E+00  0.2830E+00
     -5.056  0.0000E+00  0.0000E+00  0.2830E+00  0.2830E+00
     -5.015  0.0000E+00  0.0000E+00  0.2830E+00  0.2830E+00
     -4.973  0.0000E+00  0.0000E+00  0.2840E+00  0.2840E+00
     -4.932  0.0000E+00  0.0000E+00  0.2850E+00  0.2850E+00
     -4.890  0.0000E+00  0.0000E+00  0.2850E+00  0.2850E+00
     -4.849  0.0000E+00  0.0000E+00  0.2860E+00  0.2860E+00
     -4.807  0.0000E+00  0.0000E+00  0.2860E+00  0.2860E+00
     -4.766  0.0000E+00  0.0000E+00  0.2860E+00  0.2860E+00
     -4.724  0.0000E+00  0.0000E+00  0.2870E+00  0.2870E+00
     -4.683  0.0000E+00  0.0000E+00  0.2870E+00  0.2870E+00
     -4.642  0.0000E+00  0.0000E+00  0.2870E+00  0.2870E+00
     -4.600  0.0000E+00  0.0000E+00  0.2870E+00  0.2870E+00
     -4.559  0.0000E+00  0.0000E+00  0.2870E+00  0.2870E+00
     -4.517  0.0000E+00  0.0000E+00  0.2870E+00  0.2870E+00
     -4.476  0.0000E+00  0.0000E+00  0.2870E+00  0.2870E+00
     -4.434  0.0000E+00  0.0000E+00  0.2870E+00  0.2870E+00
     -4.393  0.0000E+00  0.0000E+00  0.2870E+00  0.2870E+00
     -4.352  0.0000E+00  0.0000E+00  0.2880E+00  0.2880E+00
     -4.310  0.0000E+00  0.0000E+00  0.2890E+00  0.2890E+00
     -4.269  0.0000E+00  0.0000E+00  0.2890E+00  0.2890E+00
     -4.227  0.0000E+00  0.0000E+00  0.2890E+00  0.2890E+00
     -4.186  0.0000E+00  0.0000E+00  0.2890E+00  0.2890E+00
     -4.144  0.0000E+00  0.0000E+00  0.2900E+00  0.2900E+00
     -4.103  0.0000E+00  0.0000E+00  0.2900E+00  0.2900E+00
     -4.061  0.0000E+00  0.0000E+00  0.2900E+00  0.2900E+00
     -4.020  0.0000E+00  0.0000E+00  0.2900E+00  0.2900E+00
     -3.979  0.0000E+00  0.0000E+00  0.2910E+00  0.2910E+00
     -3.937  0.0000E+00  0.0000E+00  0.2910E+00  0.2910E+00
     -3.896  0.0000E+00  0.0000E+00  0.2910E+00  0.2910E+00
     -3.854  0.0000E+00  0.0000E+00  0.2920E+00  0.2920E+00
     -3.813  0.0000E+00  0.0000E+00  0.2920E+00  0.2920E+00
     -3.771  0.0000E+00  0.0000E+00  0.2930E+00  0.2930E+00
     -3.730  0.0000E+00  0.0000E+00  0.2930E+00  0.2930E+00
     -3.688  0.0000E+00  0.0000E+00  0.2930E+00  0.2930E+00
     -3.647  0.0000E+00  0.0000E+00  0.2930E+00  0.2930E+00
     -3.606  0.0000E+00  0.0000E+00  0.2940E+00  0.2940E+00
     -3.564  0.0000E+00  0.0000E+00  0.2950E+00  0.2950E+00
     -3.523  0.0000E+00  0.0000E+00  0.2950E+00  0.2950E+00
     -3.481  0.0000E+00  0.0000E+00  0.2950E+00  0.2950E+00
     -3.440  0.0000E+00  0.0000E+00  0.2960E+00  0.2960E+00
     -3.398  0.0000E+00  0.0000E+00  0.2960E+00  0.2960E+00
     -3.357  0.0000E+00  0.0000E+00  0.2970E+00  0.2970E+00
     -3.316  0.0000E+00  0.0000E+00  0.2970E+00  0.2970E+00
     -3.274  0.0000E+00  0.0000E+00  0.2970E+00  0.2970E+00
     -3.233  0.0000E+00  0.0000E+00  0.2970E+00  0.2970E+00
     -3.191  0.0000E+00  0.0000E+00  0.2980E+00  0.2980E+00
     -3.150  0.0000E+00  0.0000E+00  0.2980E+00  0.2980E+00
     -3.108  0.0000E+00  0.0000E+00  0.2980E+00  0.2980E+00
     -3.067  0.0000E+00  0.0000E+00  0.2980E+00  0.2980E+00
     -3.025  0.0000E+00  0.0000E+00  0.2990E+00  0.2990E+00
     -2.984  0.0000E+00  0.0000E+00  0.2990E+00  0.2990E+00
     -2.943  0.0000E+00  0.0000E+00  0.2990E+00  0.2990E+00
     -2.901  0.0000E+00  0.0000E+00  0.3000E+00  0.3000E+00
     -2.860  0.0000E+00  0.0000E+00  0.3000E+00  0.3000E+00
     -2.818  0.0000E+00  0.0000E+00  0.3010E+00  0.3010E+00
     -2.777  0.0000E+00  0.0000E+00  0.3010E+00  0.3010E+00
     -2.735  0.0000E+00  0.0000E+00  0.3020E+00  0.3020E+00
     -2.694  0.0000E+00  0.0000E+00  0.3020E+00  0.3020E+00
     -2.652  0.0000E+00  0.0000E+00  0.3020E+00  0.3020E+00
     -2.611  0.0000E+00  0.0000E+00  0.3020E+00  0.3020E+00
     -2.570  0.0000E+00  0.0000E+00  0.3030E+00  0.3030E+00
     -2.528  0.0000E+00  0.0000E+00  0.3030E+00  0.3030E+00
     -2.487  0.0000E+00  0.0000E+00  0.3040E+00  0.3040E+00
     -2.445  0.0000E+00  0.0000E+00  0.3050E+00  0.3050E+00
     -2.404  0.0000E+00  0.0000E+00  0.3050E+00  0.3050E+00
     -2.362  0.0000E+00  0.0000E+00  0.3050E+00  0.3050E+00
     -2.321  0.0000E+00  0.0000E+00  0.3050E+00  0.3050E+00
     -2.280  0.0000E+00  0.0000E+00  0.3060E+00  0.3060E+00
     -2.238  0.0000E+00  0.0000E+00  0.3070E+00  0.3070E+00
     -2.197  0.0000E+00  0.0000E+00  0.3070E+00  0.3070E+00
     -2.155  0.0000E+00  0.0000E+00  0.3070E+00  0.3070E+00
     -2.114  0.0000E+00  0.0000E+00  0.3080E+00  0.3080E+00
     -2.072  0.0000E+00  0.0000E+00  0.3090E+00  0.3090E+00
     -2.031  0.0000E+00  0.0000E+00  0.3100E+00  0.3100E+00
     -1.989  0.0000E+00  0.0000E+00  0.3100E+00  0.3100E+00
     -1.948  0.0000E+00  0.0000E+00  0.3110E+00  0.3110E+00
     -1.907  0.0000E+00  0.0000E+00  0.3110E+00  0.3110E+00
     -1.865  0.0000E+00  0.0000E+00  0.3110E+00  0.3110E+00
     -1.824  0.0000E+00  0.0000E+00  0.3130E+00  0.3130E+00
     -1.782  0.0000E+00  0.0000E+00  0.3130E+00  0.3130E+00
     -1.741  0.0000E+00  0.0000E+00  0.3130E+00  0.3130E+00
     -1.699  0.0000E+00  0.0000E+00  0.3130E+00  0.3130E+00
     -1.658  0.0000E+00  0.0000E+00  0.3130E+00  0.3130E+00
     -1.616  0.0000E+00  0.0000E+00  0.3140E+00  0.3140E+00
     -1.575  0.0000E+00  0.0000E+00  0.3150E+00  0.3150E+00
     -1.534  0.0000E+00  0.0000E+00  0.3150E+00  0.3150E+00
     -1.492  0.0000E+00  0.0000E+00  0.3160E+00  0.3160E+00
     -1.451  0.0000E+00  0.0000E+00  0.3160E+00  0.3160E+00
     -1.409  0.0000E+00  0.0000E+00  0.3170E+00  0.3170E+00
     -1.368  0.0000E+00  0.0000E+00  0.3180E+00  0.3180E+00
     -1.326  0.0000E+00  0.0000E+00  0.3180E+00  0.3180E+00
     -1.285  0.0000E+00  0.0000E+00  0.3190E+00  0.3190E+00
     -1.244  0.0000E+00  0.0000E+00  0.3190E+00  0.3190E+00
     -1.202  0.0000E+00  0.0000E+00  0.3210E+00  0.3210E+00
     -1.161  0.0000E+00  0.0000E+00  0.3220E+00  0.3220E+00
     -1.119  0.0000E+00  0.0000E+00  0.3220E+00  0.3220E+00
     -1.078  0.0000E+00  0.0000E+00  0.3220E+00  0.3220E+00
     -1.036  0.0000E+00  0.0000E+00  0.3220E+00  0.3220E+00
     -0.995  0.0000E+00  0.0000E+00  0.3230E+00  0.3230E+00
     -0.953  0.0000E+00  0.0000E+00  0.3230E+00  0.3230E+00
     -0.912  0.0000E+00  0.0000E+00  0.3240E+00  0.3240E+00
     -0.871  0.0000E+00  0.0000E+00  0.3250E+00  0.3250E+00
     -0.829  0.0000E+00  0.0000E+00  0.3260E+00  0.3260E+00
     -0.788  0.0000E+00  0.0000E+00  0.3260E+00  0.3260E+00
     -0.746  0.0000E+00  0.0000E+00  0.3270E+00  0.3270E+00
     -0.705  0.0000E+00  0.0000E+00  0.3270E+00  0.3270E+00
     -0.663  0.0000E+00  0.0000E+00  0.3280E+00  0.3280E+00
     -0.622  0.0000E+00  0.0000E+00  0.3290E+00  0.3290E+00
     -0.580  0.0000E+00  0.0000E+00  0.3300E+00  0.3300E+00
     -0.539  0.0000E+00  0.0000E+00  0.3300E+00  0.3300E+00
     -0.498  0.0000E+00  0.0000E+00  0.3300E+00  0.3300E+00
     -0.456  0.0000E+00  0.0000E+00  0.3300E+00  0.3300E+00
     -0.415  0.0000E+00  0.0000E+00  0.3310E+00  0.3310E+00
     -0.373  0.0000E+00  0.0000E+00  0.3330E+00  0.3330E+00
     -0.332  0.0000E+00  0.0000E+00  0.3330E+00  0.3330E+00
     -0.290  0.0000E+00  0.0000E+00  0.3340E+00  0.3340E+00
     -0.249  0.0000E+00  0.0000E+00  0.3340E+00  0.3340E+00
     -0.208  0.0000E+00  0.0000E+00  0.3350E+00  0.3350E+00
     -0.166  0.0000E+00  0.0000E+00  0.3360E+00  0.3360E+00
     -0.125  0.0000E+00  0.0000E+00  0.3360E+00  0.3360E+00
     -0.083  0.0000E+00  0.0000E+00  0.3370E+00  0.3370E+00
     -0.042  0.0000E+00  0.0000E+00  0.3370E+00  0.3370E+00
     -0.000  0.0000E+00  0.0000E+00  0.3390E+00  0.3390E+00
      0.041  0.0000E+00  0.0000E+00  0.3390E+00  0.3390E+00
      0.083  0.0000E+00  0.0000E+00  0.3390E+00  0.3390E+00
      0.124  0.0000E+00  0.0000E+00  0.3390E+00  0.3390E+00
      0.165  0.0000E+00  0.0000E+00  0.3410E+00  0.3410E+00
      0.207  0.0000E+00  0.0000E+00  0.3420E+00  0.3420E+00
      0.248  0.0000E+00  0.0000E+00  0.3420E+00  0.3420E+00
      0.290  0.0000E+00  0.0000E+00  0.3430E+00  0.3430E+00
      0.331  0.0000E+00  0.0000E+00  0.3440E+00  0.3440E+00
      0.373  0.0000E+00  0.0000E+00  0.3440E+00  0.3440E+00
      0.414  0.0000E+00  0.0000E+00  0.3450E+00  0.3450E+00
      0.455  0.0000E+00  0.0000E+00  0.3450E+00  0.3450E+00
      0.497  0.0000E+00  0.0000E+00  0.3460E+00  0.3460E+00
      0.538  0.0000E+00  0.0000E+00  0.3460E+00  0.3460E+00
      0.580  0.0000E+00  0.0000E+00  0.3460E+00  0.3460E+00
      0.621  0.0000E+00  0.0000E+00  0.3470E+00  0.3470E+00
      0.663  0.0000E+00  0.0000E+00  0.3480E+00  0.3480E+00
      0.704  0.0000E+00  0.0000E+00  0.3490E+00  0.3490E+00
      0.746  0.0000E+00  0.0000E+00  0.3500E+00  0.3500E+00
      0.787  0.0000E+00  0.0000E+00  0.3510E+00  0.3510E+00
      0.828  0.0000E+00  0.0000E+00  0.3520E+00  0.3520E+00
      0.870  0.0000E+00  0.0000E+00  0.3530E+00  0.3530E+00
      0.911  0.0000E+00  0.0000E+00  0.3550E+00  0.3550E+00
      0.953  0.0000E+00  0.0000E+00  0.3560E+00  0.3560E+00
      0.994  0.0000E+00  0.0000E+00  0.3570E+00  0.3570E+00
      1.036  0.0000E+00  0.0000E+00  0.3600E+00  0.3600E+00
      1.077  0.0000E+00  0.0000E+00  0.3630E+00  0.3630E+00
      1.119  0.0000E+00  0.0000E+00  0.3650E+00  0.3650E+00
      1.160  0.0000E+00  0.0000E+00  0.3660E+00  0.3660E+00
      1.201  0.0000E+00  0.0000E+00  0.3690E+00  0.3690E+00
      1.243  0.2413E-01  0.2413E-01  0.3710E+00  0.3710E+00
      1.284  0.0000E+00  0.0000E+00  0.3730E+00  0.3730E+00
      1.326  0.0000E+00  0.0000E+00  0.3760E+00  0.3760E+00
      1.367  0.2599E-09  0.2179E-09  0.3770E+00  0.3770E+00
      1.409  0.0000E+00  0.0000E+00  0.3800E+00  0.3800E+00
      1.450  0.0000E+00  0.0000E+00  0.3810E+00  0.3810E+00
      1.491  0.0000E+00  0.0000E+00  0.3830E+00  0.3830E+00
      1.533  0.0000E+00  0.0000E+00  0.3840E+00  0.3840E+00
      1.574  0.0000E+00  0.0000E+00  0.3840E+00  0.3840E+00
      1.616  0.0000E+00  0.0000E+00  0.3840E+00  0.3840E+00
      1.657  0.0000E+00  0.0000E+00  0.3840E+00  0.3840E+00
      1.699  0.0000E+00  0.0000E+00  0.3840E+00  0.3840E+00
      1.740  0.0000E+00  0.0000E+00  0.3840E+00  0.3840E+00
      1.782  0.0000E+00  0.0000E+00  0.3840E+00  0.3840E+00
      1.823  0.0000E+00  0.0000E+00  0.3840E+00  0.3840E+00
      1.864  0.0000E+00  0.0000E+00  0.3840E+00  0.3840E+00
      1.906  0.0000E+00  0.0000E+00  0.3840E+00  0.3840E+00
      1.947  0.0000E+00  0.0000E+00  0.3840E+00  0.3840E+00
      1.989  0.0000E+00  0.0000E+00  0.3840E+00  0.3840E+00
      2.030  0.0000E+00  0.0000E+00  0.3840E+00  0.3840E+00
      2.072  0.0000E+00  0.0000E+00  0.3840E+00  0.3840E+00
