<?xml version="1.0" encoding="ISO-8859-1"?>
<modeling>
 <generator>
  <i name="program" type="string">vasp </i>
  <i name="version" type="string">5.3.5  </i>
  <i name="subversion" type="string">31Mar14 (build Feb 01 2018 12:10:03) gamma-only                       parallel </i>
  <i name="platform" type="string">LinuxIFC </i>
  <i name="date" type="string">2019 03 21 </i>
  <i name="time" type="string">20:33:51 </i>
 </generator>
 <incar>
  <i type="string" name="PREC">normal</i>
  <i type="int" name="ISPIN">     2</i>
  <i type="int" name="IBRION">     2</i>
  <i type="int" name="NSW">  1000</i>
  <i type="int" name="ISIF">     2</i>
  <i name="POTIM">      0.10000000</i>
  <i type="logical" name="LPLANE"> T  </i>
  <i type="int" name="ISMEAR">     0</i>
  <i name="SIGMA">      0.00010000</i>
  <i type="logical" name="LWAVE"> F  </i>
  <i type="logical" name="LCHARG"> F  </i>
  <i type="logical" name="LVTOT"> F  </i>
  <i type="string" name="GGA"> PE</i>
 </incar>
 <kpoints>
  <varray name="kpointlist" >
   <v>       0.00000000       0.00000000       0.00000000 </v>
  </varray>
  <varray name="weights" >
   <v>       1.00000000 </v>
  </varray>
 </kpoints>
 <parameters>
  <separator name="general" >
   <i type="string" name="SYSTEM">unknown system</i>
   <i type="logical" name="LCOMPAT"> F  </i>
  </separator>
  <separator name="electronic" >
   <i type="string" name="PREC">normal</i>
   <i name="ENMAX">    249.84400000</i>
   <i name="ENAUG">    412.49600000</i>
   <i name="EDIFF">      0.00010000</i>
   <i type="int" name="IALGO">    38</i>
   <i type="int" name="IWAVPR">    11</i>
   <i type="int" name="NBANDS">   128</i>
   <i name="NELECT">    198.00000000</i>
   <i type="int" name="TURBO">     0</i>
   <i type="int" name="IRESTART">     0</i>
   <i type="int" name="NREBOOT">     0</i>
   <i type="int" name="NMIN">     0</i>
   <i name="EREF">      0.00000000</i>
   <separator name="electronic smearing" >
    <i type="int" name="ISMEAR">     0</i>
    <i name="SIGMA">      0.00010000</i>
    <i name="KSPACING">      0.50000000</i>
    <i type="logical" name="KGAMMA"> T  </i>
   </separator>
   <separator name="electronic projectors" >
    <i type="logical" name="LREAL"> F  </i>
    <v name="ROPT">      0.00000000</v>
    <i type="int" name="LMAXPAW">  -100</i>
    <i type="int" name="LMAXMIX">     2</i>
    <i type="logical" name="NLSPLINE"> F  </i>
   </separator>
   <separator name="electronic startup" >
    <i type="int" name="ISTART">     0</i>
    <i type="int" name="ICHARG">     2</i>
    <i type="int" name="INIWAV">     1</i>
   </separator>
   <separator name="electronic spin" >
    <i type="int" name="ISPIN">     2</i>
    <i type="logical" name="LNONCOLLINEAR"> F  </i>
    <v name="MAGMOM">      1.00000000      1.00000000      1.00000000      1.00000000      1.00000000      1.00000000      1.00000000      1.00000000      1.00000000      1.00000000      1.00000000      1.00000000      1.00000000      1.00000000      1.00000000      1.00000000      1.00000000      1.00000000</v>
    <i name="NUPDOWN">     -1.00000000</i>
    <i type="logical" name="LSORBIT"> F  </i>
    <v name="SAXIS">      0.00000000      0.00000000      1.00000000</v>
    <i type="logical" name="LSPIRAL"> F  </i>
    <v name="QSPIRAL">      0.00000000      0.00000000      0.00000000</v>
    <i type="logical" name="LZEROZ"> F  </i>
   </separator>
   <separator name="electronic exchange-correlation" >
    <i type="logical" name="LASPH"> F  </i>
    <i type="logical" name="LMETAGGA"> F  </i>
   </separator>
   <separator name="electronic convergence" >
    <i type="int" name="NELM">    60</i>
    <i type="int" name="NELMDL">    -5</i>
    <i type="int" name="NELMIN">     2</i>
    <i name="ENINI">    249.84400000</i>
    <separator name="electronic convergence detail" >
     <i type="logical" name="LDIAG"> T  </i>
     <i type="logical" name="LSUBROT"> F  </i>
     <i name="WEIMIN">      0.00100000</i>
     <i name="EBREAK">      0.00000020</i>
     <i name="DEPER">      0.30000000</i>
     <i type="int" name="NRMM">     4</i>
     <i name="TIME">      0.40000000</i>
    </separator>
   </separator>
   <separator name="electronic mixer" >
    <i name="AMIX">      0.40000000</i>
    <i name="BMIX">      1.00000000</i>
    <i name="AMIN">      0.10000000</i>
    <i name="AMIX_MAG">      1.60000000</i>
    <i name="BMIX_MAG">      1.00000000</i>
    <separator name="electronic mixer details" >
     <i type="int" name="IMIX">     4</i>
     <i type="int" name="MAXMIX">   -45</i>
     <i name="WC">    100.00000000</i>
     <i type="int" name="INIMIX">     1</i>
     <i type="int" name="MIXPRE">     1</i>
     <i type="int" name="MREMOVE">     5</i>
    </separator>
   </separator>
   <separator name="electronic dipolcorrection" >
    <i type="logical" name="LDIPOL"> F  </i>
    <i type="logical" name="LMONO"> F  </i>
    <i type="int" name="IDIPOL">     0</i>
    <i name="EPSILON">      1.00000000</i>
    <v name="DIPOL">   -100.00000000   -100.00000000   -100.00000000</v>
    <i name="EFIELD">      0.00000000</i>
   </separator>
  </separator>
  <separator name="grids" >
   <i type="int" name="NGX">    80</i>
   <i type="int" name="NGY">    80</i>
   <i type="int" name="NGZ">    80</i>
   <i type="int" name="NGXF">   160</i>
   <i type="int" name="NGYF">   160</i>
   <i type="int" name="NGZF">   160</i>
   <i type="logical" name="ADDGRID"> F  </i>
  </separator>
  <separator name="ionic" >
   <i type="int" name="NSW">  1000</i>
   <i type="int" name="IBRION">     2</i>
   <i type="int" name="ISIF">     2</i>
   <i name="PSTRESS">      0.00000000</i>
   <i name="EDIFFG">      0.00100000</i>
   <i type="int" name="NFREE">     1</i>
   <i name="POTIM">      0.10000000</i>
   <i name="SMASS">     -3.00000000</i>
   <i name="SCALEE">      1.00000000</i>
  </separator>
  <separator name="ionic md" >
   <i name="TEBEG">      0.00010000</i>
   <i name="TEEND">      0.00010000</i>
   <i type="int" name="NBLOCK">     1</i>
   <i type="int" name="KBLOCK">  1000</i>
   <i type="int" name="NPACO">   256</i>
   <i name="APACO">     16.00000000</i>
  </separator>
  <separator name="symmetry" >
   <i type="int" name="ISYM">     2</i>
   <i name="SYMPREC">      0.00001000</i>
  </separator>
  <separator name="dos" >
   <i type="logical" name="LORBIT"> F  </i>
   <v name="RWIGS">     -1.00000000</v>
   <i type="int" name="NEDOS">   301</i>
   <i name="EMIN">     10.00000000</i>
   <i name="EMAX">    -10.00000000</i>
   <i name="EFERMI">      0.00000000</i>
  </separator>
  <separator name="writing" >
   <i type="int" name="NWRITE">     2</i>
   <i type="logical" name="LWAVE"> F  </i>
   <i type="logical" name="LCHARG"> F  </i>
   <i type="logical" name="LPARD"> F  </i>
   <i type="logical" name="LVTOT"> F  </i>
   <i type="logical" name="LVHAR"> F  </i>
   <i type="logical" name="LELF"> F  </i>
   <i type="logical" name="LOPTICS"> F  </i>
   <v name="STM">      0.00000000      0.00000000      0.00000000      0.00000000      0.00000000      0.00000000      0.00000000</v>
  </separator>
  <separator name="performance" >
   <i type="int" name="NPAR">     4</i>
   <i type="int" name="NSIM">     4</i>
   <i type="int" name="NBLK">    -1</i>
   <i type="logical" name="LPLANE"> T  </i>
   <i type="logical" name="LSCALAPACK"> T  </i>
   <i type="logical" name="LSCAAWARE"> F  </i>
   <i type="logical" name="LSCALU"> F  </i>
   <i type="logical" name="LASYNC"> F  </i>
   <i type="logical" name="LORBITALREAL"> F  </i>
  </separator>
  <separator name="miscellaneous" >
   <i type="int" name="IDIOT">     3</i>
   <i type="logical" name="LMUSIC"> F  </i>
   <v name="POMASS">    107.86800000</v>
   <v name="DARWINR">      0.00000000</v>
   <v name="DARWINV">      1.00000000</v>
   <i type="logical" name="LCORR"> T  </i>
  </separator>
  <i type="logical" name="GGA_COMPAT"> T  </i>
  <i type="logical" name="LBERRY"> F  </i>
  <i type="int" name="ICORELEVEL">     0</i>
  <i type="logical" name="LDAU"> F  </i>
  <i type="int" name="I_CONSTRAINED_M">     0</i>
  <separator name="electronic exchange-correlation" >
   <i type="string" name="GGA">PE</i>
   <i type="int" name="VOSKOWN">     0</i>
   <i type="logical" name="LHFCALC"> F  </i>
   <i type="string" name="PRECFOCK"></i>
   <i type="logical" name="LSYMGRAD"> F  </i>
   <i type="logical" name="LHFONE"> F  </i>
   <i type="logical" name="LRHFCALC"> F  </i>
   <i type="logical" name="LTHOMAS"> F  </i>
   <i type="logical" name="LMODELHF"> F  </i>
   <i name="ENCUT4O">     -1.00000000</i>
   <i type="int" name="EXXOEP">     0</i>
   <i type="int" name="FOURORBIT">     0</i>
   <i name="AEXX">      0.00000000</i>
   <i name="HFALPHA">      0.00000000</i>
   <i name="MCALPHA">      0.00000000</i>
   <i name="ALDAX">      1.00000000</i>
   <i name="AGGAX">      1.00000000</i>
   <i name="ALDAC">      1.00000000</i>
   <i name="AGGAC">      1.00000000</i>
   <i type="int" name="NKREDX">     1</i>
   <i type="int" name="NKREDY">     1</i>
   <i type="int" name="NKREDZ">     1</i>
   <i type="logical" name="SHIFTRED"> F  </i>
   <i type="logical" name="ODDONLY"> F  </i>
   <i type="logical" name="EVENONLY"> F  </i>
   <i type="int" name="LMAXFOCK">     0</i>
   <i type="int" name="NMAXFOCKAE">     0</i>
   <i type="logical" name="LFOCKAEDFT"> F  </i>
   <i name="HFSCREEN">      0.00000000</i>
   <i name="HFSCREENC">      0.00000000</i>
   <i type="int" name="NBANDSGWLOW">     0</i>
  </separator>
  <separator name="vdW DFT" >
   <i type="logical" name="LUSE_VDW"> F  </i>
   <i name="Zab_VDW">     -0.84910000</i>
   <i name="PARAM1">      0.12340000</i>
   <i name="PARAM2">      1.00000000</i>
   <i name="PARAM3">      0.00000000</i>
  </separator>
  <separator name="model GW" >
   <i type="int" name="MODEL_GW">     0</i>
   <i name="MODEL_EPS0">    271.46230376</i>
   <i name="MODEL_ALPHA">      1.00000000</i>
  </separator>
  <separator name="linear response parameters" >
   <i type="logical" name="LEPSILON"> F  </i>
   <i type="logical" name="LRPA"> F  </i>
   <i type="logical" name="LNABLA"> F  </i>
   <i type="logical" name="LVEL"> F  </i>
   <i type="int" name="KINTER">     0</i>
   <i name="CSHIFT">      0.10000000</i>
   <i name="OMEGAMAX">     -1.00000000</i>
   <i name="DEG_THRESHOLD">      0.00200000</i>
  </separator>
  <separator name="orbital magnetization" >
   <i type="logical" name="NUCIND"> F  </i>
   <v name="MAGPOS">      0.00000000      0.00000000      0.00000000</v>
   <i type="logical" name="LNICSALL"> T  </i>
   <i type="logical" name="ORBITALMAG"> F  </i>
   <i type="logical" name="LMAGBLOCH"> F  </i>
   <i type="logical" name="LCHIMAG"> F  </i>
   <i type="logical" name="LGAUGE"> T  </i>
   <i type="int" name="MAGATOM">     0</i>
   <v name="MAGDIPOL">      0.00000000      0.00000000      0.00000000</v>
   <v name="AVECCONST">      0.00000000      0.00000000      0.00000000</v>
  </separator>
  <separator name="response functions" >
   <i type="logical" name="LADDER"> F  </i>
   <i type="logical" name="LFXC"> F  </i>
   <i type="logical" name="LHARTREE"> T  </i>
   <i type="int" name="IBSE">     0</i>
   <i type="logical" name="LTCTE"> F  </i>
   <i type="logical" name="LTETE"> F  </i>
   <i type="logical" name="LTRIPLET"> F  </i>
   <i type="logical" name="LFXCEPS"> F  </i>
   <i type="logical" name="LFXHEG"> F  </i>
   <i type="logical" name="L2ORDER"> F  </i>
   <i type="logical" name="LUSEW"> F  </i>
   <i name="ENCUTGW">     -2.00000000</i>
   <i name="ENCUTGWSOFT">     -2.00000000</i>
   <i name="ENCUTLF">     -1.00000000</i>
   <i type="int" name="LMAXMP2">    -1</i>
   <i name="SCISSOR">      0.00000000</i>
   <i type="int" name="NOMEGA">     0</i>
   <i type="int" name="NOMEGAR">     0</i>
   <i type="int" name="NBANDSGW">    -1</i>
   <i type="int" name="NBANDSO">    -1</i>
   <i type="int" name="NBANDSV">    -1</i>
   <i type="int" name="NELM">     1</i>
   <i type="int" name="DIM">     3</i>
   <i type="int" name="ANTIRES">     0</i>
   <i name="OMEGAMAX">    -30.00000000</i>
   <i name="OMEGAMIN">    -30.00000000</i>
   <i name="OMEGATL">   -200.00000000</i>
   <i type="int" name="OMEGAGRID">     0</i>
   <i name="CSHIFT">     -0.10000000</i>
   <i type="logical" name="SELFENERGY"> F  </i>
   <i type="logical" name="LSPECTRAL"> F  </i>
   <i type="logical" name="ODDONLYGW"> F  </i>
   <i type="logical" name="EVENONLYGW"> F  </i>
   <i type="int" name="NKREDLFX">     1</i>
   <i type="int" name="NKREDLFY">     1</i>
   <i type="int" name="NKREDLFZ">     1</i>
   <i type="int" name="MAXMEM">  1800</i>
   <i type="int" name="TELESCOPE">     0</i>
   <i type="int" name="TAUPAR">     1</i>
  </separator>
  <separator name="External order field" >
   <i name="OFIELD_KAPPA">      0.00000000</i>
   <v name="OFIELD_K">      0.00000000      0.00000000      0.00000000</v>
   <i name="OFIELD_Q6_NEAR">      0.00000000</i>
   <i name="OFIELD_Q6_FAR">      0.00000000</i>
   <i name="OFIELD_A">      0.00000000</i>
  </separator>
 </parameters>
 <atominfo>
  <atoms>      18 </atoms>
  <types>       1 </types>
  <array name="atoms" >
   <dimension dim="1">ion</dimension>
   <field type="string">element</field>
   <field type="int">atomtype</field>
   <set>
    <rc><c>Ag</c><c>   1</c></rc>
    <rc><c>Ag</c><c>   1</c></rc>
    <rc><c>Ag</c><c>   1</c></rc>
    <rc><c>Ag</c><c>   1</c></rc>
    <rc><c>Ag</c><c>   1</c></rc>
    <rc><c>Ag</c><c>   1</c></rc>
    <rc><c>Ag</c><c>   1</c></rc>
    <rc><c>Ag</c><c>   1</c></rc>
    <rc><c>Ag</c><c>   1</c></rc>
    <rc><c>Ag</c><c>   1</c></rc>
    <rc><c>Ag</c><c>   1</c></rc>
    <rc><c>Ag</c><c>   1</c></rc>
    <rc><c>Ag</c><c>   1</c></rc>
    <rc><c>Ag</c><c>   1</c></rc>
    <rc><c>Ag</c><c>   1</c></rc>
    <rc><c>Ag</c><c>   1</c></rc>
    <rc><c>Ag</c><c>   1</c></rc>
    <rc><c>Ag</c><c>   1</c></rc>
   </set>
  </array>
  <array name="atomtypes" >
   <dimension dim="1">type</dimension>
   <field type="int">atomspertype</field>
   <field type="string">element</field>
   <field>mass</field>
   <field>valence</field>
   <field type="string">pseudopotential</field>
   <set>
    <rc><c>  18</c><c>Ag</c><c>    107.86800000</c><c>     11.00000000</c><c>  PAW_PBE Ag 02Apr2005                  </c></rc>
   </set>
  </array>
 </atominfo>
 <structure name="initialpos" >
  <crystal>
   <varray name="basis" >
    <v>      20.11917933       0.00000000       0.00000000 </v>
    <v>       0.00000000      20.11917933       0.00000000 </v>
    <v>       0.00000000       0.00000000      20.11917933 </v>
   </varray>
   <i name="volume">   8143.86911294 </i>
   <varray name="rec_basis" >
    <v>       0.04970382       0.00000000       0.00000000 </v>
    <v>       0.00000000       0.04970382       0.00000000 </v>
    <v>       0.00000000       0.00000000       0.04970382 </v>
   </varray>
  </crystal>
  <varray name="positions" >
   <v>       0.61744103       0.38140251       0.49174446 </v>
   <v>       0.58970323       0.44406987       0.37147209 </v>
   <v>       0.48101422       0.40320988       0.43877681 </v>
   <v>       0.61631474       0.46086924       0.62984463 </v>
   <v>       0.48422598       0.53705516       0.38638217 </v>
   <v>       0.69455684       0.50257024       0.53070465 </v>
   <v>       0.50645273       0.39126104       0.57482104 </v>
   <v>       0.66448926       0.54790494       0.41167277 </v>
   <v>       0.55521723       0.50354295       0.49814684 </v>
   <v>       0.59857133       0.60370351       0.57505275 </v>
   <v>       0.40213764       0.48750787       0.50997343 </v>
   <v>       0.57449982       0.63905794       0.43774473 </v>
   <v>       0.49377460       0.52815210       0.62385525 </v>
   <v>       0.35797713       0.57221112       0.40427604 </v>
   <v>       0.39167076       0.41751656       0.63381462 </v>
   <v>       0.36028961       0.54411133       0.63147814 </v>
   <v>       0.46684443       0.61379324       0.51367581 </v>
   <v>       0.33136000       0.61404791       0.52463929 </v>
  </varray>
 </structure>
 <calculation>
  <scstep>
   <time name="dav">    1.47    1.47</time>
   <time name="total">    1.71    1.73</time>
   <energy>
    <i name="alphaZ">     33.83984818 </i>
    <i name="ewald">  28624.87669398 </i>
    <i name="hartreedc"> -46501.38164780 </i>
    <i name="XCdc">   -198.95493252 </i>
    <i name="pawpsdc">  18060.69920525 </i>
    <i name="pawaedc"> -17230.76295982 </i>
    <i name="eentropy">      0.00000000 </i>
    <i name="bandstr">    308.62268986 </i>
    <i name="atom">  18669.57534155 </i>
    <i name="e_fr_energy">   1766.51423869 </i>
    <i name="e_wo_entrp">   1766.51423869 </i>
    <i name="e_0_energy">   1766.51423869 </i>
   </energy>
  </scstep>
  <scstep>
   <time name="dav">    2.40    2.40</time>
   <time name="total">    2.40    2.41</time>
   <energy>
    <i name="e_fr_energy">    500.22486922 </i>
    <i name="e_wo_entrp">    500.22486922 </i>
    <i name="e_0_energy">    500.22486922 </i>
   </energy>
  </scstep>
  <scstep>
   <time name="dav">    1.94    1.94</time>
   <time name="total">    1.94    1.95</time>
   <energy>
    <i name="e_fr_energy">      3.26753841 </i>
    <i name="e_wo_entrp">      3.26753841 </i>
    <i name="e_0_energy">      3.26753841 </i>
   </energy>
  </scstep>
  <scstep>
   <time name="dav">    1.63    1.64</time>
   <time name="total">    1.64    1.64</time>
   <energy>
    <i name="e_fr_energy">    -33.77680551 </i>
    <i name="e_wo_entrp">    -33.77680551 </i>
    <i name="e_0_energy">    -33.77680551 </i>
   </energy>
  </scstep>
  <scstep>
   <time name="dav">    1.66    1.66</time>
   <time name="total">    1.74    1.75</time>
   <energy>
    <i name="e_fr_energy">    -34.39004729 </i>
    <i name="e_wo_entrp">    -34.39004729 </i>
    <i name="e_0_energy">    -34.39004729 </i>
   </energy>
  </scstep>
  <scstep>
   <time name="dav">    1.51    1.51</time>
   <time name="total">    1.83    1.83</time>
   <energy>
    <i name="e_fr_energy">     -8.55084698 </i>
    <i name="e_wo_entrp">     -8.55084698 </i>
    <i name="e_0_energy">     -8.55084698 </i>
   </energy>
  </scstep>
  <scstep>
   <time name="dav">    1.56    1.56</time>
   <time name="total">    1.88    1.90</time>
   <energy>
    <i name="e_fr_energy">    -11.17412401 </i>
    <i name="e_wo_entrp">    -11.17412401 </i>
    <i name="e_0_energy">    -11.17412401 </i>
   </energy>
  </scstep>
  <scstep>
   <time name="dav">    1.56    1.57</time>
   <time name="total">    1.88    1.89</time>
   <energy>
    <i name="e_fr_energy">    -12.99392962 </i>
    <i name="e_wo_entrp">    -12.99392962 </i>
    <i name="e_0_energy">    -12.99392962 </i>
   </energy>
  </scstep>
  <scstep>
   <time name="dav">    1.62    1.62</time>
   <time name="total">    1.93    1.94</time>
   <energy>
    <i name="e_fr_energy">    -12.16461708 </i>
    <i name="e_wo_entrp">    -12.16461708 </i>
    <i name="e_0_energy">    -12.16461708 </i>
   </energy>
  </scstep>
  <scstep>
   <time name="dav">    1.53    1.53</time>
   <time name="total">    1.85    1.85</time>
   <energy>
    <i name="e_fr_energy">    -16.06073620 </i>
    <i name="e_wo_entrp">    -16.06073620 </i>
    <i name="e_0_energy">    -16.06073620 </i>
   </energy>
  </scstep>
  <scstep>
   <time name="dav">    1.54    1.54</time>
   <time name="total">    1.86    1.86</time>
   <energy>
    <i name="e_fr_energy">    -22.99754663 </i>
    <i name="e_wo_entrp">    -22.99754663 </i>
    <i name="e_0_energy">    -22.99754663 </i>
   </energy>
  </scstep>
  <scstep>
   <time name="dav">    1.54    1.54</time>
   <time name="total">    1.86    1.87</time>
   <energy>
    <i name="e_fr_energy">    -27.73069066 </i>
    <i name="e_wo_entrp">    -27.73069066 </i>
    <i name="e_0_energy">    -27.73069066 </i>
   </energy>
  </scstep>
  <scstep>
   <time name="dav">    1.76    1.76</time>
   <time name="total">    2.07    2.09</time>
   <energy>
    <i name="e_fr_energy">    -27.86333231 </i>
    <i name="e_wo_entrp">    -27.86333231 </i>
    <i name="e_0_energy">    -27.86333231 </i>
   </energy>
  </scstep>
  <scstep>
   <time name="dav">    1.53    1.53</time>
   <time name="total">    1.85    1.85</time>
   <energy>
    <i name="e_fr_energy">    -28.48057018 </i>
    <i name="e_wo_entrp">    -28.48057018 </i>
    <i name="e_0_energy">    -28.48057018 </i>
   </energy>
  </scstep>
  <scstep>
   <time name="dav">    1.53    1.53</time>
   <time name="total">    1.85    1.85</time>
   <energy>
    <i name="e_fr_energy">    -30.73837422 </i>
    <i name="e_wo_entrp">    -30.73837422 </i>
    <i name="e_0_energy">    -30.73837422 </i>
   </energy>
  </scstep>
  <scstep>
   <time name="dav">    1.65    1.65</time>
   <time name="total">    1.98    1.98</time>
   <energy>
    <i name="e_fr_energy">    -30.74767835 </i>
    <i name="e_wo_entrp">    -30.74767835 </i>
    <i name="e_0_energy">    -30.74767835 </i>
   </energy>
  </scstep>
  <scstep>
   <time name="dav">    1.56    1.56</time>
   <time name="total">    1.88    1.89</time>
   <energy>
    <i name="e_fr_energy">    -31.14197162 </i>
    <i name="e_wo_entrp">    -31.14197162 </i>
    <i name="e_0_energy">    -31.14197162 </i>
   </energy>
  </scstep>
  <scstep>
   <time name="dav">    1.56    1.56</time>
   <time name="total">    1.88    1.89</time>
   <energy>
    <i name="e_fr_energy">    -32.06399457 </i>
    <i name="e_wo_entrp">    -32.06399457 </i>
    <i name="e_0_energy">    -32.06399457 </i>
   </energy>
  </scstep>
  <scstep>
   <time name="dav">    1.53    1.53</time>
   <time name="total">    1.85    1.86</time>
   <energy>
    <i name="e_fr_energy">    -33.06406727 </i>
    <i name="e_wo_entrp">    -33.06406727 </i>
    <i name="e_0_energy">    -33.06406727 </i>
   </energy>
  </scstep>
  <scstep>
   <time name="dav">    1.60    1.60</time>
   <time name="total">    1.92    1.93</time>
   <energy>
    <i name="e_fr_energy">    -33.31884451 </i>
    <i name="e_wo_entrp">    -33.31884451 </i>
    <i name="e_0_energy">    -33.31884451 </i>
   </energy>
  </scstep>
  <scstep>
   <time name="dav">    1.58    1.58</time>
   <time name="total">    1.91    1.91</time>
   <energy>
    <i name="e_fr_energy">    -33.59764054 </i>
    <i name="e_wo_entrp">    -33.59764054 </i>
    <i name="e_0_energy">    -33.59764054 </i>
   </energy>
  </scstep>
  <scstep>
   <time name="dav">    1.56    1.57</time>
   <time name="total">    1.89    1.89</time>
   <energy>
    <i name="e_fr_energy">    -33.92478748 </i>
    <i name="e_wo_entrp">    -33.92478748 </i>
    <i name="e_0_energy">    -33.92478748 </i>
   </energy>
  </scstep>
  <scstep>
   <time name="dav">    1.60    1.60</time>
   <time name="total">    1.92    1.93</time>
   <energy>
    <i name="e_fr_energy">    -33.96137937 </i>
    <i name="e_wo_entrp">    -33.96137937 </i>
    <i name="e_0_energy">    -33.96137937 </i>
   </energy>
  </scstep>
  <scstep>
   <time name="dav">    1.57    1.57</time>
   <time name="total">    1.89    1.92</time>
   <energy>
    <i name="e_fr_energy">    -33.99855583 </i>
    <i name="e_wo_entrp">    -33.99855583 </i>
    <i name="e_0_energy">    -33.99855583 </i>
   </energy>
  </scstep>
  <scstep>
   <time name="dav">    1.60    1.60</time>
   <time name="total">    1.93    2.13</time>
   <energy>
    <i name="e_fr_energy">    -34.00680593 </i>
    <i name="e_wo_entrp">    -34.00680593 </i>
    <i name="e_0_energy">    -34.00680593 </i>
   </energy>
  </scstep>
  <scstep>
   <time name="dav">    1.57    1.57</time>
   <time name="total">    1.90    2.00</time>
   <energy>
    <i name="e_fr_energy">    -34.01399148 </i>
    <i name="e_wo_entrp">    -34.01399148 </i>
    <i name="e_0_energy">    -34.01399148 </i>
   </energy>
  </scstep>
  <scstep>
   <time name="dav">    1.21    1.21</time>
   <time name="total">    1.54    1.54</time>
   <energy>
    <i name="e_fr_energy">    -34.02073856 </i>
    <i name="e_wo_entrp">    -34.02073856 </i>
    <i name="e_0_energy">    -34.02073856 </i>
   </energy>
  </scstep>
  <scstep>
   <time name="dav">    1.21    1.21</time>
   <time name="total">    1.54    1.56</time>
   <energy>
    <i name="e_fr_energy">    -34.02384495 </i>
    <i name="e_wo_entrp">    -34.02384495 </i>
    <i name="e_0_energy">    -34.02384495 </i>
   </energy>
  </scstep>
  <scstep>
   <time name="dav">    1.21    1.21</time>
   <time name="total">    1.54    1.56</time>
   <energy>
    <i name="e_fr_energy">    -34.02472623 </i>
    <i name="e_wo_entrp">    -34.02472623 </i>
    <i name="e_0_energy">    -34.02472623 </i>
   </energy>
  </scstep>
  <scstep>
   <time name="dav">    1.21    1.21</time>
   <time name="total">    1.54    1.55</time>
   <energy>
    <i name="e_fr_energy">    -34.02510188 </i>
    <i name="e_wo_entrp">    -34.02510188 </i>
    <i name="e_0_energy">    -34.02510188 </i>
   </energy>
  </scstep>
  <scstep>
   <time name="dav">    1.18    1.18</time>
   <time name="total">    1.51    1.51</time>
   <energy>
    <i name="e_fr_energy">    -34.02531433 </i>
    <i name="e_wo_entrp">    -34.02531433 </i>
    <i name="e_0_energy">    -34.02531433 </i>
   </energy>
  </scstep>
  <scstep>
   <time name="dav">    1.14    1.14</time>
   <time name="total">    1.47    1.47</time>
   <energy>
    <i name="e_fr_energy">    -34.02558994 </i>
    <i name="e_wo_entrp">    -34.02558994 </i>
    <i name="e_0_energy">    -34.02558994 </i>
   </energy>
  </scstep>
  <scstep>
   <time name="dav">    1.18    1.18</time>
   <time name="total">    1.51    1.51</time>
   <energy>
    <i name="e_fr_energy">    -34.02579959 </i>
    <i name="e_wo_entrp">    -34.02579959 </i>
    <i name="e_0_energy">    -34.02579959 </i>
   </energy>
  </scstep>
  <scstep>
   <time name="dav">    1.18    1.18</time>
   <time name="total">    1.41    1.43</time>
   <energy>
    <i name="alphaZ">     33.83984818 </i>
    <i name="ewald">  28624.87669398 </i>
    <i name="hartreedc"> -46487.82033898 </i>
    <i name="XCdc">   -205.28981556 </i>
    <i name="pawpsdc">  19430.69072612 </i>
    <i name="pawaedc"> -18631.28605373 </i>
    <i name="eentropy">      0.00000000 </i>
    <i name="bandstr">  -1468.61223434 </i>
    <i name="atom">  18669.57534155 </i>
    <i name="e_fr_energy">    -34.02583279 </i>
    <i name="e_wo_entrp">    -34.02583279 </i>
    <i name="e_0_energy">    -34.02583279 </i>
   </energy>
  </scstep>
  <structure>
   <crystal>
    <varray name="basis" >
     <v>      20.11917933       0.00000000       0.00000000 </v>
     <v>       0.00000000      20.11917933       0.00000000 </v>
     <v>       0.00000000       0.00000000      20.11917933 </v>
    </varray>
    <i name="volume">   8143.86911294 </i>
    <varray name="rec_basis" >
     <v>       0.04970382       0.00000000       0.00000000 </v>
     <v>       0.00000000       0.04970382       0.00000000 </v>
     <v>       0.00000000       0.00000000       0.04970382 </v>
    </varray>
   </crystal>
   <varray name="positions" >
    <v>       0.61744103       0.38140251       0.49174446 </v>
    <v>       0.58970323       0.44406987       0.37147209 </v>
    <v>       0.48101422       0.40320988       0.43877681 </v>
    <v>       0.61631474       0.46086924       0.62984463 </v>
    <v>       0.48422598       0.53705516       0.38638217 </v>
    <v>       0.69455684       0.50257024       0.53070465 </v>
    <v>       0.50645273       0.39126104       0.57482104 </v>
    <v>       0.66448926       0.54790494       0.41167277 </v>
    <v>       0.55521723       0.50354295       0.49814684 </v>
    <v>       0.59857133       0.60370351       0.57505275 </v>
    <v>       0.40213764       0.48750787       0.50997343 </v>
    <v>       0.57449982       0.63905794       0.43774473 </v>
    <v>       0.49377460       0.52815210       0.62385525 </v>
    <v>       0.35797713       0.57221112       0.40427604 </v>
    <v>       0.39167076       0.41751656       0.63381462 </v>
    <v>       0.36028961       0.54411133       0.63147814 </v>
    <v>       0.46684443       0.61379324       0.51367581 </v>
    <v>       0.33136000       0.61404791       0.52463929 </v>
   </varray>
  </structure>
  <varray name="forces" >
   <v>      -0.06600427      -0.11164831       0.28955082 </v>
   <v>      -0.07109359       0.05670135      -0.40219935 </v>
   <v>      -0.28293375      -0.22915175       0.07875417 </v>
   <v>      -0.47158106      -0.06804978       0.04117416 </v>
   <v>       0.23497358       0.00036920      -0.22812164 </v>
   <v>       0.19693045       0.17298870       0.24094499 </v>
   <v>       0.26894061      -0.11262025      -0.06214219 </v>
   <v>       0.15150146       0.06647499      -0.27901953 </v>
   <v>       0.41102291      -0.08512861      -0.06918141 </v>
   <v>       0.22972731      -0.08309478      -0.07765920 </v>
   <v>      -0.14818333      -0.13598250      -0.05471533 </v>
   <v>      -0.27790702       0.30728860      -0.02607166 </v>
   <v>      -0.02204586      -0.32408517       0.33079265 </v>
   <v>       0.14560853      -0.11807473      -0.30824239 </v>
   <v>       0.10234138      -0.29741577       0.06479283 </v>
   <v>      -0.01278638       0.41693268       0.29883530 </v>
   <v>      -0.26573233       0.17704793       0.05906433 </v>
   <v>      -0.12277864       0.36744820       0.10344346 </v>
  </varray>
  <varray name="stress" >
   <v>      -1.13258395      -0.06189831      -0.10509586 </v>
   <v>      -0.06189830      -0.59062112      -0.12744826 </v>
   <v>      -0.10509586      -0.12744826      -0.39739792 </v>
  </varray>
  <energy>
   <i name="e_fr_energy">    -34.02583279 </i>
   <i name="e_wo_entrp">    -34.02583279 </i>
   <i name="e_0_energy">      0.00000000 </i>
  </energy>
  <time name="totalsc">   63.88   64.44</time>
 </calculation>
 <calculation>
  <scstep>
   <time name="dav">    1.59    1.59</time>
   <time name="total">    1.91    1.92</time>
   <energy>
    <i name="alphaZ">     33.83984818 </i>
    <i name="ewald">  28591.26239653 </i>
    <i name="hartreedc"> -46454.50454245 </i>
    <i name="XCdc">   -205.34628907 </i>
    <i name="pawpsdc">  19430.72597668 </i>
    <i name="pawaedc"> -18631.32104147 </i>
    <i name="eentropy">     -0.00000000 </i>
    <i name="bandstr">  -1468.28023382 </i>
    <i name="atom">  18669.57534155 </i>
    <i name="e_fr_energy">    -34.04854387 </i>
    <i name="e_wo_entrp">    -34.04854387 </i>
    <i name="e_0_energy">    -34.04854387 </i>
   </energy>
  </scstep>
  <scstep>
   <time name="dav">    1.59    1.59</time>
   <time name="total">    1.91    1.91</time>
   <energy>
    <i name="e_fr_energy">    -34.04931700 </i>
    <i name="e_wo_entrp">    -34.04931700 </i>
    <i name="e_0_energy">    -34.04931700 </i>
   </energy>
  </scstep>
  <scstep>
   <time name="dav">    1.12    1.13</time>
   <time name="total">    1.36    1.41</time>
   <energy>
    <i name="alphaZ">     33.83984818 </i>
    <i name="ewald">  28591.26239653 </i>
    <i name="hartreedc"> -46454.85985542 </i>
    <i name="XCdc">   -205.33744204 </i>
    <i name="pawpsdc">  19425.95875794 </i>
    <i name="pawaedc"> -18626.47921020 </i>
    <i name="eentropy">      0.00000000 </i>
    <i name="bandstr">  -1468.00914521 </i>
    <i name="atom">  18669.57534155 </i>
    <i name="e_fr_energy">    -34.04930866 </i>
    <i name="e_wo_entrp">    -34.04930866 </i>
    <i name="e_0_energy">    -34.04930866 </i>
   </energy>
  </scstep>
  <structure>
   <crystal>
    <varray name="basis" >
     <v>      20.11917933       0.00000000       0.00000000 </v>
     <v>       0.00000000      20.11917933       0.00000000 </v>
     <v>       0.00000000       0.00000000      20.11917933 </v>
    </varray>
    <i name="volume">   8143.86911294 </i>
    <varray name="rec_basis" >
     <v>       0.04970382       0.00000000       0.00000000 </v>
     <v>       0.00000000       0.04970382       0.00000000 </v>
     <v>       0.00000000       0.00000000       0.04970382 </v>
    </varray>
   </crystal>
   <varray name="positions" >
    <v>       0.61740938       0.38134897       0.49188332 </v>
    <v>       0.58966914       0.44409707       0.37127920 </v>
    <v>       0.48087853       0.40309999       0.43881458 </v>
    <v>       0.61608858       0.46083660       0.62986438 </v>
    <v>       0.48433866       0.53705533       0.38627277 </v>
    <v>       0.69465128       0.50265320       0.53082020 </v>
    <v>       0.50658171       0.39120703       0.57479123 </v>
    <v>       0.66456192       0.54793682       0.41153896 </v>
    <v>       0.55541434       0.50350213       0.49811366 </v>
    <v>       0.59868150       0.60366366       0.57501551 </v>
    <v>       0.40206658       0.48744266       0.50994719 </v>
    <v>       0.57436655       0.63920531       0.43773222 </v>
    <v>       0.49376403       0.52799668       0.62401389 </v>
    <v>       0.35804696       0.57215449       0.40412822 </v>
    <v>       0.39171984       0.41737393       0.63384569 </v>
    <v>       0.36028348       0.54431128       0.63162145 </v>
    <v>       0.46671700       0.61387814       0.51370413 </v>
    <v>       0.33130111       0.61422412       0.52468890 </v>
   </varray>
  </structure>
  <varray name="forces" >
   <v>      -0.05960988      -0.10534635       0.26413384 </v>
   <v>      -0.07609159       0.04927902      -0.36782475 </v>
   <v>      -0.25635117      -0.20764637       0.07090192 </v>
   <v>      -0.43984704      -0.06425956       0.03640936 </v>
   <v>       0.22877287      -0.00184934      -0.21009954 </v>
   <v>       0.18380220       0.16966475       0.22559143 </v>
   <v>       0.24361886      -0.10997474      -0.05542984 </v>
   <v>       0.13092330       0.06764705      -0.25104153 </v>
   <v>       0.37779100      -0.07349494      -0.07531705 </v>
   <v>       0.20882475      -0.08299516      -0.07524396 </v>
   <v>      -0.14327215      -0.11867070      -0.04183984 </v>
   <v>      -0.25873345       0.27956329      -0.02447690 </v>
   <v>      -0.02429675      -0.30408219       0.30238962 </v>
   <v>       0.14001371      -0.10962367      -0.27239427 </v>
   <v>       0.09854647      -0.25750942       0.05447752 </v>
   <v>       0.00109066       0.37862402       0.27712955 </v>
   <v>      -0.24233270       0.15031041       0.06167968 </v>
   <v>      -0.11284909       0.34036389       0.08095478 </v>
  </varray>
  <varray name="stress" >
   <v>      -1.16286369      -0.05605181      -0.09715071 </v>
   <v>      -0.05605181      -0.64333811      -0.11725847 </v>
   <v>      -0.09715070      -0.11725848      -0.46380445 </v>
  </varray>
  <energy>
   <i name="e_fr_energy">    -34.04930866 </i>
   <i name="e_wo_entrp">    -34.04930866 </i>
   <i name="e_0_energy">      0.00000000 </i>
  </energy>
  <time name="totalsc">    7.76    8.05</time>
 </calculation>
 <calculation>
  <scstep>
   <time name="dav">    1.54    1.54</time>
   <time name="total">    1.85    2.36</time>
   <energy>
    <i name="alphaZ">     33.83984818 </i>
    <i name="ewald">  28490.73097555 </i>
    <i name="hartreedc"> -46355.38421955 </i>
    <i name="XCdc">   -205.50142417 </i>
    <i name="pawpsdc">  19423.05254953 </i>
    <i name="pawaedc"> -18623.52675035 </i>
    <i name="eentropy">      0.00000000 </i>
    <i name="bandstr">  -1466.89058086 </i>
    <i name="atom">  18669.57534155 </i>
    <i name="e_fr_energy">    -34.10426012 </i>
    <i name="e_wo_entrp">    -34.10426012 </i>
    <i name="e_0_energy">    -34.10426012 </i>
   </energy>
  </scstep>
  <scstep>
   <time name="dav">    1.61    1.61</time>
   <time name="total">    1.93    1.93</time>
   <energy>
    <i name="e_fr_energy">    -34.11108246 </i>
    <i name="e_wo_entrp">    -34.11108246 </i>
    <i name="e_0_energy">    -34.11108246 </i>
   </energy>
  </scstep>
  <scstep>
   <time name="dav">    1.58    1.59</time>
   <time name="total">    1.90    1.91</time>
   <energy>
    <i name="e_fr_energy">    -34.11098259 </i>
    <i name="e_wo_entrp">    -34.11098259 </i>
    <i name="e_0_energy">    -34.11098259 </i>
   </energy>
  </scstep>
  <scstep>
   <time name="dav">    1.59    1.59</time>
   <time name="total">    1.82    1.83</time>
   <energy>
    <i name="alphaZ">     33.83984818 </i>
    <i name="ewald">  28490.73097555 </i>
    <i name="hartreedc"> -46356.85953246 </i>
    <i name="XCdc">   -205.46726576 </i>
    <i name="pawpsdc">  19401.10269128 </i>
    <i name="pawaedc"> -18601.22731905 </i>
    <i name="eentropy">      0.00000000 </i>
    <i name="bandstr">  -1465.80564631 </i>
    <i name="atom">  18669.57534155 </i>
    <i name="e_fr_energy">    -34.11090702 </i>
    <i name="e_wo_entrp">    -34.11090702 </i>
    <i name="e_0_energy">    -34.11090702 </i>
   </energy>
  </scstep>
  <structure>
   <crystal>
    <varray name="basis" >
     <v>      20.11917933       0.00000000       0.00000000 </v>
     <v>       0.00000000      20.11917933       0.00000000 </v>
     <v>       0.00000000       0.00000000      20.11917933 </v>
    </varray>
    <i name="volume">   8143.86911294 </i>
    <varray name="rec_basis" >
     <v>       0.04970382       0.00000000       0.00000000 </v>
     <v>       0.00000000       0.04970382       0.00000000 </v>
     <v>       0.00000000       0.00000000       0.04970382 </v>
    </varray>
   </crystal>
   <varray name="positions" >
    <v>       0.61731442       0.38118834       0.49229990 </v>
    <v>       0.58956685       0.44417864       0.37070056 </v>
    <v>       0.48047147       0.40277030       0.43892788 </v>
    <v>       0.61541012       0.46073870       0.62992362 </v>
    <v>       0.48467672       0.53705586       0.38594457 </v>
    <v>       0.69493460       0.50290208       0.53116685 </v>
    <v>       0.50696864       0.39104500       0.57470183 </v>
    <v>       0.66477989       0.54803246       0.41113753 </v>
    <v>       0.55600568       0.50337965       0.49801413 </v>
    <v>       0.59901201       0.60354411       0.57490378 </v>
    <v>       0.40185339       0.48724702       0.50986847 </v>
    <v>       0.57396672       0.63964740       0.43769471 </v>
    <v>       0.49373231       0.52753042       0.62448980 </v>
    <v>       0.35825645       0.57198462       0.40368475 </v>
    <v>       0.39186708       0.41694603       0.63393891 </v>
    <v>       0.36026509       0.54491113       0.63205138 </v>
    <v>       0.46633469       0.61413286       0.51378911 </v>
    <v>       0.33112447       0.61475278       0.52483773 </v>
   </varray>
  </structure>
  <varray name="forces" >
   <v>      -0.04617834      -0.10316505       0.21847560 </v>
   <v>      -0.09561877       0.03556828      -0.30564190 </v>
   <v>      -0.20476990      -0.16573222       0.05428115 </v>
   <v>      -0.38238767      -0.05833173       0.02628634 </v>
   <v>       0.22800698      -0.00781488      -0.17703730 </v>
   <v>       0.16133083       0.17422126       0.20429111 </v>
   <v>       0.18933814      -0.11068457      -0.04068742 </v>
   <v>       0.08553834       0.07610175      -0.19625565 </v>
   <v>       0.32283778      -0.04865295      -0.09867425 </v>
   <v>       0.16999532      -0.08829315      -0.07439552 </v>
   <v>      -0.14062010      -0.08142337      -0.01116708 </v>
   <v>      -0.22570871       0.22368541      -0.02145734 </v>
   <v>      -0.03622898      -0.27274794       0.24966932 </v>
   <v>       0.13565965      -0.09524422      -0.19642600 </v>
   <v>       0.09697368      -0.17109836       0.03004603 </v>
   <v>       0.03767115       0.30930522       0.23859704 </v>
   <v>      -0.20016998       0.09185461       0.07156833 </v>
   <v>      -0.09566942       0.29245190       0.02852753 </v>
  </varray>
  <varray name="stress" >
   <v>      -1.24540649      -0.03946397      -0.07710405 </v>
   <v>      -0.03946398      -0.78934300      -0.09331429 </v>
   <v>      -0.07710406      -0.09331429      -0.64427978 </v>
  </varray>
  <energy>
   <i name="e_fr_energy">    -34.11090702 </i>
   <i name="e_wo_entrp">    -34.11090702 </i>
   <i name="e_0_energy">      0.00000000 </i>
  </energy>
  <time name="totalsc">   10.07   10.60</time>
 </calculation>
 <calculation>
  <scstep>
   <time name="dav">    1.52    1.52</time>
   <time name="total">    1.84    1.85</time>
   <energy>
    <i name="alphaZ">     33.83984818 </i>
    <i name="ewald">  28291.05700641 </i>
    <i name="hartreedc"> -46158.86619018 </i>
    <i name="XCdc">   -205.78354126 </i>
    <i name="pawpsdc">  19399.73721310 </i>
    <i name="pawaedc"> -18599.83927549 </i>
    <i name="eentropy">      0.00000000 </i>
    <i name="bandstr">  -1463.89052873 </i>
    <i name="atom">  18669.57534155 </i>
    <i name="e_fr_energy">    -34.17012642 </i>
    <i name="e_wo_entrp">    -34.17012642 </i>
    <i name="e_0_energy">    -34.17012642 </i>
   </energy>
  </scstep>
  <scstep>
   <time name="dav">    1.56    1.56</time>
   <time name="total">    1.87    1.88</time>
   <energy>
    <i name="e_fr_energy">    -34.19752536 </i>
    <i name="e_wo_entrp">    -34.19752536 </i>
    <i name="e_0_energy">    -34.19752536 </i>
   </energy>
  </scstep>
  <scstep>
   <time name="dav">    1.56    1.56</time>
   <time name="total">    1.87    1.88</time>
   <energy>
    <i name="e_fr_energy">    -34.19723149 </i>
    <i name="e_wo_entrp">    -34.19723149 </i>
    <i name="e_0_energy">    -34.19723149 </i>
   </energy>
  </scstep>
  <scstep>
   <time name="dav">    1.59    1.59</time>
   <time name="total">    1.91    1.91</time>
   <energy>
    <i name="e_fr_energy">    -34.19683450 </i>
    <i name="e_wo_entrp">    -34.19683450 </i>
    <i name="e_0_energy">    -34.19683450 </i>
   </energy>
  </scstep>
  <scstep>
   <time name="dav">    1.10    1.09</time>
   <time name="total">    1.33    1.33</time>
   <energy>
    <i name="alphaZ">     33.83984818 </i>
    <i name="ewald">  28291.05700641 </i>
    <i name="hartreedc"> -46161.80012314 </i>
    <i name="XCdc">   -205.71498341 </i>
    <i name="pawpsdc">  19357.82024625 </i>
    <i name="pawaedc"> -18557.23782117 </i>
    <i name="eentropy">      0.00000000 </i>
    <i name="bandstr">  -1461.73636011 </i>
    <i name="atom">  18669.57534155 </i>
    <i name="e_fr_energy">    -34.19684545 </i>
    <i name="e_wo_entrp">    -34.19684545 </i>
    <i name="e_0_energy">    -34.19684545 </i>
   </energy>
  </scstep>
  <structure>
   <crystal>
    <varray name="basis" >
     <v>      20.11917933       0.00000000       0.00000000 </v>
     <v>       0.00000000      20.11917933       0.00000000 </v>
     <v>       0.00000000       0.00000000      20.11917933 </v>
    </varray>
    <i name="volume">   8143.86911294 </i>
    <varray name="rec_basis" >
     <v>       0.04970382       0.00000000       0.00000000 </v>
     <v>       0.00000000       0.04970382       0.00000000 </v>
     <v>       0.00000000       0.00000000       0.04970382 </v>
    </varray>
   </crystal>
   <varray name="positions" >
    <v>       0.61712450       0.38086708       0.49313306 </v>
    <v>       0.58936229       0.44434180       0.36954326 </v>
    <v>       0.47965736       0.40211094       0.43915449 </v>
    <v>       0.61405318       0.46054289       0.63004209 </v>
    <v>       0.48535284       0.53705693       0.38528817 </v>
    <v>       0.69550125       0.50339984       0.53186015 </v>
    <v>       0.50774249       0.39072095       0.57452302 </v>
    <v>       0.66521582       0.54822373       0.41033468 </v>
    <v>       0.55718836       0.50313470       0.49781506 </v>
    <v>       0.59967303       0.60330501       0.57468032 </v>
    <v>       0.40142700       0.48685574       0.50971103 </v>
    <v>       0.57316707       0.64053160       0.43761969 </v>
    <v>       0.49366887       0.52659789       0.62544163 </v>
    <v>       0.35867542       0.57164487       0.40279781 </v>
    <v>       0.39216156       0.41609024       0.63412535 </v>
    <v>       0.36022829       0.54611081       0.63291126 </v>
    <v>       0.46557007       0.61464230       0.51395906 </v>
    <v>       0.33077119       0.61581008       0.52513538 </v>
   </varray>
  </structure>
  <varray name="forces" >
   <v>      -0.00786773      -0.09274184       0.12177659 </v>
   <v>      -0.12433128       0.01001275      -0.18762998 </v>
   <v>      -0.09208113      -0.07871000       0.01824878 </v>
   <v>      -0.23206275      -0.04451856       0.00998520 </v>
   <v>       0.21267023      -0.01700500      -0.10151207 </v>
   <v>       0.10943714       0.17204960       0.15629057 </v>
   <v>       0.05544863      -0.11145363      -0.00592717 </v>
   <v>      -0.00616503       0.08604873      -0.08168932 </v>
   <v>       0.20134728       0.00299862      -0.14153712 </v>
   <v>       0.08608829      -0.08974623      -0.06707082 </v>
   <v>      -0.12981927      -0.00491416       0.04940364 </v>
   <v>      -0.15424973       0.10552718      -0.01181548 </v>
   <v>      -0.07180684      -0.19085891       0.14023624 </v>
   <v>       0.12070761      -0.06477342      -0.04444984 </v>
   <v>       0.09376474      -0.00749455      -0.01759346 </v>
   <v>       0.10465282       0.16327843       0.14390135 </v>
   <v>      -0.10593528      -0.02330752       0.08479266 </v>
   <v>      -0.05979772       0.18560851      -0.06540975 </v>
  </varray>
  <varray name="stress" >
   <v>      -1.36488539      -0.01562681      -0.03720454 </v>
   <v>      -0.01562682      -1.03071779      -0.04365389 </v>
   <v>      -0.03720454      -0.04365389      -0.95828976 </v>
  </varray>
  <energy>
   <i name="e_fr_energy">    -34.19684545 </i>
   <i name="e_wo_entrp">    -34.19684545 </i>
   <i name="e_0_energy">      0.00000000 </i>
  </energy>
  <time name="totalsc">   11.38   11.91</time>
 </calculation>
 <calculation>
  <scstep>
   <time name="dav">    1.52    1.52</time>
   <time name="total">    1.84    1.85</time>
   <energy>
    <i name="alphaZ">     33.83984818 </i>
    <i name="ewald">  27897.16077697 </i>
    <i name="hartreedc"> -45770.73161155 </i>
    <i name="XCdc">   -206.28965350 </i>
    <i name="pawpsdc">  19358.39539023 </i>
    <i name="pawaedc"> -18557.81895083 </i>
    <i name="eentropy">      0.00000000 </i>
    <i name="bandstr">  -1458.25884358 </i>
    <i name="atom">  18669.57534155 </i>
    <i name="e_fr_energy">    -34.12770253 </i>
    <i name="e_wo_entrp">    -34.12770253 </i>
    <i name="e_0_energy">    -34.12770253 </i>
   </energy>
  </scstep>
  <scstep>
   <time name="dav">    1.59    1.59</time>
   <time name="total">    1.91    1.91</time>
   <energy>
    <i name="e_fr_energy">    -34.23775457 </i>
    <i name="e_wo_entrp">    -34.23775457 </i>
    <i name="e_0_energy">    -34.23775457 </i>
   </energy>
  </scstep>
  <scstep>
   <time name="dav">    1.59    1.59</time>
   <time name="total">    1.91    1.91</time>
   <energy>
    <i name="e_fr_energy">    -34.23712315 </i>
    <i name="e_wo_entrp">    -34.23712315 </i>
    <i name="e_0_energy">    -34.23712315 </i>
   </energy>
  </scstep>
  <scstep>
   <time name="dav">    1.56    1.56</time>
   <time name="total">    1.87    1.87</time>
   <energy>
    <i name="e_fr_energy">    -34.23497605 </i>
    <i name="e_wo_entrp">    -34.23497605 </i>
    <i name="e_0_energy">    -34.23497605 </i>
   </energy>
  </scstep>
  <scstep>
   <time name="dav">    1.62    1.63</time>
   <time name="total">    1.94    3.09</time>
   <energy>
    <i name="e_fr_energy">    -34.23513673 </i>
    <i name="e_wo_entrp">    -34.23513673 </i>
    <i name="e_0_energy">    -34.23513673 </i>
   </energy>
  </scstep>
  <scstep>
   <time name="dav">    1.14    1.15</time>
   <time name="total">    1.38    1.39</time>
   <energy>
    <i name="alphaZ">     33.83984818 </i>
    <i name="ewald">  27897.16077697 </i>
    <i name="hartreedc"> -45776.11764692 </i>
    <i name="XCdc">   -206.15927022 </i>
    <i name="pawpsdc">  19288.96726409 </i>
    <i name="pawaedc"> -18487.20313841 </i>
    <i name="eentropy">      0.00000000 </i>
    <i name="bandstr">  -1454.29822477 </i>
    <i name="atom">  18669.57534155 </i>
    <i name="e_fr_energy">    -34.23504953 </i>
    <i name="e_wo_entrp">    -34.23504953 </i>
    <i name="e_0_energy">    -34.23504953 </i>
   </energy>
  </scstep>
  <structure>
   <crystal>
    <varray name="basis" >
     <v>      20.11917933       0.00000000       0.00000000 </v>
     <v>       0.00000000      20.11917933       0.00000000 </v>
     <v>       0.00000000       0.00000000      20.11917933 </v>
    </varray>
    <i name="volume">   8143.86911294 </i>
    <varray name="rec_basis" >
     <v>       0.04970382       0.00000000       0.00000000 </v>
     <v>       0.00000000       0.04970382       0.00000000 </v>
     <v>       0.00000000       0.00000000       0.04970382 </v>
    </varray>
   </crystal>
   <varray name="positions" >
    <v>       0.61674465       0.38022456       0.49479937 </v>
    <v>       0.58895316       0.44466810       0.36722868 </v>
    <v>       0.47802912       0.40079221       0.43960771 </v>
    <v>       0.61133932       0.46015128       0.63027904 </v>
    <v>       0.48670507       0.53705905       0.38397537 </v>
    <v>       0.69663456       0.50439536       0.53324675 </v>
    <v>       0.50929020       0.39007284       0.57416540 </v>
    <v>       0.66608768       0.54860629       0.40872897 </v>
    <v>       0.55955373       0.50264480       0.49741694 </v>
    <v>       0.60099508       0.60282682       0.57423341 </v>
    <v>       0.40057423       0.48607319       0.50939615 </v>
    <v>       0.57156776       0.64229999       0.43746966 </v>
    <v>       0.49354200       0.52473283       0.62734528 </v>
    <v>       0.35951337       0.57096537       0.40102393 </v>
    <v>       0.39275052       0.41437867       0.63449822 </v>
    <v>       0.36015471       0.54851019       0.63463100 </v>
    <v>       0.46404082       0.61566118       0.51429897 </v>
    <v>       0.33006462       0.61792468       0.52573068 </v>
   </varray>
  </structure>
  <varray name="forces" >
   <v>       0.11120805      -0.09603125      -0.04991879 </v>
   <v>      -0.15974345      -0.02908450       0.00324605 </v>
   <v>       0.11172705       0.06858777      -0.04140484 </v>
   <v>       0.12026021      -0.01800537       0.01134467 </v>
   <v>       0.18110322      -0.02839683       0.04376599 </v>
   <v>       0.01802189       0.15672696       0.05764660 </v>
   <v>      -0.26596598      -0.13052894       0.06479940 </v>
   <v>      -0.16422040       0.08689028       0.10984961 </v>
   <v>      -0.00746583       0.09045045      -0.23760975 </v>
   <v>      -0.06363764      -0.07996648      -0.05197638 </v>
   <v>      -0.11120537       0.12977535       0.15325306 </v>
   <v>      -0.03475610      -0.08826725       0.01490295 </v>
   <v>      -0.19584296      -0.02941592      -0.04541760 </v>
   <v>       0.09932473      -0.01891055       0.20133443 </v>
   <v>       0.10029135       0.24240123      -0.10287219 </v>
   <v>       0.21105679      -0.06013726      -0.03352346 </v>
   <v>       0.05985809      -0.21469931       0.10093692 </v>
   <v>      -0.01001363       0.01861165      -0.19835666 </v>
  </varray>
  <varray name="stress" >
   <v>      -1.52297507       0.00258190       0.02855022 </v>
   <v>       0.00258190      -1.42471905       0.05593602 </v>
   <v>       0.02855022       0.05593602      -1.48095955 </v>
  </varray>
  <energy>
   <i name="e_fr_energy">    -34.23504953 </i>
   <i name="e_wo_entrp">    -34.23504953 </i>
   <i name="e_0_energy">      0.00000000 </i>
  </energy>
  <time name="totalsc">   13.43   15.49</time>
 </calculation>
 <calculation>
  <scstep>
   <time name="dav">    1.52    1.52</time>
   <time name="total">    1.84    1.85</time>
   <energy>
    <i name="alphaZ">     33.83984818 </i>
    <i name="ewald">  27998.33225030 </i>
    <i name="hartreedc"> -45876.77364956 </i>
    <i name="XCdc">   -206.01397977 </i>
    <i name="pawpsdc">  19289.73001481 </i>
    <i name="pawaedc"> -18487.96885180 </i>
    <i name="eentropy">      0.00000000 </i>
    <i name="bandstr">  -1454.95471032 </i>
    <i name="atom">  18669.57534155 </i>
    <i name="e_fr_energy">    -34.23373662 </i>
    <i name="e_wo_entrp">    -34.23373662 </i>
    <i name="e_0_energy">    -34.23373662 </i>
   </energy>
  </scstep>
  <scstep>
   <time name="dav">    1.59    1.59</time>
   <time name="total">    1.90    1.91</time>
   <energy>
    <i name="e_fr_energy">    -34.24117117 </i>
    <i name="e_wo_entrp">    -34.24117117 </i>
    <i name="e_0_energy">    -34.24117117 </i>
   </energy>
  </scstep>
  <scstep>
   <time name="dav">    1.58    1.58</time>
   <time name="total">    1.89    1.91</time>
   <energy>
    <i name="e_fr_energy">    -34.24109285 </i>
    <i name="e_wo_entrp">    -34.24109285 </i>
    <i name="e_0_energy">    -34.24109285 </i>
   </energy>
  </scstep>
  <scstep>
   <time name="dav">    1.55    1.55</time>
   <time name="total">    1.79    1.80</time>
   <energy>
    <i name="alphaZ">     33.83984818 </i>
    <i name="ewald">  27998.33225030 </i>
    <i name="hartreedc"> -45875.64758158 </i>
    <i name="XCdc">   -206.04671920 </i>
    <i name="pawpsdc">  19305.01570631 </i>
    <i name="pawaedc"> -18503.51569195 </i>
    <i name="eentropy">      0.00000000 </i>
    <i name="bandstr">  -1455.79420409 </i>
    <i name="atom">  18669.57534155 </i>
    <i name="e_fr_energy">    -34.24105048 </i>
    <i name="e_wo_entrp">    -34.24105048 </i>
    <i name="e_0_energy">    -34.24105048 </i>
   </energy>
  </scstep>
  <structure>
   <crystal>
    <varray name="basis" >
     <v>      20.11917933       0.00000000       0.00000000 </v>
     <v>       0.00000000      20.11917933       0.00000000 </v>
     <v>       0.00000000       0.00000000      20.11917933 </v>
    </varray>
    <i name="volume">   8143.86911294 </i>
    <varray name="rec_basis" >
     <v>       0.04970382       0.00000000       0.00000000 </v>
     <v>       0.00000000       0.04970382       0.00000000 </v>
     <v>       0.00000000       0.00000000       0.04970382 </v>
    </varray>
   </crystal>
   <varray name="positions" >
    <v>       0.61684288       0.38039071       0.49436848 </v>
    <v>       0.58905895       0.44458372       0.36782721 </v>
    <v>       0.47845017       0.40113323       0.43949051 </v>
    <v>       0.61204111       0.46025254       0.63021777 </v>
    <v>       0.48635539       0.53705850       0.38431485 </v>
    <v>       0.69634149       0.50413793       0.53288818 </v>
    <v>       0.50888997       0.39024044       0.57425788 </v>
    <v>       0.66586222       0.54850736       0.40914419 </v>
    <v>       0.55894206       0.50277149       0.49751989 </v>
    <v>       0.60065320       0.60295047       0.57434898 </v>
    <v>       0.40079475       0.48627555       0.50947758 </v>
    <v>       0.57198133       0.64184270       0.43750846 </v>
    <v>       0.49357481       0.52521513       0.62685301 </v>
    <v>       0.35929668       0.57114108       0.40148264 </v>
    <v>       0.39259822       0.41482127       0.63440179 </v>
    <v>       0.36017374       0.54788972       0.63418629 </v>
    <v>       0.46443627       0.61539771       0.51421107 </v>
    <v>       0.33024733       0.61737785       0.52557674 </v>
   </varray>
  </structure>
  <varray name="forces" >
   <v>       0.07511035      -0.09030320      -0.00476141 </v>
   <v>      -0.15253775      -0.02028643      -0.04221354 </v>
   <v>       0.06319982       0.03544457      -0.02759290 </v>
   <v>       0.02417837      -0.02402992       0.00650396 </v>
   <v>       0.18864974      -0.02610331       0.00843407 </v>
   <v>       0.03827883       0.16090099       0.08029261 </v>
   <v>      -0.17757435      -0.12205002       0.04663324 </v>
   <v>      -0.12695548       0.08905146       0.06614827 </v>
   <v>       0.04031002       0.07069484      -0.21166198 </v>
   <v>      -0.02839113      -0.08347578      -0.05576695 </v>
   <v>      -0.11437466       0.09905815       0.12925786 </v>
   <v>      -0.06094360      -0.04813655       0.00768560 </v>
   <v>      -0.15726576      -0.07066393      -0.00227520 </v>
   <v>       0.10323911      -0.02867773       0.14581641 </v>
   <v>       0.09687528       0.18897474      -0.08233444 </v>
   <v>       0.18703574      -0.01230922       0.00864623 </v>
   <v>       0.02089985      -0.17105819       0.09790381 </v>
   <v>      -0.01973439       0.05296953      -0.17071565 </v>
  </varray>
  <varray name="stress" >
   <v>      -1.47756493       0.00203790       0.01618883 </v>
   <v>       0.00203790      -1.31989259       0.03328930 </v>
   <v>       0.01618883       0.03328931      -1.34722375 </v>
  </varray>
  <energy>
   <i name="e_fr_energy">    -34.24105048 </i>
   <i name="e_wo_entrp">    -34.24105048 </i>
   <i name="e_0_energy">      0.00000000 </i>
  </energy>
  <time name="totalsc">   10.00   10.49</time>
 </calculation>
 <calculation>
  <scstep>
   <time name="dav">    1.52    1.52</time>
   <time name="total">    1.84    1.85</time>
   <energy>
    <i name="alphaZ">     33.83984818 </i>
    <i name="ewald">  27995.53334371 </i>
    <i name="hartreedc"> -45872.97758870 </i>
    <i name="XCdc">   -206.04838159 </i>
    <i name="pawpsdc">  19305.99528676 </i>
    <i name="pawaedc"> -18504.51757356 </i>
    <i name="eentropy">      0.00000000 </i>
    <i name="bandstr">  -1455.65810403 </i>
    <i name="atom">  18669.57534155 </i>
    <i name="e_fr_energy">    -34.25782768 </i>
    <i name="e_wo_entrp">    -34.25782768 </i>
    <i name="e_0_energy">    -34.25782768 </i>
   </energy>
  </scstep>
  <scstep>
   <time name="dav">    1.56    1.56</time>
   <time name="total">    1.87    1.90</time>
   <energy>
    <i name="e_fr_energy">    -34.26173531 </i>
    <i name="e_wo_entrp">    -34.26173531 </i>
    <i name="e_0_energy">    -34.26173531 </i>
   </energy>
  </scstep>
  <scstep>
   <time name="dav">    1.66    1.66</time>
   <time name="total">    1.90    1.94</time>
   <energy>
    <i name="alphaZ">     33.83984818 </i>
    <i name="ewald">  27995.53334371 </i>
    <i name="hartreedc"> -45873.16350702 </i>
    <i name="XCdc">   -206.04876787 </i>
    <i name="pawpsdc">  19306.25015736 </i>
    <i name="pawaedc"> -18504.77160567 </i>
    <i name="eentropy">      0.00000000 </i>
    <i name="bandstr">  -1455.47650017 </i>
    <i name="atom">  18669.57534155 </i>
    <i name="e_fr_energy">    -34.26168991 </i>
    <i name="e_wo_entrp">    -34.26168991 </i>
    <i name="e_0_energy">    -34.26168991 </i>
   </energy>
  </scstep>
  <structure>
   <crystal>
    <varray name="basis" >
     <v>      20.11917933       0.00000000       0.00000000 </v>
     <v>       0.00000000      20.11917933       0.00000000 </v>
     <v>       0.00000000       0.00000000      20.11917933 </v>
    </varray>
    <i name="volume">   8143.86911294 </i>
    <varray name="rec_basis" >
     <v>       0.04970382       0.00000000       0.00000000 </v>
     <v>       0.00000000       0.04970382       0.00000000 </v>
     <v>       0.00000000       0.00000000       0.04970382 </v>
    </varray>
   </crystal>
   <varray name="positions" >
    <v>       0.61697564       0.38013794       0.49449925 </v>
    <v>       0.58868929       0.44456683       0.36753834 </v>
    <v>       0.47845097       0.40109930       0.43946832 </v>
    <v>       0.61186419       0.46016658       0.63025213 </v>
    <v>       0.48688430       0.53700136       0.38422211 </v>
    <v>       0.69652161       0.50457566       0.53318203 </v>
    <v>       0.50863117       0.38991747       0.57432998 </v>
    <v>       0.66565731       0.54873535       0.40915337 </v>
    <v>       0.55923106       0.50288522       0.49702131 </v>
    <v>       0.60070290       0.60272662       0.57418863 </v>
    <v>       0.40047130       0.48642677       0.50973475 </v>
    <v>       0.57171194       0.64188686       0.43751262 </v>
    <v>       0.49321868       0.52490187       0.62700935 </v>
    <v>       0.35959443       0.57102051       0.40165253 </v>
    <v>       0.39286088       0.41509122       0.63425258 </v>
    <v>       0.36057826       0.54806605       0.63435103 </v>
    <v>       0.46435256       0.61510840       0.51445489 </v>
    <v>       0.33014411       0.61767340       0.52525228 </v>
   </varray>
  </structure>
  <varray name="forces" >
   <v>       0.04619279      -0.06226942       0.00234697 </v>
   <v>      -0.11137556      -0.03161601      -0.03895330 </v>
   <v>       0.04663739       0.05356559       0.00059561 </v>
   <v>       0.01761633      -0.02356257      -0.01348652 </v>
   <v>       0.13696593      -0.00184192      -0.00804661 </v>
   <v>       0.02842761       0.15260569       0.07206958 </v>
   <v>      -0.11416572      -0.10559024       0.00493980 </v>
   <v>      -0.12105322       0.06650920       0.06536598 </v>
   <v>       0.03781793       0.02284002      -0.16332668 </v>
   <v>      -0.04393536      -0.07478491      -0.03639731 </v>
   <v>      -0.09114264       0.07096289       0.09993874 </v>
   <v>      -0.06156861      -0.03343627       0.00957968 </v>
   <v>      -0.08719456      -0.07348328      -0.02450013 </v>
   <v>       0.11880941      -0.03679067       0.12528403 </v>
   <v>       0.05882156       0.16797924      -0.05413017 </v>
   <v>       0.13111223       0.03517039      -0.01834810 </v>
   <v>       0.02597740      -0.16582818       0.10027588 </v>
   <v>      -0.01794292       0.03957044      -0.12320744 </v>
  </varray>
  <varray name="stress" >
   <v>      -1.47304961      -0.01219549       0.01342770 </v>
   <v>      -0.01219549      -1.33971843       0.05001608 </v>
   <v>       0.01342769       0.05001608      -1.38360556 </v>
  </varray>
  <energy>
   <i name="e_fr_energy">    -34.26168991 </i>
   <i name="e_wo_entrp">    -34.26168991 </i>
   <i name="e_0_energy">      0.00000000 </i>
  </energy>
  <time name="totalsc">    8.18    8.39</time>
 </calculation>
 <calculation>
  <scstep>
   <time name="dav">    1.52    1.52</time>
   <time name="total">    1.84    1.85</time>
   <energy>
    <i name="alphaZ">     33.83984818 </i>
    <i name="ewald">  27987.55827319 </i>
    <i name="hartreedc"> -45865.46077121 </i>
    <i name="XCdc">   -206.03575420 </i>
    <i name="pawpsdc">  19305.54240543 </i>
    <i name="pawaedc"> -18504.06015971 </i>
    <i name="eentropy">      0.00000000 </i>
    <i name="bandstr">  -1455.21931933 </i>
    <i name="atom">  18669.57534155 </i>
    <i name="e_fr_energy">    -34.26013611 </i>
    <i name="e_wo_entrp">    -34.26013611 </i>
    <i name="e_0_energy">    -34.26013611 </i>
   </energy>
  </scstep>
  <scstep>
   <time name="dav">    1.55    1.56</time>
   <time name="total">    1.87    1.88</time>
   <energy>
    <i name="e_fr_energy">    -34.29572871 </i>
    <i name="e_wo_entrp">    -34.29572871 </i>
    <i name="e_0_energy">    -34.29572871 </i>
   </energy>
  </scstep>
  <scstep>
   <time name="dav">    1.66    1.66</time>
   <time name="total">    1.98    2.00</time>
   <energy>
    <i name="e_fr_energy">    -34.29530326 </i>
    <i name="e_wo_entrp">    -34.29530326 </i>
    <i name="e_0_energy">    -34.29530326 </i>
   </energy>
  </scstep>
  <scstep>
   <time name="dav">    1.56    1.56</time>
   <time name="total">    1.88    1.88</time>
   <energy>
    <i name="e_fr_energy">    -34.29461003 </i>
    <i name="e_wo_entrp">    -34.29461003 </i>
    <i name="e_0_energy">    -34.29461003 </i>
   </energy>
  </scstep>
  <scstep>
   <time name="dav">    1.22    1.22</time>
   <time name="total">    1.46    3.21</time>
   <energy>
    <i name="alphaZ">     33.83984818 </i>
    <i name="ewald">  27987.55827319 </i>
    <i name="hartreedc"> -45865.89792575 </i>
    <i name="XCdc">   -206.03777269 </i>
    <i name="pawpsdc">  19307.49976827 </i>
    <i name="pawaedc"> -18506.04474993 </i>
    <i name="eentropy">      0.00000000 </i>
    <i name="bandstr">  -1454.78743840 </i>
    <i name="atom">  18669.57534155 </i>
    <i name="e_fr_energy">    -34.29465558 </i>
    <i name="e_wo_entrp">    -34.29465558 </i>
    <i name="e_0_energy">    -34.29465558 </i>
   </energy>
  </scstep>
  <structure>
   <crystal>
    <varray name="basis" >
     <v>      20.11917933       0.00000000       0.00000000 </v>
     <v>       0.00000000      20.11917933       0.00000000 </v>
     <v>       0.00000000       0.00000000      20.11917933 </v>
    </varray>
    <i name="volume">   8143.86911294 </i>
    <varray name="rec_basis" >
     <v>       0.04970382       0.00000000       0.00000000 </v>
     <v>       0.00000000       0.04970382       0.00000000 </v>
     <v>       0.00000000       0.00000000       0.04970382 </v>
    </varray>
   </crystal>
   <varray name="positions" >
    <v>       0.61737391       0.37937962       0.49489157 </v>
    <v>       0.58758028       0.44451614       0.36667170 </v>
    <v>       0.47845335       0.40099751       0.43940177 </v>
    <v>       0.61133344       0.45990869       0.63035523 </v>
    <v>       0.48847102       0.53682992       0.38394388 </v>
    <v>       0.69706196       0.50588886       0.53406360 </v>
    <v>       0.50785477       0.38894856       0.57454629 </v>
    <v>       0.66504256       0.54941933       0.40918090 </v>
    <v>       0.56009807       0.50322642       0.49552557 </v>
    <v>       0.60085200       0.60205506       0.57370758 </v>
    <v>       0.39950092       0.48688043       0.51050629 </v>
    <v>       0.57090377       0.64201936       0.43752510 </v>
    <v>       0.49215030       0.52396209       0.62747840 </v>
    <v>       0.36048767       0.57065880       0.40216218 </v>
    <v>       0.39364889       0.41590106       0.63380494 </v>
    <v>       0.36179181       0.54859503       0.63484527 </v>
    <v>       0.46410142       0.61424047       0.51518634 </v>
    <v>       0.32983443       0.61856006       0.52427890 </v>
   </varray>
  </structure>
  <varray name="forces" >
   <v>      -0.03434127       0.01175937       0.02048703 </v>
   <v>       0.00886625      -0.07601023      -0.02761703 </v>
   <v>       0.00869106       0.10190203       0.07559427 </v>
   <v>       0.00789461      -0.02027669      -0.06769778 </v>
   <v>      -0.02931138       0.07593264      -0.05711700 </v>
   <v>      -0.00339528       0.13036285       0.04279513 </v>
   <v>       0.06377485      -0.06515294      -0.10918124 </v>
   <v>      -0.10083378       0.00715595       0.06386349 </v>
   <v>       0.02889752      -0.11021501      -0.02550888 </v>
   <v>      -0.09051778      -0.04804889       0.01832764 </v>
   <v>      -0.03171881      -0.00350182       0.01738517 </v>
   <v>      -0.05915365       0.00238850       0.01673901 </v>
   <v>       0.13260967      -0.07044301      -0.08749844 </v>
   <v>       0.16028830      -0.06079227       0.07529641 </v>
   <v>      -0.05754100       0.10718460       0.02911673 </v>
   <v>      -0.04207623       0.16050811      -0.08966672 </v>
   <v>       0.04787448      -0.15147733       0.10566597 </v>
   <v>      -0.01000754       0.00872412      -0.00098373 </v>
  </varray>
  <varray name="stress" >
   <v>      -1.40651205      -0.04405235       0.00548124 </v>
   <v>      -0.04405235      -1.35349894       0.08770449 </v>
   <v>       0.00548124       0.08770448      -1.43233055 </v>
  </varray>
  <energy>
   <i name="e_fr_energy">    -34.29465558 </i>
   <i name="e_wo_entrp">    -34.29465558 </i>
   <i name="e_0_energy">      0.00000000 </i>
  </energy>
  <time name="totalsc">   11.61   13.55</time>
 </calculation>
 <calculation>
  <scstep>
   <time name="dav">    1.52    1.52</time>
   <time name="total">    1.84    1.85</time>
   <energy>
    <i name="alphaZ">     33.83984818 </i>
    <i name="ewald">  27985.18377493 </i>
    <i name="hartreedc"> -45863.53400805 </i>
    <i name="XCdc">   -206.03052931 </i>
    <i name="pawpsdc">  19307.30329787 </i>
    <i name="pawaedc"> -18505.84631821 </i>
    <i name="eentropy">      0.00000000 </i>
    <i name="bandstr">  -1454.78407279 </i>
    <i name="atom">  18669.57534155 </i>
    <i name="e_fr_energy">    -34.29266582 </i>
    <i name="e_wo_entrp">    -34.29266582 </i>
    <i name="e_0_energy">    -34.29266582 </i>
   </energy>
  </scstep>
  <scstep>
   <time name="dav">    1.56    1.56</time>
   <time name="total">    1.87    1.88</time>
   <energy>
    <i name="e_fr_energy">    -34.29618440 </i>
    <i name="e_wo_entrp">    -34.29618440 </i>
    <i name="e_0_energy">    -34.29618440 </i>
   </energy>
  </scstep>
  <scstep>
   <time name="dav">    1.56    1.56</time>
   <time name="total">    1.80    1.80</time>
   <energy>
    <i name="alphaZ">     33.83984818 </i>
    <i name="ewald">  27985.18377493 </i>
    <i name="hartreedc"> -45863.65174494 </i>
    <i name="XCdc">   -206.03072961 </i>
    <i name="pawpsdc">  19308.52201722 </i>
    <i name="pawaedc"> -18507.07843524 </i>
    <i name="eentropy">      0.00000000 </i>
    <i name="bandstr">  -1454.65624544 </i>
    <i name="atom">  18669.57534155 </i>
    <i name="e_fr_energy">    -34.29617336 </i>
    <i name="e_wo_entrp">    -34.29617336 </i>
    <i name="e_0_energy">    -34.29617336 </i>
   </energy>
  </scstep>
  <structure>
   <crystal>
    <varray name="basis" >
     <v>      20.11917933       0.00000000       0.00000000 </v>
     <v>       0.00000000      20.11917933       0.00000000 </v>
     <v>       0.00000000       0.00000000      20.11917933 </v>
    </varray>
    <i name="volume">   8143.86911294 </i>
    <varray name="rec_basis" >
     <v>       0.04970382       0.00000000       0.00000000 </v>
     <v>       0.00000000       0.04970382       0.00000000 </v>
     <v>       0.00000000       0.00000000       0.04970382 </v>
    </varray>
   </crystal>
   <varray name="positions" >
    <v>       0.61749882       0.37914179       0.49501460 </v>
    <v>       0.58723248       0.44450024       0.36639990 </v>
    <v>       0.47845409       0.40096559       0.43938089 </v>
    <v>       0.61116699       0.45982781       0.63038757 </v>
    <v>       0.48896865       0.53677615       0.38385662 </v>
    <v>       0.69723143       0.50630071       0.53434007 </v>
    <v>       0.50761128       0.38864470       0.57461413 </v>
    <v>       0.66484977       0.54963384       0.40918954 </v>
    <v>       0.56036998       0.50333343       0.49505648 </v>
    <v>       0.60089876       0.60184445       0.57355671 </v>
    <v>       0.39919659       0.48702270       0.51074826 </v>
    <v>       0.57065031       0.64206092       0.43752902 </v>
    <v>       0.49181523       0.52366735       0.62762550 </v>
    <v>       0.36076781       0.57054536       0.40232202 </v>
    <v>       0.39389602       0.41615504       0.63366455 </v>
    <v>       0.36217240       0.54876093       0.63500027 </v>
    <v>       0.46402266       0.61396827       0.51541574 </v>
    <v>       0.32973731       0.61883813       0.52397363 </v>
   </varray>
  </structure>
  <varray name="forces" >
   <v>      -0.06147203       0.03818949       0.02386869 </v>
   <v>       0.05425325      -0.09515838      -0.02126581 </v>
   <v>      -0.00318092       0.11662857       0.09964232 </v>
   <v>       0.00665043      -0.01919531      -0.08537138 </v>
   <v>      -0.09098429       0.10394807      -0.07352451 </v>
   <v>      -0.01365218       0.12139729       0.02894921 </v>
   <v>       0.12279163      -0.05461269      -0.14573213 </v>
   <v>      -0.08890721      -0.01320007       0.06130907 </v>
   <v>       0.02456940      -0.15489690       0.02212545 </v>
   <v>      -0.10757324      -0.03606462       0.03879784 </v>
   <v>      -0.01280466      -0.02844674      -0.01113904 </v>
   <v>      -0.05712977       0.01404581       0.02028620 </v>
   <v>       0.21540833      -0.06578312      -0.10702272 </v>
   <v>       0.16998699      -0.06763590       0.05574005 </v>
   <v>      -0.09909568       0.08311728       0.06007217 </v>
   <v>      -0.10804542       0.19933867      -0.11150447 </v>
   <v>       0.05567851      -0.14389186       0.10533831 </v>
   <v>      -0.00649313       0.00222041       0.03943074 </v>
  </varray>
  <varray name="stress" >
   <v>      -1.37321283      -0.06026063       0.00070817 </v>
   <v>      -0.06026063      -1.34288491       0.10400587 </v>
   <v>       0.00070816       0.10400586      -1.44234659 </v>
  </varray>
  <energy>
   <i name="e_fr_energy">    -34.29617336 </i>
   <i name="e_wo_entrp">    -34.29617336 </i>
   <i name="e_0_energy">      0.00000000 </i>
  </energy>
  <time name="totalsc">    8.07    8.15</time>
 </calculation>
 <calculation>
  <scstep>
   <time name="dav">    1.52    1.53</time>
   <time name="total">    1.84    2.27</time>
   <energy>
    <i name="alphaZ">     33.83984818 </i>
    <i name="ewald">  28024.07760752 </i>
    <i name="hartreedc"> -45902.47791342 </i>
    <i name="XCdc">   -205.96593258 </i>
    <i name="pawpsdc">  19308.51573119 </i>
    <i name="pawaedc"> -18507.07664280 </i>
    <i name="eentropy">      0.00000000 </i>
    <i name="bandstr">  -1454.79658373 </i>
    <i name="atom">  18669.57534155 </i>
    <i name="e_fr_energy">    -34.30854410 </i>
    <i name="e_wo_entrp">    -34.30854410 </i>
    <i name="e_0_energy">    -34.30854410 </i>
   </energy>
  </scstep>
  <scstep>
   <time name="dav">    1.60    1.60</time>
   <time name="total">    1.91    1.92</time>
   <energy>
    <i name="e_fr_energy">    -34.31860627 </i>
    <i name="e_wo_entrp">    -34.31860627 </i>
    <i name="e_0_energy">    -34.31860627 </i>
   </energy>
  </scstep>
  <scstep>
   <time name="dav">    1.63    1.63</time>
   <time name="total">    1.95    1.95</time>
   <energy>
    <i name="e_fr_energy">    -34.31851743 </i>
    <i name="e_wo_entrp">    -34.31851743 </i>
    <i name="e_0_energy">    -34.31851743 </i>
   </energy>
  </scstep>
  <scstep>
   <time name="dav">    1.56    1.56</time>
   <time name="total">    1.88    1.90</time>
   <energy>
    <i name="e_fr_energy">    -34.31826992 </i>
    <i name="e_wo_entrp">    -34.31826992 </i>
    <i name="e_0_energy">    -34.31826992 </i>
   </energy>
  </scstep>
  <scstep>
   <time name="dav">    1.39    1.39</time>
   <time name="total">    1.63    1.65</time>
   <energy>
    <i name="alphaZ">     33.83984818 </i>
    <i name="ewald">  28024.07760752 </i>
    <i name="hartreedc"> -45902.27236995 </i>
    <i name="XCdc">   -205.97758514 </i>
    <i name="pawpsdc">  19316.48920784 </i>
    <i name="pawaedc"> -18515.18546080 </i>
    <i name="eentropy">      0.00000000 </i>
    <i name="bandstr">  -1454.86485723 </i>
    <i name="atom">  18669.57534155 </i>
    <i name="e_fr_energy">    -34.31826804 </i>
    <i name="e_wo_entrp">    -34.31826804 </i>
    <i name="e_0_energy">    -34.31826804 </i>
   </energy>
  </scstep>
  <structure>
   <crystal>
    <varray name="basis" >
     <v>      20.11917933       0.00000000       0.00000000 </v>
     <v>       0.00000000      20.11917933       0.00000000 </v>
     <v>       0.00000000       0.00000000      20.11917933 </v>
    </varray>
    <i name="volume">   8143.86911294 </i>
    <varray name="rec_basis" >
     <v>       0.04970382       0.00000000       0.00000000 </v>
     <v>       0.00000000       0.04970382       0.00000000 </v>
     <v>       0.00000000       0.00000000       0.04970382 </v>
    </varray>
   </crystal>
   <varray name="positions" >
    <v>       0.61746205       0.37896788       0.49523952 </v>
    <v>       0.58697320       0.44418638       0.36600036 </v>
    <v>       0.47844517       0.40128715       0.43966348 </v>
    <v>       0.61098316       0.45966911       0.63016320 </v>
    <v>       0.48929828       0.53703167       0.38352203 </v>
    <v>       0.69739730       0.50718196       0.53476912 </v>
    <v>       0.50769210       0.38810263       0.57424665 </v>
    <v>       0.66433801       0.54985641       0.40938979 </v>
    <v>       0.56077988       0.50298569       0.49454889 </v>
    <v>       0.60062343       0.60147426       0.57349146 </v>
    <v>       0.39878328       0.48710942       0.51101094 </v>
    <v>       0.57016236       0.64215539       0.43759658 </v>
    <v>       0.49207009       0.52310195       0.62747509 </v>
    <v>       0.36163762       0.57019684       0.40269071 </v>
    <v>       0.39389296       0.41672403       0.63367797 </v>
    <v>       0.36230555       0.54958125       0.63484570 </v>
    <v>       0.46409817       0.61318892       0.51602327 </v>
    <v>       0.32959797       0.61918646       0.52372074 </v>
   </varray>
  </structure>
  <varray name="forces" >
   <v>      -0.03509425       0.02427182       0.00743151 </v>
   <v>       0.06758860      -0.09335723      -0.01425207 </v>
   <v>      -0.02163937       0.10658944       0.06863329 </v>
   <v>       0.04587329      -0.04256235      -0.08619230 </v>
   <v>      -0.05056245       0.08846708      -0.08048838 </v>
   <v>      -0.00409678       0.11953225       0.01918354 </v>
   <v>       0.07188661      -0.04436379      -0.09174557 </v>
   <v>      -0.07644541      -0.02730162       0.04614938 </v>
   <v>       0.00623072      -0.13601017       0.04183473 </v>
   <v>      -0.11379142      -0.01662812       0.04501503 </v>
   <v>      -0.01167575      -0.05428165      -0.01088563 </v>
   <v>      -0.06013450       0.02756737       0.02267372 </v>
   <v>       0.16022946      -0.05128872      -0.09640921 </v>
   <v>       0.12497332      -0.05743575       0.04175989 </v>
   <v>      -0.07229991       0.07123490       0.05572238 </v>
   <v>      -0.07272679       0.18624896      -0.10581523 </v>
   <v>       0.04624800      -0.12171959       0.10045154 </v>
   <v>      -0.00456335       0.02103717       0.03693337 </v>
  </varray>
  <varray name="stress" >
   <v>      -1.33864494      -0.06884606      -0.00019164 </v>
   <v>      -0.06884606      -1.30569252       0.09372519 </v>
   <v>      -0.00019165       0.09372519      -1.40132152 </v>
  </varray>
  <energy>
   <i name="e_fr_energy">    -34.31826804 </i>
   <i name="e_wo_entrp">    -34.31826804 </i>
   <i name="e_0_energy">      0.00000000 </i>
  </energy>
  <time name="totalsc">   11.78   12.28</time>
 </calculation>
 <calculation>
  <scstep>
   <time name="dav">    1.52    1.52</time>
   <time name="total">    1.84    6.22</time>
   <energy>
    <i name="alphaZ">     33.83984818 </i>
    <i name="ewald">  28137.70833519 </i>
    <i name="hartreedc"> -46015.66655067 </i>
    <i name="XCdc">   -205.77252697 </i>
    <i name="pawpsdc">  19316.52071986 </i>
    <i name="pawaedc"> -18515.21828319 </i>
    <i name="eentropy">      0.00000000 </i>
    <i name="bandstr">  -1455.25366171 </i>
    <i name="atom">  18669.57534155 </i>
    <i name="e_fr_energy">    -34.26677777 </i>
    <i name="e_wo_entrp">    -34.26677777 </i>
    <i name="e_0_energy">    -34.26677777 </i>
   </energy>
  </scstep>
  <scstep>
   <time name="dav">    1.63    1.63</time>
   <time name="total">    1.95    1.95</time>
   <energy>
    <i name="e_fr_energy">    -34.35955862 </i>
    <i name="e_wo_entrp">    -34.35955862 </i>
    <i name="e_0_energy">    -34.35955862 </i>
   </energy>
  </scstep>
  <scstep>
   <time name="dav">    1.59    1.59</time>
   <time name="total">    1.91    1.91</time>
   <energy>
    <i name="e_fr_energy">    -34.35847622 </i>
    <i name="e_wo_entrp">    -34.35847622 </i>
    <i name="e_0_energy">    -34.35847622 </i>
   </energy>
  </scstep>
  <scstep>
   <time name="dav">    1.50    1.49</time>
   <time name="total">    1.80    2.31</time>
   <energy>
    <i name="e_fr_energy">    -34.35645239 </i>
    <i name="e_wo_entrp">    -34.35645239 </i>
    <i name="e_0_energy">    -34.35645239 </i>
   </energy>
  </scstep>
  <scstep>
   <time name="dav">    1.59    1.59</time>
   <time name="total">    1.91    1.95</time>
   <energy>
    <i name="e_fr_energy">    -34.35638333 </i>
    <i name="e_wo_entrp">    -34.35638333 </i>
    <i name="e_0_energy">    -34.35638333 </i>
   </energy>
  </scstep>
  <scstep>
   <time name="dav">    1.18    1.18</time>
   <time name="total">    1.42    1.75</time>
   <energy>
[...]
       <r>    -1.2487     0.0000   109.0000 </r>
       <r>    -1.2114     0.0000   110.0000 </r>
       <r>    -1.1742     0.0000   110.0000 </r>
       <r>    -1.1369     0.0000   110.0000 </r>
       <r>    -1.0997     0.0000   110.0000 </r>
       <r>    -1.0624     0.0000   110.0000 </r>
       <r>    -1.0251     0.0000   110.0000 </r>
       <r>    -0.9879     0.0000   110.0000 </r>
       <r>    -0.9506     0.0000   110.0000 </r>
       <r>    -0.9133     0.0000   110.0000 </r>
       <r>    -0.8761     0.0000   110.0000 </r>
       <r>    -0.8388     0.0000   110.0000 </r>
       <r>    -0.8016     0.0000   110.0000 </r>
       <r>    -0.7643     0.0000   110.0000 </r>
       <r>    -0.7270     0.0000   110.0000 </r>
       <r>    -0.6898     0.0000   110.0000 </r>
       <r>    -0.6525     0.0000   111.0000 </r>
       <r>    -0.6152     0.0000   112.0000 </r>
       <r>    -0.5780     0.0000   112.0000 </r>
       <r>    -0.5407     0.0000   113.0000 </r>
       <r>    -0.5035     0.0000   113.0000 </r>
       <r>    -0.4662     0.0000   113.0000 </r>
       <r>    -0.4289     0.0000   113.0000 </r>
       <r>    -0.3917     0.0000   114.0000 </r>
       <r>    -0.3544     0.0000   114.0000 </r>
       <r>    -0.3171     0.0000   114.0000 </r>
       <r>    -0.2799     0.0000   115.0000 </r>
       <r>    -0.2426     0.0000   115.0000 </r>
       <r>    -0.2054     0.0000   115.0000 </r>
       <r>    -0.1681     0.0000   116.0000 </r>
       <r>    -0.1308     0.0000   116.0000 </r>
       <r>    -0.0936     0.0000   116.0000 </r>
       <r>    -0.0563     0.0000   117.0000 </r>
       <r>    -0.0190     0.0000   117.0000 </r>
       <r>     0.0182     0.0000   117.0000 </r>
       <r>     0.0555     0.0000   117.0000 </r>
       <r>     0.0927     0.0000   117.0000 </r>
       <r>     0.1300     0.0000   117.0000 </r>
       <r>     0.1673     0.0000   119.0000 </r>
       <r>     0.2045     0.0000   119.0000 </r>
       <r>     0.2418     0.0000   120.0000 </r>
       <r>     0.2791     0.0000   120.0000 </r>
       <r>     0.3163     0.0000   120.0000 </r>
       <r>     0.3536     0.0000   120.0000 </r>
       <r>     0.3909     0.0000   121.0000 </r>
       <r>     0.4281     0.0000   121.0000 </r>
       <r>     0.4654     0.0000   122.0000 </r>
       <r>     0.5026     0.0000   122.0000 </r>
       <r>     0.5399     0.0000   123.0000 </r>
       <r>     0.5772     0.0000   124.0000 </r>
       <r>     0.6144     0.0000   124.0000 </r>
       <r>     0.6517     0.0000   124.0000 </r>
       <r>     0.6890     0.0000   125.0000 </r>
       <r>     0.7262     0.0000   126.0000 </r>
       <r>     0.7635     0.0000   128.0000 </r>
       <r>     0.8007     0.0000   128.0000 </r>
       <r>     0.8380     0.0000   128.0000 </r>
       <r>     0.8753     0.0000   128.0000 </r>
       <r>     0.9125     0.0000   128.0000 </r>
       <r>     0.9498     0.0000   128.0000 </r>
       <r>     0.9871     0.0000   128.0000 </r>
       <r>     1.0243     0.0000   128.0000 </r>
       <r>     1.0616     0.0000   128.0000 </r>
       <r>     1.0988     0.0000   128.0000 </r>
       <r>     1.1361     0.0000   128.0000 </r>
       <r>     1.1734     0.0000   128.0000 </r>
       <r>     1.2106     0.0000   128.0000 </r>
       <r>     1.2479     0.0000   128.0000 </r>
      </set>
      <set comment="spin 2">
       <r>    -9.9309     0.0000     0.0000 </r>
       <r>    -9.8937     0.0000     0.0000 </r>
       <r>    -9.8564     0.0000     0.0000 </r>
       <r>    -9.8191     0.0000     0.0000 </r>
       <r>    -9.7819     0.0000     0.0000 </r>
       <r>    -9.7446     0.0000     0.0000 </r>
       <r>    -9.7073     0.0000     0.0000 </r>
       <r>    -9.6701     0.0000     0.0000 </r>
       <r>    -9.6328     0.0000     0.0000 </r>
       <r>    -9.5956     0.0000     0.0000 </r>
       <r>    -9.5583     0.0000     0.0000 </r>
       <r>    -9.5210     0.0000     0.0000 </r>
       <r>    -9.4838     0.0000     0.0000 </r>
       <r>    -9.4465     0.0000     0.0000 </r>
       <r>    -9.4092     0.0000     1.0000 </r>
       <r>    -9.3720     0.0000     1.0000 </r>
       <r>    -9.3347     0.0000     1.0000 </r>
       <r>    -9.2975     0.0000     1.0000 </r>
       <r>    -9.2602     0.0000     1.0000 </r>
       <r>    -9.2229     0.0000     1.0000 </r>
       <r>    -9.1857     0.0000     1.0000 </r>
       <r>    -9.1484     0.0000     1.0000 </r>
       <r>    -9.1111     0.0000     1.0000 </r>
       <r>    -9.0739     0.0000     1.0000 </r>
       <r>    -9.0366     0.0000     2.0000 </r>
       <r>    -8.9994     0.0000     3.0000 </r>
       <r>    -8.9621     0.0000     3.0000 </r>
       <r>    -8.9248     0.0000     3.0000 </r>
       <r>    -8.8876     0.0000     4.0000 </r>
       <r>    -8.8503     0.0000     5.0000 </r>
       <r>    -8.8130     0.0000     5.0000 </r>
       <r>    -8.7758     0.0000     6.0000 </r>
       <r>    -8.7385     0.0000     6.0000 </r>
       <r>    -8.7013     0.0000     8.0000 </r>
       <r>    -8.6640     0.0000     9.0000 </r>
       <r>    -8.6267     0.0000    10.0000 </r>
       <r>    -8.5895     0.0000    11.0000 </r>
       <r>    -8.5522     0.0000    12.0000 </r>
       <r>    -8.5149     0.0000    13.0000 </r>
       <r>    -8.4777     0.0000    14.0000 </r>
       <r>    -8.4404     0.0000    16.0000 </r>
       <r>    -8.4032     0.0000    17.0000 </r>
       <r>    -8.3659     0.0000    19.0000 </r>
       <r>    -8.3286     0.0000    20.0000 </r>
       <r>    -8.2914     0.0000    22.0000 </r>
       <r>    -8.2541     0.0000    22.0000 </r>
       <r>    -8.2168     0.0000    24.0000 </r>
       <r>    -8.1796     0.0000    26.0000 </r>
       <r>    -8.1423     0.0000    27.0000 </r>
       <r>    -8.1050     0.0000    28.0000 </r>
       <r>    -8.0678     0.0000    29.0000 </r>
       <r>    -8.0305     0.0000    30.0000 </r>
       <r>    -7.9933     0.0000    31.0000 </r>
       <r>    -7.9560     0.0000    33.0000 </r>
       <r>    -7.9187     0.0000    33.0000 </r>
       <r>    -7.8815     0.0000    34.0000 </r>
       <r>    -7.8442     0.0000    36.0000 </r>
       <r>    -7.8069     0.0000    37.0000 </r>
       <r>    -7.7697     0.0000    37.0000 </r>
       <r>    -7.7324     0.0000    39.0000 </r>
       <r>    -7.6952     0.0000    39.0000 </r>
       <r>    -7.6579     0.0000    40.0000 </r>
       <r>    -7.6206     0.0000    41.0000 </r>
       <r>    -7.5834     0.0000    41.0000 </r>
       <r>    -7.5461     0.0000    43.0000 </r>
       <r>    -7.5088     0.0000    44.0000 </r>
       <r>    -7.4716     0.0000    45.0000 </r>
       <r>    -7.4343     0.0000    45.0000 </r>
       <r>    -7.3971     0.0000    46.0000 </r>
       <r>    -7.3598     0.0000    47.0000 </r>
       <r>    -7.3225     0.0000    48.0000 </r>
       <r>    -7.2853     0.0000    49.0000 </r>
       <r>    -7.2480     0.0000    50.0000 </r>
       <r>    -7.2107     0.0000    51.0000 </r>
       <r>    -7.1735     0.0000    52.0000 </r>
       <r>    -7.1362     0.0000    54.0000 </r>
       <r>    -7.0990     0.0000    57.0000 </r>
       <r>    -7.0617     0.0000    59.0000 </r>
       <r>    -7.0244     0.0000    60.0000 </r>
       <r>    -6.9872     0.0000    61.0000 </r>
       <r>    -6.9499     0.0000    63.0000 </r>
       <r>    -6.9126     0.0000    65.0000 </r>
       <r>    -6.8754     0.0000    66.0000 </r>
       <r>    -6.8381     0.0000    69.0000 </r>
       <r>    -6.8009     0.0000    71.0000 </r>
       <r>    -6.7636     0.0000    72.0000 </r>
       <r>    -6.7263     0.0000    73.0000 </r>
       <r>    -6.6891     0.0000    75.0000 </r>
       <r>    -6.6518     0.0000    77.0000 </r>
       <r>    -6.6145     0.0000    79.0000 </r>
       <r>    -6.5773     0.0000    82.0000 </r>
       <r>    -6.5400     0.0000    83.0000 </r>
       <r>    -6.5028     0.0000    85.0000 </r>
       <r>    -6.4655     0.0000    86.0000 </r>
       <r>    -6.4282     0.0000    87.0000 </r>
       <r>    -6.3910     0.0000    87.0000 </r>
       <r>    -6.3537     0.0000    88.0000 </r>
       <r>    -6.3164     0.0000    90.0000 </r>
       <r>    -6.2792     0.0000    90.0000 </r>
       <r>    -6.2419     0.0000    91.0000 </r>
       <r>    -6.2046     0.0000    92.0000 </r>
       <r>    -6.1674     0.0000    92.0000 </r>
       <r>    -6.1301     0.0000    92.0000 </r>
       <r>    -6.0929     0.0000    93.0000 </r>
       <r>    -6.0556     0.0000    93.0000 </r>
       <r>    -6.0183     0.0000    93.0000 </r>
       <r>    -5.9811     0.0000    93.0000 </r>
       <r>    -5.9438     0.0000    94.0000 </r>
       <r>    -5.9065     0.0000    94.0000 </r>
       <r>    -5.8693     0.0000    94.0000 </r>
       <r>    -5.8320     0.0000    94.0000 </r>
       <r>    -5.7948     0.0000    94.0000 </r>
       <r>    -5.7575     0.0000    94.0000 </r>
       <r>    -5.7202     0.0000    94.0000 </r>
       <r>    -5.6830     0.0000    94.0000 </r>
       <r>    -5.6457     0.0000    94.0000 </r>
       <r>    -5.6084     0.0000    94.0000 </r>
       <r>    -5.5712     0.0000    94.0000 </r>
       <r>    -5.5339     0.0000    94.0000 </r>
       <r>    -5.4967     0.0000    94.0000 </r>
       <r>    -5.4594     0.0000    94.0000 </r>
       <r>    -5.4221     0.0000    94.0000 </r>
       <r>    -5.3849     0.0000    94.0000 </r>
       <r>    -5.3476     0.0000    94.0000 </r>
       <r>    -5.3103     0.0000    94.0000 </r>
       <r>    -5.2731     0.0000    94.0000 </r>
       <r>    -5.2358     0.0000    94.0000 </r>
       <r>    -5.1986     0.0000    94.0000 </r>
       <r>    -5.1613     0.0000    94.0000 </r>
       <r>    -5.1240     0.0000    94.0000 </r>
       <r>    -5.0868     0.0000    94.0000 </r>
       <r>    -5.0495     0.0000    94.0000 </r>
       <r>    -5.0122     0.0000    94.0000 </r>
       <r>    -4.9750     0.0000    94.0000 </r>
       <r>    -4.9377     0.0000    94.0000 </r>
       <r>    -4.9005     0.0000    94.0000 </r>
       <r>    -4.8632     0.0000    94.0000 </r>
       <r>    -4.8259     0.0000    95.0000 </r>
       <r>    -4.7887     0.0000    95.0000 </r>
       <r>    -4.7514     0.0000    95.0000 </r>
       <r>    -4.7141     0.0000    95.0000 </r>
       <r>    -4.6769     0.0000    95.0000 </r>
       <r>    -4.6396     0.0000    95.0000 </r>
       <r>    -4.6024     0.0000    95.0000 </r>
       <r>    -4.5651     0.0000    95.0000 </r>
       <r>    -4.5278     0.0000    95.0000 </r>
       <r>    -4.4906     0.0000    96.0000 </r>
       <r>    -4.4533     0.0000    96.0000 </r>
       <r>    -4.4160     0.0000    96.0000 </r>
       <r>    -4.3788     0.0000    96.0000 </r>
       <r>    -4.3415     0.0000    97.0000 </r>
       <r>    -4.3043     0.0000    97.0000 </r>
       <r>    -4.2670     0.0000    97.0000 </r>
       <r>    -4.2297     0.0000    97.0000 </r>
       <r>    -4.1925     0.0000    98.0000 </r>
       <r>    -4.1552     0.0000    98.0000 </r>
       <r>    -4.1179     0.0000    98.0000 </r>
       <r>    -4.0807     0.0000    99.0000 </r>
       <r>    -4.0434     0.0000    99.0000 </r>
       <r>    -4.0061     0.0000    99.0000 </r>
       <r>    -3.9689     0.0000    99.0000 </r>
       <r>    -3.9316     0.0000    99.0000 </r>
       <r>    -3.8944     0.0000    99.0000 </r>
       <r>    -3.8571     0.0000    99.0000 </r>
       <r>    -3.8198     0.0000    99.0000 </r>
       <r>    -3.7826     0.0000    99.0000 </r>
       <r>    -3.7453     0.0000    99.0000 </r>
       <r>    -3.7080     0.0000    99.0000 </r>
       <r>    -3.6708     0.0000    99.0000 </r>
       <r>    -3.6335     0.0000    99.0000 </r>
       <r>    -3.5963     0.0000    99.0000 </r>
       <r>    -3.5590     0.0000    99.0000 </r>
       <r>    -3.5217     0.0000    99.0000 </r>
       <r>    -3.4845     0.0000    99.0000 </r>
       <r>    -3.4472     0.0000    99.0000 </r>
       <r>    -3.4099     0.0000    99.0000 </r>
       <r>    -3.3727     0.0000    99.0000 </r>
       <r>    -3.3354     0.0000    99.0000 </r>
       <r>    -3.2982     0.0000    99.0000 </r>
       <r>    -3.2609     0.0000    99.0000 </r>
       <r>    -3.2236     0.0000   100.0000 </r>
       <r>    -3.1864     0.0000   100.0000 </r>
       <r>    -3.1491     0.0000   100.0000 </r>
       <r>    -3.1118     0.0000   100.0000 </r>
       <r>    -3.0746     0.0000   100.0000 </r>
       <r>    -3.0373     0.0000   100.0000 </r>
       <r>    -3.0001     0.0000   100.0000 </r>
       <r>    -2.9628     0.0000   100.0000 </r>
       <r>    -2.9255     0.0000   100.0000 </r>
       <r>    -2.8883     0.0000   100.0000 </r>
       <r>    -2.8510     0.0000   100.0000 </r>
       <r>    -2.8137     0.0000   100.0000 </r>
       <r>    -2.7765     0.0000   100.0000 </r>
       <r>    -2.7392     0.0000   100.0000 </r>
       <r>    -2.7020     0.0000   100.0000 </r>
       <r>    -2.6647     0.0000   100.0000 </r>
       <r>    -2.6274     0.0000   101.0000 </r>
       <r>    -2.5902     0.0000   101.0000 </r>
       <r>    -2.5529     1.1887   101.0443 </r>
       <r>    -2.5156     0.0000   102.0000 </r>
       <r>    -2.4784     0.0000   102.0000 </r>
       <r>    -2.4411     0.0000   103.0000 </r>
       <r>    -2.4039     0.0000   103.0000 </r>
       <r>    -2.3666     0.0000   103.0000 </r>
       <r>    -2.3293     0.0000   103.0000 </r>
       <r>    -2.2921     0.0000   103.0000 </r>
       <r>    -2.2548     0.0000   104.0000 </r>
       <r>    -2.2175     0.0000   104.0000 </r>
       <r>    -2.1803     0.0000   105.0000 </r>
       <r>    -2.1430     0.0000   105.0000 </r>
       <r>    -2.1058     0.0000   106.0000 </r>
       <r>    -2.0685     0.0000   106.0000 </r>
       <r>    -2.0312     0.0000   106.0000 </r>
       <r>    -1.9940     0.0000   107.0000 </r>
       <r>    -1.9567     0.0000   107.0000 </r>
       <r>    -1.9194     0.0000   107.0000 </r>
       <r>    -1.8822     0.0000   107.0000 </r>
       <r>    -1.8449     0.0000   107.0000 </r>
       <r>    -1.8076     0.0000   107.0000 </r>
       <r>    -1.7704     0.0000   107.0000 </r>
       <r>    -1.7331     0.0000   107.0000 </r>
       <r>    -1.6959     0.0000   107.0000 </r>
       <r>    -1.6586     0.0000   107.0000 </r>
       <r>    -1.6213     0.0000   108.0000 </r>
       <r>    -1.5841     0.0000   108.0000 </r>
       <r>    -1.5468     0.0000   108.0000 </r>
       <r>    -1.5095     0.0000   108.0000 </r>
       <r>    -1.4723     0.0000   109.0000 </r>
       <r>    -1.4350     0.0000   109.0000 </r>
       <r>    -1.3978     0.0000   109.0000 </r>
       <r>    -1.3605     0.0000   109.0000 </r>
       <r>    -1.3232     0.0000   109.0000 </r>
       <r>    -1.2860     0.0000   109.0000 </r>
       <r>    -1.2487     0.0000   109.0000 </r>
       <r>    -1.2114     0.0000   110.0000 </r>
       <r>    -1.1742     0.0000   110.0000 </r>
       <r>    -1.1369     0.0000   110.0000 </r>
       <r>    -1.0997     0.0000   110.0000 </r>
       <r>    -1.0624     0.0000   110.0000 </r>
       <r>    -1.0251     0.0000   110.0000 </r>
       <r>    -0.9879     0.0000   110.0000 </r>
       <r>    -0.9506     0.0000   110.0000 </r>
       <r>    -0.9133     0.0000   110.0000 </r>
       <r>    -0.8761     0.0000   110.0000 </r>
       <r>    -0.8388     0.0000   110.0000 </r>
       <r>    -0.8016     0.0000   110.0000 </r>
       <r>    -0.7643     0.0000   110.0000 </r>
       <r>    -0.7270     0.0000   110.0000 </r>
       <r>    -0.6898     0.0000   110.0000 </r>
       <r>    -0.6525     0.0000   111.0000 </r>
       <r>    -0.6152     0.0000   112.0000 </r>
       <r>    -0.5780     0.0000   112.0000 </r>
       <r>    -0.5407     0.0000   113.0000 </r>
       <r>    -0.5035     0.0000   113.0000 </r>
       <r>    -0.4662     0.0000   113.0000 </r>
       <r>    -0.4289     0.0000   113.0000 </r>
       <r>    -0.3917     0.0000   114.0000 </r>
       <r>    -0.3544     0.0000   114.0000 </r>
       <r>    -0.3171     0.0000   114.0000 </r>
       <r>    -0.2799     0.0000   115.0000 </r>
       <r>    -0.2426     0.0000   115.0000 </r>
       <r>    -0.2054     0.0000   115.0000 </r>
       <r>    -0.1681     0.0000   116.0000 </r>
       <r>    -0.1308     0.0000   116.0000 </r>
       <r>    -0.0936     0.0000   116.0000 </r>
       <r>    -0.0563     0.0000   117.0000 </r>
       <r>    -0.0190     0.0000   117.0000 </r>
       <r>     0.0182     0.0000   117.0000 </r>
       <r>     0.0555     0.0000   117.0000 </r>
       <r>     0.0927     0.0000   117.0000 </r>
       <r>     0.1300     0.0000   117.0000 </r>
       <r>     0.1673     0.0000   119.0000 </r>
       <r>     0.2045     0.0000   119.0000 </r>
       <r>     0.2418     0.0000   120.0000 </r>
       <r>     0.2791     0.0000   120.0000 </r>
       <r>     0.3163     0.0000   120.0000 </r>
       <r>     0.3536     0.0000   120.0000 </r>
       <r>     0.3909     0.0000   121.0000 </r>
       <r>     0.4281     0.0000   121.0000 </r>
       <r>     0.4654     0.0000   122.0000 </r>
       <r>     0.5026     0.0000   122.0000 </r>
       <r>     0.5399     0.0000   123.0000 </r>
       <r>     0.5772     0.0000   124.0000 </r>
       <r>     0.6144     0.0000   124.0000 </r>
       <r>     0.6517     0.0000   124.0000 </r>
       <r>     0.6890     0.0000   125.0000 </r>
       <r>     0.7262     0.0000   126.0000 </r>
       <r>     0.7635     0.0000   128.0000 </r>
       <r>     0.8007     0.0000   128.0000 </r>
       <r>     0.8380     0.0000   128.0000 </r>
       <r>     0.8753     0.0000   128.0000 </r>
       <r>     0.9125     0.0000   128.0000 </r>
       <r>     0.9498     0.0000   128.0000 </r>
       <r>     0.9871     0.0000   128.0000 </r>
       <r>     1.0243     0.0000   128.0000 </r>
       <r>     1.0616     0.0000   128.0000 </r>
       <r>     1.0988     0.0000   128.0000 </r>
       <r>     1.1361     0.0000   128.0000 </r>
       <r>     1.1734     0.0000   128.0000 </r>
       <r>     1.2106     0.0000   128.0000 </r>
       <r>     1.2479     0.0000   128.0000 </r>
      </set>
     </set>
    </array>
   </total>
  </dos>
 </calculation>
 <structure name="finalpos" >
  <crystal>
   <varray name="basis" >
    <v>      20.11917933       0.00000000       0.00000000 </v>
    <v>       0.00000000      20.11917933       0.00000000 </v>
    <v>       0.00000000       0.00000000      20.11917933 </v>
   </varray>
   <i name="volume">   8143.86911294 </i>
   <varray name="rec_basis" >
    <v>       0.04970382       0.00000000       0.00000000 </v>
    <v>       0.00000000       0.04970382       0.00000000 </v>
    <v>       0.00000000       0.00000000       0.04970382 </v>
   </varray>
  </crystal>
  <varray name="positions" >
   <v>       0.58975456       0.35458590       0.48112127 </v>
   <v>       0.60830745       0.45334223       0.38659102 </v>
   <v>       0.47091161       0.42512851       0.41880002 </v>
   <v>       0.58458333       0.39824663       0.61936530 </v>
   <v>       0.51654180       0.55574077       0.38716493 </v>
   <v>       0.66544452       0.52325875       0.57702887 </v>
   <v>       0.46877016       0.35951299       0.54182102 </v>
   <v>       0.64588540       0.57140051       0.44823438 </v>
   <v>       0.55003729       0.48325226       0.51578168 </v>
   <v>       0.56085080       0.62161462       0.55119675 </v>
   <v>       0.38155784       0.46296719       0.52647933 </v>
   <v>       0.56224309       0.67944666       0.42540492 </v>
   <v>       0.55218465       0.52901684       0.65445211 </v>
   <v>       0.38273834       0.53287374       0.40764565 </v>
   <v>       0.44776599       0.44229752       0.64868012 </v>
   <v>       0.43516349       0.57376831       0.59928889 </v>
   <v>       0.44192653       0.63860428       0.47681801 </v>
   <v>       0.32187372       0.58692970       0.52220124 </v>
  </varray>
 </structure>
</modeling>
