  54  54   0   0
  0.2499154E+03  0.2380833E-08  0.2380833E-08  0.2380833E-08  0.1000000E-15
  1.000000000000000E-004
  CAR 
 unknown system                          
      2.20943128    -10.37494426  301     -3.27525906      1.00000000
    -10.375  0.0000E+00  0.0000E+00  0.0000E+00  0.0000E+00
    -10.333  0.0000E+00  0.0000E+00  0.0000E+00  0.0000E+00
    -10.291  0.0000E+00  0.0000E+00  0.0000E+00  0.0000E+00
    -10.249  0.0000E+00  0.0000E+00  0.0000E+00  0.0000E+00
    -10.207  0.0000E+00  0.0000E+00  0.0000E+00  0.0000E+00
    -10.165  0.0000E+00  0.0000E+00  0.0000E+00  0.0000E+00
    -10.123  0.0000E+00  0.0000E+00  0.0000E+00  0.0000E+00
    -10.081  0.0000E+00  0.0000E+00  0.0000E+00  0.0000E+00
    -10.039  0.0000E+00  0.0000E+00  0.0000E+00  0.0000E+00
     -9.997  0.0000E+00  0.0000E+00  0.0000E+00  0.0000E+00
     -9.955  0.0000E+00  0.0000E+00  0.0000E+00  0.0000E+00
     -9.914  0.0000E+00  0.0000E+00  0.0000E+00  0.0000E+00
     -9.872  0.0000E+00  0.0000E+00  0.0000E+00  0.0000E+00
     -9.830  0.0000E+00  0.0000E+00  0.0000E+00  0.0000E+00
     -9.788  0.0000E+00  0.0000E+00  0.1000E-02  0.1000E-02
     -9.746  0.0000E+00  0.0000E+00  0.1000E-02  0.1000E-02
     -9.704  0.0000E+00  0.0000E+00  0.1000E-02  0.1000E-02
     -9.662  0.0000E+00  0.0000E+00  0.1000E-02  0.1000E-02
     -9.620  0.0000E+00  0.0000E+00  0.1000E-02  0.1000E-02
     -9.578  0.0000E+00  0.0000E+00  0.1000E-02  0.1000E-02
     -9.536  0.0000E+00  0.0000E+00  0.1000E-02  0.1000E-02
     -9.494  0.0000E+00  0.0000E+00  0.1000E-02  0.1000E-02
     -9.452  0.0000E+00  0.0000E+00  0.1000E-02  0.1000E-02
     -9.410  0.0000E+00  0.0000E+00  0.1000E-02  0.1000E-02
     -9.368  0.0000E+00  0.0000E+00  0.1000E-02  0.1000E-02
     -9.326  0.0000E+00  0.0000E+00  0.1000E-02  0.1000E-02
     -9.284  0.0000E+00  0.0000E+00  0.1000E-02  0.1000E-02
     -9.242  0.0000E+00  0.0000E+00  0.2000E-02  0.2000E-02
     -9.200  0.0000E+00  0.0000E+00  0.2000E-02  0.2000E-02
     -9.158  0.0000E+00  0.0000E+00  0.3000E-02  0.3000E-02
     -9.117  0.0000E+00  0.0000E+00  0.3000E-02  0.3000E-02
     -9.075  0.0000E+00  0.0000E+00  0.4000E-02  0.4000E-02
     -9.033  0.0000E+00  0.0000E+00  0.6000E-02  0.6000E-02
     -8.991  0.0000E+00  0.0000E+00  0.7000E-02  0.7000E-02
     -8.949  0.0000E+00  0.0000E+00  0.9000E-02  0.9000E-02
     -8.907  0.0000E+00  0.0000E+00  0.1000E-01  0.1000E-01
     -8.865  0.0000E+00  0.0000E+00  0.1200E-01  0.1200E-01
     -8.823  0.0000E+00  0.0000E+00  0.1400E-01  0.1400E-01
     -8.781  0.0000E+00  0.0000E+00  0.1500E-01  0.1500E-01
     -8.739  0.2254E-01  0.2254E-01  0.1795E-01  0.1795E-01
     -8.697  0.0000E+00  0.0000E+00  0.1900E-01  0.1900E-01
     -8.655  0.2384E-01  0.2384E-01  0.2300E-01  0.2300E-01
     -8.613  0.0000E+00  0.0000E+00  0.2600E-01  0.2600E-01
     -8.571  0.0000E+00  0.0000E+00  0.2900E-01  0.2900E-01
     -8.529  0.0000E+00  0.0000E+00  0.3200E-01  0.3200E-01
     -8.487  0.0000E+00  0.0000E+00  0.3600E-01  0.3600E-01
     -8.445  0.0000E+00  0.0000E+00  0.4000E-01  0.4000E-01
     -8.403  0.0000E+00  0.0000E+00  0.4200E-01  0.4200E-01
     -8.361  0.0000E+00  0.0000E+00  0.4600E-01  0.4600E-01
     -8.319  0.0000E+00  0.0000E+00  0.4900E-01  0.4900E-01
     -8.278  0.0000E+00  0.0000E+00  0.5200E-01  0.5200E-01
     -8.236  0.0000E+00  0.0000E+00  0.5600E-01  0.5600E-01
     -8.194  0.0000E+00  0.0000E+00  0.5900E-01  0.5900E-01
     -8.152  0.0000E+00  0.0000E+00  0.6200E-01  0.6200E-01
     -8.110  0.0000E+00  0.0000E+00  0.6600E-01  0.6600E-01
     -8.068  0.0000E+00  0.0000E+00  0.7000E-01  0.7000E-01
     -8.026  0.0000E+00  0.0000E+00  0.7400E-01  0.7400E-01
     -7.984  0.0000E+00  0.0000E+00  0.7700E-01  0.7700E-01
     -7.942  0.0000E+00  0.0000E+00  0.8000E-01  0.8000E-01
     -7.900  0.1904E-05  0.1903E-05  0.8400E-01  0.8400E-01
     -7.858  0.2384E-01  0.2384E-01  0.8900E-01  0.8900E-01
     -7.816  0.0000E+00  0.0000E+00  0.9200E-01  0.9200E-01
     -7.774  0.0000E+00  0.0000E+00  0.9500E-01  0.9500E-01
     -7.732  0.0000E+00  0.0000E+00  0.9800E-01  0.9800E-01
     -7.690  0.0000E+00  0.0000E+00  0.1020E+00  0.1020E+00
     -7.648  0.0000E+00  0.0000E+00  0.1060E+00  0.1060E+00
     -7.606  0.0000E+00  0.0000E+00  0.1100E+00  0.1100E+00
     -7.564  0.0000E+00  0.0000E+00  0.1130E+00  0.1130E+00
     -7.522  0.0000E+00  0.0000E+00  0.1160E+00  0.1160E+00
     -7.481  0.0000E+00  0.0000E+00  0.1200E+00  0.1200E+00
     -7.439  0.0000E+00  0.0000E+00  0.1230E+00  0.1230E+00
     -7.397  0.0000E+00  0.0000E+00  0.1260E+00  0.1260E+00
     -7.355  0.0000E+00  0.0000E+00  0.1290E+00  0.1290E+00
     -7.313  0.0000E+00  0.0000E+00  0.1330E+00  0.1330E+00
     -7.271  0.0000E+00  0.0000E+00  0.1360E+00  0.1360E+00
     -7.229  0.0000E+00  0.0000E+00  0.1390E+00  0.1390E+00
     -7.187  0.0000E+00  0.0000E+00  0.1420E+00  0.1420E+00
     -7.145  0.1186E-02  0.1186E-02  0.1460E+00  0.1460E+00
     -7.103  0.0000E+00  0.0000E+00  0.1510E+00  0.1510E+00
     -7.061  0.0000E+00  0.0000E+00  0.1540E+00  0.1540E+00
     -7.019  0.0000E+00  0.0000E+00  0.1590E+00  0.1590E+00
     -6.977  0.0000E+00  0.0000E+00  0.1620E+00  0.1620E+00
     -6.935  0.1080E-01  0.1080E-01  0.1675E+00  0.1675E+00
     -6.893  0.0000E+00  0.0000E+00  0.1720E+00  0.1720E+00
     -6.851  0.0000E+00  0.0000E+00  0.1760E+00  0.1760E+00
     -6.809  0.0000E+00  0.0000E+00  0.1800E+00  0.1800E+00
     -6.767  0.0000E+00  0.0000E+00  0.1850E+00  0.1850E+00
     -6.725  0.0000E+00  0.0000E+00  0.1910E+00  0.1910E+00
     -6.684  0.0000E+00  0.0000E+00  0.1950E+00  0.1950E+00
     -6.642  0.0000E+00  0.0000E+00  0.2020E+00  0.2020E+00
     -6.600  0.2372E-01  0.2372E-01  0.2080E+00  0.2080E+00
     -6.558  0.0000E+00  0.0000E+00  0.2120E+00  0.2120E+00
     -6.516  0.0000E+00  0.0000E+00  0.2170E+00  0.2170E+00
     -6.474  0.0000E+00  0.0000E+00  0.2250E+00  0.2250E+00
     -6.432  0.0000E+00  0.0000E+00  0.2300E+00  0.2300E+00
     -6.390  0.2383E-01  0.2383E-01  0.2370E+00  0.2370E+00
     -6.348  0.0000E+00  0.0000E+00  0.2420E+00  0.2420E+00
     -6.306  0.2384E-01  0.2384E-01  0.2470E+00  0.2470E+00
     -6.264  0.2384E-01  0.2384E-01  0.2520E+00  0.2520E+00
     -6.222  0.0000E+00  0.0000E+00  0.2560E+00  0.2560E+00
     -6.180  0.9329E-02  0.9330E-02  0.2604E+00  0.2604E+00
     -6.138  0.0000E+00  0.0000E+00  0.2650E+00  0.2650E+00
     -6.096  0.0000E+00  0.0000E+00  0.2680E+00  0.2680E+00
     -6.054  0.0000E+00  0.0000E+00  0.2720E+00  0.2720E+00
     -6.012  0.0000E+00  0.0000E+00  0.2750E+00  0.2750E+00
     -5.970  0.1585E-01  0.1585E-01  0.2767E+00  0.2767E+00
     -5.928  0.0000E+00  0.0000E+00  0.2770E+00  0.2770E+00
     -5.887  0.0000E+00  0.0000E+00  0.2780E+00  0.2780E+00
     -5.845  0.0000E+00  0.0000E+00  0.2790E+00  0.2790E+00
     -5.803  0.0000E+00  0.0000E+00  0.2790E+00  0.2790E+00
     -5.761  0.0000E+00  0.0000E+00  0.2790E+00  0.2790E+00
     -5.719  0.0000E+00  0.0000E+00  0.2790E+00  0.2790E+00
     -5.677  0.0000E+00  0.0000E+00  0.2790E+00  0.2790E+00
     -5.635  0.0000E+00  0.0000E+00  0.2790E+00  0.2790E+00
     -5.593  0.0000E+00  0.0000E+00  0.2800E+00  0.2800E+00
     -5.551  0.0000E+00  0.0000E+00  0.2800E+00  0.2800E+00
     -5.509  0.0000E+00  0.0000E+00  0.2800E+00  0.2800E+00
     -5.467  0.0000E+00  0.0000E+00  0.2810E+00  0.2810E+00
     -5.425  0.0000E+00  0.0000E+00  0.2810E+00  0.2810E+00
     -5.383  0.0000E+00  0.0000E+00  0.2810E+00  0.2810E+00
     -5.341  0.0000E+00  0.0000E+00  0.2810E+00  0.2810E+00
     -5.299  0.0000E+00  0.0000E+00  0.2820E+00  0.2820E+00
     -5.257  0.0000E+00  0.0000E+00  0.2820E+00  0.2820E+00
     -5.215  0.0000E+00  0.0000E+00  0.2820E+00  0.2820E+00
     -5.173  0.0000E+00  0.0000E+00  0.2820E+00  0.2820E+00
     -5.131  0.0000E+00  0.0000E+00  0.2830E+00  0.2830E+00
     -5.090  0.0000E+00  0.0000E+00  0.2830E+00  0.2830E+00
     -5.048  0.0000E+00  0.0000E+00  0.2840E+00  0.2840E+00
     -5.006  0.0000E+00  0.0000E+00  0.2840E+00  0.2840E+00
     -4.964  0.0000E+00  0.0000E+00  0.2840E+00  0.2840E+00
     -4.922  0.0000E+00  0.0000E+00  0.2840E+00  0.2840E+00
     -4.880  0.0000E+00  0.0000E+00  0.2850E+00  0.2850E+00
     -4.838  0.0000E+00  0.0000E+00  0.2850E+00  0.2850E+00
     -4.796  0.0000E+00  0.0000E+00  0.2850E+00  0.2850E+00
     -4.754  0.0000E+00  0.0000E+00  0.2850E+00  0.2850E+00
     -4.712  0.0000E+00  0.0000E+00  0.2860E+00  0.2860E+00
     -4.670  0.0000E+00  0.0000E+00  0.2860E+00  0.2860E+00
     -4.628  0.0000E+00  0.0000E+00  0.2870E+00  0.2870E+00
     -4.586  0.0000E+00  0.0000E+00  0.2870E+00  0.2870E+00
     -4.544  0.0000E+00  0.0000E+00  0.2870E+00  0.2870E+00
     -4.502  0.0000E+00  0.0000E+00  0.2870E+00  0.2870E+00
     -4.460  0.0000E+00  0.0000E+00  0.2870E+00  0.2870E+00
     -4.418  0.0000E+00  0.0000E+00  0.2870E+00  0.2870E+00
     -4.376  0.0000E+00  0.0000E+00  0.2870E+00  0.2870E+00
     -4.334  0.0000E+00  0.0000E+00  0.2870E+00  0.2870E+00
     -4.292  0.0000E+00  0.0000E+00  0.2870E+00  0.2870E+00
     -4.251  0.0000E+00  0.0000E+00  0.2880E+00  0.2880E+00
     -4.209  0.0000E+00  0.0000E+00  0.2880E+00  0.2880E+00
     -4.167  0.0000E+00  0.0000E+00  0.2880E+00  0.2880E+00
     -4.125  0.0000E+00  0.0000E+00  0.2900E+00  0.2900E+00
     -4.083  0.0000E+00  0.0000E+00  0.2900E+00  0.2900E+00
     -4.041  0.0000E+00  0.0000E+00  0.2900E+00  0.2900E+00
     -3.999  0.0000E+00  0.0000E+00  0.2910E+00  0.2910E+00
     -3.957  0.0000E+00  0.0000E+00  0.2910E+00  0.2910E+00
     -3.915  0.0000E+00  0.0000E+00  0.2920E+00  0.2920E+00
     -3.873  0.0000E+00  0.0000E+00  0.2920E+00  0.2920E+00
     -3.831  0.0000E+00  0.0000E+00  0.2920E+00  0.2920E+00
     -3.789  0.0000E+00  0.0000E+00  0.2920E+00  0.2920E+00
     -3.747  0.0000E+00  0.0000E+00  0.2930E+00  0.2930E+00
     -3.705  0.0000E+00  0.0000E+00  0.2940E+00  0.2940E+00
     -3.663  0.0000E+00  0.0000E+00  0.2940E+00  0.2940E+00
     -3.621  0.0000E+00  0.0000E+00  0.2940E+00  0.2940E+00
     -3.579  0.0000E+00  0.0000E+00  0.2940E+00  0.2940E+00
     -3.537  0.0000E+00  0.0000E+00  0.2950E+00  0.2950E+00
     -3.495  0.0000E+00  0.0000E+00  0.2950E+00  0.2950E+00
     -3.454  0.0000E+00  0.0000E+00  0.2950E+00  0.2950E+00
     -3.412  0.0000E+00  0.0000E+00  0.2950E+00  0.2950E+00
     -3.370  0.0000E+00  0.0000E+00  0.2960E+00  0.2960E+00
     -3.328  0.0000E+00  0.0000E+00  0.2960E+00  0.2960E+00
     -3.286  0.0000E+00  0.0000E+00  0.2970E+00  0.2970E+00
     -3.244  0.0000E+00  0.0000E+00  0.2970E+00  0.2970E+00
     -3.202  0.0000E+00  0.0000E+00  0.2970E+00  0.2970E+00
     -3.160  0.0000E+00  0.0000E+00  0.2970E+00  0.2970E+00
     -3.118  0.0000E+00  0.0000E+00  0.2970E+00  0.2970E+00
     -3.076  0.0000E+00  0.0000E+00  0.2970E+00  0.2970E+00
     -3.034  0.0000E+00  0.0000E+00  0.2970E+00  0.2970E+00
     -2.992  0.0000E+00  0.0000E+00  0.2980E+00  0.2980E+00
     -2.950  0.0000E+00  0.0000E+00  0.2990E+00  0.2990E+00
     -2.908  0.0000E+00  0.0000E+00  0.2990E+00  0.2990E+00
     -2.866  0.0000E+00  0.0000E+00  0.2990E+00  0.2990E+00
     -2.824  0.0000E+00  0.0000E+00  0.3000E+00  0.3000E+00
     -2.782  0.0000E+00  0.0000E+00  0.3000E+00  0.3000E+00
     -2.740  0.0000E+00  0.0000E+00  0.3000E+00  0.3000E+00
     -2.698  0.0000E+00  0.0000E+00  0.3000E+00  0.3000E+00
     -2.657  0.0000E+00  0.0000E+00  0.3010E+00  0.3010E+00
     -2.615  0.0000E+00  0.0000E+00  0.3010E+00  0.3010E+00
     -2.573  0.0000E+00  0.0000E+00  0.3020E+00  0.3020E+00
     -2.531  0.0000E+00  0.0000E+00  0.3020E+00  0.3020E+00
     -2.489  0.0000E+00  0.0000E+00  0.3030E+00  0.3030E+00
     -2.447  0.0000E+00  0.0000E+00  0.3040E+00  0.3040E+00
     -2.405  0.0000E+00  0.0000E+00  0.3040E+00  0.3040E+00
     -2.363  0.2384E-01  0.2384E-01  0.3050E+00  0.3050E+00
     -2.321  0.0000E+00  0.0000E+00  0.3060E+00  0.3060E+00
     -2.279  0.0000E+00  0.0000E+00  0.3060E+00  0.3060E+00
     -2.237  0.0000E+00  0.0000E+00  0.3070E+00  0.3070E+00
     -2.195  0.0000E+00  0.0000E+00  0.3070E+00  0.3070E+00
     -2.153  0.0000E+00  0.0000E+00  0.3080E+00  0.3080E+00
     -2.111  0.0000E+00  0.0000E+00  0.3080E+00  0.3080E+00
     -2.069  0.0000E+00  0.0000E+00  0.3090E+00  0.3090E+00
     -2.027  0.0000E+00  0.0000E+00  0.3100E+00  0.3100E+00
     -1.985  0.0000E+00  0.0000E+00  0.3100E+00  0.3100E+00
     -1.943  0.0000E+00  0.0000E+00  0.3110E+00  0.3110E+00
     -1.901  0.0000E+00  0.0000E+00  0.3110E+00  0.3110E+00
     -1.860  0.0000E+00  0.0000E+00  0.3110E+00  0.3110E+00
     -1.818  0.0000E+00  0.0000E+00  0.3120E+00  0.3120E+00
     -1.776  0.0000E+00  0.0000E+00  0.3120E+00  0.3120E+00
     -1.734  0.0000E+00  0.0000E+00  0.3120E+00  0.3120E+00
     -1.692  0.0000E+00  0.0000E+00  0.3130E+00  0.3130E+00
     -1.650  0.0000E+00  0.0000E+00  0.3140E+00  0.3140E+00
     -1.608  0.0000E+00  0.0000E+00  0.3140E+00  0.3140E+00
     -1.566  0.0000E+00  0.0000E+00  0.3140E+00  0.3140E+00
     -1.524  0.0000E+00  0.0000E+00  0.3150E+00  0.3150E+00
     -1.482  0.0000E+00  0.0000E+00  0.3160E+00  0.3160E+00
     -1.440  0.0000E+00  0.0000E+00  0.3160E+00  0.3160E+00
     -1.398  0.0000E+00  0.0000E+00  0.3170E+00  0.3170E+00
     -1.356  0.0000E+00  0.0000E+00  0.3170E+00  0.3170E+00
     -1.314  0.0000E+00  0.0000E+00  0.3170E+00  0.3170E+00
     -1.272  0.0000E+00  0.0000E+00  0.3170E+00  0.3170E+00
     -1.230  0.0000E+00  0.0000E+00  0.3180E+00  0.3180E+00
     -1.188  0.0000E+00  0.0000E+00  0.3180E+00  0.3180E+00
     -1.146  0.0000E+00  0.0000E+00  0.3190E+00  0.3190E+00
     -1.104  0.0000E+00  0.0000E+00  0.3200E+00  0.3200E+00
     -1.063  0.0000E+00  0.0000E+00  0.3210E+00  0.3210E+00
     -1.021  0.0000E+00  0.0000E+00  0.3210E+00  0.3210E+00
     -0.979  0.0000E+00  0.0000E+00  0.3230E+00  0.3230E+00
     -0.937  0.0000E+00  0.0000E+00  0.3230E+00  0.3230E+00
     -0.895  0.0000E+00  0.0000E+00  0.3230E+00  0.3230E+00
     -0.853  0.0000E+00  0.0000E+00  0.3240E+00  0.3240E+00
     -0.811  0.0000E+00  0.0000E+00  0.3240E+00  0.3240E+00
     -0.769  0.0000E+00  0.0000E+00  0.3240E+00  0.3240E+00
     -0.727  0.0000E+00  0.0000E+00  0.3260E+00  0.3260E+00
     -0.685  0.0000E+00  0.0000E+00  0.3270E+00  0.3270E+00
     -0.643  0.0000E+00  0.0000E+00  0.3270E+00  0.3270E+00
     -0.601  0.0000E+00  0.0000E+00  0.3280E+00  0.3280E+00
     -0.559  0.0000E+00  0.0000E+00  0.3290E+00  0.3290E+00
     -0.517  0.0000E+00  0.0000E+00  0.3290E+00  0.3290E+00
     -0.475  0.0000E+00  0.0000E+00  0.3300E+00  0.3300E+00
     -0.433  0.0000E+00  0.0000E+00  0.3310E+00  0.3310E+00
     -0.391  0.0000E+00  0.0000E+00  0.3320E+00  0.3320E+00
     -0.349  0.0000E+00  0.0000E+00  0.3320E+00  0.3320E+00
     -0.307  0.0000E+00  0.0000E+00  0.3320E+00  0.3320E+00
     -0.265  0.0000E+00  0.0000E+00  0.3330E+00  0.3330E+00
     -0.224  0.0000E+00  0.0000E+00  0.3340E+00  0.3340E+00
     -0.182  0.0000E+00  0.0000E+00  0.3350E+00  0.3350E+00
     -0.140  0.0000E+00  0.0000E+00  0.3350E+00  0.3350E+00
     -0.098  0.0000E+00  0.0000E+00  0.3360E+00  0.3360E+00
     -0.056  0.0000E+00  0.0000E+00  0.3360E+00  0.3360E+00
     -0.014  0.0000E+00  0.0000E+00  0.3360E+00  0.3360E+00
      0.028  0.0000E+00  0.0000E+00  0.3360E+00  0.3360E+00
      0.070  0.0000E+00  0.0000E+00  0.3370E+00  0.3370E+00
      0.112  0.0000E+00  0.0000E+00  0.3370E+00  0.3370E+00
      0.154  0.0000E+00  0.0000E+00  0.3370E+00  0.3370E+00
      0.196  0.0000E+00  0.0000E+00  0.3380E+00  0.3380E+00
      0.238  0.0000E+00  0.0000E+00  0.3390E+00  0.3390E+00
      0.280  0.0000E+00  0.0000E+00  0.3390E+00  0.3390E+00
      0.322  0.0000E+00  0.0000E+00  0.3390E+00  0.3390E+00
      0.364  0.3920E-09  0.4306E-09  0.3400E+00  0.3400E+00
      0.406  0.0000E+00  0.0000E+00  0.3420E+00  0.3420E+00
      0.448  0.0000E+00  0.0000E+00  0.3420E+00  0.3420E+00
      0.490  0.0000E+00  0.0000E+00  0.3430E+00  0.3430E+00
      0.532  0.0000E+00  0.0000E+00  0.3430E+00  0.3430E+00
      0.573  0.0000E+00  0.0000E+00  0.3430E+00  0.3430E+00
      0.615  0.0000E+00  0.0000E+00  0.3440E+00  0.3440E+00
      0.657  0.0000E+00  0.0000E+00  0.3440E+00  0.3440E+00
      0.699  0.0000E+00  0.0000E+00  0.3450E+00  0.3450E+00
      0.741  0.0000E+00  0.0000E+00  0.3460E+00  0.3460E+00
      0.783  0.0000E+00  0.0000E+00  0.3480E+00  0.3480E+00
      0.825  0.0000E+00  0.0000E+00  0.3490E+00  0.3490E+00
      0.867  0.0000E+00  0.0000E+00  0.3490E+00  0.3490E+00
      0.909  0.0000E+00  0.0000E+00  0.3500E+00  0.3500E+00
      0.951  0.0000E+00  0.0000E+00  0.3520E+00  0.3520E+00
      0.993  0.0000E+00  0.0000E+00  0.3540E+00  0.3540E+00
      1.035  0.0000E+00  0.0000E+00  0.3560E+00  0.3560E+00
      1.077  0.3441E-16  0.3044E-16  0.3570E+00  0.3570E+00
      1.119  0.0000E+00  0.0000E+00  0.3600E+00  0.3600E+00
      1.161  0.0000E+00  0.0000E+00  0.3620E+00  0.3620E+00
      1.203  0.0000E+00  0.0000E+00  0.3650E+00  0.3650E+00
      1.245  0.0000E+00  0.0000E+00  0.3670E+00  0.3670E+00
      1.287  0.0000E+00  0.0000E+00  0.3680E+00  0.3680E+00
      1.329  0.0000E+00  0.0000E+00  0.3700E+00  0.3700E+00
      1.370  0.0000E+00  0.0000E+00  0.3720E+00  0.3720E+00
      1.412  0.0000E+00  0.0000E+00  0.3740E+00  0.3740E+00
      1.454  0.2384E-01  0.2384E-01  0.3770E+00  0.3770E+00
      1.496  0.0000E+00  0.0000E+00  0.3790E+00  0.3790E+00
      1.538  0.0000E+00  0.0000E+00  0.3810E+00  0.3810E+00
      1.580  0.0000E+00  0.0000E+00  0.3830E+00  0.3830E+00
      1.622  0.0000E+00  0.0000E+00  0.3830E+00  0.3830E+00
      1.664  0.0000E+00  0.0000E+00  0.3840E+00  0.3840E+00
      1.706  0.0000E+00  0.0000E+00  0.3840E+00  0.3840E+00
      1.748  0.0000E+00  0.0000E+00  0.3840E+00  0.3840E+00
      1.790  0.0000E+00  0.0000E+00  0.3840E+00  0.3840E+00
      1.832  0.0000E+00  0.0000E+00  0.3840E+00  0.3840E+00
      1.874  0.0000E+00  0.0000E+00  0.3840E+00  0.3840E+00
      1.916  0.0000E+00  0.0000E+00  0.3840E+00  0.3840E+00
      1.958  0.0000E+00  0.0000E+00  0.3840E+00  0.3840E+00
      2.000  0.0000E+00  0.0000E+00  0.3840E+00  0.3840E+00
      2.042  0.0000E+00  0.0000E+00  0.3840E+00  0.3840E+00
      2.084  0.0000E+00  0.0000E+00  0.3840E+00  0.3840E+00
      2.126  0.0000E+00  0.0000E+00  0.3840E+00  0.3840E+00
      2.167  0.0000E+00  0.0000E+00  0.3840E+00  0.3840E+00
      2.209  0.0000E+00  0.0000E+00  0.3840E+00  0.3840E+00
