12
Energy = -114.35894126 eV
Re 11.062438681805677 10.800648027271906 7.862562373963332
Re 6.926759789472464 9.638926229305861 9.06936413480049
Re 7.191042945809179 7.4562067243140575 10.100439234260064
Re 10.119304527699313 8.98518040765727 6.6657703980782586
Re 11.486284343570645 8.9116685648079 9.225291189837533
Re 9.29752112351472 7.73269728289958 8.749860399342205
Re 7.66109198655983 8.452134666837663 7.039360864725898
Re 9.574348064409328 8.046323445997503 11.237715009475902
Re 9.281027045887376 10.14071576032765 9.665049268738866
Re 7.510330282590728 9.285453733225937 11.504034989671295
Re 8.436483454543179 10.695016039256007 7.243223312488539
Re 11.225347754137568 9.627009124246069 11.40930883383863
