12
Energy = -114.3554498 eV
Re 9.449068266639358 9.833228558353873 8.266983255860296
Re 11.951943930865315 12.798783836436643 14.381378856929961
Re 12.216741650431269 12.369390488169065 10.942131583782675
Re 13.5737480952803 13.420872622256393 12.717608792435833
Re 11.648052685692882 10.731598830919712 8.945086932911073
Re 9.180368803220306 8.788671746077792 10.411756354895633
Re 11.446199984306473 9.630516389479167 11.109013473624586
Re 11.102549097325912 8.283411953394022 9.080299766508569
Re 12.813603629596589 11.037523049578654 12.888153454431702
Re 9.647076471721604 11.20296089320504 10.31117796930649
Re 10.475164402265884 11.814796578894622 12.664269593576288
Re 11.302909161680283 14.124746556643057 12.487348496320879
