10
Energy = -93.13871142 eV
Re 9.530150345049273 6.904685879432141 6.4709714548769925
Re 7.564254566619539 8.218485346506347 6.50585665777218
Re 8.776200409983081 5.2776322282846335 8.041147051072786
Re 9.685880200543968 8.810214520828607 7.9961931023276
Re 8.169325869559422 10.438534588849185 7.067668812442606
Re 5.290813642409638 7.892551049917961 7.319649504704259
Re 9.554333359256841 6.781046960713126 9.486635386139314
Re 6.236103294851219 9.815655098580542 8.45388220092139
Re 6.869824800134299 6.777912623307292 8.610753231652822
Re 7.840847697863166 8.676789842740016 9.714230196374283
