12
Energy = -114.24731332 eV
Re 11.905267119399639 10.619727295879017 11.282805557303819
Re 10.360658503838454 10.592502739967923 13.075400522642056
Re 11.230984920924499 8.44137764268243 10.627275952536623
Re 9.069341575544241 11.128966773793822 11.208738436666305
Re 9.551626219916232 8.512288428040337 12.274088085358045
Re 8.6554892726939 8.917179820298447 9.97450827177151
Re 10.334211739586172 8.17963878391243 8.072202741881142
Re 10.510264765498844 10.552538497482594 9.22841666897112
Re 8.029372298846615 11.079795896810385 8.930328421820384
Re 10.437827228819717 10.151820637416842 6.803724801594409
Re 8.006085793820182 7.930414038588551 7.8488028923514515
Re 8.084747981725164 10.055721008259553 6.8111597837352225
