5
Energy = -42.13770576 eV
Re 7.500600772930826 5.263679759507926 5.2307150374626445
Re 5.956218825813617 7.481727241882301 5.164539164331657
Re 5.217503627801862 6.758827015902032 7.190210689838653
Re 7.803184739145554 7.092215650360446 6.439022012579684
Re 5.28191835976794 4.963505721834083 5.893095295077326
