7
Energy = -60.9945766 eV
Re 10.816650383964081 13.673197917416177 10.84779746378156
Re 9.828381977879916 11.552998530889761 10.788249359489923
Re 10.185015182303516 8.835691524661174 11.26116403403399
Re 10.37697474433988 10.562994007918084 12.787912768556838
Re 12.224731730162178 11.291026754636633 11.084213669784482
Re 12.351678637076352 9.03648856497939 11.75116070504646
Re 11.840844281987504 12.770220016884851 9.184974690410542
