9
Energy = -82.7207265 eV
Re 9.376114680484104 6.653131103135502 7.587552556347769
Re 11.190754819136078 8.07623003871815 7.933221763459027
Re 10.921969355573898 10.14431826751291 8.974837863015658
Re 8.788843018768091 9.269917176541039 7.625484409837851
Re 9.290227554377338 8.171633930759125 9.785191914786731
Re 8.575402550197923 10.53443016141611 9.722514418585334
Re 7.255074245537093 7.570828411679975 8.524844345752099
Re 6.519863007033544 9.929901624805774 8.503498966232717
Re 7.003592810574428 8.850476988772895 10.61702381378751
