17
Energy = -118.14447826 eV
Zr 10.58972346353472 13.662111361028405 11.250845567693005
Zr 12.299509872407684 9.223896751527404 12.544800157110014
Zr 14.99311479252411 11.783202994410034 9.901084311424892
Zr 13.254663020731115 9.91394922280323 9.4799544444032
Zr 9.399225091505565 9.702358992091847 13.615573070282547
Zr 11.305688319245071 12.349447378957226 8.64653742015942
Zr 8.4727291756982 12.225988189747998 12.635682135598609
Zr 9.006916672527497 8.059592439440829 9.157332374192645
Zr 8.387427112847416 12.741208117323836 9.819422499652047
Zr 7.56498197726336 9.878112626261652 11.032646466171439
Zr 11.176336846111914 11.845801733640018 13.56297589264805
Zr 8.645909383339637 10.705836597350846 8.120343452351129
Zr 11.124297762790208 9.487145258392662 7.762615364702756
Zr 12.955373794976904 12.234662734459425 11.425463758584637
Zr 10.352139581537363 10.480515416309695 10.739240545393809
Zr 11.719896338597305 7.626591671003917 10.036837401487105
Zr 9.662442568563284 7.665116555926664 11.914870287974448
