14
Energy = -95.60936266 eV
Zr 13.037653485155174 10.493279238356427 8.730359003580169
Zr 10.097167364681043 9.797090854232467 9.674014835989844
Zr 12.55165558915893 7.959571091327594 10.196588550439635
Zr 10.678134361495422 11.86035888531424 7.3718524115328545
Zr 12.602492994401434 10.461050024317332 11.53152484201699
Zr 8.004587457669492 10.716417693719485 7.5437230232805605
Zr 11.579918549246068 12.589594010093826 9.957858233199175
Zr 7.499035524798652 8.16229757983718 9.115811705847952
Zr 10.889259573707202 8.469614532205764 12.469521489564556
Zr 9.834964385127737 6.767812261630879 10.48949585510405
Zr 7.11958631951605 10.712125138674907 10.252574603976303
Zr 8.146952679954358 8.598102625033912 11.834433089628567
Zr 9.678372500203775 11.330232636754182 12.016153852918334
Zr 8.832457234456761 12.72269089648701 9.362784755235866
