10
Energy = -61.98422024 eV
Zr 10.380792028704779 13.790197316283795 10.994107736770301
Zr 9.658308640529304 11.766355015485239 12.494076982805437
Zr 9.68214704126999 11.881287105905567 9.287209781651107
Zr 9.36024011149564 9.30522432230684 13.340659431717402
Zr 9.048275304858365 9.105757204422241 10.746188859647448
Zr 9.398431528259367 9.486480735024305 8.170359872688763
Zr 12.44539237952973 12.104521729942547 10.968167888719163
Zr 11.807616789383468 9.334964407946263 12.421902374886546
Zr 11.838695687496566 9.439860975980794 9.212463645928864
Zr 13.859982652338518 9.845868549170484 10.87851279768209
