11
Energy = -71.33141126 eV
Zr 11.757542794448584 12.206793308903668 12.349147049380072
Zr 11.06478133119353 11.864640826574666 7.111045272915126
Zr 11.653169627332405 9.46814736956566 12.477806258567174
Zr 10.507599715130514 10.708512193823431 9.945001910738268
Zr 11.347304831043697 7.890284735912053 9.972677919071055
Zr 8.562241324084392 10.879491115840343 7.573374305790841
Zr 10.904143103238582 9.151358942918286 7.331758128419226
Zr 9.284675557771857 11.155029845534434 12.741644483027436
Zr 7.589204376545406 10.686014215863674 10.33983849374813
Zr 8.66512710169056 8.363193639589031 8.92964703281328
Zr 9.066601112057594 8.532567216098558 11.682009357809672
