12
Energy = -79.83493453 eV
Zr 7.69820040982474 11.818982435142157 9.438887555182886
Zr 10.594822795953537 12.75050467904244 10.923111435010638
Zr 8.774653026611912 10.765198842006948 11.84391082829298
Zr 7.681165412042938 9.024943798574597 9.938714247732825
Zr 8.472784226737797 9.37275576502856 7.229150347447059
Zr 10.16229869553101 11.325880843644693 8.472815002114919
Zr 12.605857625445783 10.934363917444895 9.817924576516385
Zr 9.408329284862576 7.069747336164719 8.802656337619505
Zr 11.34167831175256 8.919260931075149 7.610444671180647
Zr 11.522844411389213 10.445518441851474 12.49626997713022
Zr 11.308973123396768 8.506050470518066 10.395659183756909
Zr 9.2574375251324 7.975180811125324 12.054789391556941
