10
Energy = -64.80379947 eV
Zr 7.190141095495885 9.165741234860276 9.409976082175955
Zr 8.617823124633954 11.066763097471537 10.504903904603665
Zr 8.093698381285774 7.5523791453028615 11.260673771395826
Zr 7.22666649768866 10.55173455942596 7.191765954176294
Zr 8.877524955727438 8.304033268685341 6.579178573055187
Zr 9.959315903220556 10.584359198207558 8.030003415273113
Zr 9.369951858857094 6.600304073655923 8.889976336893566
Zr 6.708062681508259 7.048164208469462 7.95215148880408
Zr 10.451495126702554 8.881936815400296 10.340854509029786
Zr 11.444010535194547 8.183274398520668 7.779205804278208
