11
Energy = -72.14102337 eV
Zr 13.56995710234241 12.282107041629963 11.839454574096356
Zr 13.294689248327845 10.431271256574057 9.668983282816633
Zr 11.469619755046947 12.71433694261247 10.225624886962239
Zr 11.788276436670207 10.034069315187532 12.029751509820272
Zr 11.263744804975586 8.185374055551032 9.854609634028987
Zr 10.765596954685709 10.633167117204708 8.43900324016146
Zr 9.062832371968966 8.184824062661507 11.78205953254793
Zr 8.637528573560328 8.925080274937232 8.961805917482788
Zr 9.304605265977226 10.948799112535905 11.395273948272836
Zr 8.226552299387436 11.876197083687643 9.086519425849868
Zr 6.845714866629769 9.897276007143414 10.77616025543644
