11
Energy = -71.95586603 eV
Zr 8.098569218919101 13.283751382359954 10.047446465201876
Zr 10.204482109298828 11.493940908798479 9.056088110858422
Zr 10.554432385863127 14.060352281578655 10.501451727307144
Zr 12.542779488474183 12.075671651151927 11.064610745874894
Zr 7.5139553744381535 10.739664150745677 10.067483400633373
Zr 12.179784969226374 9.568279507331134 9.611926675616223
Zr 9.716319722233584 11.571688632061058 11.920531424072587
Zr 9.573515494386742 8.859948074815437 10.68208213612753
Zr 11.65969395785975 9.705526061055819 12.694706514847745
Zr 12.186992678953548 7.3688773803393355 11.279359171730444
Zr 14.176953247991346 9.521817339061828 11.493215714228684
