24
Energy = -167.15793133 eV
Zr 10.968056948132258 10.797140214798548 7.8590241410842925
Zr 10.942047311875102 10.899018149498092 14.159631281124408
Zr 12.568733846501377 8.76281327330042 9.199566057129466
Zr 12.488356406679197 8.780923286806521 12.822590711695089
Zr 13.450210509798021 11.688606126218536 9.17719719748768
Zr 13.370250688661617 11.724294957762023 12.85491672695813
Zr 10.84220704183923 13.477879343637893 9.133425203628533
Zr 10.8390166950699 13.44665941571952 12.817319845484208
Zr 8.466090437881038 11.60318291886522 9.0999761874322
Zr 8.428126301955883 11.565049857386054 12.77804291925257
Zr 9.485351282996882 8.68687681494457 9.137943983449146
Zr 9.460145842179204 8.754383636051926 12.790085710900735
Zr 10.939752386891652 10.85327151577964 10.958966093318182
Zr 13.953142865456575 7.097280291696632 11.070177105100719
Zr 14.65830279156682 9.862613002263318 11.061439494333394
Zr 15.382521460034232 12.88939705990386 11.363436141280138
Zr 13.306312596778515 14.308786612005369 10.262943199510989
Zr 11.2071902390661 15.733841185115372 11.318851954628974
Zr 8.671425651892411 13.931045593776485 10.97264135542372
Zr 6.339623257663253 12.258907017007996 10.983290809047007
Zr 7.207167511951751 9.588513847352926 10.798448366654291
Zr 8.071937261572604 6.988530300607534 11.03051423209154
Zr 11.036727396595017 6.950292462594376 10.963912053627054
Zr 13.56776429076562 14.762375876591772 12.998773452425596
