24
Energy = -171.34132634 eV
Zr 8.276018448822787 6.905218226460167 11.30666059099588
Zr 9.5125175881021 7.219317164383738 13.659525984613518
Zr 7.3583359939959925 10.579055164023655 9.625509100634137
Zr 8.544596624783695 9.660820077748564 12.274907865053633
Zr 9.422123881795812 8.866326428099244 9.261436965001055
Zr 11.062423608849318 7.905957809304257 11.267358039668018
Zr 7.187977369613163 12.509045649377718 11.785551825087648
Zr 10.84287911865709 9.95552545186505 13.774550501286516
Zr 12.246958496633043 9.086473875523032 8.196816306908964
Zr 9.865171508220694 11.342683586573633 7.838674963580042
Zr 8.001533046580214 13.352529602360624 9.043604829688821
Zr 9.88539785884151 11.890778396762903 10.842077126150196
Zr 13.255301921175326 8.906551177937795 13.1171306268192
Zr 14.113244109739568 8.321556339809822 10.406657545348397
Zr 9.01347023830651 14.693417717116906 11.364524728436146
Zr 12.265629706030087 10.56566898274051 10.70449220970104
Zr 9.547099275937535 12.692864288566378 13.614221781181183
Zr 12.602858283864006 12.078848420083565 7.90291500602911
Zr 12.775749538956262 12.043733310656172 13.324553516921789
Zr 10.965150927150855 14.064921665607198 9.09950363355213
Zr 14.691026789294373 10.742805940004411 8.967312024496694
Zr 15.036804645266184 10.783948969746158 11.8095649241877
Zr 11.595133598029857 14.294614135472163 12.05666989706908
Zr 13.694253615854636 13.189933037511151 10.499636134450503
