20
Energy = -141.37908865 eV
Zr 9.191492623534565 10.91497528246537 8.403727860028273
Zr 9.999984178821624 13.522301222797354 8.561986012985505
Zr 12.195847251984793 11.364662894102398 8.438735047109907
Zr 10.82562291979401 8.844142619603355 9.447112862981815
Zr 7.887802407826921 12.666575143479408 10.672363588509484
Zr 13.993567260430758 9.339805698431688 9.47243013562872
Zr 14.263697390140775 12.065067744836456 10.720636125798318
Zr 10.088683270824488 14.79407026870262 11.085328466195188
Zr 10.556921951406837 11.716333130695617 11.053060263600212
Zr 12.472942365370242 14.002205472152484 9.821452804756515
Zr 12.564685979735668 9.79275314840613 11.782234074417893
Zr 15.304687014479343 9.54627707916941 12.124229094832968
Zr 12.34915117528792 13.590456008986084 12.742413664881722
Zr 8.221727561523341 9.638420013037525 10.662664912793733
Zr 9.414282471492692 13.409199935430841 13.353356119928396
Zr 10.174488087270479 8.727824477791977 12.623139067224129
Zr 14.107377700199224 11.553997443023057 13.722597777243756
Zr 13.27581978638227 8.91526552282892 14.314348901408819
Zr 8.386437837723594 10.906980483988477 13.168614551649439
Zr 11.161787737044959 11.125693381345208 14.266575639299456
