26
Energy = -186.96360667 eV
Zr 11.907274906557724 14.603466735586418 9.523116362312027
Zr 11.263636801557645 15.08245298919483 12.54913410496249
Zr 15.76053776331363 12.956306514852642 13.837940150259694
Zr 14.293492650660614 14.834711398486862 11.750244374174253
Zr 13.931279077653805 12.674443662009438 10.012694245474668
Zr 9.758123278968496 13.057330383952953 8.275825745382964
Zr 16.410270706523008 12.663895681671276 11.025587952880855
Zr 9.28697590761814 14.81483247332075 10.49461827485421
Zr 13.789164300216523 12.955796605591539 16.12079571817639
Zr 13.507441183643861 15.004058583471533 14.364273226384517
Zr 10.963559920797026 13.500385357553 15.100235139970458
Zr 15.303855550234003 10.477686947571296 9.189137483435186
Zr 12.173918821327844 11.621435837817131 8.29783328044727
Zr 10.706438430801079 12.069949628843492 11.062381618679527
Zr 9.503788760592105 10.212548895219518 9.160628159312305
Zr 15.215754062079228 10.231567017417117 12.18317144464415
Zr 12.786968508816694 9.622776314064067 10.452477635554704
Zr 8.708458661156374 13.328945003896445 12.950419125035735
Zr 7.731056748139531 12.488438759699982 10.113541283868194
Zr 10.345440771508976 8.926389808630935 11.697815504738713
Zr 12.94128517544933 12.22743833026457 13.20113224774754
Zr 14.734004105535458 10.515529975680417 15.021956393749795
Zr 12.590413367022796 9.196109187826153 13.433755330138016
Zr 8.131810630626356 10.530412334770768 11.875968559396158
Zr 9.873832495682702 10.79500144580167 14.081895757454664
Zr 12.035309922111209 10.784683433424515 15.817479575560531
