28
Energy = -203.21400073 eV
Zr 15.669050838765502 10.403928836682354 9.65874083709934
Zr 14.973091224899045 9.083261317446908 11.989230913205914
Zr 15.309070516218448 12.09768645577461 12.145458356090499
Zr 13.432189557682944 8.337801702026535 9.573931971192227
Zr 13.546938448756718 10.832058308802862 7.769666865400426
Zr 14.657521846017627 13.077142983207867 9.200012162509074
Zr 12.482116719011431 7.592340280112431 12.44643268057248
Zr 13.037918901078909 11.190321439624269 10.739277579866668
Zr 13.22375838206779 10.251566769886203 13.94115919291271
Zr 10.943300001350527 9.711447096994508 8.467617289031805
Zr 10.709651234173267 7.341625739181126 9.991224375521655
Zr 13.048246000644625 14.341581994874625 11.236150430272431
Zr 10.714404930924339 8.855265646069459 14.540021819162755
Zr 11.593865242491205 13.04693658094666 8.6768883173354
Zr 10.664612604596412 15.55761431949837 10.463297891387885
Zr 12.949585708016667 13.03687184878804 13.651781030077743
Zr 8.278244166752696 9.174556456747696 10.297370052551226
Zr 10.745994662331936 9.86345580316677 11.717437324993845
Zr 8.636668444956097 14.04213281921831 9.12584981011128
Zr 10.58923603695 14.71617249306975 13.457755497742829
Zr 10.20302528175566 12.713217080585771 11.40049986847614
Zr 9.387816496819807 7.443293048137734 12.46612645007968
Zr 8.903143317648027 11.474761343861339 8.62221381203652
Zr 10.524301878400172 11.766027956427353 14.579485764757772
Zr 8.141984664613428 14.881094243871594 11.73600819275356
Zr 8.214881658377006 10.082510241642003 13.274178932917028
Zr 7.263114570043981 11.988865138667807 11.04605552380178
Zr 8.129168823973592 12.974916263302152 13.70460653419282
