27
Energy = -191.94486663 eV
Zr 11.664373606327713 16.001889905575233 14.851079322117252
Zr 12.377198361418872 16.419362104244914 12.160817592393144
Zr 10.083609440775037 14.314124271314554 13.054848174583395
Zr 13.003665865148221 13.727666182467031 8.254357885235452
Zr 12.813435243355167 16.409388207405225 9.41940347605846
Zr 11.046239281376854 14.387438430205009 10.495182332260901
Zr 10.134709530082556 12.76868082456398 8.38377596013225
Zr 10.973329659327364 13.349945240061734 15.588210695807378
Zr 8.966121091533996 12.211384268287437 10.932262903973669
Zr 8.679302671164983 11.418898775237347 14.085492671272501
Zr 13.144535769606327 13.870854657064342 13.455225192474657
Zr 10.08221570686052 9.881929748429727 9.1488623061123
Zr 14.129032879484296 14.101099064486306 10.833097350044632
Zr 11.39241481992092 11.334756061832183 13.302917724187017
Zr 13.67660567760508 11.614778381143354 15.29720517455764
Zr 10.497076207444843 10.765143745012795 16.233632789408855
Zr 9.08302696063159 9.604416109213215 11.809446116379267
Zr 12.245398644369246 11.493753676084099 10.460294646122906
Zr 12.214584615501082 11.16400750750072 7.393951887863668
Zr 14.825457864261296 11.437746824701852 9.130871789867113
Zr 14.926152841609362 11.63399878815296 12.391547550548752
Zr 10.293496893125651 8.67651463622444 14.147511667487219
Zr 12.513007341992287 9.110691062390677 16.05180206994306
Zr 11.642899678734592 8.296240460208296 11.287965620458147
Zr 13.561786001689418 9.18302648467758 13.50192483447323
Zr 12.942376829721368 8.964046372811582 8.774304427670737
Zr 14.500466790546053 9.20040704855093 10.954220216106531
