37
Energy = -270.8287805 eV
Zr 16.727607761093754 14.990093112530202 15.219355948591073
Zr 17.462197756956577 11.960286760474323 15.435576902473857
Zr 15.663463841255673 13.156222769351121 17.27461121740959
Zr 14.33805071339018 16.670298193491277 13.706660977907635
Zr 13.726542147208168 15.207940312926501 16.295103303902682
Zr 17.802915978686286 13.076722003114329 13.08997070870373
Zr 15.130517207350836 10.559716171750798 16.207802260319415
Zr 16.189225129691568 15.025587301335817 11.879242781268129
Zr 11.620909697397462 17.284344367209304 12.451010233973268
Zr 12.910497758784736 12.305884250012262 17.014589537852682
Zr 15.01982288141239 13.148316707181023 14.202878632700497
Zr 11.73707394978879 16.919590845408965 15.216533057874978
Zr 15.675406856499963 10.413928828493164 13.248552851401513
Zr 10.778279118208697 14.215743551977374 16.055431842590895
Zr 12.575958200615698 9.479431268590842 15.65674414835056
Zr 13.55298747946633 15.96503535304185 10.843138722151487
Zr 12.229033306332491 14.507068094496152 13.404967044309515
Zr 16.63947771688505 12.1031290169455 10.679494777319803
Zr 13.806470429131295 12.65903946203357 11.292055131962153
Zr 9.505181917675335 15.753746499568553 13.74416983439204
Zr 10.311303247977357 11.270525667717875 15.988811352476896
Zr 12.631275536921413 11.576400288803532 13.968470443841579
Zr 14.67776331962181 9.83634680046724 10.5766264241333
Zr 9.345371656173796 12.873602855499357 13.706386274958975
Zr 10.474218390202807 14.886634397013273 10.988562393607387
Zr 14.619375207592524 11.757023874471058 8.520675409680422
Zr 10.715633857180235 11.733455766168259 11.373529756746619
Zr 15.351789946789083 14.37095583406291 9.22198783060191
Zr 10.223465560254835 9.578286203689144 13.686132430738091
Zr 12.463033356601958 13.782903712992356 8.84075285870329
Zr 11.97470239717913 10.615926517908084 9.157771140058212
Zr 12.554397791928247 9.064728087329184 12.163443102001555
Zr 7.987859172896444 13.126620622765563 10.905379881420316
Zr 7.972128248411492 10.568118422471073 12.133909870984143
Zr 9.778304075333436 13.11497466539103 8.712545265264758
Zr 9.971595807499966 8.820730111582176 10.851975262237238
Zr 8.691692402990581 10.718622351245946 9.29670875422669
