30
Energy = -217.40140153 eV
Zr 14.091806735434963 11.737291704317448 8.908573236884886
Zr 12.4348064921818 13.882792249045005 7.974484156092163
Zr 11.033161449852225 11.6294627055118 8.779079994577874
Zr 12.401233425196192 9.181483477491279 9.276174131796681
Zr 9.853616810203816 14.385571608304398 9.44063582143706
Zr 14.978944237480729 9.343228488598733 10.30135547969599
Zr 14.757825041646862 14.59850407620885 9.860319004587959
Zr 13.49140791758033 16.57396398653468 11.706347432567222
Zr 9.978288309522286 11.633830798940407 11.459918859227662
Zr 12.22958317150019 16.257960498890913 9.201747527075296
Zr 12.20894769813866 13.831017383839745 11.053398064398568
Zr 10.173574237553492 8.746468984595749 10.886578660668109
Zr 12.771824719313287 10.730226933741282 11.803649904834868
Zr 7.932673838495719 10.368764140467645 12.302007120264179
Zr 15.656283091255881 12.005603393683144 11.445339113328057
Zr 10.548637225983725 16.403859807360327 11.470779802727892
Zr 14.816253021148095 14.365120894509781 12.970253513059607
Zr 15.33922208708005 9.39040042384678 12.98610482784955
Zr 10.41189405592122 9.22408745090496 13.666877412632434
Zr 9.552296803559527 14.040476575812727 12.871155262685441
Zr 12.907524168505892 7.9080319646743265 12.076348184115947
Zr 11.810265232608117 15.535739366195303 13.899159267508658
Zr 12.010182389366623 12.307632276662844 13.96515249448629
Zr 15.07690095380681 11.772606792630004 14.446454901209822
Zr 13.131747331607235 9.316488425303115 14.843929709852445
Zr 8.907622823920285 11.680361222129147 14.639117876868129
Zr 10.797851467356173 10.566443666253509 16.24587758970837
Zr 10.791788564068105 13.593316972742436 16.148660737702134
Zr 13.701455797568427 14.219071821347324 15.629187930388115
Zr 13.192450428119539 11.760261435433328 16.731401507745833
