38
Energy = -278.70304557 eV
Zr 7.112852639428193 13.888401931841756 12.400853167418767
Zr 8.457086046166204 15.702887019869973 14.149166662314885
Zr 9.057282049596216 15.796806840887834 11.210648518565955
Zr 7.997018782456444 12.883633121152112 15.074776683360703
Zr 7.818743218720349 11.082445109561165 12.520354710265748
Zr 8.623722661538702 12.946862526003818 10.160907728972974
Zr 10.714593960971927 14.327893029022079 15.650215198043918
Zr 11.10878832894809 16.33259610659427 13.303554437584143
Zr 10.075039718558555 13.635100293784275 12.770407020423184
Zr 11.910779821114607 14.46283193478745 10.589069331412919
Zr 10.020819748180902 11.648023816807724 16.816196818399103
Zr 8.329556404447073 9.964375287836956 15.206109970781938
Zr 9.389734639516798 10.03262826950385 10.19314269442138
Zr 10.89724109403362 12.341372625756934 8.512736798489463
Zr 13.996091341508114 16.379565784204324 11.579179365812921
Zr 9.720351592827496 8.627905572279035 13.03994043470463
Zr 13.10415118008972 14.447368272018245 13.829621852510117
Zr 10.769034441015418 11.24010573848149 13.961347448225704
Zr 14.208937952096552 15.161915163749955 8.828571421697745
Zr 11.853686209448087 11.393305941372782 11.157291909464812
Zr 16.560878628917433 15.968211446206078 10.40881878887855
Zr 16.20894549391464 15.063483037141566 13.391847051863703
Zr 14.949771948013876 13.566989415633524 11.156059293908612
Zr 12.884504461561985 11.689018518375049 15.799990797922842
Zr 13.870888427220686 12.041235552291203 8.915573563630355
Zr 15.344193381598268 13.258990485122748 15.501351058487584
Zr 11.067513985668882 9.111690379679759 15.846592573856261
Zr 11.9625691680484 9.721954985232705 8.717747528812902
Zr 14.27337575144033 11.701745088626271 13.12374849473307
Zr 16.66794947678862 13.470465009510816 8.798727667448317
Zr 11.725987192688944 8.290904034321994 11.090021058280032
Zr 13.055561911838387 9.083569781806847 13.618275679089393
Zr 18.004876554058082 13.793339163097725 11.359143663465334
Zr 15.510119199690077 10.360690880943332 15.399324683963384
Zr 14.338416507685414 9.615867868007618 10.654045631583498
Zr 17.309142598138745 12.092260028609463 13.596377988018126
Zr 16.956909258870894 11.16914698566863 10.735206227582031
Zr 16.137361900517945 9.36469796254782 12.887327905602223
