3
Energy = -14.58956252 eV
Zr 6.597674603053463 6.901091458766665 7.817023
Zr 7.648081434225894 9.309441829384015 7.817023
Zr 9.205312962720646 7.240535711849433 7.817023
