32
Energy = -233.86496186 eV
Zr 15.350125844497118 13.345354474832977 10.544122861638652
Zr 14.107027882582381 9.624628391116364 14.236610991631558
Zr 15.612391905244763 10.465027559261715 11.217713600345299
Zr 14.118287361220364 12.556935310969358 13.035311030106683
Zr 12.993129201220809 15.015814743062453 11.130300756900596
Zr 13.417081859539188 13.912173545669942 8.29539730160545
Zr 15.309984505970796 11.623001276380743 8.371756532163086
Zr 11.958715127537554 7.601105315587434 13.948909974278084
Zr 12.64020250629493 12.011547190168997 15.469522839844776
Zr 13.067609822468514 11.34552910882551 10.343928854707315
Zr 12.507951382413248 11.124223789007482 7.372837878467842
Zr 14.256530523554916 9.084279177186575 8.849546429925194
Zr 11.304079209458582 8.96577930186422 9.269394022364605
Zr 13.259293662493343 8.361005798715029 11.477690777318147
Zr 11.526492121510772 9.495327904472898 15.927187157526843
Zr 11.66540586479212 10.511462813737682 13.110445851720545
Zr 10.637981038197097 13.388216363857914 7.284958478186158
Zr 10.917543195402883 12.966416388284745 10.287127886873462
Zr 10.106645905884164 7.423191915975326 11.664681553609519
Zr 11.052457148947957 15.611277028548471 8.876950687316029
Zr 11.320788708527747 13.636793172946069 13.33242607755525
Zr 9.54901242691743 10.400761941040635 11.446486132257442
Zr 8.358860159336775 8.58321301743832 9.43885451869612
Zr 9.344822726494781 11.051125077744823 8.310124451979046
Zr 9.624967061327544 11.657883324072612 15.033967908342424
Zr 9.997322911996077 15.526922683110987 11.445345758850365
Zr 9.169059650240703 8.70716434109254 14.293977978962445
Zr 8.468316491005599 13.933378659058704 9.276141705616425
Zr 8.48960712093793 13.24412618327699 12.370624569185319
Zr 7.292703603691091 8.503931317423433 12.000946310949988
Zr 7.024352333962397 11.183660357651164 10.45944225567917
Zr 7.286913014291589 10.877287751616871 13.42849216714688
