35
Energy = -253.34941705 eV
Zr 16.241178305092653 11.742609013384245 11.608367231007891
Zr 15.015349366566346 9.17850269739238 11.676145793340861
Zr 15.382957803287562 10.925020783759553 14.246101382265003
Zr 14.02514082110192 8.243307976026431 14.249773530968492
Zr 15.289816369073234 10.96250574994945 8.992623141763103
Zr 15.207068376079441 14.018696965707907 10.275868307151939
Zr 13.171816930437398 8.692670859981673 9.39696750169342
Zr 13.529215194143692 12.836228372959576 15.768978851470568
Zr 15.05146759425469 13.803014527264715 13.315486825242553
Zr 13.541354717307632 9.92699341082517 16.337478336581537
Zr 13.222227067121924 11.595837249673611 10.661330944989784
Zr 12.23007276421312 7.971268917309284 12.127130588444137
Zr 13.495661975215667 16.11402705481741 11.976670500397914
Zr 12.382652556916762 10.833311481575587 13.627495599740135
Zr 13.687351527555036 13.121008222106376 7.897517159197452
Zr 11.913945182310124 10.75175331516117 7.940580518139306
Zr 11.120332931162867 8.625956469087456 15.088755875042452
Zr 10.226873587763421 8.833237318059547 10.044073751625648
Zr 11.141178060052246 11.211747624383971 16.494851411950783
Zr 10.559936359424478 8.420596252868204 7.389096289999875
Zr 9.4641074802621 8.675717439924464 12.721185581901826
Zr 12.959690129638604 15.386776531199335 14.692312450478257
Zr 11.960215762255375 13.687099761386362 12.425848992548515
Zr 12.757486259457506 15.180542896083335 9.400904761970693
Zr 10.624720214187562 13.64732130359398 15.275842297917853
Zr 10.285018376724317 11.59153381626947 11.152159617469653
Zr 9.225818555763444 11.000797340376238 14.310253771348592
Zr 10.73911353025281 13.318078418955178 8.503618646476875
Zr 8.93836923256331 10.914116440645483 8.496519871697267
Zr 7.74968174474544 10.603924656594264 11.395784743854408
Zr 10.469776337976278 16.039100907302732 13.366938725488277
Zr 10.098953276855545 15.367717982702178 10.58866092589221
Zr 8.67279871127163 13.612959679435969 12.958495440455549
Zr 8.086623978054483 13.382610682433802 10.008691916441249
Zr 7.619864763498682 15.796539280223817 11.822486590337636
