46
Energy = -340.12612322 eV
Zr 12.271489033771605 15.624678171446883 6.98566580396167
Zr 12.374217670765407 17.154727634242118 9.560582128429292
Zr 14.77104727571447 15.543382325461367 8.420808870182261
Zr 9.904852478707335 15.429280648860509 8.823740132172244
Zr 12.268543082739303 17.826563691000707 12.511286635548746
Zr 14.770808508514744 16.076479769127396 11.379614692914114
Zr 13.864998060862659 13.12824653450987 7.036060894995253
Zr 10.894073184265203 13.105111791986014 7.04174071479814
Zr 9.925678753497193 17.007629406016132 11.355325783153958
Zr 12.440448565528358 13.97197891379128 9.419551587348806
Zr 15.143489525720359 12.866803687494427 9.900072194669654
Zr 17.186395740996712 13.943035034306765 11.858111131795944
Zr 16.38681098217535 15.526443444084403 14.013760441226419
Zr 13.680680149473403 16.306888723959204 14.453863838403535
Zr 9.815177601291223 12.379960728055519 9.78693599327133
Zr 10.433920554740494 15.543188795754862 14.263284972322053
Zr 12.026204257393548 14.965985907537648 11.968703706994091
Zr 12.217255708941867 10.913354837906866 8.583194154532043
Zr 8.931567138038645 14.353481150353696 11.658181758540374
Zr 14.520346992658464 13.519910263290322 12.796180025867727
Zr 14.82780965826936 9.949217328611315 9.916951312960615
Zr 12.446171177852264 11.482414890942664 11.311455200496308
Zr 12.192747347986241 15.494986096012505 16.767919571934712
Zr 16.651717134858586 11.003759022670307 11.976027747771429
Zr 8.057504461377764 13.439906691881058 14.37522058305963
Zr 10.576675627125631 12.507112102404358 13.460025423386936
Zr 16.779220449069026 12.567310957540938 14.604008876526528
Zr 9.838883015920395 9.465256002053678 10.602335727941895
Zr 13.962168631335325 10.602029390298124 13.539120204349603
Zr 15.018170403000882 14.342615996911514 16.43340453159398
Zr 8.137509940661168 11.300649923033163 12.318631657176867
Zr 12.775237229721956 12.918788319747586 17.890850842038464
Zr 11.252260936715116 9.536757405890445 13.438909919802443
Zr 12.756327822301753 13.207567990076544 14.9990616952854
Zr 12.558662266572608 8.345018741700159 10.694707510062429
Zr 8.371751219659552 8.622555655077116 13.165558605886512
Zr 10.095339339793187 13.307348841805341 16.54842714550865
Zr 15.089562673812626 8.227829476179254 12.341982539807924
Zr 14.764985814581557 11.23105847203947 16.44721471371067
Zr 16.465092003300093 9.5586939067846 14.570209074754548
Zr 8.88091878913566 10.634860056171375 15.263244321613982
Zr 10.301400032669605 6.948783151295819 12.221553953204582
Zr 13.759149257852174 8.448036007429899 15.507734063521069
Zr 11.689084714615626 10.600708933226608 16.40074697940513
Zr 10.467587196549411 7.696856648900111 15.215859362301815
Zr 12.774910413471076 6.821923561522626 13.34865441999094
