41
Energy = -297.99862821 eV
Zr 11.269715319530613 15.41932734894252 9.28306372054835
Zr 16.394379922159672 13.51297481002676 8.8223341829144
Zr 17.16135456908435 16.21395788237485 9.905706174321375
Zr 19.045969220875342 14.360594048191727 9.563294051125364
Zr 13.384480433296119 13.23193684550146 8.842842602457653
Zr 14.417670499298946 15.916535094173954 9.44549868082578
Zr 10.574761998486341 12.650799866515081 8.673118997354504
Zr 10.013891212225996 16.34741936109265 11.638760483201015
Zr 15.309214048755612 10.961999847054562 10.304817398143939
Zr 12.329615682480997 10.744395123020999 9.982715762973418
Zr 14.941260167033638 13.824815730223104 11.459978816892031
Zr 18.08187597778952 11.87920681210688 10.6578531319617
Zr 15.756113975801943 16.66091277475592 12.237968752795583
Zr 9.522002337792287 10.867686686829936 10.719720107301887
Zr 17.855954039708998 14.437078741641622 12.204508513977345
Zr 11.378542053676398 13.586457525544805 11.498998167530775
Zr 12.959347009476188 16.1849298736465 12.267464875015559
Zr 8.694005532101645 14.047564070719975 10.427930687535756
Zr 14.645274595312458 9.333652809368235 13.090905671272596
Zr 10.74759838188114 16.2935881528251 14.474234280509704
Zr 17.17975004843516 9.303241262467509 11.75669538835097
Zr 13.62744280637316 16.650192040998895 15.235357181292924
Zr 13.308097268978143 11.70900767548881 12.827381089912809
Zr 8.516010519577888 14.556290527715488 13.493131153421915
Zr 12.54667768787789 13.935261112413311 14.546163180124003
Zr 16.67352018292431 11.75236424701546 13.216605889126878
Zr 11.448258469361237 9.108666676520276 12.450068498117494
Zr 15.601437968899306 14.58570813563622 14.293066894017295
Zr 10.37342114298197 11.702942399073 13.82782437523683
Zr 7.568475183638123 12.11416184002576 12.255718049435014
Zr 8.361624871526296 9.64187593095442 13.58586432196108
Zr 12.702013473436232 7.261835946727054 14.230287368130993
Zr 11.808189631212954 15.378092535393247 17.15012242138907
Zr 14.795393411183563 11.851798169259153 15.611057370057207
Zr 9.664477800989788 13.833615814093491 16.21189476099161
Zr 14.393096662925986 14.373259207394236 16.92647014620203
Zr 12.588976138252434 9.95479771365182 15.34068803509393
Zr 12.178360723650863 12.386849946566265 17.148263789467258
Zr 7.595060605826547 12.11444208727235 15.021916211568753
Zr 10.278841274591606 8.173126798929935 15.066076771489302
Zr 9.609425238403091 10.704699158184646 16.436133386760233
