44
Energy = -323.48049648 eV
Zr 11.55007933653782 7.625870892437899 14.225464938082995
Zr 8.941955130988816 9.05014334060161 14.702374134734448
Zr 10.675918851016812 9.195830561284748 12.069083172576171
Zr 13.674134638050138 8.091064386493825 12.244579886850596
Zr 7.988452949076783 10.30722326529045 12.300666925244437
Zr 13.963397705974645 8.3444189638306 15.222447299839418
Zr 8.947178483854529 11.155189530793427 16.736865430863105
Zr 11.443279788210083 9.620731614075947 16.293086995241996
Zr 9.675529385448302 11.49605911375237 10.395783587290405
Zr 12.626528773830586 10.192410289537571 10.161720776530025
Zr 7.25355669391426 11.58992250931585 14.598770269153013
Zr 15.915460632475648 9.61056795804542 13.534916163805352
Zr 15.673745749203215 9.800102940946612 10.52728852249258
Zr 13.974705223897468 11.069716844096645 16.35375749639108
Zr 11.427608551433568 12.4628481927185 17.0945982086146
Zr 13.150708629734684 10.703142101553805 13.435288240656512
Zr 10.320244209998078 11.705765892661354 13.99816920851814
Zr 11.52251967806773 12.495210527522488 8.586363874713703
Zr 8.293980785302656 13.31751025625926 12.41683092990399
Zr 14.439728759979804 11.981282164004485 8.72262321061615
Zr 8.853314075903958 13.839517035868248 15.435146304617875
Zr 17.704992923997615 11.300869356307132 12.290564127092232
Zr 13.021202709700983 13.833328310901853 14.503638601434615
Zr 14.983327235246374 12.47116628822641 11.631627238680512
Zr 10.550400188301678 15.104428248259453 13.30173866021375
Zr 13.953873487126826 13.907380443203554 17.25130206625184
Zr 12.042990809006874 13.01833359435239 11.555902577696997
Zr 15.775153463611618 12.539734820381055 14.448607496106758
Zr 13.038108212996605 14.784662727922461 9.125018751949433
Zr 10.133634528151779 14.58060781149481 10.168689932893013
Zr 16.03826676853621 15.277168078307103 15.181386263047006
Zr 11.37528788163006 15.354148282877725 16.393674638184375
Zr 14.64524212913046 15.5612405310088 12.315535774815398
Zr 15.85902259798714 14.63164592589046 9.363145352500261
Zr 13.921984489743945 16.6158863958868 16.74751025547153
Zr 17.29343690555758 12.196039343776283 9.721432918721977
Zr 12.577700231777081 17.20311041137645 14.184937711489622
Zr 17.359298991843435 14.30116967130865 12.068575898316297
Zr 12.001116040189189 16.798562858193648 11.26948960253968
Zr 17.20626074799553 17.14844290692295 13.22672051535728
Zr 14.313076936276863 17.19570403548713 9.58941965758674
Zr 15.262798968204837 18.070979992889608 14.897578480034253
Zr 14.559803492061748 18.495415552984692 12.135061006002745
Zr 16.85783440857853 17.05105673891499 10.636199735520362
