4
Energy = -22.08693384 eV
Zr 9.938827977918393 8.062753832894028 10.187607188624035
Zr 10.241716151074975 10.79048165814569 10.732128436340448
Zr 10.410312420301459 9.744465668637616 8.136443908250957
Zr 7.983857911059408 9.953688195113752 9.52125855695423
