4
Energy = -21.61159976 eV
Zr 7.774773829458154 9.456813905728298 7.320921814953624
Zr 8.823381377112154 7.9060219971568015 9.203638359411913
Zr 8.521453990171887 6.514553237942296 6.961503395441171
Zr 6.159640803257807 7.401860580939886 7.793186986658498
