4
Energy = -16.90294721 eV
Zr 13.375036739393245 12.61323648652277 8.90519601164001
Zr 7.95760451698195 9.842081997191729 11.450134208406627
Zr 7.740938379492139 7.698193839956095 10.766390946983575
Zr 13.123040788483072 12.043106697051643 11.074893797117811
