44
Energy = -324.45176429 eV
Zr 19.068238697770987 12.110264567220764 15.465274954516222
Zr 18.889493980554928 14.963868548051757 15.134467651234317
Zr 19.347995373545363 13.25792636771604 12.874029285708973
Zr 17.10906273849927 13.593230695090675 17.111989473793972
Zr 17.792614898461704 10.735453778010882 13.124018434809681
Zr 17.638588465381222 15.730650535302436 12.522191898717928
Zr 16.72374535007665 10.617374773789038 16.1040168809084
Zr 16.30313827480494 16.361056622433047 15.142031869822505
Zr 16.577474425351145 13.27470611100441 14.272289899284399
Zr 17.05739209363848 13.155663386319295 11.131704279288087
Zr 14.797123934415252 12.2098549109823 17.75262319327092
Zr 15.379022896445134 9.204504899712152 13.726737344219973
Zr 15.938502915360017 10.143085601068966 10.559350601342393
Zr 15.395671755715668 17.616587386827156 12.536308836435811
Zr 14.046610948942504 14.819369326851627 16.333874465131327
Zr 13.813901767665753 9.657461111357733 16.539966568931543
Zr 15.227601504378647 15.558502225671806 10.201360669939476
Zr 14.376974959253342 11.791752427608511 12.130552170913324
Zr 13.931251005144532 11.867039119195596 14.905464202432002
Zr 11.987088900551948 12.847432158513623 17.035151496455903
Zr 14.666064199968554 14.878145947284578 13.054570195632175
Zr 15.100339788193802 12.798102504285014 9.15816724896458
Zr 12.0462281553955 14.019242622631285 14.125155141731748
Zr 12.462180336538793 13.813919547700003 11.07467236154031
Zr 12.528830194728426 9.041764867631446 13.986148275738492
Zr 13.215335208460548 17.122907212684204 14.546926426772341
Zr 12.855646475266411 16.827424770426035 11.490760424801813
Zr 12.691142055184942 14.325290640332181 8.483510285687936
Zr 10.992384343081154 11.001999010796244 15.305438312190569
Zr 11.186689397845111 10.969470813223737 12.108081541503278
Zr 12.959231237736436 11.13386690708866 9.510984873127901
Zr 10.874749598090284 15.632605900422536 16.15104406581543
Zr 13.452787928704984 8.953506367793226 11.410494533081764
Zr 10.509422954356747 16.727229200319876 13.152660443867038
Zr 10.053003780524524 15.618445018687897 10.300774805531375
Zr 10.096036107937888 12.708228025571966 9.665706442676811
Zr 9.563737202763816 13.543516125071475 12.654626625460137
Zr 8.541441538860278 10.870844519521869 13.927413562773767
Zr 8.958013225880206 13.064892133233194 15.845242530592545
Zr 8.063722708127653 11.307983096121248 11.336445951865102
Zr 8.386665320525987 15.611501829058891 14.826082789860342
Zr 7.832694066181972 16.047408976966654 12.184920098341012
Zr 7.52343764950833 13.93677379543084 10.4220112993328
Zr 6.866631828758523 13.373517822482604 13.43470041315415
