48
Energy = -355.59688349 eV
Zr 18.43138850300117 15.14188912447492 14.799322485505767
Zr 18.06302680772977 14.862690385423194 11.903501587682415
Zr 17.971296334057776 11.93101327857285 10.856986989810169
Zr 18.07300857536117 12.426976292911597 13.862284709001491
Zr 16.226986410101716 16.35699962379583 16.095042026118456
Zr 16.99117175885055 17.266949216914664 13.488060049320678
Zr 16.481957678358455 13.395480827385487 16.385384722146913
Zr 17.382934534421516 9.807326022682975 12.93059256939939
Zr 16.296502903391943 9.36140944083304 10.494797162683687
Zr 15.711552967269416 14.548173708649148 13.659171396105984
Zr 15.832801512350569 14.252187505805551 9.859769513329727
Zr 15.785300842235777 11.586108794167004 8.750292251945538
Zr 15.770271466857658 10.789939905601166 15.121263997714887
Zr 13.87130683653228 14.967577552509264 16.67232225570136
Zr 15.297537446552 16.585097963230552 11.37917188949863
Zr 15.260493082024098 11.824836393866736 12.013839631911862
Zr 14.039802220695583 16.99804430194389 14.105687198542148
Zr 12.682805804308204 10.178653646803069 15.061522110710479
Zr 14.478695722349835 8.947059300201879 12.900985752282597
Zr 13.282316443562564 12.982112565335859 14.437794113541694
Zr 13.923134997041405 12.033763347421484 17.13977631639651
Zr 13.486506566120946 9.773411704343232 10.134852651545868
Zr 13.07434413221777 14.712310477703246 12.01298260686848
Zr 13.142986473873714 12.721675373444777 9.907882960645411
Zr 14.195353738541149 13.659686330960234 7.260329839525216
Zr 10.20503484171938 9.924857746883687 16.70292849272361
Zr 12.011845837696981 11.321595985710603 12.292952333783933
Zr 11.457075433000321 8.496314068183478 11.636377372470852
Zr 11.5536237885608 15.70313111406214 14.926810096626427
Zr 13.028132223094502 11.00957497150964 7.485159973691211
Zr 10.492909587237456 8.177575543395356 14.315151791407134
Zr 10.44498691117219 14.13001844179516 10.223697743801365
Zr 11.140130179557339 12.79229852226297 16.389829411914786
Zr 10.871070595620042 16.576308468446918 11.989842315562486
Zr 10.152988396382554 13.933149225285577 13.2863815637042
Zr 9.769444146964858 11.11942036576814 14.028643186611058
Zr 12.871599381604598 15.536024376333746 9.01029717125957
Zr 10.557158671526338 10.86036112810572 9.781517563411596
Zr 11.327827414414093 13.291999732309877 7.660060740052816
Zr 8.734216563230401 16.435062935918342 14.027030993451174
Zr 7.917773555698505 9.07956258556323 15.015986140782367
Zr 8.665475244446764 9.277434627606068 12.00995265471354
Zr 7.93580897833036 11.905999180753318 16.16603399188095
Zr 8.093215636166411 12.316995633556925 11.280553602154276
Zr 8.954118130110432 14.655810361328875 16.106906679307713
Zr 8.161042447289194 15.330244978211336 11.459670059642148
Zr 7.121172878602521 13.86159035663857 13.854238032508963
Zr 6.7636899494990725 11.054369514178962 13.449403317663563
