51
Energy = -377.08202011 eV
Zr 17.48659300740056 10.25044758823732 11.109044824048159
Zr 15.669101799456207 8.079619049328905 11.851366957195228
Zr 17.432814657752587 12.726288921632841 9.762490555253692
Zr 18.432380263276293 12.43625331189498 12.755490727653653
Zr 13.193347018713435 8.377338283846873 10.338192975231784
Zr 17.837159147433994 14.981857094864738 11.719142039457827
Zr 15.193423591500629 7.873233486595191 14.66752144459797
Zr 15.083159228970398 10.48602713442465 9.69062168196362
Zr 17.034516388973092 9.990562406468975 13.837947902024311
Zr 10.868642839684556 8.895433677667205 8.780241416972116
Zr 14.382974831115629 13.160763420092222 8.887528159109774
Zr 15.53039419990518 12.720765407719703 12.063113285462682
Zr 12.77682622598261 7.436715884968396 13.345847910746443
Zr 17.102795947674462 12.294795814521075 15.559841019964825
Zr 12.448079969848234 10.96028946593363 7.841756986079133
Zr 16.07448417665411 15.213282384235061 9.686496051267325
Zr 15.693878941706528 10.012493278017901 16.435313184966414
Zr 16.48660630166463 14.665147369109993 14.220943890530798
Zr 15.275545494656084 16.540953019673076 12.15567821536697
Zr 13.806824184722798 10.09346943997587 12.886743220862417
Zr 12.95778019921368 9.234541753693287 16.002283214254152
Zr 12.243836198296439 11.490810980613029 10.744625783832431
Zr 13.976380352803023 12.283273598561847 14.93761783448234
Zr 9.745844541901304 11.354446674605658 9.113824386843481
Zr 11.578236186589528 13.716896211288503 8.662956422381738
Zr 12.910588264556996 14.412636631647697 11.622373997139396
Zr 13.79609275287503 11.639631104344302 17.771820669755346
Zr 10.827160063431956 8.926706301532784 11.688440186738287
Zr 15.199562717300418 14.38668555886544 16.84358879620511
Zr 13.424838740860583 15.407235082947755 14.525923115189949
Zr 15.660694318509766 17.10175534311832 15.42999721963771
Zr 13.48140890187935 16.203322662072377 9.412201637998523
Zr 10.609928049107943 16.07896109751919 10.305857137014334
Zr 9.689106994684266 13.45155484120955 11.045832884161754
Zr 8.85911574110984 10.835960285195537 12.323067518191952
Zr 10.456274774647706 9.298663248427022 14.519564625189139
Zr 13.564713528407774 16.672207572543073 17.38845109394805
Zr 11.110058422254141 12.32828839197605 13.767171949526514
Zr 12.452557084146344 17.48436540478704 12.10934713255723
Zr 10.570109123155676 15.56708958057879 13.493383074921386
Zr 10.981464162215758 11.272007561624271 16.79302495804304
Zr 12.21513768841168 14.030181951141454 16.952686532581648
Zr 13.07218730001059 18.423567794947356 15.212917916232342
Zr 10.863556221332782 16.78822396190528 16.5015065962656
Zr 9.37742669049463 18.084623065746474 12.036787827001016
Zr 7.91124053027854 15.769386652814706 11.681541839075313
Zr 8.188825569076018 13.600230963863297 13.559293260579386
Zr 8.546734603598551 11.292463165760378 15.215854472728703
Zr 10.446372898469228 18.615051674942986 14.379637376893406
Zr 9.553026664931439 13.968397413914728 15.999996283185428
Zr 8.187514835587205 16.71470261910747 14.48910530207633
