5
Energy = -29.47161666 eV
Zr 8.469393255999327 10.179479011131772 7.963121273377228
Zr 10.530406291555604 9.007169996376442 9.45341786787082
Zr 8.295343530884086 10.133853230118063 10.795216747367993
Zr 9.517070012444297 7.666295361761272 7.172039068799182
Zr 7.986513435847401 7.811928927343162 9.414931569315499
