50
Energy = -368.48508966 eV
Zr 8.999410379186227 13.103808192683735 16.212224666469766
Zr 8.745023211780635 10.418123164974013 14.410469007440145
Zr 10.723930881019697 9.540416576852499 12.24135212519425
Zr 10.114266534792051 15.251662935950025 14.231995903022378
Zr 11.311790474781509 12.449865282849066 7.944955947432295
Zr 7.3203730748214895 13.47036283881868 10.574758030541455
Zr 10.343628613191981 10.66266668762076 16.93912908472207
Zr 13.477036552338129 9.101424302657975 10.610249680224014
Zr 11.496453014417026 9.123128490352805 14.92697672206677
Zr 12.814079835158495 9.908266892394874 7.971155890911192
Zr 10.439461559210699 15.528383368457973 17.041962279165382
Zr 9.287796896400868 14.44625306816862 8.709799430052572
Zr 12.957850823546408 13.933131665342533 15.676715922656543
Zr 11.961484863042825 17.432488326705027 15.406537996133087
Zr 16.236940604710682 8.86488776797319 9.737752335430827
Zr 14.871682685995763 11.536257113099412 8.682880496397436
Zr 13.476459795498622 10.664278224908026 13.361737911505353
Zr 12.743561345341028 11.85606292296364 10.594145239234594
Zr 11.92108291476404 14.921910986764507 9.747621617686331
Zr 10.137401507416214 12.60872777121932 11.056089863050131
Zr 16.697529084232137 16.31475190918041 12.030285332346265
Zr 19.36877050726145 15.395647154561475 12.838267715012538
Zr 17.97029206105391 9.313588617122289 12.120991354755988
Zr 10.340083583044416 9.871497246736153 9.445347310030598
Zr 15.810949220141273 11.131168192069747 11.459776987103917
Zr 8.423396562818864 11.71185090448573 8.584616493752435
Zr 14.96295223089416 14.203829878465726 10.61080004974081
Zr 15.320550755614786 8.195547812633896 12.432418422633907
Zr 15.248651057402816 13.121735778193793 13.54578455130683
Zr 17.701653437202893 14.527455610656457 14.790682137694462
Zr 7.988764162928301 10.67600564383447 11.38015118678372
Zr 12.440928080173656 14.374996672212685 12.45610636307361
Zr 13.958523196778792 16.890955177638727 11.011455621496337
Zr 16.270486943101066 9.89856955136808 14.432279470660855
Zr 17.6342347874819 13.586086077245922 11.460291214142948
Zr 18.171872532530312 11.932164804344476 13.753610322387974
Zr 14.44953583586983 18.604263980721054 13.485861381775418
Zr 14.387393114324404 15.948424239970464 14.043408620979486
Zr 11.057086967675048 12.127274873877422 14.271976600023374
Zr 9.315137099245097 15.468757098031183 11.490595085325488
Zr 11.758971743290132 17.365783179121333 12.482906123805366
Zr 16.980989908084663 17.282921626378098 14.786644507209193
Zr 16.165573072648215 12.285686381746322 16.24588776582944
Zr 13.361364420025726 10.917085769395076 16.4326893806967
Zr 13.164528081500956 15.905736687023815 17.90414034892372
Zr 8.037138227685174 13.185887327977943 13.325423008807636
Zr 14.333147065411138 13.179669491291282 18.25205268107023
Zr 15.908364101207473 15.244801459072052 16.898402564023097
Zr 14.6770041358992 17.8924799215529 16.363759427250105
Zr 11.477140123208457 13.009040457469771 18.049750814435985
