50
Energy = -368.36832029 eV
Zr 17.29072373814631 12.4505032996765 10.20319189604091
Zr 18.884067483740022 13.918826515806984 14.998093272532136
Zr 17.26855833115166 14.105933512023434 12.591220476284924
Zr 18.658113742464376 11.678118232643579 16.55601932838571
Zr 16.403158574534046 15.261895221158332 9.906173424502418
Zr 15.897496806467075 11.021807538525467 12.473922325389706
Zr 16.759029396583983 15.9746456127862 15.203983989738633
Zr 18.223910277852877 11.224292016301305 13.842545396231198
Zr 15.117141307846502 13.134118908544895 8.3785587816188
Zr 15.278975450454453 16.370281915885293 12.522797181707272
Zr 14.978000479388886 10.54828343506611 9.857712849326068
Zr 17.313229616603927 13.975940881360419 17.522585796562886
Zr 14.289241861619313 8.213921884912125 11.928395599358552
Zr 14.06166917768083 17.882330143068167 10.31748336504219
Zr 14.497935811095925 13.358390676843797 11.33411809737145
Zr 16.046356133274124 12.891437585025443 15.076212017208967
Zr 14.95721356427169 15.410035625746819 17.319283061025928
Zr 16.125109758138628 10.694876511080363 17.106992122677035
Zr 14.261208264016979 12.671430867154418 17.865838224623563
Zr 13.355274024325272 15.230082682319551 9.293014148876102
Zr 13.784606624242809 17.13882047852687 15.458482430253195
Zr 13.703790959435374 14.463702030465488 14.203952884247666
Zr 12.779291030267693 10.682195697477852 12.222089609540784
Zr 11.763862474472383 19.40868919643534 10.90709402329095
Zr 15.281143277417042 9.327412623003262 14.659384413474216
Zr 13.361845170551653 9.610495702531784 17.22956775632817
Zr 10.639421569605007 17.26084726789652 9.688524663457702
Zr 12.202679162512394 16.077652810501256 11.938450861728471
Zr 12.540009767742042 9.113043071256785 9.593804547765213
Zr 13.104263776745432 18.57015968988782 13.122483205537925
Zr 12.296883048511072 12.050888804494887 9.157228581470356
Zr 12.297743286830052 14.640229793134068 16.824869370785127
Zr 11.271315193881716 13.258728887954888 11.503108879151018
Zr 11.073735491446103 12.085239464553975 17.587583522918802
Zr 12.535745745494522 8.379601144016771 14.486767490249195
Zr 13.138129257036486 11.493409023834234 15.193047988821055
Zr 10.859583644312286 16.216414996872913 14.607200931815536
Zr 11.370617662103037 7.986076886805786 11.861050040995023
Zr 10.78263177538697 13.167450376534031 14.416483627453626
Zr 10.636433910062753 14.677114946042538 8.723039675811606
Zr 9.925053499967976 17.98309735912692 12.542978509712661
Zr 10.017197531047534 10.302042750489077 10.608836085788289
Zr 10.624095716119083 9.802138024234011 16.150415572295937
Zr 9.07110211209838 12.792428055668108 9.581344380700635
Zr 9.4422278271062 14.472621631621344 16.789485186103924
Zr 9.855569591626045 9.926925995774335 13.510808393699305
Zr 9.199766769507413 15.1898421584195 11.624653439407927
Zr 8.536539836703017 11.860947658361875 15.67295423012592
Zr 8.376778486508845 12.294402278418495 12.510946241846652
Zr 8.14326239328464 14.583760625092166 14.349407807275897
