6
Energy = -32.13526077 eV
Zr 7.059923504573556 8.245013217608246 9.064693165317404
Zr 11.211669705282866 8.967218593212417 7.388452018515367
Zr 6.765225188677234 6.201472802468168 7.4429241220289075
Zr 9.087393548294799 7.502284247045866 7.2837451013488534
Zr 7.38997490418896 10.279994846288133 10.696862859549716
Zr 9.428257662342157 9.746461293377047 9.065767733239745
