6
Energy = -36.45105787 eV
Zr 5.0549492152076185 7.336419185118861 7.588935606557491
Zr 6.137244669875674 5.163614472229624 5.956845645669052
Zr 7.601445250432931 8.726051650180453 8.017767019349218
Zr 7.166680454355536 5.896874829551234 8.601076245375836
Zr 8.674416441343588 6.550125328037722 6.393616775397698
Zr 6.561766577614403 7.9959602044575355 5.385346877796488
