22
Energy = -44.34100615 eV
Ag 9.28514208719869 10.84119151614881 13.81131696076015
Ag 13.375124166700559 12.133142322240666 12.056991194986665
Ag 9.578495182071432 10.459133990700046 9.202762581394557
Ag 11.296236298717156 8.276322159408315 9.890826186717115
Ag 9.755551020262228 12.840822544968733 15.648082103916567
Ag 11.543020330268774 7.97836579479832 12.740238240585219
Ag 10.741967112731242 13.318943565162483 12.990818459413989
Ag 13.780536041307979 8.97406205609818 11.00587396041859
Ag 13.767356730317626 8.506455262777028 8.272880059009946
Ag 13.689168676722675 9.745185997428665 13.589642642796179
Ag 8.449045510207739 11.835155712114531 11.327150538431024
Ag 11.182132565885087 9.26933877470872 7.301678913075479
Ag 9.025512809862123 14.578103304521669 11.250086832833977
Ag 11.320103857436985 10.521059038136729 11.807622156150316
Ag 9.082795395813985 9.0379655404473 11.628191676679492
Ag 7.965327143274202 13.423242131575472 13.605013649101595
Ag 12.883468652078392 10.957559600763812 9.310099084579546
Ag 13.367589319417446 10.747739445635927 6.559790017132569
Ag 8.843763386316981 13.149580831884805 8.820105897680243
Ag 11.963500129580149 11.518433752701739 14.649187756768717
Ag 11.107778617920086 12.135005939428071 7.492796601403576
Ag 11.22137527066656 12.994085378044788 10.247351202365063
