  36  36   0   0
  0.3219041E+03  0.2262957E-08  0.2262957E-08  0.2262957E-08  0.1000000E-15
  1.000000000000000E-004
  CAR 
 unknown system                          
      1.72177193    -10.20430891  301     -3.55551884      1.00000000
    -10.204  0.0000E+00  0.0000E+00  0.0000E+00  0.0000E+00
    -10.165  0.0000E+00  0.0000E+00  0.0000E+00  0.0000E+00
    -10.125  0.0000E+00  0.0000E+00  0.0000E+00  0.0000E+00
    -10.085  0.0000E+00  0.0000E+00  0.0000E+00  0.0000E+00
    -10.045  0.0000E+00  0.0000E+00  0.0000E+00  0.0000E+00
    -10.006  0.0000E+00  0.0000E+00  0.0000E+00  0.0000E+00
     -9.966  0.0000E+00  0.0000E+00  0.0000E+00  0.0000E+00
     -9.926  0.0000E+00  0.0000E+00  0.0000E+00  0.0000E+00
     -9.886  0.0000E+00  0.0000E+00  0.0000E+00  0.0000E+00
     -9.847  0.0000E+00  0.0000E+00  0.0000E+00  0.0000E+00
     -9.807  0.0000E+00  0.0000E+00  0.0000E+00  0.0000E+00
     -9.767  0.0000E+00  0.0000E+00  0.0000E+00  0.0000E+00
     -9.727  0.0000E+00  0.0000E+00  0.0000E+00  0.0000E+00
     -9.688  0.0000E+00  0.0000E+00  0.0000E+00  0.0000E+00
     -9.648  0.0000E+00  0.0000E+00  0.1000E-02  0.1000E-02
     -9.608  0.0000E+00  0.0000E+00  0.1000E-02  0.1000E-02
     -9.568  0.0000E+00  0.0000E+00  0.1000E-02  0.1000E-02
     -9.528  0.0000E+00  0.0000E+00  0.1000E-02  0.1000E-02
     -9.489  0.0000E+00  0.0000E+00  0.1000E-02  0.1000E-02
     -9.449  0.0000E+00  0.0000E+00  0.1000E-02  0.1000E-02
     -9.409  0.0000E+00  0.0000E+00  0.1000E-02  0.1000E-02
     -9.369  0.0000E+00  0.0000E+00  0.1000E-02  0.1000E-02
     -9.330  0.0000E+00  0.0000E+00  0.1000E-02  0.1000E-02
     -9.290  0.0000E+00  0.0000E+00  0.1000E-02  0.1000E-02
     -9.250  0.0000E+00  0.0000E+00  0.1000E-02  0.1000E-02
     -9.210  0.0000E+00  0.0000E+00  0.2000E-02  0.2000E-02
     -9.171  0.0000E+00  0.0000E+00  0.2000E-02  0.2000E-02
     -9.131  0.0000E+00  0.0000E+00  0.3000E-02  0.3000E-02
     -9.091  0.0000E+00  0.0000E+00  0.4000E-02  0.4000E-02
     -9.051  0.2191E-06  0.2191E-06  0.5000E-02  0.5000E-02
     -9.012  0.0000E+00  0.0000E+00  0.7000E-02  0.7000E-02
     -8.972  0.0000E+00  0.0000E+00  0.8000E-02  0.8000E-02
     -8.932  0.0000E+00  0.0000E+00  0.1000E-01  0.1000E-01
     -8.892  0.0000E+00  0.0000E+00  0.1200E-01  0.1200E-01
     -8.853  0.0000E+00  0.0000E+00  0.1300E-01  0.1300E-01
     -8.813  0.0000E+00  0.0000E+00  0.1300E-01  0.1300E-01
     -8.773  0.0000E+00  0.0000E+00  0.1500E-01  0.1500E-01
     -8.733  0.0000E+00  0.0000E+00  0.1700E-01  0.1700E-01
     -8.694  0.0000E+00  0.0000E+00  0.1800E-01  0.1800E-01
     -8.654  0.0000E+00  0.0000E+00  0.2000E-01  0.2000E-01
     -8.614  0.0000E+00  0.0000E+00  0.2200E-01  0.2200E-01
     -8.574  0.0000E+00  0.0000E+00  0.2400E-01  0.2400E-01
     -8.535  0.0000E+00  0.0000E+00  0.2600E-01  0.2600E-01
     -8.495  0.0000E+00  0.0000E+00  0.2700E-01  0.2700E-01
     -8.455  0.0000E+00  0.0000E+00  0.2900E-01  0.2900E-01
     -8.415  0.1251E-08  0.1251E-08  0.2900E-01  0.2900E-01
     -8.376  0.0000E+00  0.0000E+00  0.3200E-01  0.3200E-01
     -8.336  0.0000E+00  0.0000E+00  0.3300E-01  0.3300E-01
     -8.296  0.0000E+00  0.0000E+00  0.3500E-01  0.3500E-01
     -8.256  0.0000E+00  0.0000E+00  0.3800E-01  0.3800E-01
     -8.217  0.7640E-02  0.7636E-02  0.4030E-01  0.4030E-01
     -8.177  0.0000E+00  0.0000E+00  0.4200E-01  0.4200E-01
     -8.137  0.0000E+00  0.0000E+00  0.4300E-01  0.4300E-01
     -8.097  0.0000E+00  0.0000E+00  0.4600E-01  0.4600E-01
     -8.058  0.0000E+00  0.0000E+00  0.4800E-01  0.4800E-01
     -8.018  0.0000E+00  0.0000E+00  0.5000E-01  0.5000E-01
     -7.978  0.0000E+00  0.0000E+00  0.5200E-01  0.5200E-01
     -7.938  0.0000E+00  0.0000E+00  0.5400E-01  0.5400E-01
     -7.899  0.0000E+00  0.0000E+00  0.5700E-01  0.5700E-01
     -7.859  0.0000E+00  0.0000E+00  0.5900E-01  0.5900E-01
     -7.819  0.0000E+00  0.0000E+00  0.6100E-01  0.6100E-01
     -7.779  0.0000E+00  0.0000E+00  0.6400E-01  0.6400E-01
     -7.740  0.0000E+00  0.0000E+00  0.6600E-01  0.6600E-01
     -7.700  0.0000E+00  0.0000E+00  0.6900E-01  0.6900E-01
     -7.660  0.0000E+00  0.0000E+00  0.7100E-01  0.7100E-01
     -7.620  0.0000E+00  0.0000E+00  0.7300E-01  0.7300E-01
     -7.581  0.0000E+00  0.0000E+00  0.7600E-01  0.7600E-01
     -7.541  0.0000E+00  0.0000E+00  0.7800E-01  0.7800E-01
     -7.501  0.0000E+00  0.0000E+00  0.8100E-01  0.8100E-01
     -7.461  0.0000E+00  0.0000E+00  0.8200E-01  0.8200E-01
     -7.422  0.0000E+00  0.0000E+00  0.8500E-01  0.8500E-01
     -7.382  0.0000E+00  0.0000E+00  0.8700E-01  0.8700E-01
     -7.342  0.1271E-01  0.1271E-01  0.8951E-01  0.8951E-01
     -7.302  0.2515E-01  0.2515E-01  0.9200E-01  0.9200E-01
     -7.263  0.0000E+00  0.0000E+00  0.9300E-01  0.9300E-01
     -7.223  0.0000E+00  0.0000E+00  0.9500E-01  0.9500E-01
     -7.183  0.0000E+00  0.0000E+00  0.9900E-01  0.9900E-01
     -7.143  0.0000E+00  0.0000E+00  0.1010E+00  0.1010E+00
     -7.104  0.0000E+00  0.0000E+00  0.1040E+00  0.1040E+00
     -7.064  0.0000E+00  0.0000E+00  0.1080E+00  0.1080E+00
     -7.024  0.0000E+00  0.0000E+00  0.1110E+00  0.1110E+00
     -6.984  0.0000E+00  0.0000E+00  0.1150E+00  0.1150E+00
     -6.945  0.0000E+00  0.0000E+00  0.1170E+00  0.1170E+00
     -6.905  0.2515E-01  0.2515E-01  0.1210E+00  0.1210E+00
     -6.865  0.0000E+00  0.0000E+00  0.1240E+00  0.1240E+00
     -6.825  0.0000E+00  0.0000E+00  0.1280E+00  0.1280E+00
     -6.785  0.0000E+00  0.0000E+00  0.1330E+00  0.1330E+00
     -6.746  0.0000E+00  0.0000E+00  0.1350E+00  0.1350E+00
     -6.706  0.0000E+00  0.0000E+00  0.1390E+00  0.1390E+00
     -6.666  0.0000E+00  0.0000E+00  0.1410E+00  0.1410E+00
     -6.626  0.0000E+00  0.0000E+00  0.1440E+00  0.1440E+00
     -6.587  0.0000E+00  0.0000E+00  0.1490E+00  0.1490E+00
     -6.547  0.0000E+00  0.0000E+00  0.1520E+00  0.1520E+00
     -6.507  0.0000E+00  0.0000E+00  0.1550E+00  0.1550E+00
     -6.467  0.0000E+00  0.0000E+00  0.1590E+00  0.1590E+00
     -6.428  0.0000E+00  0.0000E+00  0.1630E+00  0.1630E+00
     -6.388  0.0000E+00  0.0000E+00  0.1660E+00  0.1660E+00
     -6.348  0.0000E+00  0.0000E+00  0.1700E+00  0.1700E+00
     -6.308  0.0000E+00  0.0000E+00  0.1730E+00  0.1730E+00
     -6.269  0.2515E-01  0.2515E-01  0.1750E+00  0.1750E+00
     -6.229  0.0000E+00  0.0000E+00  0.1770E+00  0.1770E+00
     -6.189  0.0000E+00  0.0000E+00  0.1800E+00  0.1800E+00
     -6.149  0.0000E+00  0.0000E+00  0.1820E+00  0.1820E+00
     -6.110  0.0000E+00  0.0000E+00  0.1830E+00  0.1830E+00
     -6.070  0.0000E+00  0.0000E+00  0.1840E+00  0.1840E+00
     -6.030  0.0000E+00  0.0000E+00  0.1850E+00  0.1850E+00
     -5.990  0.0000E+00  0.0000E+00  0.1850E+00  0.1850E+00
     -5.951  0.0000E+00  0.0000E+00  0.1850E+00  0.1850E+00
     -5.911  0.0000E+00  0.0000E+00  0.1850E+00  0.1850E+00
     -5.871  0.0000E+00  0.0000E+00  0.1850E+00  0.1850E+00
     -5.831  0.0000E+00  0.0000E+00  0.1850E+00  0.1850E+00
     -5.792  0.0000E+00  0.0000E+00  0.1850E+00  0.1850E+00
     -5.752  0.0000E+00  0.0000E+00  0.1850E+00  0.1850E+00
     -5.712  0.0000E+00  0.0000E+00  0.1860E+00  0.1860E+00
     -5.672  0.0000E+00  0.0000E+00  0.1870E+00  0.1870E+00
     -5.633  0.0000E+00  0.0000E+00  0.1870E+00  0.1870E+00
     -5.593  0.0000E+00  0.0000E+00  0.1870E+00  0.1870E+00
     -5.553  0.0000E+00  0.0000E+00  0.1870E+00  0.1870E+00
     -5.513  0.0000E+00  0.0000E+00  0.1880E+00  0.1880E+00
     -5.474  0.0000E+00  0.0000E+00  0.1880E+00  0.1880E+00
     -5.434  0.0000E+00  0.0000E+00  0.1880E+00  0.1880E+00
     -5.394  0.0000E+00  0.0000E+00  0.1880E+00  0.1880E+00
     -5.354  0.0000E+00  0.0000E+00  0.1880E+00  0.1880E+00
     -5.315  0.0000E+00  0.0000E+00  0.1880E+00  0.1880E+00
     -5.275  0.0000E+00  0.0000E+00  0.1880E+00  0.1880E+00
     -5.235  0.0000E+00  0.0000E+00  0.1880E+00  0.1880E+00
     -5.195  0.0000E+00  0.0000E+00  0.1880E+00  0.1880E+00
     -5.156  0.0000E+00  0.0000E+00  0.1880E+00  0.1880E+00
     -5.116  0.0000E+00  0.0000E+00  0.1880E+00  0.1880E+00
     -5.076  0.0000E+00  0.0000E+00  0.1880E+00  0.1880E+00
     -5.036  0.0000E+00  0.0000E+00  0.1890E+00  0.1890E+00
     -4.997  0.2515E-01  0.2515E-01  0.1900E+00  0.1900E+00
     -4.957  0.0000E+00  0.0000E+00  0.1900E+00  0.1900E+00
     -4.917  0.0000E+00  0.0000E+00  0.1900E+00  0.1900E+00
     -4.877  0.0000E+00  0.0000E+00  0.1910E+00  0.1910E+00
     -4.838  0.0000E+00  0.0000E+00  0.1910E+00  0.1910E+00
     -4.798  0.0000E+00  0.0000E+00  0.1910E+00  0.1910E+00
     -4.758  0.0000E+00  0.0000E+00  0.1910E+00  0.1910E+00
     -4.718  0.0000E+00  0.0000E+00  0.1910E+00  0.1910E+00
     -4.679  0.0000E+00  0.0000E+00  0.1910E+00  0.1910E+00
     -4.639  0.0000E+00  0.0000E+00  0.1910E+00  0.1910E+00
     -4.599  0.0000E+00  0.0000E+00  0.1910E+00  0.1910E+00
     -4.559  0.0000E+00  0.0000E+00  0.1920E+00  0.1920E+00
     -4.520  0.0000E+00  0.0000E+00  0.1920E+00  0.1920E+00
     -4.480  0.0000E+00  0.0000E+00  0.1920E+00  0.1920E+00
     -4.440  0.0000E+00  0.0000E+00  0.1920E+00  0.1920E+00
     -4.400  0.0000E+00  0.0000E+00  0.1930E+00  0.1930E+00
     -4.361  0.0000E+00  0.0000E+00  0.1930E+00  0.1930E+00
     -4.321  0.0000E+00  0.0000E+00  0.1930E+00  0.1930E+00
     -4.281  0.0000E+00  0.0000E+00  0.1930E+00  0.1930E+00
     -4.241  0.0000E+00  0.0000E+00  0.1930E+00  0.1930E+00
     -4.202  0.0000E+00  0.0000E+00  0.1930E+00  0.1930E+00
     -4.162  0.0000E+00  0.0000E+00  0.1930E+00  0.1930E+00
     -4.122  0.0000E+00  0.0000E+00  0.1930E+00  0.1930E+00
     -4.082  0.0000E+00  0.0000E+00  0.1930E+00  0.1930E+00
     -4.043  0.0000E+00  0.0000E+00  0.1940E+00  0.1940E+00
     -4.003  0.0000E+00  0.0000E+00  0.1940E+00  0.1940E+00
     -3.963  0.0000E+00  0.0000E+00  0.1940E+00  0.1940E+00
     -3.923  0.0000E+00  0.0000E+00  0.1940E+00  0.1940E+00
     -3.883  0.0000E+00  0.0000E+00  0.1950E+00  0.1950E+00
     -3.844  0.0000E+00  0.0000E+00  0.1950E+00  0.1950E+00
     -3.804  0.0000E+00  0.0000E+00  0.1950E+00  0.1950E+00
     -3.764  0.0000E+00  0.0000E+00  0.1960E+00  0.1960E+00
     -3.724  0.0000E+00  0.0000E+00  0.1960E+00  0.1960E+00
     -3.685  0.0000E+00  0.0000E+00  0.1970E+00  0.1970E+00
     -3.645  0.0000E+00  0.0000E+00  0.1970E+00  0.1970E+00
     -3.605  0.0000E+00  0.0000E+00  0.1970E+00  0.1970E+00
     -3.565  0.0000E+00  0.0000E+00  0.1980E+00  0.1980E+00
     -3.526  0.0000E+00  0.0000E+00  0.1980E+00  0.1980E+00
     -3.486  0.0000E+00  0.0000E+00  0.1980E+00  0.1980E+00
     -3.446  0.0000E+00  0.0000E+00  0.1980E+00  0.1980E+00
     -3.406  0.0000E+00  0.0000E+00  0.1980E+00  0.1980E+00
     -3.367  0.0000E+00  0.0000E+00  0.1980E+00  0.1980E+00
     -3.327  0.0000E+00  0.0000E+00  0.1980E+00  0.1980E+00
     -3.287  0.0000E+00  0.0000E+00  0.1980E+00  0.1980E+00
     -3.247  0.0000E+00  0.0000E+00  0.1980E+00  0.1980E+00
     -3.208  0.0000E+00  0.0000E+00  0.1980E+00  0.1980E+00
     -3.168  0.0000E+00  0.0000E+00  0.1980E+00  0.1980E+00
     -3.128  0.0000E+00  0.0000E+00  0.1990E+00  0.1990E+00
     -3.088  0.0000E+00  0.0000E+00  0.1990E+00  0.1990E+00
     -3.049  0.0000E+00  0.0000E+00  0.2000E+00  0.2000E+00
     -3.009  0.0000E+00  0.0000E+00  0.2000E+00  0.2000E+00
     -2.969  0.0000E+00  0.0000E+00  0.2000E+00  0.2000E+00
     -2.929  0.0000E+00  0.0000E+00  0.2000E+00  0.2000E+00
     -2.890  0.0000E+00  0.0000E+00  0.2010E+00  0.2010E+00
     -2.850  0.0000E+00  0.0000E+00  0.2010E+00  0.2010E+00
     -2.810  0.0000E+00  0.0000E+00  0.2010E+00  0.2010E+00
     -2.770  0.0000E+00  0.0000E+00  0.2020E+00  0.2020E+00
     -2.731  0.0000E+00  0.0000E+00  0.2020E+00  0.2020E+00
     -2.691  0.0000E+00  0.0000E+00  0.2020E+00  0.2020E+00
     -2.651  0.0000E+00  0.0000E+00  0.2030E+00  0.2030E+00
     -2.611  0.0000E+00  0.0000E+00  0.2030E+00  0.2030E+00
     -2.572  0.0000E+00  0.0000E+00  0.2030E+00  0.2030E+00
     -2.532  0.0000E+00  0.0000E+00  0.2030E+00  0.2030E+00
     -2.492  0.0000E+00  0.0000E+00  0.2030E+00  0.2030E+00
     -2.452  0.0000E+00  0.0000E+00  0.2030E+00  0.2030E+00
     -2.413  0.0000E+00  0.0000E+00  0.2030E+00  0.2030E+00
     -2.373  0.2515E-01  0.2515E-01  0.2050E+00  0.2050E+00
     -2.333  0.0000E+00  0.0000E+00  0.2050E+00  0.2050E+00
     -2.293  0.0000E+00  0.0000E+00  0.2050E+00  0.2050E+00
     -2.254  0.0000E+00  0.0000E+00  0.2050E+00  0.2050E+00
     -2.214  0.0000E+00  0.0000E+00  0.2050E+00  0.2050E+00
     -2.174  0.0000E+00  0.0000E+00  0.2060E+00  0.2060E+00
     -2.134  0.0000E+00  0.0000E+00  0.2060E+00  0.2060E+00
     -2.095  0.0000E+00  0.0000E+00  0.2070E+00  0.2070E+00
     -2.055  0.0000E+00  0.0000E+00  0.2070E+00  0.2070E+00
     -2.015  0.0000E+00  0.0000E+00  0.2070E+00  0.2070E+00
     -1.975  0.0000E+00  0.0000E+00  0.2080E+00  0.2080E+00
     -1.936  0.0000E+00  0.0000E+00  0.2080E+00  0.2080E+00
     -1.896  0.0000E+00  0.0000E+00  0.2080E+00  0.2080E+00
     -1.856  0.0000E+00  0.0000E+00  0.2090E+00  0.2090E+00
     -1.816  0.0000E+00  0.0000E+00  0.2090E+00  0.2090E+00
     -1.777  0.0000E+00  0.0000E+00  0.2100E+00  0.2100E+00
     -1.737  0.0000E+00  0.0000E+00  0.2100E+00  0.2100E+00
     -1.697  0.0000E+00  0.0000E+00  0.2100E+00  0.2100E+00
     -1.657  0.0000E+00  0.0000E+00  0.2110E+00  0.2110E+00
     -1.618  0.0000E+00  0.0000E+00  0.2110E+00  0.2110E+00
     -1.578  0.0000E+00  0.0000E+00  0.2110E+00  0.2110E+00
     -1.538  0.0000E+00  0.0000E+00  0.2110E+00  0.2110E+00
     -1.498  0.0000E+00  0.0000E+00  0.2120E+00  0.2120E+00
     -1.459  0.0000E+00  0.0000E+00  0.2120E+00  0.2120E+00
     -1.419  0.0000E+00  0.0000E+00  0.2120E+00  0.2120E+00
     -1.379  0.0000E+00  0.0000E+00  0.2130E+00  0.2130E+00
     -1.339  0.0000E+00  0.0000E+00  0.2140E+00  0.2140E+00
     -1.300  0.0000E+00  0.0000E+00  0.2140E+00  0.2140E+00
     -1.260  0.0000E+00  0.0000E+00  0.2140E+00  0.2140E+00
     -1.220  0.0000E+00  0.0000E+00  0.2150E+00  0.2150E+00
     -1.180  0.0000E+00  0.0000E+00  0.2150E+00  0.2150E+00
     -1.140  0.0000E+00  0.0000E+00  0.2160E+00  0.2160E+00
     -1.101  0.0000E+00  0.0000E+00  0.2160E+00  0.2160E+00
     -1.061  0.0000E+00  0.0000E+00  0.2160E+00  0.2160E+00
     -1.021  0.0000E+00  0.0000E+00  0.2170E+00  0.2170E+00
     -0.981  0.0000E+00  0.0000E+00  0.2170E+00  0.2170E+00
     -0.942  0.0000E+00  0.0000E+00  0.2170E+00  0.2170E+00
     -0.902  0.0000E+00  0.0000E+00  0.2180E+00  0.2180E+00
     -0.862  0.0000E+00  0.0000E+00  0.2200E+00  0.2200E+00
     -0.822  0.0000E+00  0.0000E+00  0.2200E+00  0.2200E+00
     -0.783  0.0000E+00  0.0000E+00  0.2210E+00  0.2210E+00
     -0.743  0.0000E+00  0.0000E+00  0.2220E+00  0.2220E+00
     -0.703  0.0000E+00  0.0000E+00  0.2220E+00  0.2220E+00
     -0.663  0.0000E+00  0.0000E+00  0.2220E+00  0.2220E+00
     -0.624  0.0000E+00  0.0000E+00  0.2220E+00  0.2220E+00
     -0.584  0.0000E+00  0.0000E+00  0.2230E+00  0.2230E+00
     -0.544  0.0000E+00  0.0000E+00  0.2230E+00  0.2230E+00
     -0.504  0.0000E+00  0.0000E+00  0.2240E+00  0.2240E+00
     -0.465  0.0000E+00  0.0000E+00  0.2240E+00  0.2240E+00
     -0.425  0.0000E+00  0.0000E+00  0.2250E+00  0.2250E+00
     -0.385  0.0000E+00  0.0000E+00  0.2250E+00  0.2250E+00
     -0.345  0.0000E+00  0.0000E+00  0.2250E+00  0.2250E+00
     -0.306  0.0000E+00  0.0000E+00  0.2250E+00  0.2250E+00
     -0.266  0.0000E+00  0.0000E+00  0.2260E+00  0.2260E+00
     -0.226  0.0000E+00  0.0000E+00  0.2260E+00  0.2260E+00
     -0.186  0.0000E+00  0.0000E+00  0.2270E+00  0.2270E+00
     -0.147  0.0000E+00  0.0000E+00  0.2280E+00  0.2280E+00
     -0.107  0.0000E+00  0.0000E+00  0.2280E+00  0.2280E+00
     -0.067  0.0000E+00  0.0000E+00  0.2290E+00  0.2290E+00
     -0.027  0.0000E+00  0.0000E+00  0.2290E+00  0.2290E+00
      0.012  0.0000E+00  0.0000E+00  0.2290E+00  0.2290E+00
      0.052  0.0000E+00  0.0000E+00  0.2300E+00  0.2300E+00
      0.092  0.0000E+00  0.0000E+00  0.2300E+00  0.2300E+00
      0.132  0.0000E+00  0.0000E+00  0.2310E+00  0.2310E+00
      0.171  0.0000E+00  0.0000E+00  0.2310E+00  0.2310E+00
      0.211  0.0000E+00  0.0000E+00  0.2320E+00  0.2320E+00
      0.251  0.0000E+00  0.0000E+00  0.2320E+00  0.2320E+00
      0.291  0.0000E+00  0.0000E+00  0.2320E+00  0.2320E+00
      0.330  0.2515E-01  0.2515E-01  0.2330E+00  0.2330E+00
      0.370  0.0000E+00  0.0000E+00  0.2330E+00  0.2330E+00
      0.410  0.0000E+00  0.0000E+00  0.2330E+00  0.2330E+00
      0.450  0.0000E+00  0.0000E+00  0.2340E+00  0.2340E+00
      0.489  0.0000E+00  0.0000E+00  0.2340E+00  0.2340E+00
      0.529  0.0000E+00  0.0000E+00  0.2350E+00  0.2350E+00
      0.569  0.0000E+00  0.0000E+00  0.2360E+00  0.2360E+00
      0.609  0.0000E+00  0.0000E+00  0.2370E+00  0.2370E+00
      0.648  0.0000E+00  0.0000E+00  0.2370E+00  0.2370E+00
      0.688  0.2515E-01  0.2515E-01  0.2380E+00  0.2380E+00
      0.728  0.0000E+00  0.0000E+00  0.2390E+00  0.2390E+00
      0.768  0.0000E+00  0.0000E+00  0.2410E+00  0.2410E+00
      0.807  0.2515E-01  0.2515E-01  0.2420E+00  0.2420E+00
      0.847  0.0000E+00  0.0000E+00  0.2430E+00  0.2430E+00
      0.887  0.0000E+00  0.0000E+00  0.2440E+00  0.2440E+00
      0.927  0.0000E+00  0.0000E+00  0.2450E+00  0.2450E+00
      0.966  0.0000E+00  0.0000E+00  0.2470E+00  0.2470E+00
      1.006  0.0000E+00  0.0000E+00  0.2480E+00  0.2480E+00
      1.046  0.0000E+00  0.0000E+00  0.2520E+00  0.2520E+00
      1.086  0.0000E+00  0.0000E+00  0.2530E+00  0.2530E+00
      1.125  0.0000E+00  0.0000E+00  0.2540E+00  0.2540E+00
      1.165  0.0000E+00  0.0000E+00  0.2550E+00  0.2550E+00
      1.205  0.0000E+00  0.0000E+00  0.2560E+00  0.2560E+00
      1.245  0.0000E+00  0.0000E+00  0.2560E+00  0.2560E+00
      1.284  0.0000E+00  0.0000E+00  0.2560E+00  0.2560E+00
      1.324  0.0000E+00  0.0000E+00  0.2560E+00  0.2560E+00
      1.364  0.0000E+00  0.0000E+00  0.2560E+00  0.2560E+00
      1.404  0.0000E+00  0.0000E+00  0.2560E+00  0.2560E+00
      1.443  0.0000E+00  0.0000E+00  0.2560E+00  0.2560E+00
      1.483  0.0000E+00  0.0000E+00  0.2560E+00  0.2560E+00
      1.523  0.0000E+00  0.0000E+00  0.2560E+00  0.2560E+00
      1.563  0.0000E+00  0.0000E+00  0.2560E+00  0.2560E+00
      1.603  0.0000E+00  0.0000E+00  0.2560E+00  0.2560E+00
      1.642  0.0000E+00  0.0000E+00  0.2560E+00  0.2560E+00
      1.682  0.0000E+00  0.0000E+00  0.2560E+00  0.2560E+00
      1.722  0.0000E+00  0.0000E+00  0.2560E+00  0.2560E+00
