 running on   32 total cores
 distrk:  each k-point on   32 cores,    1 groups
 distr:  one band on    8 cores,    4 groups
 using from now: INCAR     
 vasp.5.3.5 31Mar14 (build Feb 01 2018 12:10:03) gamma-only                     
  
 POSCAR found type information on POSCAR  Ag
 POSCAR found :  1 types and      24 ions
 scaLAPACK will be used

 ----------------------------------------------------------------------------- 
|                                                                             |
|  ADVICE TO THIS USER RUNNING 'VASP/VAMP'   (HEAR YOUR MASTER'S VOICE ...):  |
|                                                                             |
|      You have a (more or less) 'large supercell' and for larger cells       |
|      it might be more efficient to use real space projection opertators     |
|      So try LREAL= Auto  in the INCAR   file.                               |
|      Mind: At the moment your POTCAR file does not contain real space       |
|       projectors, and has to be modified,  BUT if you                       |
|      want to do an extremely  accurate calculation you might also keep the  |
|      reciprocal projection scheme          (i.e. LREAL=.FALSE.)             |
|                                                                             |
 ----------------------------------------------------------------------------- 

 LDA part: xc-table for Pade appr. of Perdew
 POSCAR, INCAR and KPOINTS ok, starting setup
 WARNING: small aliasing (wrap around) errors must be expected
 FFT: planning ...
 WAVECAR not read
 entering main loop
       N       E                     dE             d eps       ncg     rms          rms(c)
DAV:   1     0.232807978959E+04    0.23281E+04   -0.47340E+04   688   0.584E+02
DAV:   2     0.554750248731E+03   -0.17733E+04   -0.15803E+04  1192   0.140E+02
DAV:   3    -0.154347842964E+02   -0.57019E+03   -0.52167E+03   920   0.892E+01
DAV:   4    -0.477594961791E+02   -0.32325E+02   -0.31930E+02   752   0.234E+01
DAV:   5    -0.482347189940E+02   -0.47522E+00   -0.47459E+00   792   0.334E+00    0.289E+01
DAV:   6    -0.152496290698E+02    0.32985E+02   -0.10446E+02   692   0.171E+01    0.148E+01
DAV:   7    -0.145314923784E+02    0.71814E+00   -0.50929E+00   744   0.663E+00    0.855E+00
DAV:   8    -0.157702478913E+02   -0.12388E+01   -0.20224E+00   732   0.338E+00    0.436E+00
DAV:   9    -0.189262254920E+02   -0.31560E+01   -0.71983E-01   768   0.164E+00    0.252E+00
DAV:  10    -0.251925448492E+02   -0.62663E+01   -0.16369E+00   704   0.204E+00    0.192E+00
DAV:  11    -0.371603909889E+02   -0.11968E+02   -0.59467E+00   696   0.332E+00    0.312E+00
DAV:  12    -0.373358870359E+02   -0.17550E+00   -0.10639E-01   808   0.535E-01    0.290E+00
DAV:  13    -0.372254456482E+02    0.11044E+00   -0.23100E-03   768   0.123E-01    0.292E+00
DAV:  14    -0.384127284029E+02   -0.11873E+01   -0.16317E-01   720   0.625E-01    0.270E+00
DAV:  15    -0.431463216858E+02   -0.47336E+01   -0.23479E+00   692   0.284E+00    0.157E+00
DAV:  16    -0.445427223429E+02   -0.13964E+01   -0.37266E-01   720   0.127E+00    0.209E+00
DAV:  17    -0.445311061758E+02    0.11616E-01   -0.10422E-02   760   0.251E-01    0.209E+00
DAV:  18    -0.445397244260E+02   -0.86183E-02   -0.11588E-03   696   0.102E-01    0.212E+00
DAV:  19    -0.446384570530E+02   -0.98733E-01   -0.53194E-03   704   0.278E-01    0.232E+00
DAV:  20    -0.447375426317E+02   -0.99086E-01   -0.45189E-02   696   0.143E+00    0.159E+00
DAV:  21    -0.455212837989E+02   -0.78374E+00   -0.37115E-01   696   0.294E+00    0.184E+00
DAV:  22    -0.464175272979E+02   -0.89624E+00   -0.12112E-01   704   0.817E-01    0.117E+00
DAV:  23    -0.469171325557E+02   -0.49961E+00   -0.32596E-02   728   0.335E-01    0.775E-01
DAV:  24    -0.473082860051E+02   -0.39115E+00   -0.24349E-02   720   0.363E-01    0.250E-01
DAV:  25    -0.474259740199E+02   -0.11769E+00   -0.45850E-03   720   0.180E-01    0.209E-01
DAV:  26    -0.474845034427E+02   -0.58529E-01   -0.28505E-03   728   0.848E-02    0.218E-01
DAV:  27    -0.475222820259E+02   -0.37779E-01   -0.62879E-03   736   0.375E-01    0.111E-01
DAV:  28    -0.475227696158E+02   -0.48759E-03   -0.13952E-03   744   0.889E-02    0.468E-02
DAV:  29    -0.475262150634E+02   -0.34454E-02   -0.25073E-04   512   0.443E-02    0.608E-02
DAV:  30    -0.475299728114E+02   -0.37577E-02   -0.17995E-04   488   0.244E-02    0.557E-02
DAV:  31    -0.475335436057E+02   -0.35708E-02   -0.22477E-04   488   0.653E-02    0.188E-02
DAV:  32    -0.475349947528E+02   -0.14511E-02   -0.78750E-05   480   0.212E-02    0.191E-02
DAV:  33    -0.475353040275E+02   -0.30927E-03   -0.17669E-05   464   0.183E-02    0.141E-02
DAV:  34    -0.475353338230E+02   -0.29795E-04   -0.11368E-05   456   0.102E-02
   1 F= -.47535334E+02 E0= -.47535334E+02  d E =-.475353E+02  mag=    -0.0070
 curvature:   0.00 expect dE= 0.000E+00 dE for cont linesearch  0.000E+00
 trial: gam= 0.00000 g(F)=  0.496E-01 g(S)=  0.000E+00 ort = 0.000E+00 (trialstep = 0.100E+01)
 search vector abs. value=  0.496E-01
 bond charge predicted
       N       E                     dE             d eps       ncg     rms          rms(c)
DAV:   1    -0.475811596081E+02   -0.45856E-01   -0.33254E+00   736   0.370E+00    0.152E-01
DAV:   2    -0.475826370974E+02   -0.14775E-02   -0.14762E-02   720   0.349E-01    0.106E-01
DAV:   3    -0.475826330457E+02    0.40518E-05   -0.32526E-04   584   0.626E-02
   2 F= -.47582633E+02 E0= -.47582633E+02  d E =-.472992E-01  mag=    -0.0037
 ZBRENT: can't locate minimum, use default step
 trial-energy change:   -0.047299  1 .order   -0.046829   -0.049572   -0.044086
 step:   4.0000(harm=  9.0364)  dis= 0.03217  next Energy=   -47.759312 (dE=-0.224E+00)
 bond charge predicted
       N       E                     dE             d eps       ncg     rms          rms(c)
DAV:   1    -0.476835412380E+02   -0.10090E+00   -0.30019E+01   716   0.111E+01    0.430E-01
DAV:   2    -0.476962454949E+02   -0.12704E-01   -0.13335E-01   744   0.105E+00    0.302E-01
DAV:   3    -0.476958540977E+02    0.39140E-03   -0.28240E-03   728   0.182E-01    0.186E-01
DAV:   4    -0.476956952093E+02    0.15889E-03   -0.12988E-03   720   0.880E-02    0.291E-02
DAV:   5    -0.476956797772E+02    0.15432E-04   -0.51106E-05   448   0.245E-02
   3 F= -.47695680E+02 E0= -.47695680E+02  d E =-.160346E+00  mag=    -0.0014
 curvature:  -2.74 expect dE=-0.612E-01 dE for cont linesearch -0.534E-01
 ZBRENT: increasing intervall
 opt :  10.0000  next Energy=   -47.803868 (dE=-0.269E+00)
 bond charge predicted
       N       E                     dE             d eps       ncg     rms          rms(c)
DAV:   1    -0.477563326749E+02   -0.60637E-01   -0.12054E+02   688   0.223E+01    0.776E-01
DAV:   2    -0.478075811808E+02   -0.51249E-01   -0.53610E-01   712   0.210E+00    0.565E-01
DAV:   3    -0.478061089837E+02    0.14722E-02   -0.10461E-02   712   0.346E-01    0.368E-01
DAV:   4    -0.478051998127E+02    0.90917E-03   -0.53254E-03   736   0.170E-01    0.743E-02
DAV:   5    -0.478051779761E+02    0.21837E-04   -0.16771E-04   488   0.464E-02
   4 F= -.47805178E+02 E0= -.47805178E+02  d E =-.269844E+00  mag=    -0.0005
 curvature:  -5.56 expect dE=-0.907E-01 dE for cont linesearch -0.462E-02
 ZBRENT: extrapolating
 opt :  11.5619  next Energy=   -47.810188 (dE=-0.275E+00)
 bond charge predicted
       N       E                     dE             d eps       ncg     rms          rms(c)
DAV:   1    -0.478067324523E+02   -0.15326E-02   -0.80897E+00   704   0.577E+00    0.194E-01
DAV:   2    -0.478101672479E+02   -0.34348E-02   -0.35984E-02   752   0.544E-01    0.143E-01
DAV:   3    -0.478100804199E+02    0.86828E-04   -0.69573E-04   720   0.863E-02
   5 F= -.47810080E+02 E0= -.47810080E+02  d E =-.274747E+00  mag=    -0.0003
 curvature:  -6.03 expect dE=-0.122E+00 dE for cont linesearch -0.167E-05
 trial: gam= 0.40980 g(F)=  0.202E-01 g(S)=  0.000E+00 ort =-0.117E-03 (trialstep = 0.311E+01)
 search vector abs. value=  0.284E-01
 bond charge predicted
       N       E                     dE             d eps       ncg     rms          rms(c)
DAV:   1    -0.478569074032E+02   -0.46740E-01   -0.18527E+01   688   0.883E+00    0.285E-01
DAV:   2    -0.478652426504E+02   -0.83352E-02   -0.87401E-02   728   0.860E-01    0.226E-01
DAV:   3    -0.478651268972E+02    0.11575E-03   -0.16864E-03   720   0.133E-01    0.148E-01
DAV:   4    -0.478649861425E+02    0.14075E-03   -0.71256E-04   736   0.605E-02    0.381E-02
DAV:   5    -0.478649936885E+02   -0.75460E-05   -0.29089E-05   424   0.171E-02
   6 F= -.47864994E+02 E0= -.47864994E+02  d E =-.549133E-01  mag=    -0.0001
 ZBRENT: can't locate minimum, use default step
 trial-energy change:   -0.054913  1 .order   -0.054982   -0.062713   -0.047250
 step:  12.4495(harm= 12.6227)  dis= 0.06679  next Energy=   -47.937252 (dE=-0.127E+00)
 bond charge predicted
       N       E                     dE             d eps       ncg     rms          rms(c)
DAV:   1    -0.478672075547E+02   -0.22214E-02   -0.16767E+02   688   0.266E+01    0.733E-01
DAV:   2    -0.479428209763E+02   -0.75613E-01   -0.78012E-01   720   0.258E+00    0.640E-01
DAV:   3    -0.479422455735E+02    0.57540E-03   -0.14023E-02   712   0.363E-01    0.450E-01
DAV:   4    -0.479405965651E+02    0.16490E-02   -0.53668E-03   736   0.167E-01    0.176E-01
DAV:   5    -0.479406826721E+02   -0.86107E-04   -0.81830E-04   736   0.724E-02
   7 F= -.47940683E+02 E0= -.47940683E+02  d E =-.130602E+00  mag=    -0.0000
 curvature:  -8.90 expect dE=-0.626E-01 dE for cont linesearch -0.897E-03
 trial: gam= 0.29493 g(F)=  0.704E-02 g(S)=  0.000E+00 ort = 0.169E-02 (trialstep = 0.498E+01)
 search vector abs. value=  0.105E-01
 bond charge predicted
       N       E                     dE             d eps       ncg     rms          rms(c)
DAV:   1    -0.479655898366E+02   -0.24993E-01   -0.17484E+01   696   0.860E+00    0.194E-01
DAV:   2    -0.479735412668E+02   -0.79514E-02   -0.83796E-02   720   0.843E-01    0.163E-01
DAV:   3    -0.479734900836E+02    0.51183E-04   -0.15028E-03   752   0.121E-01    0.110E-01
DAV:   4    -0.479733423262E+02    0.14776E-03   -0.36635E-04   696   0.444E-02    0.529E-02
DAV:   5    -0.479733579304E+02   -0.15604E-04   -0.17012E-04   472   0.310E-02
   8 F= -.47973358E+02 E0= -.47973358E+02  d E =-.326753E-01  mag=    -0.0000
 ZBRENT: can't locate minimum, use default step
 trial-energy change:   -0.032675  1 .order   -0.033122   -0.037535   -0.028709
 step:  19.9192(harm= 21.1778)  dis= 0.04606  next Energy=   -48.020496 (dE=-0.798E-01)
 bond charge predicted
       N       E                     dE             d eps       ncg     rms          rms(c)
DAV:   1    -0.479469916095E+02    0.26351E-01   -0.15813E+02   688   0.260E+01    0.580E-01
DAV:   2    -0.480193008524E+02   -0.72309E-01   -0.75371E-01   720   0.253E+00    0.485E-01
DAV:   3    -0.480187491837E+02    0.55167E-03   -0.13209E-02   752   0.351E-01    0.331E-01
DAV:   4    -0.480171749895E+02    0.15742E-02   -0.32532E-03   752   0.132E-01    0.166E-01
DAV:   5    -0.480171486646E+02    0.26325E-04   -0.16622E-03   736   0.918E-02    0.499E-02
DAV:   6    -0.480171114955E+02    0.37169E-04   -0.13107E-04   480   0.259E-02
   9 F= -.48017111E+02 E0= -.48017111E+02  d E =-.764288E-01  mag=    -0.0000
 curvature: -14.67 expect dE=-0.787E-01 dE for cont linesearch -0.107E-03
 trial: gam= 0.80464 g(F)=  0.536E-02 g(S)=  0.000E+00 ort = 0.276E-03 (trialstep = 0.664E+01)
 search vector abs. value=  0.126E-01
 bond charge predicted
       N       E                     dE             d eps       ncg     rms          rms(c)
DAV:   1    -0.480333993968E+02   -0.16251E-01   -0.37201E+01   688   0.125E+01    0.233E-01
DAV:   2    -0.480508129624E+02   -0.17414E-01   -0.17050E-01   736   0.119E+00    0.201E-01
DAV:   3    -0.480506056501E+02    0.20731E-03   -0.26343E-03   768   0.147E-01    0.148E-01
DAV:   4    -0.480501500756E+02    0.45557E-03   -0.89209E-04   752   0.671E-02    0.714E-02
DAV:   5    -0.480501476668E+02    0.24087E-05   -0.48964E-04   736   0.508E-02
  10 F= -.48050148E+02 E0= -.48050148E+02  d E =-.330362E-01  mag=    -0.0000
 ZBRENT: can't locate minimum, use default step
 trial-energy change:   -0.033036  1 .order   -0.033274   -0.037087   -0.029461
 step:  26.5552(harm= 32.2862)  dis= 0.09573  next Energy=   -48.107294 (dE=-0.902E-01)
 bond charge predicted
       N       E                     dE             d eps       ncg     rms          rms(c)
DAV:   1    -0.479420699787E+02    0.10808E+00   -0.33845E+02   688   0.381E+01    0.849E-01
DAV:   2    -0.481026848413E+02   -0.16061E+00   -0.15836E+00   752   0.364E+00    0.609E-01
DAV:   3    -0.481003412301E+02    0.23436E-02   -0.25012E-02   768   0.463E-01    0.420E-01
DAV:   4    -0.480965793999E+02    0.37618E-02   -0.78552E-03   736   0.200E-01    0.194E-01
DAV:   5    -0.480964517509E+02    0.12765E-03   -0.27145E-03   736   0.122E-01    0.608E-02
DAV:   6    -0.480964586968E+02   -0.69459E-05   -0.18188E-04   496   0.335E-02
  11 F= -.48096459E+02 E0= -.48096459E+02  d E =-.793472E-01  mag=    -0.0000
 curvature: -34.63 expect dE=-0.120E+00 dE for cont linesearch -0.274E-03
 trial: gam= 0.52901 g(F)=  0.346E-02 g(S)=  0.000E+00 ort = 0.316E-03 (trialstep = 0.106E+02)
 search vector abs. value=  0.733E-02
 bond charge predicted
       N       E                     dE             d eps       ncg     rms          rms(c)
DAV:   1    -0.480991164962E+02   -0.26647E-02   -0.55664E+01   688   0.152E+01    0.319E-01
DAV:   2    -0.481249784287E+02   -0.25862E-01   -0.26077E-01   720   0.145E+00    0.255E-01
DAV:   3    -0.481246617620E+02    0.31667E-03   -0.40324E-03   752   0.173E-01    0.181E-01
DAV:   4    -0.481241110495E+02    0.55071E-03   -0.15274E-03   720   0.888E-02    0.744E-02
DAV:   5    -0.481241613439E+02   -0.50294E-04   -0.35092E-04   672   0.480E-02
  12 F= -.48124161E+02 E0= -.48124161E+02  d E =-.277026E-01  mag=    -0.0000
 trial-energy change:   -0.027703  1 .order   -0.028281   -0.038570   -0.017992
 step:  26.7860(harm= 19.9095)  dis= 0.09740  next Energy=   -48.135812 (dE=-0.394E-01)
 bond charge predicted
       N       E                     dE             d eps       ncg     rms          rms(c)
DAV:   1    -0.480672014113E+02    0.56910E-01   -0.12942E+02   688   0.233E+01    0.523E-01
DAV:   2    -0.481281319038E+02   -0.60930E-01   -0.61323E-01   720   0.222E+00    0.389E-01
DAV:   3    -0.481274343843E+02    0.69752E-03   -0.95569E-03   768   0.266E-01    0.270E-01
DAV:   4    -0.481262518728E+02    0.11825E-02   -0.34757E-03   720   0.134E-01    0.106E-01
DAV:   5    -0.481263358929E+02   -0.84020E-04   -0.63454E-04   736   0.651E-02
  13 F= -.48126336E+02 E0= -.48126336E+02  d E =-.298772E-01  mag=    -0.0000
 curvature:  -9.08 expect dE=-0.509E-01 dE for cont linesearch -0.196E-02
 ZBRENT: interpolating
 opt :  19.9015  next Energy=   -48.130662 (dE=-0.342E-01)
 bond charge predicted
       N       E                     dE             d eps       ncg     rms          rms(c)
DAV:   1    -0.481206998825E+02    0.55520E-02   -0.23379E+01   688   0.987E+00    0.196E-01
DAV:   2    -0.481316965065E+02   -0.10997E-01   -0.10836E-01   720   0.934E-01    0.166E-01
DAV:   3    -0.481315965912E+02    0.99915E-04   -0.16672E-03   784   0.111E-01    0.122E-01
DAV:   4    -0.481313743935E+02    0.22220E-03   -0.67943E-04   704   0.589E-02    0.510E-02
DAV:   5    -0.481314137951E+02   -0.39402E-04   -0.16749E-04   480   0.340E-02
  14 F= -.48131414E+02 E0= -.48131414E+02  d E =-.349551E-01  mag=    -0.0000
 curvature: -20.07 expect dE=-0.575E-01 dE for cont linesearch -0.976E-04
 trial: gam= 0.81735 g(F)=  0.287E-02 g(S)=  0.000E+00 ort =-0.189E-03 (trialstep = 0.123E+02)
 search vector abs. value=  0.745E-02
 bond charge predicted
       N       E                     dE             d eps       ncg     rms          rms(c)
DAV:   1    -0.481246869786E+02    0.66874E-02   -0.75847E+01   688   0.176E+01    0.304E-01
DAV:   2    -0.481615033886E+02   -0.36816E-01   -0.36082E-01   704   0.168E+00    0.270E-01
DAV:   3    -0.481613057033E+02    0.19769E-03   -0.52759E-03   768   0.190E-01    0.211E-01
DAV:   4    -0.481604579721E+02    0.84773E-03   -0.15956E-03   704   0.879E-02    0.994E-02
DAV:   5    -0.481604179288E+02    0.40043E-04   -0.86057E-04   720   0.674E-02
  15 F= -.48160418E+02 E0= -.48160418E+02  d E =-.290041E-01  mag=    -0.0000
 ZBRENT: can't locate minimum, use default step
 trial-energy change:   -0.029004  1 .order   -0.029531   -0.033268   -0.025795
 step:  49.0753(harm= 54.6163)  dis= 0.23301  next Energy=   -48.205463 (dE=-0.740E-01)
 bond charge predicted
       N       E                     dE             d eps       ncg     rms          rms(c)
DAV:   1    -0.478175127423E+02    0.34295E+00   -0.71934E+02   688   0.549E+01    0.133E+00
DAV:   2    -0.481944264150E+02   -0.37691E+00   -0.37244E+00   736   0.551E+00    0.946E-01
DAV:   3    -0.481931337625E+02    0.12927E-02   -0.58135E-02   768   0.660E-01    0.668E-01
DAV:   4    -0.481876512852E+02    0.54825E-02   -0.72530E-03   752   0.204E-01    0.434E-01
DAV:   5    -0.481858832281E+02    0.17681E-02   -0.82294E-03   752   0.204E-01    0.118E-01
DAV:   6    -0.481860534808E+02   -0.17025E-03   -0.20667E-04   480   0.396E-02    0.616E-02
DAV:   7    -0.481861350670E+02   -0.81586E-04   -0.68104E-05   448   0.209E-02
  16 F= -.48186135E+02 E0= -.48186135E+02  d E =-.547213E-01  mag=    -0.0000
 curvature: -73.77 expect dE=-0.602E+00 dE for cont linesearch -0.664E-02
 ZBRENT: interpolating
 opt :  38.7557  next Energy=   -48.190362 (dE=-0.589E-01)
 bond charge predicted
       N       E                     dE             d eps       ncg     rms          rms(c)
DAV:   1    -0.481660196280E+02    0.20034E-01   -0.53569E+01   688   0.148E+01    0.274E-01
DAV:   2    -0.481916857748E+02   -0.25666E-01   -0.25515E-01   752   0.141E+00    0.206E-01
DAV:   3    -0.481914525003E+02    0.23327E-03   -0.37142E-03   768   0.159E-01    0.158E-01
DAV:   4    -0.481909740605E+02    0.47844E-03   -0.12592E-03   704   0.771E-02    0.586E-02
DAV:   5    -0.481910182331E+02   -0.44173E-04   -0.32481E-04   656   0.435E-02
  17 F= -.48191018E+02 E0= -.48191018E+02  d E =-.596044E-01  mag=    -0.0000
 curvature: -46.94 expect dE=-0.243E+00 dE for cont linesearch -0.481E-08
 trial: gam= 1.75100 g(F)=  0.518E-02 g(S)=  0.000E+00 ort = 0.873E-06 (trialstep = 0.467E+01)
 search vector abs. value=  0.280E-01
 bond charge predicted
       N       E                     dE             d eps       ncg     rms          rms(c)
DAV:   1    -0.481932714870E+02   -0.22974E-02   -0.41302E+01   696   0.128E+01    0.223E-01
DAV:   2    -0.482130615840E+02   -0.19790E-01   -0.19723E-01   720   0.122E+00    0.187E-01
DAV:   3    -0.482129228911E+02    0.13869E-03   -0.28497E-03   768   0.138E-01    0.146E-01
DAV:   4    -0.482125064478E+02    0.41644E-03   -0.83367E-04   728   0.624E-02    0.620E-02
DAV:   5    -0.482124975561E+02    0.88916E-05   -0.36764E-04   704   0.438E-02
  18 F= -.48212498E+02 E0= -.48212498E+02  d E =-.214793E-01  mag=    -0.0000
 ZBRENT: can't locate minimum, use default step
 trial-energy change:   -0.021479  1 .order   -0.021455   -0.024193   -0.018717
 step:  18.6810(harm= 20.6314)  dis= 0.18084  next Energy=   -48.244456 (dE=-0.534E-01)
 bond charge predicted
       N       E                     dE             d eps       ncg     rms          rms(c)
DAV:   1    -0.480421120097E+02    0.17039E+00   -0.38471E+02   688   0.395E+01    0.867E-01
DAV:   2    -0.482382757806E+02   -0.19616E+00   -0.19544E+00   736   0.388E+00    0.606E-01
DAV:   3    -0.482377808234E+02    0.49496E-03   -0.29403E-02   768   0.447E-01    0.443E-01
DAV:   4    -0.482350947727E+02    0.26861E-02   -0.40911E-03   736   0.148E-01    0.260E-01
DAV:   5    -0.482345046876E+02    0.59009E-03   -0.38114E-03   736   0.136E-01    0.643E-02
DAV:   6    -0.482345756745E+02   -0.70987E-04   -0.70286E-05   480   0.253E-02
  19 F= -.48234576E+02 E0= -.48234576E+02  d E =-.435574E-01  mag=    -0.0000
 curvature: -54.99 expect dE=-0.253E+00 dE for cont linesearch -0.177E-03
 trial: gam= 0.60718 g(F)=  0.461E-02 g(S)=  0.000E+00 ort =-0.300E-03 (trialstep = 0.747E+01)
 search vector abs. value=  0.146E-01
 bond charge predicted
       N       E                     dE             d eps       ncg     rms          rms(c)
DAV:   1    -0.482334585292E+02    0.10462E-02   -0.54886E+01   688   0.149E+01    0.295E-01
DAV:   2    -0.482599731060E+02   -0.26515E-01   -0.26431E-01   736   0.143E+00    0.206E-01
DAV:   3    -0.482597755568E+02    0.19755E-03   -0.39176E-03   736   0.165E-01    0.157E-01
DAV:   4    -0.482593414544E+02    0.43410E-03   -0.12562E-03   736   0.783E-02    0.518E-02
DAV:   5    -0.482593826115E+02   -0.41157E-04   -0.25447E-04   576   0.374E-02
  20 F= -.48259383E+02 E0= -.48259383E+02  d E =-.248069E-01  mag=    -0.0000
 trial-energy change:   -0.024807  1 .order   -0.025873   -0.033067   -0.018678
 step:  17.1728(harm= 17.1728)  dis= 0.09864  next Energy=   -48.272572 (dE=-0.380E-01)
 bond charge predicted
       N       E                     dE             d eps       ncg     rms          rms(c)
DAV:   1    -0.482264728812E+02    0.32869E-01   -0.92765E+01   688   0.194E+01    0.401E-01
DAV:   2    -0.482715086168E+02   -0.45036E-01   -0.44906E-01   736   0.186E+00    0.268E-01
DAV:   3    -0.482711186276E+02    0.38999E-03   -0.66970E-03   752   0.216E-01    0.203E-01
DAV:   4    -0.482703784308E+02    0.74020E-03   -0.20710E-03   720   0.100E-01    0.671E-02
DAV:   5    -0.482704211734E+02   -0.42743E-04   -0.41319E-04   736   0.467E-02
  21 F= -.48270421E+02 E0= -.48270421E+02  d E =-.358455E-01  mag=    -0.0000
 curvature: -28.29 expect dE=-0.133E+00 dE for cont linesearch -0.426E-08
 trial: gam= 0.77911 g(F)=  0.470E-02 g(S)=  0.000E+00 ort =-0.148E-05 (trialstep = 0.941E+01)
 search vector abs. value=  0.136E-01
 bond charge predicted
       N       E                     dE             d eps       ncg     rms          rms(c)
DAV:   1    -0.482651033283E+02    0.52751E-02   -0.80983E+01   688   0.182E+01    0.345E-01
DAV:   2    -0.483047053630E+02   -0.39602E-01   -0.39162E-01   736   0.177E+00    0.288E-01
DAV:   3    -0.483045740361E+02    0.13133E-03   -0.60345E-03   752   0.213E-01    0.211E-01
DAV:   4    -0.483038653677E+02    0.70867E-03   -0.14648E-03   736   0.887E-02    0.107E-01
DAV:   5    -0.483038774444E+02   -0.12077E-04   -0.10363E-03   720   0.696E-02    0.353E-02
DAV:   6    -0.483038700191E+02    0.74253E-05   -0.56372E-05   448   0.163E-02
  22 F= -.48303870E+02 E0= -.48303870E+02  d E =-.334488E-01  mag=    -0.0000
 trial-energy change:   -0.033449  1 .order   -0.034060   -0.044272   -0.023849
 step:  20.4045(harm= 20.4045)  dis= 0.08078  next Energy=   -48.318407 (dE=-0.480E-01)
 bond charge predicted
       N       E                     dE             d eps       ncg     rms          rms(c)
DAV:   1    -0.482655599315E+02    0.38318E-01   -0.11064E+02   688   0.213E+01    0.411E-01
DAV:   2    -0.483202168453E+02   -0.54657E-01   -0.53622E-01   736   0.207E+00    0.335E-01
DAV:   3    -0.483199562732E+02    0.26057E-03   -0.82948E-03   752   0.250E-01    0.245E-01
DAV:   4    -0.483189350647E+02    0.10212E-02   -0.20168E-03   720   0.104E-01    0.124E-01
DAV:   5    -0.483189149545E+02    0.20110E-04   -0.13856E-03   736   0.803E-02    0.393E-02
DAV:   6    -0.483189010151E+02    0.13939E-04   -0.73796E-05   432   0.187E-02
  23 F= -.48318901E+02 E0= -.48318901E+02  d E =-.484798E-01  mag=    -0.0000
 curvature: -29.39 expect dE=-0.885E-01 dE for cont linesearch -0.208E-03
 trial: gam= 0.60536 g(F)=  0.301E-02 g(S)=  0.000E+00 ort = 0.310E-03 (trialstep = 0.116E+02)
 search vector abs. value=  0.835E-02
 bond charge predicted
       N       E                     dE             d eps       ncg     rms          rms(c)
DAV:   1    -0.483136429805E+02    0.52720E-02   -0.75711E+01   688   0.176E+01    0.298E-01
DAV:   2    -0.483503654878E+02   -0.36723E-01   -0.35726E-01   720   0.169E+00    0.252E-01
DAV:   3    -0.483500450570E+02    0.32043E-03   -0.53600E-03   784   0.200E-01    0.197E-01
DAV:   4    -0.483492001868E+02    0.84487E-03   -0.13291E-03   720   0.792E-02    0.978E-02
DAV:   5    -0.483491049439E+02    0.95243E-04   -0.12096E-03   720   0.739E-02    0.295E-02
DAV:   6    -0.483491159218E+02   -0.10978E-04   -0.24719E-05   432   0.127E-02
  24 F= -.48349116E+02 E0= -.48349116E+02  d E =-.302149E-01  mag=    -0.0000
 trial-energy change:   -0.030215  1 .order   -0.030730   -0.037124   -0.024336
 step:  33.7086(harm= 33.7086)  dis= 0.08745  next Energy=   -48.372789 (dE=-0.539E-01)
 bond charge predicted
       N       E                     dE             d eps       ncg     rms          rms(c)
DAV:   1    -0.482363981556E+02    0.11271E+00   -0.27712E+02   688   0.339E+01    0.660E-01
DAV:   2    -0.483715358091E+02   -0.13514E+00   -0.13258E+00   736   0.327E+00    0.491E-01
DAV:   3    -0.483698701640E+02    0.16656E-02   -0.20256E-02   768   0.395E-01    0.367E-01
DAV:   4    -0.483669738131E+02    0.28964E-02   -0.43198E-03   720   0.142E-01    0.191E-01
DAV:   5    -0.483664721872E+02    0.50163E-03   -0.35480E-03   736   0.127E-01    0.473E-02
DAV:   6    -0.483665167129E+02   -0.44526E-04   -0.57870E-05   432   0.215E-02
  25 F= -.48366517E+02 E0= -.48366517E+02  d E =-.476157E-01  mag=    -0.0000
 curvature: -44.02 expect dE=-0.183E+00 dE for cont linesearch -0.550E-03
 trial: gam= 1.48461 g(F)=  0.416E-02 g(S)=  0.000E+00 ort =-0.323E-03 (trialstep = 0.620E+01)
 search vector abs. value=  0.216E-01
 bond charge predicted
       N       E                     dE             d eps       ncg     rms          rms(c)
DAV:   1    -0.483563936174E+02    0.10079E-01   -0.55883E+01   688   0.150E+01    0.268E-01
DAV:   2    -0.483833125029E+02   -0.26919E-01   -0.26534E-01   720   0.144E+00    0.240E-01
DAV:   3    -0.483830419755E+02    0.27053E-03   -0.39074E-03   784   0.165E-01    0.184E-01
DAV:   4    -0.483823386625E+02    0.70331E-03   -0.13806E-03   704   0.786E-02    0.837E-02
DAV:   5    -0.483823363199E+02    0.23426E-05   -0.71178E-04   720   0.570E-02
  26 F= -.48382336E+02 E0= -.48382336E+02  d E =-.158196E-01  mag=    -0.0000
 trial-energy change:   -0.015820  1 .order   -0.017057   -0.022801   -0.011312
 step:  12.2955(harm= 12.2955)  dis= 0.05940  next Energy=   -48.389142 (dE=-0.226E-01)
 bond charge predicted
       N       E                     dE             d eps       ncg     rms          rms(c)
DAV:   1    -0.483615427633E+02    0.20796E-01   -0.54162E+01   688   0.147E+01    0.266E-01
DAV:   2    -0.483877630492E+02   -0.26220E-01   -0.25865E-01   736   0.142E+00    0.232E-01
DAV:   3    -0.483875346181E+02    0.22843E-03   -0.38144E-03   752   0.163E-01    0.176E-01
DAV:   4    -0.483869093477E+02    0.62527E-03   -0.12718E-03   704   0.761E-02    0.798E-02
DAV:   5    -0.483869127346E+02   -0.33869E-05   -0.64284E-04   720   0.543E-02
  27 F= -.48386913E+02 E0= -.48386913E+02  d E =-.203960E-01  mag=    -0.0000
 curvature: -36.09 expect dE=-0.765E-01 dE for cont linesearch -0.119E-06
 trial: gam= 0.11380 g(F)=  0.212E-02 g(S)=  0.000E+00 ort = 0.845E-05 (trialstep = 0.742E+01)
 search vector abs. value=  0.240E-02
 bond charge predicted
       N       E                     dE             d eps       ncg     rms          rms(c)
DAV:   1    -0.483966870578E+02   -0.97777E-02   -0.88541E+00   688   0.609E+00    0.120E-01
DAV:   2    -0.484008723024E+02   -0.41852E-02   -0.41627E-02   720   0.583E-01    0.103E-01
DAV:   3    -0.484008450202E+02    0.27282E-04   -0.65622E-04   752   0.712E-02
  28 F= -.48400845E+02 E0= -.48400845E+02  d E =-.139323E-01  mag=    -0.0000
 ZBRENT: can't locate minimum, use default step
 trial-energy change:   -0.013932  1 .order   -0.013919   -0.015731   -0.012107
 step:  29.6627(harm= 32.1938)  dis= 0.04061  next Energy=   -48.421059 (dE=-0.341E-01)
 bond charge predicted
       N       E                     dE             d eps       ncg     rms          rms(c)
DAV:   1    -0.483849263244E+02    0.15946E-01   -0.80012E+01   688   0.184E+01    0.374E-01
DAV:   2    -0.484227295355E+02   -0.37803E-01   -0.37500E-01   720   0.175E+00    0.327E-01
DAV:   3    -0.484223110738E+02    0.41846E-03   -0.58877E-03   768   0.212E-01    0.237E-01
DAV:   4    -0.484213183383E+02    0.99274E-03   -0.23300E-03   720   0.109E-01    0.106E-01
DAV:   5    -0.484213430591E+02   -0.24721E-04   -0.83456E-04   720   0.663E-02
  29 F= -.48421343E+02 E0= -.48421343E+02  d E =-.344303E-01  mag=    -0.0000
 curvature: -18.04 expect dE=-0.253E-01 dE for cont linesearch -0.609E-03
 trial: gam= 0.53816 g(F)=  0.141E-02 g(S)=  0.000E+00 ort = 0.285E-03 (trialstep = 0.118E+02)
 search vector abs. value=  0.241E-02
 bond charge predicted
       N       E                     dE             d eps       ncg     rms          rms(c)
DAV:   1    -0.484231169399E+02   -0.17986E-02   -0.22684E+01   688   0.970E+00    0.205E-01
DAV:   2    -0.484342097720E+02   -0.11093E-01   -0.10994E-01   720   0.942E-01    0.169E-01
DAV:   3    -0.484341577677E+02    0.52004E-04   -0.17488E-03   752   0.117E-01    0.118E-01
DAV:   4    -0.484339766832E+02    0.18108E-03   -0.51598E-04   704   0.541E-02    0.559E-02
DAV:   5    -0.484340020814E+02   -0.25398E-04   -0.19637E-04   464   0.343E-02
  30 F= -.48434002E+02 E0= -.48434002E+02  d E =-.126590E-01  mag=    -0.0000
 trial-energy change:   -0.012659  1 .order   -0.013163   -0.018450   -0.007876
 step:  20.6564(harm= 20.6564)  dis= 0.02510  next Energy=   -48.437440 (dE=-0.161E-01)
 bond charge predicted
       N       E                     dE             d eps       ncg     rms          rms(c)
DAV:   1    -0.484303270939E+02    0.36496E-02   -0.12578E+01   688   0.722E+00    0.153E-01
DAV:   2    -0.484364311291E+02   -0.61040E-02   -0.60780E-02   736   0.700E-01    0.125E-01
DAV:   3    -0.484364161854E+02    0.14944E-04   -0.96946E-04   752   0.868E-02
  31 F= -.48436416E+02 E0= -.48436416E+02  d E =-.150731E-01  mag=    -0.0000
 curvature: -15.95 expect dE=-0.189E-01 dE for cont linesearch -0.555E-04
 trial: gam= 1.02159 g(F)=  0.118E-02 g(S)=  0.000E+00 ort =-0.915E-04 (trialstep = 0.933E+01)
 search vector abs. value=  0.351E-02
 bond charge predicted
       N       E                     dE             d eps       ncg     rms          rms(c)
DAV:   1    -0.484340626781E+02    0.23685E-02   -0.20567E+01   688   0.914E+00    0.176E-01
DAV:   2    -0.484439937921E+02   -0.99311E-02   -0.96904E-02   736   0.872E-01    0.147E-01
DAV:   3    -0.484438838984E+02    0.10989E-03   -0.14396E-03   752   0.100E-01    0.113E-01
DAV:   4    -0.484436540929E+02    0.22981E-03   -0.75342E-04   704   0.586E-02    0.376E-02
DAV:   5    -0.484436822185E+02   -0.28126E-04   -0.12728E-04   464   0.283E-02
  32 F= -.48443682E+02 E0= -.48443682E+02  d E =-.726603E-02  mag=    -0.0000
 trial-energy change:   -0.007266  1 .order   -0.007550   -0.010177   -0.004922
 step:  18.0692(harm= 18.0692)  dis= 0.02518  next Energy=   -48.446272 (dE=-0.986E-02)
 bond charge predicted
       N       E                     dE             d eps       ncg     rms          rms(c)
DAV:   1    -0.484366554540E+02    0.69986E-02   -0.18007E+01   688   0.855E+00    0.163E-01
DAV:   2    -0.484453564881E+02   -0.87010E-02   -0.85675E-02   736   0.819E-01    0.127E-01
DAV:   3    -0.484452768379E+02    0.79650E-04   -0.12736E-03   728   0.960E-02    0.955E-02
DAV:   4    -0.484451094519E+02    0.16739E-03   -0.46504E-04   656   0.468E-02    0.363E-02
DAV:   5    -0.484451272599E+02   -0.17808E-04   -0.13515E-04   464   0.284E-02
  33 F= -.48445127E+02 E0= -.48445127E+02  d E =-.871107E-02  mag=     0.0000
 curvature: -29.07 expect dE=-0.266E-01 dE for cont linesearch -0.560E-04
 trial: gam= 0.57155 g(F)=  0.915E-03 g(S)=  0.000E+00 ort =-0.823E-04 (trialstep = 0.111E+02)
 search vector abs. value=  0.197E-02
 bond charge predicted
       N       E                     dE             d eps       ncg     rms          rms(c)
DAV:   1    -0.484439280736E+02    0.11814E-02   -0.16218E+01   688   0.809E+00    0.168E-01
DAV:   2    -0.484516129933E+02   -0.76849E-02   -0.76608E-02   720   0.774E-01    0.136E-01
DAV:   3    -0.484515265252E+02    0.86468E-04   -0.11794E-03   752   0.906E-02    0.974E-02
DAV:   4    -0.484513662061E+02    0.16032E-03   -0.47758E-04   672   0.507E-02    0.381E-02
DAV:   5    -0.484513830073E+02   -0.16801E-04   -0.10823E-04   464   0.250E-02
  34 F= -.48451383E+02 E0= -.48451383E+02  d E =-.625575E-02  mag=     0.0000
 trial-energy change:   -0.006256  1 .order   -0.006615   -0.009613   -0.003617
 step:  17.7590(harm= 17.7590)  dis= 0.01691  next Energy=   -48.452833 (dE=-0.771E-02)
 bond charge predicted
       N       E                     dE             d eps       ncg     rms          rms(c)
DAV:   1    -0.484494458258E+02    0.19204E-02   -0.58911E+00   688   0.488E+00    0.103E-01
DAV:   2    -0.484522283600E+02   -0.27825E-02   -0.27841E-02   736   0.466E-01    0.821E-02
DAV:   3    -0.484521979730E+02    0.30387E-04   -0.42258E-04   688   0.545E-02
  35 F= -.48452198E+02 E0= -.48452198E+02  d E =-.707071E-02  mag=     0.0000
 curvature: -20.13 expect dE=-0.949E-02 dE for cont linesearch -0.549E-04
 trial: gam= 0.45891 g(F)=  0.472E-03 g(S)=  0.000E+00 ort =-0.732E-04 (trialstep = 0.124E+02)
 search vector abs. value=  0.819E-03
 bond charge predicted
       N       E                     dE             d eps       ncg     rms          rms(c)
DAV:   1    -0.484522285749E+02   -0.21485E-06   -0.84552E+00   688   0.590E+00    0.114E-01
DAV:   2    -0.484561375785E+02   -0.39090E-02   -0.38821E-02   736   0.554E-01    0.967E-02
DAV:   3    -0.484560807465E+02    0.56832E-04   -0.57553E-04   720   0.637E-02
  36 F= -.48456081E+02 E0= -.48456081E+02  d E =-.388277E-02  mag=     0.0000
 trial-energy change:   -0.003883  1 .order   -0.003921   -0.005437   -0.002406
 step:  22.2715(harm= 22.2715)  dis= 0.01584  next Energy=   -48.457075 (dE=-0.488E-02)
 bond charge predicted
       N       E                     dE             d eps       ncg     rms          rms(c)
DAV:   1    -0.484544554725E+02    0.16821E-02   -0.53395E+00   688   0.469E+00    0.105E-01
DAV:   2    -0.484568916612E+02   -0.24362E-02   -0.24313E-02   736   0.438E-01    0.856E-02
DAV:   3    -0.484568432523E+02    0.48409E-04   -0.36262E-04   672   0.498E-02
  37 F= -.48456843E+02 E0= -.48456843E+02  d E =-.464528E-02  mag=    -0.0000
 curvature: -20.82 expect dE=-0.753E-02 dE for cont linesearch -0.144E-04
 trial: gam= 0.73710 g(F)=  0.362E-03 g(S)=  0.000E+00 ort =-0.238E-04 (trialstep = 0.144E+02)
 search vector abs. value=  0.771E-03
 bond charge predicted
       N       E                     dE             d eps       ncg     rms          rms(c)
DAV:   1    -0.484545852741E+02    0.23064E-02   -0.10737E+01   688   0.666E+00    0.157E-01
DAV:   2    -0.484596431653E+02   -0.50579E-02   -0.50646E-02   720   0.638E-01    0.128E-01
DAV:   3    -0.484595855869E+02    0.57578E-04   -0.80241E-04   752   0.774E-02
  38 F= -.48459586E+02 E0= -.48459586E+02  d E =-.274233E-02  mag=    -0.0000
 trial-energy change:   -0.002742  1 .order   -0.002684   -0.004952   -0.000417
 step:  15.7070(harm= 15.7070)  dis= 0.01328  next Energy=   -48.459547 (dE=-0.270E-02)
 bond charge predicted
       N       E                     dE             d eps       ncg     rms          rms(c)
DAV:   1    -0.484594771334E+02    0.16603E-03   -0.92995E-02   704   0.623E-01    0.431E-02
DAV:   2    -0.484595194624E+02   -0.42329E-04   -0.40208E-04   656   0.574E-02
  39 F= -.48459519E+02 E0= -.48459519E+02  d E =-.267621E-02  mag=    -0.0000
 curvature: -17.60 expect dE=-0.328E-02 dE for cont linesearch -0.655E-04
 trial: gam= 0.56468 g(F)=  0.186E-03 g(S)=  0.000E+00 ort =-0.536E-04 (trialstep = 0.146E+02)
 search vector abs. value=  0.372E-03
 bond charge predicted
       N       E                     dE             d eps       ncg     rms          rms(c)
DAV:   1    -0.484588598364E+02    0.61730E-03   -0.53497E+00   688   0.472E+00    0.953E-02
DAV:   2    -0.484613451950E+02   -0.24854E-02   -0.24976E-02   720   0.451E-01    0.813E-02
DAV:   3    -0.484613147347E+02    0.30460E-04   -0.38481E-04   688   0.553E-02
  40 F= -.48461315E+02 E0= -.48461315E+02  d E =-.179527E-02  mag=    -0.0000
 trial-energy change:   -0.001795  1 .order   -0.001450   -0.002287   -0.000613
 step:  20.0145(harm= 20.0145)  dis= 0.01359  next Energy=   -48.461082 (dE=-0.156E-02)
 bond charge predicted
       N       E                     dE             d eps       ncg     rms          rms(c)
DAV:   1    -0.484611194936E+02    0.22570E-03   -0.72159E-01   704   0.173E+00    0.516E-02
DAV:   2    -0.484614369576E+02   -0.31746E-03   -0.32241E-03   720   0.162E-01    0.411E-02
DAV:   3    -0.484614272262E+02    0.97315E-05   -0.50573E-05   432   0.193E-02
  41 F= -.48461427E+02 E0= -.48461427E+02  d E =-.190776E-02  mag=    -0.0000
 curvature: -23.84 expect dE=-0.360E-02 dE for cont linesearch -0.531E-04
 trial: gam= 0.89011 g(F)=  0.151E-03 g(S)=  0.000E+00 ort =-0.288E-04 (trialstep = 0.148E+02)
 search vector abs. value=  0.394E-03
 bond charge predicted
       N       E                     dE             d eps       ncg     rms          rms(c)
DAV:   1    -0.484603124374E+02    0.11245E-02   -0.58215E+00   688   0.489E+00    0.850E-02
DAV:   2    -0.484630546711E+02   -0.27422E-02   -0.27370E-02   720   0.468E-01    0.762E-02
DAV:   3    -0.484630322831E+02    0.22388E-04   -0.40326E-04   704   0.549E-02
  42 F= -.48463032E+02 E0= -.48463032E+02  d E =-.160506E-02  mag=    -0.0000
 trial-energy change:   -0.001605  1 .order   -0.001322   -0.001859   -0.000785
 step:  25.6434(harm= 25.6434)  dis= 0.02307  next Energy=   -48.463036 (dE=-0.161E-02)
 bond charge predicted
       N       E                     dE             d eps       ncg     rms          rms(c)
DAV:   1    -0.484618399702E+02    0.12147E-02   -0.31064E+00   704   0.357E+00    0.761E-02
DAV:   2    -0.484632505187E+02   -0.14105E-02   -0.14201E-02   720   0.338E-01    0.693E-02
DAV:   3    -0.484632211267E+02    0.29392E-04   -0.19497E-04   528   0.383E-02
  43 F= -.48463221E+02 E0= -.48463221E+02  d E =-.179390E-02  mag=    -0.0000
 curvature: -40.32 expect dE=-0.730E-02 dE for cont linesearch -0.401E-03
 trial: gam= 0.00000 g(F)=  0.181E-03 g(S)=  0.000E+00 ort =-0.626E-04 (trialstep = 0.170E+02)
 search vector abs. value=  0.181E-03
 bond charge predicted
       N       E                     dE             d eps       ncg     rms          rms(c)
DAV:   1    -0.484622384798E+02    0.10120E-02   -0.35245E+00   704   0.383E+00    0.111E-01
DAV:   2    -0.484638117374E+02   -0.15733E-02   -0.16511E-02   704   0.364E-01    0.850E-02
DAV:   3    -0.484637953737E+02    0.16364E-04   -0.28994E-04   608   0.480E-02
  44 F= -.48463795E+02 E0= -.48463795E+02  d E =-.574247E-03  mag=    -0.0000
 trial-energy change:   -0.000574  1 .order   -0.000396   -0.003077    0.002284
 step:   9.7493(harm=  9.7493)  dis= 0.00538  next Energy=   -48.464104 (dE=-0.883E-03)
 bond charge predicted
       N       E                     dE             d eps       ncg     rms          rms(c)
DAV:   1    -0.484638104998E+02    0.12377E-05   -0.63469E-01   696   0.162E+00    0.394E-02
DAV:   2    -0.484640995263E+02   -0.28903E-03   -0.29624E-03   720   0.156E-01    0.328E-02
DAV:   3    -0.484640974430E+02    0.20833E-05   -0.48269E-05   448   0.206E-02
  45 F= -.48464097E+02 E0= -.48464097E+02  d E =-.876316E-03  mag=    -0.0000
 curvature:  -4.87 expect dE=-0.298E-03 dE for cont linesearch -0.504E-04
 trial: gam= 0.09873 g(F)=  0.612E-04 g(S)=  0.000E+00 ort = 0.433E-04 (trialstep = 0.155E+02)
 search vector abs. value=  0.715E-04
 reached required accuracy - stopping structural energy minimisation
Application 90935976 resources: utime ~30883s, stime ~216s, Rss ~82236, inblocks ~82279, outblocks ~153861
