   11   11 1000    2
  0.5843035E+03  0.1859275E-08  0.1859275E-08  0.1859275E-08  0.1000000E-15
  1.000000000000000E-004
  CAR 
 unknown system                          
    121      1     80
 
  0.0000000E+00  0.0000000E+00  0.0000000E+00  0.1000000E+01
    1       -9.117653     -9.104875
    2       -8.925859     -8.913727
    3       -8.893484     -8.876965
    4       -8.740868     -8.720376
    5       -8.721525     -8.705140
    6       -8.619401     -8.591584
    7       -8.548113     -8.523683
    8       -8.517246     -8.482540
    9       -8.432967     -8.405348
   10       -8.376758     -8.354450
   11       -8.317205     -8.296042
   12       -8.264262     -8.238617
   13       -8.215187     -8.194855
   14       -8.160355     -8.128392
   15       -8.080453     -8.056010
   16       -8.013565     -7.980231
   17       -7.915045     -7.893198
   18       -7.848801     -7.820447
   19       -7.803928     -7.771978
   20       -7.741722     -7.720731
   21       -7.693248     -7.665402
   22       -7.665233     -7.641690
   23       -7.567676     -7.543607
   24       -7.516806     -7.486042
   25       -7.483027     -7.470516
   26       -7.447718     -7.417385
   27       -7.376995     -7.351378
   28       -7.325049     -7.303481
   29       -7.261117     -7.246366
   30       -7.232759     -7.210295
   31       -7.224748     -7.202378
   32       -7.184586     -7.164283
   33       -7.144184     -7.121822
   34       -7.092070     -7.068380
   35       -7.049010     -7.028816
   36       -7.044660     -7.024161
   37       -7.016627     -6.993785
   38       -6.980571     -6.959186
   39       -6.952200     -6.935182
   40       -6.912961     -6.893505
   41       -6.911663     -6.887545
   42       -6.856181     -6.838787
   43       -6.850033     -6.833330
   44       -6.829119     -6.806269
   45       -6.818022     -6.797124
   46       -6.767690     -6.735453
   47       -6.750633     -6.730759
   48       -6.720266     -6.698971
   49       -6.667432     -6.641366
   50       -6.631158     -6.614464
   51       -6.605442     -6.577975
   52       -6.513163     -6.499067
   53       -6.498222     -6.481174
   54       -6.433745     -6.406270
   55       -6.390094     -6.354416
   56       -6.333473     -6.306475
   57       -5.933067     -5.855583
   58       -5.352538     -5.303998
   59       -4.891618     -4.810219
   60       -4.144463     -4.099214
   61       -3.592059     -3.367307
   62       -2.951439     -2.876696
   63       -2.876432     -2.820373
   64       -2.608424     -2.543513
   65       -2.074312     -2.015599
   66       -1.842471     -1.768926
   67       -1.600290     -1.444155
   68       -1.085382     -0.973589
   69       -0.981576     -0.887866
   70       -0.813050     -0.732543
   71       -0.696153     -0.614839
   72       -0.536856     -0.424151
   73       -0.379105     -0.320199
   74       -0.177983     -0.074669
   75        0.121129      0.187988
   76        0.170585      0.252300
   77        0.244050      0.304790
   78        0.438356      0.490092
   79        0.502614      0.544337
   80        0.629815      0.684096
