  12  12   0   0
  0.6513193E+03  0.1984533E-08  0.1984533E-08  0.1984533E-08  0.1000000E-15
  1.000000000000000E-004
  CAR 
 unknown system                          
      1.13401345     -9.74490117  301     -3.92468185      1.00000000
     -9.745  0.0000E+00  0.0000E+00  0.0000E+00  0.0000E+00
     -9.709  0.0000E+00  0.0000E+00  0.0000E+00  0.0000E+00
     -9.672  0.0000E+00  0.0000E+00  0.0000E+00  0.0000E+00
     -9.636  0.0000E+00  0.0000E+00  0.0000E+00  0.0000E+00
     -9.600  0.0000E+00  0.0000E+00  0.0000E+00  0.0000E+00
     -9.564  0.0000E+00  0.0000E+00  0.0000E+00  0.0000E+00
     -9.527  0.0000E+00  0.0000E+00  0.0000E+00  0.0000E+00
     -9.491  0.0000E+00  0.0000E+00  0.0000E+00  0.0000E+00
     -9.455  0.0000E+00  0.0000E+00  0.0000E+00  0.0000E+00
     -9.419  0.0000E+00  0.0000E+00  0.0000E+00  0.0000E+00
     -9.382  0.0000E+00  0.0000E+00  0.0000E+00  0.0000E+00
     -9.346  0.0000E+00  0.0000E+00  0.0000E+00  0.0000E+00
     -9.310  0.0000E+00  0.0000E+00  0.0000E+00  0.0000E+00
     -9.273  0.0000E+00  0.0000E+00  0.0000E+00  0.0000E+00
     -9.237  0.0000E+00  0.0000E+00  0.1000E-02  0.1000E-02
     -9.201  0.0000E+00  0.0000E+00  0.1000E-02  0.1000E-02
     -9.165  0.0000E+00  0.0000E+00  0.1000E-02  0.1000E-02
     -9.128  0.0000E+00  0.0000E+00  0.1000E-02  0.1000E-02
     -9.092  0.2758E-01  0.2758E-01  0.2000E-02  0.2000E-02
     -9.056  0.0000E+00  0.0000E+00  0.2000E-02  0.2000E-02
     -9.020  0.0000E+00  0.0000E+00  0.2000E-02  0.2000E-02
     -8.983  0.0000E+00  0.0000E+00  0.3000E-02  0.3000E-02
     -8.947  0.0000E+00  0.0000E+00  0.3000E-02  0.3000E-02
     -8.911  0.0000E+00  0.0000E+00  0.3000E-02  0.3000E-02
     -8.875  0.0000E+00  0.0000E+00  0.3000E-02  0.3000E-02
     -8.838  0.0000E+00  0.0000E+00  0.4000E-02  0.4000E-02
     -8.802  0.0000E+00  0.0000E+00  0.4000E-02  0.4000E-02
     -8.766  0.0000E+00  0.0000E+00  0.4000E-02  0.4000E-02
     -8.730  0.0000E+00  0.0000E+00  0.6000E-02  0.6000E-02
     -8.693  0.0000E+00  0.0000E+00  0.6000E-02  0.6000E-02
     -8.657  0.0000E+00  0.0000E+00  0.8000E-02  0.8000E-02
     -8.621  0.0000E+00  0.0000E+00  0.8000E-02  0.8000E-02
     -8.584  0.0000E+00  0.0000E+00  0.8000E-02  0.8000E-02
     -8.548  0.0000E+00  0.0000E+00  0.1100E-01  0.1100E-01
     -8.512  0.0000E+00  0.0000E+00  0.1100E-01  0.1100E-01
     -8.476  0.0000E+00  0.0000E+00  0.1100E-01  0.1100E-01
     -8.439  0.0000E+00  0.0000E+00  0.1200E-01  0.1200E-01
     -8.403  0.0000E+00  0.0000E+00  0.1200E-01  0.1200E-01
     -8.367  0.0000E+00  0.0000E+00  0.1300E-01  0.1300E-01
     -8.331  0.0000E+00  0.0000E+00  0.1400E-01  0.1400E-01
     -8.294  0.0000E+00  0.0000E+00  0.1500E-01  0.1500E-01
     -8.258  0.0000E+00  0.0000E+00  0.1500E-01  0.1500E-01
     -8.222  0.0000E+00  0.0000E+00  0.1500E-01  0.1500E-01
     -8.186  0.0000E+00  0.0000E+00  0.1600E-01  0.1600E-01
     -8.149  0.0000E+00  0.0000E+00  0.1600E-01  0.1600E-01
     -8.113  0.0000E+00  0.0000E+00  0.1600E-01  0.1600E-01
     -8.077  0.0000E+00  0.0000E+00  0.1700E-01  0.1700E-01
     -8.041  0.0000E+00  0.0000E+00  0.1900E-01  0.1900E-01
     -8.004  0.0000E+00  0.0000E+00  0.2000E-01  0.2000E-01
     -7.968  0.0000E+00  0.0000E+00  0.2000E-01  0.2000E-01
     -7.932  0.0000E+00  0.0000E+00  0.2100E-01  0.2100E-01
     -7.895  0.0000E+00  0.0000E+00  0.2200E-01  0.2200E-01
     -7.859  0.0000E+00  0.0000E+00  0.2200E-01  0.2200E-01
     -7.823  0.0000E+00  0.0000E+00  0.2300E-01  0.2300E-01
     -7.787  0.0000E+00  0.0000E+00  0.2300E-01  0.2300E-01
     -7.750  0.0000E+00  0.0000E+00  0.2300E-01  0.2300E-01
     -7.714  0.0000E+00  0.0000E+00  0.2500E-01  0.2500E-01
     -7.678  0.0000E+00  0.0000E+00  0.2500E-01  0.2500E-01
     -7.642  0.0000E+00  0.0000E+00  0.2600E-01  0.2600E-01
     -7.605  0.0000E+00  0.0000E+00  0.2600E-01  0.2600E-01
     -7.569  0.0000E+00  0.0000E+00  0.2700E-01  0.2700E-01
     -7.533  0.0000E+00  0.0000E+00  0.2700E-01  0.2700E-01
     -7.497  0.0000E+00  0.0000E+00  0.2700E-01  0.2700E-01
     -7.460  0.0000E+00  0.0000E+00  0.2800E-01  0.2800E-01
     -7.424  0.0000E+00  0.0000E+00  0.2900E-01  0.2900E-01
     -7.388  0.0000E+00  0.0000E+00  0.2900E-01  0.2900E-01
     -7.352  0.0000E+00  0.0000E+00  0.3100E-01  0.3100E-01
     -7.315  0.0000E+00  0.0000E+00  0.3200E-01  0.3200E-01
     -7.279  0.0000E+00  0.0000E+00  0.3200E-01  0.3200E-01
     -7.243  0.0000E+00  0.0000E+00  0.3400E-01  0.3400E-01
     -7.206  0.0000E+00  0.0000E+00  0.3600E-01  0.3600E-01
     -7.170  0.0000E+00  0.0000E+00  0.3700E-01  0.3700E-01
     -7.134  0.0000E+00  0.0000E+00  0.3900E-01  0.3900E-01
     -7.098  0.2758E-01  0.2758E-01  0.4100E-01  0.4100E-01
     -7.061  0.0000E+00  0.0000E+00  0.4200E-01  0.4200E-01
     -7.025  0.0000E+00  0.0000E+00  0.4300E-01  0.4300E-01
     -6.989  0.0000E+00  0.0000E+00  0.4300E-01  0.4300E-01
     -6.953  0.0000E+00  0.0000E+00  0.4500E-01  0.4500E-01
     -6.916  0.0000E+00  0.0000E+00  0.4700E-01  0.4700E-01
     -6.880  0.0000E+00  0.0000E+00  0.4900E-01  0.4900E-01
     -6.844  0.0000E+00  0.0000E+00  0.4900E-01  0.4900E-01
     -6.808  0.0000E+00  0.0000E+00  0.5100E-01  0.5100E-01
     -6.771  0.0000E+00  0.0000E+00  0.5100E-01  0.5100E-01
     -6.735  0.0000E+00  0.0000E+00  0.5200E-01  0.5200E-01
     -6.699  0.0000E+00  0.0000E+00  0.5400E-01  0.5400E-01
     -6.663  0.0000E+00  0.0000E+00  0.5500E-01  0.5500E-01
     -6.626  0.0000E+00  0.0000E+00  0.5500E-01  0.5500E-01
     -6.590  0.0000E+00  0.0000E+00  0.5600E-01  0.5600E-01
     -6.554  0.0000E+00  0.0000E+00  0.5700E-01  0.5700E-01
     -6.517  0.0000E+00  0.0000E+00  0.5800E-01  0.5800E-01
     -6.481  0.0000E+00  0.0000E+00  0.5900E-01  0.5900E-01
     -6.445  0.1385E-02  0.1385E-02  0.5905E-01  0.5905E-01
     -6.409  0.0000E+00  0.0000E+00  0.6000E-01  0.6000E-01
     -6.372  0.0000E+00  0.0000E+00  0.6000E-01  0.6000E-01
     -6.336  0.0000E+00  0.0000E+00  0.6000E-01  0.6000E-01
     -6.300  0.0000E+00  0.0000E+00  0.6100E-01  0.6100E-01
     -6.264  0.0000E+00  0.0000E+00  0.6100E-01  0.6100E-01
     -6.227  0.0000E+00  0.0000E+00  0.6100E-01  0.6100E-01
     -6.191  0.0000E+00  0.0000E+00  0.6100E-01  0.6100E-01
     -6.155  0.0000E+00  0.0000E+00  0.6100E-01  0.6100E-01
     -6.119  0.0000E+00  0.0000E+00  0.6200E-01  0.6200E-01
     -6.082  0.0000E+00  0.0000E+00  0.6200E-01  0.6200E-01
     -6.046  0.0000E+00  0.0000E+00  0.6200E-01  0.6200E-01
     -6.010  0.0000E+00  0.0000E+00  0.6200E-01  0.6200E-01
     -5.974  0.0000E+00  0.0000E+00  0.6200E-01  0.6200E-01
     -5.937  0.0000E+00  0.0000E+00  0.6200E-01  0.6200E-01
     -5.901  0.0000E+00  0.0000E+00  0.6200E-01  0.6200E-01
     -5.865  0.0000E+00  0.0000E+00  0.6200E-01  0.6200E-01
     -5.828  0.0000E+00  0.0000E+00  0.6200E-01  0.6200E-01
     -5.792  0.0000E+00  0.0000E+00  0.6200E-01  0.6200E-01
     -5.756  0.0000E+00  0.0000E+00  0.6200E-01  0.6200E-01
     -5.720  0.0000E+00  0.0000E+00  0.6300E-01  0.6300E-01
     -5.683  0.0000E+00  0.0000E+00  0.6300E-01  0.6300E-01
     -5.647  0.0000E+00  0.0000E+00  0.6300E-01  0.6300E-01
     -5.611  0.0000E+00  0.0000E+00  0.6300E-01  0.6300E-01
     -5.575  0.0000E+00  0.0000E+00  0.6300E-01  0.6300E-01
     -5.538  0.0000E+00  0.0000E+00  0.6300E-01  0.6300E-01
     -5.502  0.0000E+00  0.0000E+00  0.6300E-01  0.6300E-01
     -5.466  0.0000E+00  0.0000E+00  0.6300E-01  0.6300E-01
     -5.430  0.0000E+00  0.0000E+00  0.6300E-01  0.6300E-01
     -5.393  0.0000E+00  0.0000E+00  0.6300E-01  0.6300E-01
     -5.357  0.0000E+00  0.0000E+00  0.6300E-01  0.6300E-01
     -5.321  0.0000E+00  0.0000E+00  0.6300E-01  0.6300E-01
     -5.285  0.0000E+00  0.0000E+00  0.6300E-01  0.6300E-01
     -5.248  0.0000E+00  0.0000E+00  0.6300E-01  0.6300E-01
     -5.212  0.0000E+00  0.0000E+00  0.6300E-01  0.6300E-01
     -5.176  0.0000E+00  0.0000E+00  0.6300E-01  0.6300E-01
     -5.139  0.0000E+00  0.0000E+00  0.6300E-01  0.6300E-01
     -5.103  0.0000E+00  0.0000E+00  0.6300E-01  0.6300E-01
     -5.067  0.0000E+00  0.0000E+00  0.6300E-01  0.6300E-01
     -5.031  0.0000E+00  0.0000E+00  0.6300E-01  0.6300E-01
     -4.994  0.0000E+00  0.0000E+00  0.6300E-01  0.6300E-01
     -4.958  0.0000E+00  0.0000E+00  0.6300E-01  0.6300E-01
     -4.922  0.0000E+00  0.0000E+00  0.6300E-01  0.6300E-01
     -4.886  0.0000E+00  0.0000E+00  0.6300E-01  0.6300E-01
     -4.849  0.0000E+00  0.0000E+00  0.6300E-01  0.6300E-01
     -4.813  0.0000E+00  0.0000E+00  0.6300E-01  0.6300E-01
     -4.777  0.0000E+00  0.0000E+00  0.6400E-01  0.6400E-01
     -4.741  0.0000E+00  0.0000E+00  0.6400E-01  0.6400E-01
     -4.704  0.0000E+00  0.0000E+00  0.6400E-01  0.6400E-01
     -4.668  0.0000E+00  0.0000E+00  0.6400E-01  0.6400E-01
     -4.632  0.0000E+00  0.0000E+00  0.6400E-01  0.6400E-01
     -4.596  0.0000E+00  0.0000E+00  0.6400E-01  0.6400E-01
     -4.559  0.0000E+00  0.0000E+00  0.6400E-01  0.6400E-01
     -4.523  0.0000E+00  0.0000E+00  0.6400E-01  0.6400E-01
     -4.487  0.0000E+00  0.0000E+00  0.6400E-01  0.6400E-01
     -4.450  0.0000E+00  0.0000E+00  0.6400E-01  0.6400E-01
     -4.414  0.0000E+00  0.0000E+00  0.6400E-01  0.6400E-01
     -4.378  0.0000E+00  0.0000E+00  0.6400E-01  0.6400E-01
     -4.342  0.0000E+00  0.0000E+00  0.6500E-01  0.6500E-01
     -4.305  0.0000E+00  0.0000E+00  0.6500E-01  0.6500E-01
     -4.269  0.0000E+00  0.0000E+00  0.6500E-01  0.6500E-01
     -4.233  0.0000E+00  0.0000E+00  0.6500E-01  0.6500E-01
     -4.197  0.0000E+00  0.0000E+00  0.6500E-01  0.6500E-01
     -4.160  0.0000E+00  0.0000E+00  0.6500E-01  0.6500E-01
     -4.124  0.0000E+00  0.0000E+00  0.6500E-01  0.6500E-01
     -4.088  0.0000E+00  0.0000E+00  0.6500E-01  0.6500E-01
     -4.052  0.0000E+00  0.0000E+00  0.6500E-01  0.6500E-01
     -4.015  0.0000E+00  0.0000E+00  0.6500E-01  0.6500E-01
     -3.979  0.0000E+00  0.0000E+00  0.6500E-01  0.6500E-01
     -3.943  0.0000E+00  0.0000E+00  0.6500E-01  0.6500E-01
     -3.907  0.0000E+00  0.0000E+00  0.6600E-01  0.6600E-01
     -3.870  0.0000E+00  0.0000E+00  0.6600E-01  0.6600E-01
     -3.834  0.0000E+00  0.0000E+00  0.6600E-01  0.6600E-01
     -3.798  0.0000E+00  0.0000E+00  0.6600E-01  0.6600E-01
     -3.761  0.0000E+00  0.0000E+00  0.6600E-01  0.6600E-01
     -3.725  0.0000E+00  0.0000E+00  0.6600E-01  0.6600E-01
     -3.689  0.0000E+00  0.0000E+00  0.6600E-01  0.6600E-01
     -3.653  0.0000E+00  0.0000E+00  0.6600E-01  0.6600E-01
     -3.616  0.0000E+00  0.0000E+00  0.6600E-01  0.6600E-01
     -3.580  0.0000E+00  0.0000E+00  0.6600E-01  0.6600E-01
     -3.544  0.0000E+00  0.0000E+00  0.6600E-01  0.6600E-01
     -3.508  0.0000E+00  0.0000E+00  0.6600E-01  0.6600E-01
     -3.471  0.0000E+00  0.0000E+00  0.6600E-01  0.6600E-01
     -3.435  0.0000E+00  0.0000E+00  0.6600E-01  0.6600E-01
     -3.399  0.0000E+00  0.0000E+00  0.6600E-01  0.6600E-01
     -3.363  0.0000E+00  0.0000E+00  0.6600E-01  0.6600E-01
     -3.326  0.0000E+00  0.0000E+00  0.6600E-01  0.6600E-01
     -3.290  0.0000E+00  0.0000E+00  0.6600E-01  0.6600E-01
     -3.254  0.0000E+00  0.0000E+00  0.6600E-01  0.6600E-01
     -3.218  0.0000E+00  0.0000E+00  0.6600E-01  0.6600E-01
     -3.181  0.0000E+00  0.0000E+00  0.6600E-01  0.6600E-01
     -3.145  0.0000E+00  0.0000E+00  0.6600E-01  0.6600E-01
     -3.109  0.0000E+00  0.0000E+00  0.6700E-01  0.6700E-01
     -3.073  0.0000E+00  0.0000E+00  0.6700E-01  0.6700E-01
     -3.036  0.0000E+00  0.0000E+00  0.6700E-01  0.6700E-01
     -3.000  0.0000E+00  0.0000E+00  0.6800E-01  0.6800E-01
     -2.964  0.0000E+00  0.0000E+00  0.6800E-01  0.6800E-01
     -2.927  0.0000E+00  0.0000E+00  0.6800E-01  0.6800E-01
     -2.891  0.0000E+00  0.0000E+00  0.6900E-01  0.6900E-01
     -2.855  0.0000E+00  0.0000E+00  0.6900E-01  0.6900E-01
     -2.819  0.0000E+00  0.0000E+00  0.6900E-01  0.6900E-01
     -2.782  0.0000E+00  0.0000E+00  0.6900E-01  0.6900E-01
     -2.746  0.0000E+00  0.0000E+00  0.6900E-01  0.6900E-01
     -2.710  0.0000E+00  0.0000E+00  0.6900E-01  0.6900E-01
     -2.674  0.0000E+00  0.0000E+00  0.6900E-01  0.6900E-01
     -2.637  0.0000E+00  0.0000E+00  0.6900E-01  0.6900E-01
     -2.601  0.0000E+00  0.0000E+00  0.6900E-01  0.6900E-01
     -2.565  0.0000E+00  0.0000E+00  0.6900E-01  0.6900E-01
     -2.529  0.0000E+00  0.0000E+00  0.6900E-01  0.6900E-01
     -2.492  0.0000E+00  0.0000E+00  0.6900E-01  0.6900E-01
     -2.456  0.0000E+00  0.0000E+00  0.6900E-01  0.6900E-01
     -2.420  0.0000E+00  0.0000E+00  0.6900E-01  0.6900E-01
     -2.384  0.0000E+00  0.0000E+00  0.6900E-01  0.6900E-01
     -2.347  0.0000E+00  0.0000E+00  0.7000E-01  0.7000E-01
     -2.311  0.0000E+00  0.0000E+00  0.7000E-01  0.7000E-01
     -2.275  0.0000E+00  0.0000E+00  0.7000E-01  0.7000E-01
     -2.238  0.0000E+00  0.0000E+00  0.7000E-01  0.7000E-01
     -2.202  0.0000E+00  0.0000E+00  0.7000E-01  0.7000E-01
     -2.166  0.0000E+00  0.0000E+00  0.7000E-01  0.7000E-01
     -2.130  0.0000E+00  0.0000E+00  0.7000E-01  0.7000E-01
     -2.093  0.0000E+00  0.0000E+00  0.7000E-01  0.7000E-01
     -2.057  0.0000E+00  0.0000E+00  0.7000E-01  0.7000E-01
     -2.021  0.0000E+00  0.0000E+00  0.7000E-01  0.7000E-01
     -1.985  0.0000E+00  0.0000E+00  0.7100E-01  0.7100E-01
     -1.948  0.0000E+00  0.0000E+00  0.7100E-01  0.7100E-01
     -1.912  0.0000E+00  0.0000E+00  0.7200E-01  0.7200E-01
     -1.876  0.0000E+00  0.0000E+00  0.7200E-01  0.7200E-01
     -1.840  0.0000E+00  0.0000E+00  0.7200E-01  0.7200E-01
     -1.803  0.0000E+00  0.0000E+00  0.7200E-01  0.7200E-01
     -1.767  0.0000E+00  0.0000E+00  0.7200E-01  0.7200E-01
     -1.731  0.0000E+00  0.0000E+00  0.7200E-01  0.7200E-01
     -1.695  0.0000E+00  0.0000E+00  0.7200E-01  0.7200E-01
     -1.658  0.0000E+00  0.0000E+00  0.7200E-01  0.7200E-01
     -1.622  0.0000E+00  0.0000E+00  0.7200E-01  0.7200E-01
     -1.586  0.0000E+00  0.0000E+00  0.7200E-01  0.7200E-01
     -1.549  0.0000E+00  0.0000E+00  0.7200E-01  0.7200E-01
     -1.513  0.0000E+00  0.0000E+00  0.7200E-01  0.7200E-01
     -1.477  0.0000E+00  0.0000E+00  0.7200E-01  0.7200E-01
     -1.441  0.0000E+00  0.0000E+00  0.7200E-01  0.7200E-01
     -1.404  0.0000E+00  0.0000E+00  0.7200E-01  0.7200E-01
     -1.368  0.0000E+00  0.0000E+00  0.7300E-01  0.7300E-01
     -1.332  0.0000E+00  0.0000E+00  0.7300E-01  0.7300E-01
     -1.296  0.0000E+00  0.0000E+00  0.7300E-01  0.7300E-01
     -1.259  0.0000E+00  0.0000E+00  0.7300E-01  0.7300E-01
     -1.223  0.0000E+00  0.0000E+00  0.7300E-01  0.7300E-01
     -1.187  0.0000E+00  0.0000E+00  0.7300E-01  0.7300E-01
     -1.151  0.0000E+00  0.0000E+00  0.7300E-01  0.7300E-01
     -1.114  0.0000E+00  0.0000E+00  0.7300E-01  0.7300E-01
     -1.078  0.0000E+00  0.0000E+00  0.7400E-01  0.7400E-01
     -1.042  0.0000E+00  0.0000E+00  0.7400E-01  0.7400E-01
     -1.006  0.0000E+00  0.0000E+00  0.7400E-01  0.7400E-01
     -0.969  0.0000E+00  0.0000E+00  0.7500E-01  0.7500E-01
     -0.933  0.0000E+00  0.0000E+00  0.7600E-01  0.7600E-01
     -0.897  0.0000E+00  0.0000E+00  0.7600E-01  0.7600E-01
     -0.860  0.0000E+00  0.0000E+00  0.7600E-01  0.7600E-01
     -0.824  0.0000E+00  0.0000E+00  0.7600E-01  0.7600E-01
     -0.788  0.0000E+00  0.0000E+00  0.7600E-01  0.7600E-01
     -0.752  0.0000E+00  0.0000E+00  0.7600E-01  0.7600E-01
     -0.715  0.0000E+00  0.0000E+00  0.7700E-01  0.7700E-01
     -0.679  0.0000E+00  0.0000E+00  0.7700E-01  0.7700E-01
     -0.643  0.0000E+00  0.0000E+00  0.7700E-01  0.7700E-01
     -0.607  0.0000E+00  0.0000E+00  0.7700E-01  0.7700E-01
     -0.570  0.0000E+00  0.0000E+00  0.7700E-01  0.7700E-01
     -0.534  0.0000E+00  0.0000E+00  0.7700E-01  0.7700E-01
     -0.498  0.0000E+00  0.0000E+00  0.7700E-01  0.7700E-01
     -0.462  0.0000E+00  0.0000E+00  0.7800E-01  0.7800E-01
     -0.425  0.0000E+00  0.0000E+00  0.7800E-01  0.7800E-01
     -0.389  0.0000E+00  0.0000E+00  0.7800E-01  0.7800E-01
     -0.353  0.0000E+00  0.0000E+00  0.7900E-01  0.7900E-01
     -0.317  0.0000E+00  0.0000E+00  0.8000E-01  0.8000E-01
     -0.280  0.0000E+00  0.0000E+00  0.8000E-01  0.8000E-01
     -0.244  0.0000E+00  0.0000E+00  0.8000E-01  0.8000E-01
     -0.208  0.0000E+00  0.0000E+00  0.8000E-01  0.8000E-01
     -0.171  0.0000E+00  0.0000E+00  0.8000E-01  0.8000E-01
     -0.135  0.0000E+00  0.0000E+00  0.8000E-01  0.8000E-01
     -0.099  0.0000E+00  0.0000E+00  0.8100E-01  0.8100E-01
     -0.063  0.0000E+00  0.0000E+00  0.8100E-01  0.8100E-01
     -0.026  0.0000E+00  0.0000E+00  0.8100E-01  0.8100E-01
      0.010  0.0000E+00  0.0000E+00  0.8100E-01  0.8100E-01
      0.046  0.0000E+00  0.0000E+00  0.8100E-01  0.8100E-01
      0.082  0.0000E+00  0.0000E+00  0.8100E-01  0.8100E-01
      0.119  0.0000E+00  0.0000E+00  0.8100E-01  0.8100E-01
      0.155  0.0000E+00  0.0000E+00  0.8100E-01  0.8100E-01
      0.191  0.0000E+00  0.0000E+00  0.8100E-01  0.8100E-01
      0.227  0.0000E+00  0.0000E+00  0.8200E-01  0.8200E-01
      0.264  0.0000E+00  0.0000E+00  0.8200E-01  0.8200E-01
      0.300  0.0000E+00  0.0000E+00  0.8200E-01  0.8200E-01
      0.336  0.0000E+00  0.0000E+00  0.8200E-01  0.8200E-01
      0.372  0.0000E+00  0.0000E+00  0.8300E-01  0.8300E-01
      0.409  0.0000E+00  0.0000E+00  0.8300E-01  0.8300E-01
      0.445  0.0000E+00  0.0000E+00  0.8300E-01  0.8300E-01
      0.481  0.0000E+00  0.0000E+00  0.8500E-01  0.8500E-01
      0.518  0.0000E+00  0.0000E+00  0.8500E-01  0.8500E-01
      0.554  0.0000E+00  0.0000E+00  0.8500E-01  0.8500E-01
      0.590  0.0000E+00  0.0000E+00  0.8600E-01  0.8600E-01
      0.626  0.0000E+00  0.0000E+00  0.8700E-01  0.8700E-01
      0.663  0.0000E+00  0.0000E+00  0.8800E-01  0.8800E-01
      0.699  0.0000E+00  0.0000E+00  0.8800E-01  0.8800E-01
      0.735  0.0000E+00  0.0000E+00  0.8800E-01  0.8800E-01
      0.771  0.0000E+00  0.0000E+00  0.8800E-01  0.8800E-01
      0.808  0.0000E+00  0.0000E+00  0.8800E-01  0.8800E-01
      0.844  0.0000E+00  0.0000E+00  0.8800E-01  0.8800E-01
      0.880  0.0000E+00  0.0000E+00  0.8800E-01  0.8800E-01
      0.916  0.0000E+00  0.0000E+00  0.8800E-01  0.8800E-01
      0.953  0.0000E+00  0.0000E+00  0.8800E-01  0.8800E-01
      0.989  0.0000E+00  0.0000E+00  0.8800E-01  0.8800E-01
      1.025  0.0000E+00  0.0000E+00  0.8800E-01  0.8800E-01
      1.061  0.0000E+00  0.0000E+00  0.8800E-01  0.8800E-01
      1.098  0.0000E+00  0.0000E+00  0.8800E-01  0.8800E-01
      1.134  0.0000E+00  0.0000E+00  0.8800E-01  0.8800E-01
