   38   38 1000    2
  0.2768727E+03  0.2191230E-08  0.2191230E-08  0.2191230E-08  0.1000000E-15
  1.000000000000000E-004
  CAR 
 unknown system                          
    418      1    272
 
  0.0000000E+00  0.0000000E+00  0.0000000E+00  0.1000000E+01
    1       -9.750238     -9.750238
    2       -9.258346     -9.258346
    3       -9.226725     -9.226725
    4       -9.108573     -9.108573
    5       -9.013283     -9.013283
    6       -8.994175     -8.994175
    7       -8.976002     -8.976002
    8       -8.924776     -8.924776
    9       -8.918948     -8.918948
   10       -8.889758     -8.889758
   11       -8.841484     -8.841484
   12       -8.822379     -8.822379
   13       -8.798175     -8.798175
   14       -8.790445     -8.790445
   15       -8.747024     -8.747024
   16       -8.741777     -8.741777
   17       -8.706881     -8.706881
   18       -8.681814     -8.681814
   19       -8.670665     -8.670665
   20       -8.639007     -8.639007
   21       -8.591748     -8.591748
   22       -8.583303     -8.583303
   23       -8.569253     -8.569253
   24       -8.561356     -8.561356
   25       -8.547564     -8.547564
   26       -8.517363     -8.517363
   27       -8.509450     -8.509450
   28       -8.482309     -8.482309
   29       -8.480180     -8.480180
   30       -8.468637     -8.468637
   31       -8.463580     -8.463580
   32       -8.458912     -8.458912
   33       -8.430646     -8.430646
   34       -8.414665     -8.414665
   35       -8.392955     -8.392955
   36       -8.385693     -8.385693
   37       -8.374414     -8.374414
   38       -8.346215     -8.346215
   39       -8.329795     -8.329795
   40       -8.298275     -8.298275
   41       -8.273942     -8.273942
   42       -8.261705     -8.261705
   43       -8.221569     -8.221569
   44       -8.216332     -8.216332
   45       -8.208687     -8.208687
   46       -8.171671     -8.171671
   47       -8.156022     -8.156022
   48       -8.144943     -8.144943
   49       -8.141248     -8.141248
   50       -8.124707     -8.124707
   51       -8.103980     -8.103980
   52       -8.087412     -8.087412
   53       -8.071218     -8.071218
   54       -8.045773     -8.045773
   55       -8.021616     -8.021616
   56       -8.014179     -8.014179
   57       -7.994934     -7.994934
   58       -7.984141     -7.984141
   59       -7.956358     -7.956358
   60       -7.942977     -7.942977
   61       -7.939920     -7.939920
   62       -7.921715     -7.921715
   63       -7.868178     -7.868178
   64       -7.859344     -7.859344
   65       -7.841994     -7.841994
   66       -7.835006     -7.835006
   67       -7.825169     -7.825169
   68       -7.821071     -7.821071
   69       -7.801413     -7.801413
   70       -7.789902     -7.789902
   71       -7.780490     -7.780490
   72       -7.767605     -7.767605
   73       -7.727881     -7.727881
   74       -7.714158     -7.714158
   75       -7.686392     -7.686392
   76       -7.675286     -7.675286
   77       -7.670114     -7.670114
   78       -7.658769     -7.658769
   79       -7.634791     -7.634791
   80       -7.623041     -7.623041
   81       -7.606695     -7.606695
   82       -7.601538     -7.601538
   83       -7.586209     -7.586209
   84       -7.564638     -7.564638
   85       -7.548170     -7.548170
   86       -7.543129     -7.543129
   87       -7.517063     -7.517063
   88       -7.510908     -7.510908
   89       -7.503413     -7.503413
   90       -7.466425     -7.466425
   91       -7.456989     -7.456989
   92       -7.437207     -7.437207
   93       -7.419005     -7.419005
   94       -7.404659     -7.404659
   95       -7.392659     -7.392659
   96       -7.368139     -7.368139
   97       -7.366052     -7.366052
   98       -7.329596     -7.329596
   99       -7.324474     -7.324474
  100       -7.320357     -7.320357
  101       -7.305080     -7.305080
  102       -7.297902     -7.297902
  103       -7.284611     -7.284611
  104       -7.256691     -7.256691
  105       -7.211556     -7.211556
  106       -7.202637     -7.202637
  107       -7.187649     -7.187649
  108       -7.172365     -7.172365
  109       -7.152879     -7.152879
  110       -7.143744     -7.143744
  111       -7.107868     -7.107868
  112       -7.096564     -7.096564
  113       -7.086065     -7.086065
  114       -7.076268     -7.076268
  115       -7.060984     -7.060984
  116       -7.054347     -7.054347
  117       -7.045246     -7.045246
  118       -7.032836     -7.032836
  119       -7.017558     -7.017558
  120       -6.978175     -6.978175
  121       -6.973327     -6.973327
  122       -6.959250     -6.959250
  123       -6.951911     -6.951911
  124       -6.939339     -6.939339
  125       -6.933232     -6.933232
  126       -6.919270     -6.919270
  127       -6.901009     -6.901009
  128       -6.895079     -6.895079
  129       -6.889703     -6.889703
  130       -6.871560     -6.871560
  131       -6.861207     -6.861207
  132       -6.843848     -6.843848
  133       -6.836408     -6.836408
  134       -6.812470     -6.812470
  135       -6.809120     -6.809120
  136       -6.797029     -6.797029
  137       -6.793031     -6.793031
  138       -6.776702     -6.776702
  139       -6.771795     -6.771795
  140       -6.756572     -6.756572
  141       -6.743281     -6.743281
  142       -6.722745     -6.722745
  143       -6.721776     -6.721776
  144       -6.702223     -6.702223
  145       -6.697287     -6.697287
  146       -6.684280     -6.684280
  147       -6.681952     -6.681952
  148       -6.667457     -6.667457
  149       -6.656254     -6.656254
  150       -6.644061     -6.644061
  151       -6.635713     -6.635713
  152       -6.620011     -6.620011
  153       -6.595128     -6.595128
  154       -6.592441     -6.592441
  155       -6.579602     -6.579602
  156       -6.569457     -6.569457
  157       -6.563735     -6.563735
  158       -6.536541     -6.536541
  159       -6.531996     -6.531996
  160       -6.530058     -6.530057
  161       -6.527810     -6.527810
  162       -6.511208     -6.511208
  163       -6.506532     -6.506532
  164       -6.504214     -6.504214
  165       -6.491143     -6.491143
  166       -6.485290     -6.485290
  167       -6.460169     -6.460169
  168       -6.444919     -6.444919
  169       -6.443551     -6.443551
  170       -6.428353     -6.428353
  171       -6.409924     -6.409924
  172       -6.403703     -6.403703
  173       -6.389338     -6.389338
  174       -6.370602     -6.370602
  175       -6.364904     -6.364904
  176       -6.359132     -6.359132
  177       -6.355734     -6.355733
  178       -6.350014     -6.350014
  179       -6.342448     -6.342448
  180       -6.333610     -6.333610
  181       -6.322032     -6.322032
  182       -6.316205     -6.316205
  183       -6.285397     -6.285397
  184       -6.280825     -6.280825
  185       -6.264867     -6.264867
  186       -6.246020     -6.246020
  187       -6.224463     -6.224463
  188       -6.219869     -6.219869
  189       -6.192654     -6.192654
  190       -6.191665     -6.191665
  191       -6.145753     -6.145753
  192       -6.127435     -6.127435
  193       -6.117104     -6.117104
  194       -6.109834     -6.109834
  195       -6.083948     -6.083948
  196       -5.632326     -5.632326
  197       -5.604118     -5.604118
  198       -5.551775     -5.551775
  199       -5.446344     -5.446344
  200       -5.214902     -5.214902
  201       -5.148793     -5.148793
  202       -4.453414     -4.453414
  203       -4.445958     -4.445958
  204       -4.091580     -4.091580
  205       -4.001921     -4.001921
  206       -3.884080     -3.884081
  207       -3.786635     -3.786636
  208       -3.629669     -3.629669
  209       -3.295172     -3.295172
  210       -3.206601     -3.206601
  211       -3.028361     -3.028361
  212       -2.924068     -2.924068
  213       -2.864273     -2.864273
  214       -2.501669     -2.501669
  215       -2.388431     -2.388431
  216       -2.221390     -2.221391
  217       -2.192572     -2.192572
  218       -2.082457     -2.082457
  219       -1.998486     -1.998486
  220       -1.971454     -1.971454
  221       -1.957359     -1.957359
  222       -1.750006     -1.750006
  223       -1.659120     -1.659120
  224       -1.598601     -1.598601
  225       -1.517055     -1.517056
  226       -1.449000     -1.449000
  227       -1.386294     -1.386294
  228       -1.249493     -1.249493
  229       -0.873672     -0.873673
  230       -0.753424     -0.753425
  231       -0.689230     -0.689230
  232       -0.597291     -0.597291
  233       -0.518499     -0.518500
  234       -0.347780     -0.347781
  235       -0.286545     -0.286545
  236       -0.142901     -0.142901
  237       -0.109394     -0.109395
  238       -0.084360     -0.084361
  239        0.027905      0.027904
  240        0.065884      0.065883
  241        0.099288      0.099287
  242        0.114634      0.114632
  243        0.150945      0.150944
  244        0.334572      0.334570
  245        0.344199      0.344198
  246        0.470249      0.470248
  247        0.609858      0.609841
  248        0.694797      0.694791
  249        0.797789      0.797773
  250        0.808961      0.808952
  251        0.836808      0.836794
  252        0.845377      0.845357
  253        0.860554      0.860539
  254        0.933212      0.933204
  255        1.016248      1.016231
  256        1.028749      1.028740
  257        1.083714      1.083700
  258        1.089823      1.089812
  259        1.120659      1.120651
  260        1.136811      1.136804
  261        1.172431      1.172418
  262        1.173535      1.173522
  263        1.179154      1.179141
  264        1.209893      1.209882
  265        1.217076      1.217061
  266        1.242120      1.242105
  267        1.303957      1.303935
  268        1.324747      1.324734
  269        1.376505      1.376494
  270        1.397954      1.397945
  271        1.449636      1.449622
  272        1.459160      1.459151
