5
Energy = -2.52357901 eV
Ca 7.9263350155147645 11.059405512345906 8.540188
Ca 11.051489553472143 9.219874071462433 8.540188
Ca 4.658567471115177 9.416231591350432 8.540188
Ca 7.886900282728625 7.432901124590162 8.540188
Ca 11.177647677169054 5.572527700251067 8.540188
