       N       E                     dE             d eps       ncg     rms          rms(c)
DAV:   1     0.304409130338E+04    0.30441E+04   -0.71297E+04   912   0.616E+02
DAV:   2     0.522152672286E+03   -0.25219E+04   -0.22753E+04  1504   0.165E+02
DAV:   3    -0.426678898002E+02   -0.56482E+03   -0.52020E+03  1160   0.853E+01
DAV:   4    -0.653496940464E+02   -0.22682E+02   -0.22496E+02  1008   0.186E+01
DAV:   5    -0.656742374386E+02   -0.32454E+00   -0.32415E+00  1040   0.259E+00    0.383E+01
DAV:   6    -0.274350533296E+02    0.38239E+02   -0.11517E+02   920   0.161E+01    0.212E+01
DAV:   7    -0.215583540628E+02    0.58767E+01   -0.78309E+00   976   0.529E+00    0.119E+01
DAV:   8    -0.207620546372E+02    0.79630E+00   -0.20119E+00   964   0.261E+00    0.537E+00
DAV:   9    -0.250324360391E+02   -0.42704E+01   -0.65367E-01   992   0.124E+00    0.492E+00
DAV:  10    -0.249256567375E+02    0.10678E+00   -0.16728E-02  1048   0.315E-01    0.406E+00
DAV:  11    -0.286835549153E+02   -0.37579E+01   -0.78866E-01   936   0.186E+00    0.506E+00
DAV:  12    -0.388165207289E+02   -0.10133E+02   -0.35755E+00   920   0.362E+00    0.541E+00
DAV:  13    -0.501230202100E+02   -0.11306E+02   -0.55112E+00   936   0.347E+00    0.718E+00
DAV:  14    -0.522710846032E+02   -0.21481E+01   -0.50634E-01  1024   0.133E+00    0.724E+00
DAV:  15    -0.559126862701E+02   -0.36416E+01   -0.10460E+00   952   0.187E+00    0.790E+00
DAV:  16    -0.607772924366E+02   -0.48646E+01   -0.14849E+00   944   0.275E+00    0.918E+00
DAV:  17    -0.623997113849E+02   -0.16224E+01   -0.26315E-01  1024   0.116E+00    0.978E+00
DAV:  18    -0.632844363249E+02   -0.88472E+00   -0.93890E-01   968   0.166E+00    0.109E+01
DAV:  19    -0.633296784595E+02   -0.45242E-01   -0.24140E-02  1000   0.351E-01    0.109E+01
DAV:  20    -0.633307609790E+02   -0.10825E-02   -0.14122E-02   904   0.160E-01    0.108E+01
DAV:  21    -0.630957861326E+02    0.23497E+00   -0.32116E-01   968   0.636E-01    0.109E+01
DAV:  22    -0.633461579451E+02   -0.25037E+00   -0.12727E-01   968   0.562E-01    0.111E+01
DAV:  23    -0.633409066138E+02    0.52513E-02   -0.24452E-03  1000   0.990E-02    0.111E+01
DAV:  24    -0.633422612632E+02   -0.13546E-02   -0.32873E-04   752   0.262E-02    0.111E+01
DAV:  25    -0.633511331737E+02   -0.88719E-02   -0.22756E-03   792   0.725E-02    0.111E+01
DAV:  26    -0.630077760456E+02    0.34336E+00   -0.36615E-01   936   0.805E-01    0.108E+01
DAV:  27    -0.630723645930E+02   -0.64589E-01   -0.77144E-03   940   0.157E-01    0.109E+01
DAV:  28    -0.629124195400E+02    0.15995E+00   -0.50122E-02   936   0.285E-01    0.109E+01
DAV:  29    -0.633573157949E+02   -0.44490E+00   -0.42667E-01   928   0.968E-01    0.112E+01
DAV:  30    -0.630428803306E+02    0.31444E+00   -0.24606E-01   920   0.672E-01    0.110E+01
DAV:  31    -0.628006736912E+02    0.24221E+00   -0.11215E-01   956   0.405E-01    0.110E+01
DAV:  32    -0.631277421295E+02   -0.32707E+00   -0.17979E-01   920   0.551E-01    0.111E+01
DAV:  33    -0.626697906309E+02    0.45795E+00   -0.38845E-01   920   0.785E-01    0.110E+01
DAV:  34    -0.609013233096E+02    0.17685E+01   -0.25622E+00   932   0.205E+00    0.109E+01
DAV:  35    -0.606222952749E+02    0.27903E+00   -0.64996E-01   944   0.102E+00    0.109E+01
DAV:  36    -0.604795122723E+02    0.14278E+00   -0.44108E-01   952   0.980E-01    0.110E+01
DAV:  37    -0.608506443635E+02   -0.37113E+00   -0.10792E-01   984   0.509E-01    0.111E+01
DAV:  38    -0.612467667028E+02   -0.39612E+00   -0.58392E-01   924   0.105E+00    0.110E+01
DAV:  39    -0.610530462965E+02    0.19372E+00   -0.33747E-01   960   0.924E-01    0.111E+01
DAV:  40    -0.612475822057E+02   -0.19454E+00   -0.10019E-01   968   0.423E-01    0.111E+01
DAV:  41    -0.612721686556E+02   -0.24586E-01   -0.84576E-03   920   0.143E-01    0.111E+01
DAV:  42    -0.610679010163E+02    0.20427E+00   -0.13143E-01   944   0.530E-01    0.112E+01
DAV:  43    -0.608061105131E+02    0.26179E+00   -0.35113E-02   936   0.286E-01    0.111E+01
DAV:  44    -0.609029505706E+02   -0.96840E-01   -0.72787E-03   856   0.125E-01    0.111E+01
DAV:  45    -0.608591801390E+02    0.43770E-01   -0.25125E-03   816   0.747E-02    0.111E+01
DAV:  46    -0.611882350994E+02   -0.32905E+00   -0.15000E-01   940   0.540E-01    0.111E+01
DAV:  47    -0.620939454920E+02   -0.90571E+00   -0.56633E-01   948   0.978E-01    0.110E+01
DAV:  48    -0.626866821092E+02   -0.59274E+00   -0.37983E-01   968   0.860E-01    0.109E+01
DAV:  49    -0.626530217068E+02    0.33660E-01   -0.79967E-03   972   0.157E-01    0.109E+01
DAV:  50    -0.626592200612E+02   -0.61984E-02   -0.16999E-04   792   0.221E-02    0.109E+01
DAV:  51    -0.520574825701E+02    0.10602E+02   -0.13111E+01   968   0.141E+01    0.638E+00
DAV:  52    -0.526767522800E+02   -0.61927E+00   -0.16073E+00   984   0.318E+00    0.521E+00
DAV:  53    -0.556837101597E+02   -0.30070E+01   -0.56606E-01   952   0.131E+00    0.472E+00
DAV:  54    -0.566050347434E+02   -0.92132E+00   -0.96401E-02  1008   0.555E-01    0.439E+00
DAV:  55    -0.581927578022E+02   -0.15877E+01   -0.19890E-01   924   0.784E-01    0.374E+00
DAV:  56    -0.576061818149E+02    0.58658E+00   -0.78773E+00   936   0.423E+00    0.256E+00
DAV:  57    -0.534204514610E+02    0.41857E+01   -0.60990E+00   932   0.362E+00    0.318E+00
DAV:  58    -0.583379801678E+02   -0.49175E+01   -0.18210E+00   960   0.210E+00    0.220E+00
DAV:  59    -0.604349692612E+02   -0.20970E+01   -0.12774E+00   968   0.155E+00    0.179E+00
DAV:  60    -0.623265694598E+02   -0.18916E+01   -0.92369E-01   980   0.140E+00
   1 F= -.62326569E+02 E0= -.62326569E+02  d E =-.623266E+02  mag=     0.3256
       N       E                     dE             d eps       ncg     rms          rms(c)
DAV:   1    -0.641397555734E+02   -0.37048E+01   -0.40844E+01   960   0.115E+01    0.136E+00
DAV:   2    -0.645296533870E+02   -0.38990E+00   -0.58260E-01   968   0.145E+00    0.895E-01
DAV:   3    -0.646438556829E+02   -0.11420E+00   -0.34447E-02   968   0.319E-01    0.544E-01
DAV:   4    -0.647726513148E+02   -0.12880E+00   -0.14950E-02   948   0.195E-01    0.158E-01
DAV:   5    -0.648103500328E+02   -0.37699E-01   -0.16800E-03   992   0.796E-02    0.875E-02
DAV:   6    -0.648328101969E+02   -0.22460E-01   -0.67946E-04   744   0.405E-02    0.541E-02
DAV:   7    -0.648524554629E+02   -0.19645E-01   -0.69350E-04   728   0.321E-02    0.318E-02
DAV:   8    -0.648639209360E+02   -0.11465E-01   -0.68704E-04   672   0.284E-02    0.204E-02
DAV:   9    -0.648675649656E+02   -0.36440E-02   -0.37600E-04   656   0.195E-02    0.137E-02
DAV:  10    -0.648696024190E+02   -0.20375E-02   -0.20857E-04   648   0.134E-02    0.811E-03
DAV:  11    -0.648708376876E+02   -0.12353E-02   -0.50748E-05   648   0.803E-03    0.501E-03
DAV:  12    -0.648714610323E+02   -0.62334E-03   -0.19261E-05   640   0.508E-03    0.305E-03
DAV:  13    -0.648716992117E+02   -0.23818E-03   -0.77970E-06   632   0.342E-03    0.183E-03
DAV:  14    -0.648717602226E+02   -0.61011E-04   -0.38511E-06   624   0.230E-03
   2 F= -.64871760E+02 E0= -.64871760E+02  d E =-.254519E+01  mag=    -0.0014
       N       E                     dE             d eps       ncg     rms          rms(c)
DAV:   1    -0.659095445542E+02   -0.10378E+01   -0.36364E+02   912   0.344E+01    0.231E+00
DAV:   2    -0.660759711289E+02   -0.16643E+00   -0.16680E+00   976   0.330E+00    0.184E+00
DAV:   3    -0.660698109396E+02    0.61602E-02   -0.40866E-02   992   0.545E-01    0.955E-01
DAV:   4    -0.660684802212E+02    0.13307E-02   -0.13908E-02  1008   0.319E-01    0.113E-01
DAV:   5    -0.660679805984E+02    0.49962E-03   -0.13141E-03   984   0.959E-02    0.667E-02
DAV:   6    -0.660679047240E+02    0.75874E-04   -0.72755E-04   968   0.465E-02
   3 F= -.66067905E+02 E0= -.66067905E+02  d E =-.374134E+01  mag=    -0.0004
       N       E                     dE             d eps       ncg     rms          rms(c)
DAV:   1    -0.663215326052E+02   -0.25355E+00   -0.14941E+03   912   0.711E+01    0.313E+00
DAV:   2    -0.670235751975E+02   -0.70204E+00   -0.69655E+00  1000   0.695E+00    0.300E+00
DAV:   3    -0.670199185440E+02    0.36567E-02   -0.11385E-01   992   0.850E-01    0.224E+00
DAV:   4    -0.670004681178E+02    0.19450E-01   -0.69340E-02   968   0.583E-01    0.787E-01
DAV:   5    -0.670009750714E+02   -0.50695E-03   -0.52816E-03   952   0.224E-01    0.211E-01
DAV:   6    -0.670004328874E+02    0.54218E-03   -0.12641E-03   992   0.653E-02    0.103E-01
DAV:   7    -0.670004485580E+02   -0.15671E-04   -0.35391E-04   856   0.431E-02
   4 F= -.67000449E+02 E0= -.67000449E+02  d E =-.467388E+01  mag=    -0.0001
       N       E                     dE             d eps       ncg     rms          rms(c)
DAV:   1    -0.670069078473E+02   -0.64750E-02   -0.22127E+01   912   0.839E+00    0.357E-01
DAV:   2    -0.670173745230E+02   -0.10467E-01   -0.10551E-01  1008   0.824E-01    0.275E-01
DAV:   3    -0.670171676288E+02    0.20689E-03   -0.19794E-03   992   0.114E-01    0.176E-01
DAV:   4    -0.670170442903E+02    0.12334E-03   -0.10613E-03   960   0.720E-02    0.361E-02
DAV:   5    -0.670170582692E+02   -0.13979E-04   -0.39086E-05   624   0.210E-02
   5 F= -.67017058E+02 E0= -.67017058E+02  d E =-.469049E+01  mag=    -0.0000
       N       E                     dE             d eps       ncg     rms          rms(c)
DAV:   1    -0.672074349483E+02   -0.19039E+00   -0.59271E+01   912   0.137E+01    0.673E-01
DAV:   2    -0.672334720713E+02   -0.26037E-01   -0.25777E-01   976   0.127E+00    0.440E-01
DAV:   3    -0.672326451531E+02    0.82692E-03   -0.54275E-03   984   0.228E-01    0.280E-01
DAV:   4    -0.672325229330E+02    0.12222E-03   -0.29606E-03   968   0.109E-01    0.519E-02
DAV:   5    -0.672324036464E+02    0.11929E-03   -0.26253E-04   704   0.351E-02    0.215E-02
DAV:   6    -0.672324036886E+02   -0.42222E-07   -0.10109E-04   656   0.205E-02
   6 F= -.67232404E+02 E0= -.67232404E+02  d E =-.215345E+00  mag=    -0.0000
       N       E                     dE             d eps       ncg     rms          rms(c)
DAV:   1    -0.672763456717E+02   -0.43942E-01   -0.33733E+02   912   0.329E+01    0.125E+00
DAV:   2    -0.674285598318E+02   -0.15221E+00   -0.15085E+00   976   0.310E+00    0.870E-01
DAV:   3    -0.674253849548E+02    0.31749E-02   -0.27015E-02  1000   0.513E-01    0.628E-01
DAV:   4    -0.674227925006E+02    0.25925E-02   -0.15248E-02   992   0.230E-01    0.121E-01
DAV:   5    -0.674226822369E+02    0.11026E-03   -0.46812E-04   904   0.694E-02    0.539E-02
DAV:   6    -0.674226157072E+02    0.66530E-04   -0.31263E-04   816   0.324E-02
   7 F= -.67422616E+02 E0= -.67422616E+02  d E =-.405557E+00  mag=    -0.0000
       N       E                     dE             d eps       ncg     rms          rms(c)
DAV:   1    -0.674827590353E+02   -0.60077E-01   -0.34783E+01   912   0.106E+01    0.419E-01
DAV:   2    -0.674990327950E+02   -0.16274E-01   -0.16375E-01   976   0.102E+00    0.324E-01
DAV:   3    -0.674987441195E+02    0.28868E-03   -0.28623E-03  1008   0.136E-01    0.205E-01
DAV:   4    -0.674984994550E+02    0.24466E-03   -0.13266E-03   944   0.778E-02    0.432E-02
DAV:   5    -0.674985005247E+02   -0.10697E-05   -0.41140E-05   608   0.231E-02
   8 F= -.67498501E+02 E0= -.67498501E+02  d E =-.758848E-01  mag=    -0.0000
       N       E                     dE             d eps       ncg     rms          rms(c)
DAV:   1    -0.674979705483E+02    0.52891E-03   -0.13795E+02   912   0.211E+01    0.744E-01
DAV:   2    -0.675627283543E+02   -0.64758E-01   -0.64642E-01   976   0.204E+00    0.613E-01
DAV:   3    -0.675618980341E+02    0.83032E-03   -0.10631E-02   968   0.258E-01    0.413E-01
DAV:   4    -0.675606369124E+02    0.12611E-02   -0.50567E-03   944   0.150E-01    0.116E-01
DAV:   5    -0.675606655388E+02   -0.28626E-04   -0.22494E-04   632   0.504E-02
   9 F= -.67560666E+02 E0= -.67560666E+02  d E =-.138050E+00  mag=    -0.0000
       N       E                     dE             d eps       ncg     rms          rms(c)
DAV:   1    -0.675745663180E+02   -0.13929E-01   -0.88661E+00   912   0.532E+00    0.992E-02
DAV:   2    -0.675787267798E+02   -0.41605E-02   -0.40328E-02   976   0.505E-01    0.904E-02
DAV:   3    -0.675787051484E+02    0.21631E-04   -0.59193E-04  1008   0.601E-02
  10 F= -.67578705E+02 E0= -.67578705E+02  d E =-.180396E-01  mag=    -0.0000
       N       E                     dE             d eps       ncg     rms          rms(c)
DAV:   1    -0.675812725136E+02   -0.25457E-02   -0.80056E+01   912   0.160E+01    0.318E-01
DAV:   2    -0.676182863705E+02   -0.37014E-01   -0.36079E-01   976   0.152E+00    0.294E-01
DAV:   3    -0.676178560305E+02    0.43034E-03   -0.53180E-03  1040   0.179E-01    0.222E-01
DAV:   4    -0.676167802502E+02    0.10758E-02   -0.17446E-03   976   0.807E-02    0.115E-01
DAV:   5    -0.676166986751E+02    0.81575E-04   -0.14423E-03   960   0.719E-02    0.406E-02
DAV:   6    -0.676166872451E+02    0.11430E-04   -0.45695E-05   576   0.134E-02
  11 F= -.67616687E+02 E0= -.67616687E+02  d E =-.560217E-01  mag=    -0.0000
       N       E                     dE             d eps       ncg     rms          rms(c)
DAV:   1    -0.674700844038E+02    0.14661E+00   -0.32187E+02   912   0.323E+01    0.733E-01
DAV:   2    -0.676229681449E+02   -0.15288E+00   -0.14889E+00   992   0.309E+00    0.560E-01
DAV:   3    -0.676211532511E+02    0.18149E-02   -0.22520E-02  1008   0.379E-01    0.396E-01
DAV:   4    -0.676176362899E+02    0.35170E-02   -0.57297E-03   976   0.148E-01    0.203E-01
DAV:   5    -0.676172427942E+02    0.39350E-03   -0.39464E-03   928   0.119E-01    0.606E-02
DAV:   6    -0.676172252982E+02    0.17496E-04   -0.13034E-04   624   0.231E-02
  12 F= -.67617225E+02 E0= -.67617225E+02  d E =-.565598E-01  mag=    -0.0000
       N       E                     dE             d eps       ncg     rms          rms(c)
DAV:   1    -0.675967873214E+02    0.20455E-01   -0.74573E+01   912   0.155E+01    0.283E-01
DAV:   2    -0.676314537620E+02   -0.34666E-01   -0.33565E-01   976   0.146E+00    0.279E-01
DAV:   3    -0.676312035005E+02    0.25026E-03   -0.49468E-03  1008   0.172E-01    0.215E-01
DAV:   4    -0.676303027918E+02    0.90071E-03   -0.10855E-03   960   0.653E-02    0.130E-01
DAV:   5    -0.676301036509E+02    0.19914E-03   -0.17564E-03   976   0.780E-02    0.428E-02
DAV:   6    -0.676301012567E+02    0.23942E-05   -0.28117E-05   608   0.111E-02
  13 F= -.67630101E+02 E0= -.67630101E+02  d E =-.694357E-01  mag=    -0.0000
       N       E                     dE             d eps       ncg     rms          rms(c)
DAV:   1    -0.676286302154E+02    0.14734E-02   -0.41430E+01   912   0.116E+01    0.285E-01
DAV:   2    -0.676480186661E+02   -0.19388E-01   -0.18922E-01   992   0.109E+00    0.227E-01
DAV:   3    -0.676477596501E+02    0.25902E-03   -0.28545E-03   992   0.133E-01    0.163E-01
DAV:   4    -0.676472885902E+02    0.47106E-03   -0.12699E-03   976   0.702E-02    0.610E-02
DAV:   5    -0.676473068514E+02   -0.18261E-04   -0.22700E-04   560   0.345E-02
  14 F= -.67647307E+02 E0= -.67647307E+02  d E =-.172056E-01  mag=    -0.0000
       N       E                     dE             d eps       ncg     rms          rms(c)
DAV:   1    -0.676428062964E+02    0.44823E-02   -0.13917E+01   912   0.670E+00    0.169E-01
DAV:   2    -0.676493142061E+02   -0.65079E-02   -0.63808E-02  1008   0.634E-01    0.131E-01
DAV:   3    -0.676492455643E+02    0.68642E-04   -0.95834E-04   968   0.774E-02
  15 F= -.67649246E+02 E0= -.67649246E+02  d E =-.191443E-01  mag=    -0.0000
       N       E                     dE             d eps       ncg     rms          rms(c)
DAV:   1    -0.676484522897E+02    0.86192E-03   -0.13462E+01   912   0.660E+00    0.143E-01
DAV:   2    -0.676546962917E+02   -0.62440E-02   -0.60884E-02   960   0.618E-01    0.124E-01
DAV:   3    -0.676546213774E+02    0.74914E-04   -0.88892E-04   952   0.709E-02
  16 F= -.67654621E+02 E0= -.67654621E+02  d E =-.537581E-02  mag=    -0.0000
       N       E                     dE             d eps       ncg     rms          rms(c)
DAV:   1    -0.676539399595E+02    0.75633E-03   -0.22125E+00   912   0.268E+00    0.785E-02
DAV:   2    -0.676549255847E+02   -0.98563E-03   -0.97157E-03   992   0.247E-01    0.640E-02
DAV:   3    -0.676548979758E+02    0.27609E-04   -0.13316E-04   552   0.279E-02
  17 F= -.67654898E+02 E0= -.67654898E+02  d E =-.565241E-02  mag=    -0.0000
       N       E                     dE             d eps       ncg     rms          rms(c)
DAV:   1    -0.676552514638E+02   -0.32588E-03   -0.49227E+00   912   0.400E+00    0.899E-02
DAV:   2    -0.676575087886E+02   -0.22573E-02   -0.22083E-02   944   0.373E-01    0.779E-02
DAV:   3    -0.676574801694E+02    0.28619E-04   -0.28649E-04   640   0.429E-02
  18 F= -.67657480E+02 E0= -.67657480E+02  d E =-.258219E-02  mag=    -0.0000
       N       E                     dE             d eps       ncg     rms          rms(c)
DAV:   1    -0.676574569346E+02    0.51854E-04   -0.32526E-03   960   0.105E-01    0.201E-02
DAV:   2    -0.676574592939E+02   -0.23593E-05   -0.12095E-05   592   0.993E-03
  19 F= -.67657459E+02 E0= -.67657459E+02  d E =-.256132E-02  mag=    -0.0000
       N       E                     dE             d eps       ncg     rms          rms(c)
DAV:   1    -0.676578442501E+02   -0.38732E-03   -0.13052E+00   928   0.206E+00    0.486E-02
DAV:   2    -0.676584433658E+02   -0.59912E-03   -0.59073E-03   976   0.191E-01    0.379E-02
DAV:   3    -0.676584338392E+02    0.95266E-05   -0.76225E-05   560   0.214E-02
  20 F= -.67658434E+02 E0= -.67658434E+02  d E =-.974545E-03  mag=    -0.0000
       N       E                     dE             d eps       ncg     rms          rms(c)
DAV:   1    -0.676585094304E+02   -0.66065E-04   -0.64398E-02   928   0.458E-01    0.156E-02
DAV:   2    -0.676585343419E+02   -0.24911E-04   -0.25134E-04   592   0.417E-02
  21 F= -.67658534E+02 E0= -.67658534E+02  d E =-.107505E-02  mag=    -0.0000
