<?xml version="1.0" encoding="ISO-8859-1"?>
<modeling>
 <generator>
  <i name="program" type="string">vasp </i>
  <i name="version" type="string">5.3.5  </i>
  <i name="subversion" type="string">31Mar14 (build Feb 01 2018 12:10:03) gamma-only                       parallel </i>
  <i name="platform" type="string">LinuxIFC </i>
  <i name="date" type="string">2019 03 23 </i>
  <i name="time" type="string">09:47:44 </i>
 </generator>
 <incar>
  <i type="string" name="PREC">normal</i>
  <i type="int" name="ISPIN">     2</i>
  <i type="int" name="IBRION">     2</i>
  <i type="int" name="NSW">  1000</i>
  <i type="int" name="ISIF">     2</i>
  <i name="POTIM">      0.10000000</i>
  <i type="logical" name="LPLANE"> T  </i>
  <i type="int" name="ISMEAR">     0</i>
  <i name="SIGMA">      0.00010000</i>
  <i type="logical" name="LWAVE"> F  </i>
  <i type="logical" name="LCHARG"> F  </i>
  <i type="logical" name="LVTOT"> F  </i>
  <i type="string" name="GGA"> PE</i>
 </incar>
 <kpoints>
  <varray name="kpointlist" >
   <v>       0.00000000       0.00000000       0.00000000 </v>
  </varray>
  <varray name="weights" >
   <v>       1.00000000 </v>
  </varray>
 </kpoints>
 <parameters>
  <separator name="general" >
   <i type="string" name="SYSTEM">unknown system</i>
   <i type="logical" name="LCOMPAT"> F  </i>
  </separator>
  <separator name="electronic" >
   <i type="string" name="PREC">normal</i>
   <i name="ENMAX">    249.84400000</i>
   <i name="ENAUG">    412.49600000</i>
   <i name="EDIFF">      0.00010000</i>
   <i type="int" name="IALGO">    38</i>
   <i type="int" name="IWAVPR">    11</i>
   <i type="int" name="NBANDS">   292</i>
   <i name="NELECT">    451.00000000</i>
   <i type="int" name="TURBO">     0</i>
   <i type="int" name="IRESTART">     0</i>
   <i type="int" name="NREBOOT">     0</i>
   <i type="int" name="NMIN">     0</i>
   <i name="EREF">      0.00000000</i>
   <separator name="electronic smearing" >
    <i type="int" name="ISMEAR">     0</i>
    <i name="SIGMA">      0.00010000</i>
    <i name="KSPACING">      0.50000000</i>
    <i type="logical" name="KGAMMA"> T  </i>
   </separator>
   <separator name="electronic projectors" >
    <i type="logical" name="LREAL"> F  </i>
    <v name="ROPT">      0.00000000</v>
    <i type="int" name="LMAXPAW">  -100</i>
    <i type="int" name="LMAXMIX">     2</i>
    <i type="logical" name="NLSPLINE"> F  </i>
   </separator>
   <separator name="electronic startup" >
    <i type="int" name="ISTART">     0</i>
    <i type="int" name="ICHARG">     2</i>
    <i type="int" name="INIWAV">     1</i>
   </separator>
   <separator name="electronic spin" >
    <i type="int" name="ISPIN">     2</i>
    <i type="logical" name="LNONCOLLINEAR"> F  </i>
    <v name="MAGMOM">      1.00000000      1.00000000      1.00000000      1.00000000      1.00000000      1.00000000      1.00000000      1.00000000      1.00000000      1.00000000      1.00000000      1.00000000      1.00000000      1.00000000      1.00000000      1.00000000      1.00000000      1.00000000      1.00000000      1.00000000
      1.00000000      1.00000000      1.00000000      1.00000000      1.00000000      1.00000000      1.00000000      1.00000000      1.00000000      1.00000000      1.00000000      1.00000000      1.00000000      1.00000000      1.00000000      1.00000000      1.00000000      1.00000000      1.00000000      1.00000000
      1.00000000</v>
    <i name="NUPDOWN">     -1.00000000</i>
    <i type="logical" name="LSORBIT"> F  </i>
    <v name="SAXIS">      0.00000000      0.00000000      1.00000000</v>
    <i type="logical" name="LSPIRAL"> F  </i>
    <v name="QSPIRAL">      0.00000000      0.00000000      0.00000000</v>
    <i type="logical" name="LZEROZ"> F  </i>
   </separator>
   <separator name="electronic exchange-correlation" >
    <i type="logical" name="LASPH"> F  </i>
    <i type="logical" name="LMETAGGA"> F  </i>
   </separator>
   <separator name="electronic convergence" >
    <i type="int" name="NELM">    60</i>
    <i type="int" name="NELMDL">    -5</i>
    <i type="int" name="NELMIN">     2</i>
    <i name="ENINI">    249.84400000</i>
    <separator name="electronic convergence detail" >
     <i type="logical" name="LDIAG"> T  </i>
     <i type="logical" name="LSUBROT"> F  </i>
     <i name="WEIMIN">      0.00100000</i>
     <i name="EBREAK">      0.00000009</i>
     <i name="DEPER">      0.30000000</i>
     <i type="int" name="NRMM">     4</i>
     <i name="TIME">      0.40000000</i>
    </separator>
   </separator>
   <separator name="electronic mixer" >
    <i name="AMIX">      0.40000000</i>
    <i name="BMIX">      1.00000000</i>
    <i name="AMIN">      0.10000000</i>
    <i name="AMIX_MAG">      1.60000000</i>
    <i name="BMIX_MAG">      1.00000000</i>
    <separator name="electronic mixer details" >
     <i type="int" name="IMIX">     4</i>
     <i type="int" name="MAXMIX">   -45</i>
     <i name="WC">    100.00000000</i>
     <i type="int" name="INIMIX">     1</i>
     <i type="int" name="MIXPRE">     1</i>
     <i type="int" name="MREMOVE">     5</i>
    </separator>
   </separator>
   <separator name="electronic dipolcorrection" >
    <i type="logical" name="LDIPOL"> F  </i>
    <i type="logical" name="LMONO"> F  </i>
    <i type="int" name="IDIPOL">     0</i>
    <i name="EPSILON">      1.00000000</i>
    <v name="DIPOL">   -100.00000000   -100.00000000   -100.00000000</v>
    <i name="EFIELD">      0.00000000</i>
   </separator>
  </separator>
  <separator name="grids" >
   <i type="int" name="NGX">    90</i>
   <i type="int" name="NGY">    90</i>
   <i type="int" name="NGZ">    90</i>
   <i type="int" name="NGXF">   180</i>
   <i type="int" name="NGYF">   180</i>
   <i type="int" name="NGZF">   180</i>
   <i type="logical" name="ADDGRID"> F  </i>
  </separator>
  <separator name="ionic" >
   <i type="int" name="NSW">  1000</i>
   <i type="int" name="IBRION">     2</i>
   <i type="int" name="ISIF">     2</i>
   <i name="PSTRESS">      0.00000000</i>
   <i name="EDIFFG">      0.00100000</i>
   <i type="int" name="NFREE">     1</i>
   <i name="POTIM">      0.10000000</i>
   <i name="SMASS">     -3.00000000</i>
   <i name="SCALEE">      1.00000000</i>
  </separator>
  <separator name="ionic md" >
   <i name="TEBEG">      0.00010000</i>
   <i name="TEEND">      0.00010000</i>
   <i type="int" name="NBLOCK">     1</i>
   <i type="int" name="KBLOCK">  1000</i>
   <i type="int" name="NPACO">   256</i>
   <i name="APACO">     16.00000000</i>
  </separator>
  <separator name="symmetry" >
   <i type="int" name="ISYM">     2</i>
   <i name="SYMPREC">      0.00001000</i>
  </separator>
  <separator name="dos" >
   <i type="logical" name="LORBIT"> F  </i>
   <v name="RWIGS">     -1.00000000</v>
   <i type="int" name="NEDOS">   301</i>
   <i name="EMIN">     10.00000000</i>
   <i name="EMAX">    -10.00000000</i>
   <i name="EFERMI">      0.00000000</i>
  </separator>
  <separator name="writing" >
   <i type="int" name="NWRITE">     2</i>
   <i type="logical" name="LWAVE"> F  </i>
   <i type="logical" name="LCHARG"> F  </i>
   <i type="logical" name="LPARD"> F  </i>
   <i type="logical" name="LVTOT"> F  </i>
   <i type="logical" name="LVHAR"> F  </i>
   <i type="logical" name="LELF"> F  </i>
   <i type="logical" name="LOPTICS"> F  </i>
   <v name="STM">      0.00000000      0.00000000      0.00000000      0.00000000      0.00000000      0.00000000      0.00000000</v>
  </separator>
  <separator name="performance" >
   <i type="int" name="NPAR">     4</i>
   <i type="int" name="NSIM">     4</i>
   <i type="int" name="NBLK">    -1</i>
   <i type="logical" name="LPLANE"> T  </i>
   <i type="logical" name="LSCALAPACK"> T  </i>
   <i type="logical" name="LSCAAWARE"> F  </i>
   <i type="logical" name="LSCALU"> F  </i>
   <i type="logical" name="LASYNC"> F  </i>
   <i type="logical" name="LORBITALREAL"> F  </i>
  </separator>
  <separator name="miscellaneous" >
   <i type="int" name="IDIOT">     3</i>
   <i type="logical" name="LMUSIC"> F  </i>
   <v name="POMASS">    107.86800000</v>
   <v name="DARWINR">      0.00000000</v>
   <v name="DARWINV">      1.00000000</v>
   <i type="logical" name="LCORR"> T  </i>
  </separator>
  <i type="logical" name="GGA_COMPAT"> T  </i>
  <i type="logical" name="LBERRY"> F  </i>
  <i type="int" name="ICORELEVEL">     0</i>
  <i type="logical" name="LDAU"> F  </i>
  <i type="int" name="I_CONSTRAINED_M">     0</i>
  <separator name="electronic exchange-correlation" >
   <i type="string" name="GGA">PE</i>
   <i type="int" name="VOSKOWN">     0</i>
   <i type="logical" name="LHFCALC"> F  </i>
   <i type="string" name="PRECFOCK"></i>
   <i type="logical" name="LSYMGRAD"> F  </i>
   <i type="logical" name="LHFONE"> F  </i>
   <i type="logical" name="LRHFCALC"> F  </i>
   <i type="logical" name="LTHOMAS"> F  </i>
   <i type="logical" name="LMODELHF"> F  </i>
   <i name="ENCUT4O">     -1.00000000</i>
   <i type="int" name="EXXOEP">     0</i>
   <i type="int" name="FOURORBIT">     0</i>
   <i name="AEXX">      0.00000000</i>
   <i name="HFALPHA">      0.00000000</i>
   <i name="MCALPHA">      0.00000000</i>
   <i name="ALDAX">      1.00000000</i>
   <i name="AGGAX">      1.00000000</i>
   <i name="ALDAC">      1.00000000</i>
   <i name="AGGAC">      1.00000000</i>
   <i type="int" name="NKREDX">     1</i>
   <i type="int" name="NKREDY">     1</i>
   <i type="int" name="NKREDZ">     1</i>
   <i type="logical" name="SHIFTRED"> F  </i>
   <i type="logical" name="ODDONLY"> F  </i>
   <i type="logical" name="EVENONLY"> F  </i>
   <i type="int" name="LMAXFOCK">     0</i>
   <i type="int" name="NMAXFOCKAE">     0</i>
   <i type="logical" name="LFOCKAEDFT"> F  </i>
   <i name="HFSCREEN">      0.00000000</i>
   <i name="HFSCREENC">      0.00000000</i>
   <i type="int" name="NBANDSGWLOW">     0</i>
  </separator>
  <separator name="vdW DFT" >
   <i type="logical" name="LUSE_VDW"> F  </i>
   <i name="Zab_VDW">     -0.84910000</i>
   <i name="PARAM1">      0.12340000</i>
   <i name="PARAM2">      1.00000000</i>
   <i name="PARAM3">      0.00000000</i>
  </separator>
  <separator name="model GW" >
   <i type="int" name="MODEL_GW">     0</i>
   <i name="MODEL_EPS0">    181.09998132</i>
   <i name="MODEL_ALPHA">      1.00000000</i>
  </separator>
  <separator name="linear response parameters" >
   <i type="logical" name="LEPSILON"> F  </i>
   <i type="logical" name="LRPA"> F  </i>
   <i type="logical" name="LNABLA"> F  </i>
   <i type="logical" name="LVEL"> F  </i>
   <i type="int" name="KINTER">     0</i>
   <i name="CSHIFT">      0.10000000</i>
   <i name="OMEGAMAX">     -1.00000000</i>
   <i name="DEG_THRESHOLD">      0.00200000</i>
  </separator>
  <separator name="orbital magnetization" >
   <i type="logical" name="NUCIND"> F  </i>
   <v name="MAGPOS">      0.00000000      0.00000000      0.00000000</v>
   <i type="logical" name="LNICSALL"> T  </i>
   <i type="logical" name="ORBITALMAG"> F  </i>
   <i type="logical" name="LMAGBLOCH"> F  </i>
   <i type="logical" name="LCHIMAG"> F  </i>
   <i type="logical" name="LGAUGE"> T  </i>
   <i type="int" name="MAGATOM">     0</i>
   <v name="MAGDIPOL">      0.00000000      0.00000000      0.00000000</v>
   <v name="AVECCONST">      0.00000000      0.00000000      0.00000000</v>
  </separator>
  <separator name="response functions" >
   <i type="logical" name="LADDER"> F  </i>
   <i type="logical" name="LFXC"> F  </i>
   <i type="logical" name="LHARTREE"> T  </i>
   <i type="int" name="IBSE">     0</i>
   <i type="logical" name="LTCTE"> F  </i>
   <i type="logical" name="LTETE"> F  </i>
   <i type="logical" name="LTRIPLET"> F  </i>
   <i type="logical" name="LFXCEPS"> F  </i>
   <i type="logical" name="LFXHEG"> F  </i>
   <i type="logical" name="L2ORDER"> F  </i>
   <i type="logical" name="LUSEW"> F  </i>
   <i name="ENCUTGW">     -2.00000000</i>
   <i name="ENCUTGWSOFT">     -2.00000000</i>
   <i name="ENCUTLF">     -1.00000000</i>
   <i type="int" name="LMAXMP2">    -1</i>
   <i name="SCISSOR">      0.00000000</i>
   <i type="int" name="NOMEGA">     0</i>
   <i type="int" name="NOMEGAR">     0</i>
   <i type="int" name="NBANDSGW">    -1</i>
   <i type="int" name="NBANDSO">    -1</i>
   <i type="int" name="NBANDSV">    -1</i>
   <i type="int" name="NELM">     1</i>
   <i type="int" name="DIM">     3</i>
   <i type="int" name="ANTIRES">     0</i>
   <i name="OMEGAMAX">    -30.00000000</i>
   <i name="OMEGAMIN">    -30.00000000</i>
   <i name="OMEGATL">   -200.00000000</i>
   <i type="int" name="OMEGAGRID">     0</i>
   <i name="CSHIFT">     -0.10000000</i>
   <i type="logical" name="SELFENERGY"> F  </i>
   <i type="logical" name="LSPECTRAL"> F  </i>
   <i type="logical" name="ODDONLYGW"> F  </i>
   <i type="logical" name="EVENONLYGW"> F  </i>
   <i type="int" name="NKREDLFX">     1</i>
   <i type="int" name="NKREDLFY">     1</i>
   <i type="int" name="NKREDLFZ">     1</i>
   <i type="int" name="MAXMEM">  1800</i>
   <i type="int" name="TELESCOPE">     0</i>
   <i type="int" name="TAUPAR">     1</i>
  </separator>
  <separator name="External order field" >
   <i name="OFIELD_KAPPA">      0.00000000</i>
   <v name="OFIELD_K">      0.00000000      0.00000000      0.00000000</v>
   <i name="OFIELD_Q6_NEAR">      0.00000000</i>
   <i name="OFIELD_Q6_FAR">      0.00000000</i>
   <i name="OFIELD_A">      0.00000000</i>
  </separator>
 </parameters>
 <atominfo>
  <atoms>      41 </atoms>
  <types>       1 </types>
  <array name="atoms" >
   <dimension dim="1">ion</dimension>
   <field type="string">element</field>
   <field type="int">atomtype</field>
   <set>
    <rc><c>Ag</c><c>   1</c></rc>
    <rc><c>Ag</c><c>   1</c></rc>
    <rc><c>Ag</c><c>   1</c></rc>
    <rc><c>Ag</c><c>   1</c></rc>
    <rc><c>Ag</c><c>   1</c></rc>
    <rc><c>Ag</c><c>   1</c></rc>
    <rc><c>Ag</c><c>   1</c></rc>
    <rc><c>Ag</c><c>   1</c></rc>
    <rc><c>Ag</c><c>   1</c></rc>
    <rc><c>Ag</c><c>   1</c></rc>
    <rc><c>Ag</c><c>   1</c></rc>
    <rc><c>Ag</c><c>   1</c></rc>
    <rc><c>Ag</c><c>   1</c></rc>
    <rc><c>Ag</c><c>   1</c></rc>
    <rc><c>Ag</c><c>   1</c></rc>
    <rc><c>Ag</c><c>   1</c></rc>
    <rc><c>Ag</c><c>   1</c></rc>
    <rc><c>Ag</c><c>   1</c></rc>
    <rc><c>Ag</c><c>   1</c></rc>
    <rc><c>Ag</c><c>   1</c></rc>
    <rc><c>Ag</c><c>   1</c></rc>
    <rc><c>Ag</c><c>   1</c></rc>
    <rc><c>Ag</c><c>   1</c></rc>
    <rc><c>Ag</c><c>   1</c></rc>
    <rc><c>Ag</c><c>   1</c></rc>
    <rc><c>Ag</c><c>   1</c></rc>
    <rc><c>Ag</c><c>   1</c></rc>
    <rc><c>Ag</c><c>   1</c></rc>
    <rc><c>Ag</c><c>   1</c></rc>
    <rc><c>Ag</c><c>   1</c></rc>
    <rc><c>Ag</c><c>   1</c></rc>
    <rc><c>Ag</c><c>   1</c></rc>
    <rc><c>Ag</c><c>   1</c></rc>
    <rc><c>Ag</c><c>   1</c></rc>
    <rc><c>Ag</c><c>   1</c></rc>
    <rc><c>Ag</c><c>   1</c></rc>
    <rc><c>Ag</c><c>   1</c></rc>
    <rc><c>Ag</c><c>   1</c></rc>
    <rc><c>Ag</c><c>   1</c></rc>
    <rc><c>Ag</c><c>   1</c></rc>
    <rc><c>Ag</c><c>   1</c></rc>
   </set>
  </array>
  <array name="atomtypes" >
   <dimension dim="1">type</dimension>
   <field type="int">atomspertype</field>
   <field type="string">element</field>
   <field>mass</field>
   <field>valence</field>
   <field type="string">pseudopotential</field>
   <set>
    <rc><c>  41</c><c>Ag</c><c>    107.86800000</c><c>     11.00000000</c><c>  PAW_PBE Ag 02Apr2005                  </c></rc>
   </set>
  </array>
 </atominfo>
 <structure name="initialpos" >
  <crystal>
   <varray name="basis" >
    <v>      23.13042809       0.00000000       0.00000000 </v>
    <v>       0.00000000      23.13042809       0.00000000 </v>
    <v>       0.00000000       0.00000000      23.13042809 </v>
   </varray>
   <i name="volume">  12375.16539019 </i>
   <varray name="rec_basis" >
    <v>       0.04323310       0.00000000       0.00000000 </v>
    <v>       0.00000000       0.04323310       0.00000000 </v>
    <v>       0.00000000       0.00000000       0.04323310 </v>
   </varray>
  </crystal>
  <varray name="positions" >
   <v>       0.73842571       0.58370666       0.52405466 </v>
   <v>       0.64123492       0.58692505       0.59942580 </v>
   <v>       0.55399629       0.62829744       0.67242697 </v>
   <v>       0.69804689       0.47642625       0.55486369 </v>
   <v>       0.47606554       0.56715835       0.74034296 </v>
   <v>       0.55922041       0.50643644       0.65499458 </v>
   <v>       0.44987586       0.46032003       0.70094054 </v>
   <v>       0.61667849       0.41348554       0.60477717 </v>
   <v>       0.52358629       0.37696407       0.66353718 </v>
   <v>       0.63009645       0.61588675       0.48085604 </v>
   <v>       0.67562671       0.50586095       0.44129569 </v>
   <v>       0.53688671       0.63019389       0.55410101 </v>
   <v>       0.45457019       0.68988780       0.62672769 </v>
   <v>       0.38193813       0.62734043       0.69671389 </v>
   <v>       0.57952789       0.50953738       0.52929632 </v>
   <v>       0.62389573       0.40202930       0.48543208 </v>
   <v>       0.45336358       0.56307608       0.61847906 </v>
   <v>       0.35156218       0.51683680       0.67308896 </v>
   <v>       0.48233548       0.45059129       0.57851101 </v>
   <v>       0.53409858       0.34342998       0.54500403 </v>
   <v>       0.54775642       0.32630870       0.41834504 </v>
   <v>       0.50247850       0.43201220       0.46253894 </v>
   <v>       0.60210744       0.41854669       0.36498036 </v>
   <v>       0.42569900       0.66188557       0.51210422 </v>
   <v>       0.46372536       0.54361716       0.49992966 </v>
   <v>       0.55929456       0.52906352       0.41117060 </v>
   <v>       0.52096830       0.64481980       0.43994719 </v>
   <v>       0.65783685       0.51420692       0.32665765 </v>
   <v>       0.61968322       0.62238095       0.36064720 </v>
   <v>       0.46734032       0.26419042       0.48657969 </v>
   <v>       0.34293837       0.60450042       0.58324091 </v>
   <v>       0.40969576       0.36775577       0.53060194 </v>
   <v>       0.36466066       0.48094684       0.56069533 </v>
   <v>       0.48018177       0.42335305       0.34405339 </v>
   <v>       0.40661521       0.65161917       0.39568074 </v>
   <v>       0.42277385       0.34880260       0.41190791 </v>
   <v>       0.35105942       0.56889506       0.46686450 </v>
   <v>       0.44109772       0.53199412       0.38267670 </v>
   <v>       0.54321649       0.50726687       0.29080484 </v>
   <v>       0.50106789       0.61650118       0.32794390 </v>
   <v>       0.38116789       0.45323993       0.44578034 </v>
  </varray>
 </structure>
 <calculation>
  <scstep>
   <time name="dav">    4.46    4.47</time>
   <time name="total">    4.69    4.72</time>
   <energy>
    <i name="alphaZ">    115.53960605 </i>
    <i name="ewald"> 113175.30217690 </i>
    <i name="hartreedc">-154015.44270089 </i>
    <i name="XCdc">   -447.32121970 </i>
    <i name="pawpsdc">  41138.25930085 </i>
    <i name="pawaedc"> -39247.84896403 </i>
    <i name="eentropy">      0.00000000 </i>
    <i name="bandstr">    610.40792188 </i>
    <i name="atom">  42525.14383354 </i>
    <i name="e_fr_energy">   3854.03995460 </i>
    <i name="e_wo_entrp">   3854.03995460 </i>
    <i name="e_0_energy">   3854.03995460 </i>
   </energy>
  </scstep>
  <scstep>
   <time name="dav">    6.62    6.62</time>
   <time name="total">    6.62    6.63</time>
   <energy>
    <i name="e_fr_energy">    705.52783932 </i>
    <i name="e_wo_entrp">    705.52783932 </i>
    <i name="e_0_energy">    705.52783932 </i>
   </energy>
  </scstep>
  <scstep>
   <time name="dav">    5.28    5.28</time>
   <time name="total">    5.28    6.63</time>
   <energy>
    <i name="e_fr_energy">    -54.25908171 </i>
    <i name="e_wo_entrp">    -54.25908171 </i>
    <i name="e_0_energy">    -54.25908171 </i>
   </energy>
  </scstep>
  <scstep>
   <time name="dav">    4.69    4.70</time>
   <time name="total">    4.70   10.29</time>
   <energy>
    <i name="e_fr_energy">    -87.70634205 </i>
    <i name="e_wo_entrp">    -87.70634205 </i>
    <i name="e_0_energy">    -87.70634205 </i>
   </energy>
  </scstep>
  <scstep>
   <time name="dav">    4.87    4.88</time>
   <time name="total">    5.00    5.01</time>
   <energy>
    <i name="e_fr_energy">    -88.20233148 </i>
    <i name="e_wo_entrp">    -88.20233148 </i>
    <i name="e_0_energy">    -88.20233148 </i>
   </energy>
  </scstep>
  <scstep>
   <time name="dav">    4.47    4.47</time>
   <time name="total">    4.84    4.86</time>
   <energy>
    <i name="e_fr_energy">    -39.92092193 </i>
    <i name="e_wo_entrp">    -39.92092193 </i>
    <i name="e_0_energy">    -39.92092193 </i>
   </energy>
  </scstep>
  <scstep>
   <time name="dav">    4.60    4.61</time>
   <time name="total">    4.95    4.96</time>
   <energy>
    <i name="e_fr_energy">    -30.60997470 </i>
    <i name="e_wo_entrp">    -30.60997470 </i>
    <i name="e_0_energy">    -30.60997470 </i>
   </energy>
  </scstep>
  <scstep>
   <time name="dav">    4.65    4.65</time>
   <time name="total">    5.00    5.03</time>
   <energy>
    <i name="e_fr_energy">    -28.45858447 </i>
    <i name="e_wo_entrp">    -28.45858447 </i>
    <i name="e_0_energy">    -28.45858447 </i>
   </energy>
  </scstep>
  <scstep>
   <time name="dav">    4.72    4.72</time>
   <time name="total">    5.06    5.07</time>
   <energy>
    <i name="e_fr_energy">    -31.85647622 </i>
    <i name="e_wo_entrp">    -31.85647622 </i>
    <i name="e_0_energy">    -31.85647622 </i>
   </energy>
  </scstep>
  <scstep>
   <time name="dav">    4.76    4.76</time>
   <time name="total">    5.10    6.69</time>
   <energy>
    <i name="e_fr_energy">    -35.39706949 </i>
    <i name="e_wo_entrp">    -35.39706949 </i>
    <i name="e_0_energy">    -35.39706949 </i>
   </energy>
  </scstep>
  <scstep>
   <time name="dav">    4.51    4.52</time>
   <time name="total">    4.88    4.90</time>
   <energy>
    <i name="e_fr_energy">    -48.25866695 </i>
    <i name="e_wo_entrp">    -48.25866695 </i>
    <i name="e_0_energy">    -48.25866695 </i>
   </energy>
  </scstep>
  <scstep>
   <time name="dav">    4.54    4.54</time>
   <time name="total">    4.93    6.39</time>
   <energy>
    <i name="e_fr_energy">    -64.77170053 </i>
    <i name="e_wo_entrp">    -64.77170053 </i>
    <i name="e_0_energy">    -64.77170053 </i>
   </energy>
  </scstep>
  <scstep>
   <time name="dav">    4.71    4.72</time>
   <time name="total">    5.06    5.08</time>
   <energy>
    <i name="e_fr_energy">    -68.43016544 </i>
    <i name="e_wo_entrp">    -68.43016544 </i>
    <i name="e_0_energy">    -68.43016544 </i>
   </energy>
  </scstep>
  <scstep>
   <time name="dav">    4.86    4.87</time>
   <time name="total">    5.21    5.22</time>
   <energy>
    <i name="e_fr_energy">    -69.53539973 </i>
    <i name="e_wo_entrp">    -69.53539973 </i>
    <i name="e_0_energy">    -69.53539973 </i>
   </energy>
  </scstep>
  <scstep>
   <time name="dav">    4.52    4.53</time>
   <time name="total">    4.92    5.78</time>
   <energy>
    <i name="e_fr_energy">    -75.12200839 </i>
    <i name="e_wo_entrp">    -75.12200839 </i>
    <i name="e_0_energy">    -75.12200839 </i>
   </energy>
  </scstep>
  <scstep>
   <time name="dav">    4.50    4.51</time>
   <time name="total">    4.86    4.87</time>
   <energy>
    <i name="e_fr_energy">    -80.58414039 </i>
    <i name="e_wo_entrp">    -80.58414039 </i>
    <i name="e_0_energy">    -80.58414039 </i>
   </energy>
  </scstep>
  <scstep>
   <time name="dav">    5.01    5.01</time>
   <time name="total">    5.36    5.37</time>
   <energy>
    <i name="e_fr_energy">    -81.11036525 </i>
    <i name="e_wo_entrp">    -81.11036525 </i>
    <i name="e_0_energy">    -81.11036525 </i>
   </energy>
  </scstep>
  <scstep>
   <time name="dav">    4.57    4.58</time>
   <time name="total">    4.92    4.95</time>
   <energy>
    <i name="e_fr_energy">    -82.11320333 </i>
    <i name="e_wo_entrp">    -82.11320333 </i>
    <i name="e_0_energy">    -82.11320333 </i>
   </energy>
  </scstep>
  <scstep>
   <time name="dav">    4.51    4.51</time>
   <time name="total">    4.88    4.92</time>
   <energy>
    <i name="e_fr_energy">    -84.44093169 </i>
    <i name="e_wo_entrp">    -84.44093169 </i>
    <i name="e_0_energy">    -84.44093169 </i>
   </energy>
  </scstep>
  <scstep>
   <time name="dav">    4.74    4.74</time>
   <time name="total">    5.09    5.53</time>
   <energy>
    <i name="e_fr_energy">    -85.57547538 </i>
    <i name="e_wo_entrp">    -85.57547538 </i>
    <i name="e_0_energy">    -85.57547538 </i>
   </energy>
  </scstep>
  <scstep>
   <time name="dav">    4.76    4.76</time>
   <time name="total">    5.10    5.11</time>
   <energy>
    <i name="e_fr_energy">    -86.05771903 </i>
    <i name="e_wo_entrp">    -86.05771903 </i>
    <i name="e_0_energy">    -86.05771903 </i>
   </energy>
  </scstep>
  <scstep>
   <time name="dav">    4.62    4.62</time>
   <time name="total">    4.97    5.24</time>
   <energy>
    <i name="e_fr_energy">    -86.64332248 </i>
    <i name="e_wo_entrp">    -86.64332248 </i>
    <i name="e_0_energy">    -86.64332248 </i>
   </energy>
  </scstep>
  <scstep>
   <time name="dav">    4.71    4.72</time>
   <time name="total">    5.11    5.44</time>
   <energy>
    <i name="e_fr_energy">    -86.75154487 </i>
    <i name="e_wo_entrp">    -86.75154487 </i>
    <i name="e_0_energy">    -86.75154487 </i>
   </energy>
  </scstep>
  <scstep>
   <time name="dav">    3.78    3.79</time>
   <time name="total">    4.13    4.46</time>
   <energy>
    <i name="e_fr_energy">    -86.81785048 </i>
    <i name="e_wo_entrp">    -86.81785048 </i>
    <i name="e_0_energy">    -86.81785048 </i>
   </energy>
  </scstep>
  <scstep>
   <time name="dav">    3.72    3.72</time>
   <time name="total">    4.07    4.12</time>
   <energy>
    <i name="e_fr_energy">    -86.86620941 </i>
    <i name="e_wo_entrp">    -86.86620941 </i>
    <i name="e_0_energy">    -86.86620941 </i>
   </energy>
  </scstep>
  <scstep>
   <time name="dav">    3.53    3.53</time>
   <time name="total">    3.88    3.89</time>
   <energy>
    <i name="e_fr_energy">    -86.87553308 </i>
    <i name="e_wo_entrp">    -86.87553308 </i>
    <i name="e_0_energy">    -86.87553308 </i>
   </energy>
  </scstep>
  <scstep>
   <time name="dav">    3.57    3.57</time>
   <time name="total">    3.92    3.94</time>
   <energy>
    <i name="e_fr_energy">    -86.88420348 </i>
    <i name="e_wo_entrp">    -86.88420348 </i>
    <i name="e_0_energy">    -86.88420348 </i>
   </energy>
  </scstep>
  <scstep>
   <time name="dav">    3.48    3.49</time>
   <time name="total">    3.84    6.50</time>
   <energy>
    <i name="e_fr_energy">    -86.88972131 </i>
    <i name="e_wo_entrp">    -86.88972131 </i>
    <i name="e_0_energy">    -86.88972131 </i>
   </energy>
  </scstep>
  <scstep>
   <time name="dav">    3.56    3.56</time>
   <time name="total">    3.91    5.40</time>
   <energy>
    <i name="e_fr_energy">    -86.89272625 </i>
    <i name="e_wo_entrp">    -86.89272625 </i>
    <i name="e_0_energy">    -86.89272625 </i>
   </energy>
  </scstep>
  <scstep>
   <time name="dav">    3.47    3.47</time>
   <time name="total">    3.82    3.83</time>
   <energy>
    <i name="e_fr_energy">    -86.89517252 </i>
    <i name="e_wo_entrp">    -86.89517252 </i>
    <i name="e_0_energy">    -86.89517252 </i>
   </energy>
  </scstep>
  <scstep>
   <time name="dav">    3.37    3.37</time>
   <time name="total">    3.77    6.97</time>
   <energy>
    <i name="e_fr_energy">    -86.89586467 </i>
    <i name="e_wo_entrp">    -86.89586467 </i>
    <i name="e_0_energy">    -86.89586467 </i>
   </energy>
  </scstep>
  <scstep>
   <time name="dav">    3.34    3.34</time>
   <time name="total">    3.69    3.73</time>
   <energy>
    <i name="e_fr_energy">    -86.89604468 </i>
    <i name="e_wo_entrp">    -86.89604468 </i>
    <i name="e_0_energy">    -86.89604468 </i>
   </energy>
  </scstep>
  <scstep>
   <time name="dav">    3.32    3.32</time>
   <time name="total">    3.54    3.72</time>
   <energy>
    <i name="alphaZ">    115.53960605 </i>
    <i name="ewald"> 113175.30217690 </i>
    <i name="hartreedc">-153942.65813006 </i>
    <i name="XCdc">   -463.55523153 </i>
    <i name="pawpsdc">  44464.46354869 </i>
    <i name="pawaedc"> -42650.91736600 </i>
    <i name="eentropy">      0.00000000 </i>
    <i name="bandstr">  -3310.21454588 </i>
    <i name="atom">  42525.14383354 </i>
    <i name="e_fr_energy">    -86.89610829 </i>
    <i name="e_wo_entrp">    -86.89610829 </i>
    <i name="e_0_energy">    -86.89610829 </i>
   </energy>
  </scstep>
  <structure>
   <crystal>
    <varray name="basis" >
     <v>      23.13042809       0.00000000       0.00000000 </v>
     <v>       0.00000000      23.13042809       0.00000000 </v>
     <v>       0.00000000       0.00000000      23.13042809 </v>
    </varray>
    <i name="volume">  12375.16539019 </i>
    <varray name="rec_basis" >
     <v>       0.04323310       0.00000000       0.00000000 </v>
     <v>       0.00000000       0.04323310       0.00000000 </v>
     <v>       0.00000000       0.00000000       0.04323310 </v>
    </varray>
   </crystal>
   <varray name="positions" >
    <v>       0.73842571       0.58370666       0.52405466 </v>
    <v>       0.64123492       0.58692505       0.59942580 </v>
    <v>       0.55399629       0.62829744       0.67242697 </v>
    <v>       0.69804689       0.47642625       0.55486369 </v>
    <v>       0.47606554       0.56715835       0.74034296 </v>
    <v>       0.55922041       0.50643644       0.65499458 </v>
    <v>       0.44987586       0.46032003       0.70094054 </v>
    <v>       0.61667849       0.41348554       0.60477717 </v>
    <v>       0.52358629       0.37696407       0.66353718 </v>
    <v>       0.63009645       0.61588675       0.48085604 </v>
    <v>       0.67562671       0.50586095       0.44129569 </v>
    <v>       0.53688671       0.63019389       0.55410101 </v>
    <v>       0.45457019       0.68988780       0.62672769 </v>
    <v>       0.38193813       0.62734043       0.69671389 </v>
    <v>       0.57952789       0.50953738       0.52929632 </v>
    <v>       0.62389573       0.40202930       0.48543208 </v>
    <v>       0.45336358       0.56307608       0.61847906 </v>
    <v>       0.35156218       0.51683680       0.67308896 </v>
    <v>       0.48233548       0.45059129       0.57851101 </v>
    <v>       0.53409858       0.34342998       0.54500403 </v>
    <v>       0.54775642       0.32630870       0.41834504 </v>
    <v>       0.50247850       0.43201220       0.46253894 </v>
    <v>       0.60210744       0.41854669       0.36498036 </v>
    <v>       0.42569900       0.66188557       0.51210422 </v>
    <v>       0.46372536       0.54361716       0.49992966 </v>
    <v>       0.55929456       0.52906352       0.41117060 </v>
    <v>       0.52096830       0.64481980       0.43994719 </v>
    <v>       0.65783685       0.51420692       0.32665765 </v>
    <v>       0.61968322       0.62238095       0.36064720 </v>
    <v>       0.46734032       0.26419042       0.48657969 </v>
    <v>       0.34293837       0.60450042       0.58324091 </v>
    <v>       0.40969576       0.36775577       0.53060194 </v>
    <v>       0.36466066       0.48094684       0.56069533 </v>
    <v>       0.48018177       0.42335305       0.34405339 </v>
    <v>       0.40661521       0.65161917       0.39568074 </v>
    <v>       0.42277385       0.34880260       0.41190791 </v>
    <v>       0.35105942       0.56889506       0.46686450 </v>
    <v>       0.44109772       0.53199412       0.38267670 </v>
    <v>       0.54321649       0.50726687       0.29080484 </v>
    <v>       0.50106789       0.61650118       0.32794390 </v>
    <v>       0.38116789       0.45323993       0.44578034 </v>
   </varray>
  </structure>
  <varray name="forces" >
   <v>      -0.13395749       0.01367696      -0.17598943 </v>
   <v>       0.27427739      -0.10294308       0.09000662 </v>
   <v>      -0.06568753      -0.00839087      -0.10459004 </v>
   <v>       0.18914990       0.18860675      -0.11022882 </v>
   <v>      -0.08037431       0.05739381       0.08587133 </v>
   <v>      -0.07861315       0.17828289       0.16659275 </v>
   <v>       0.17547125      -0.16356269      -0.26963011 </v>
   <v>      -0.03471383      -0.26271179      -0.05063157 </v>
   <v>      -0.19241123      -0.16475290       0.13791479 </v>
   <v>       0.30842012      -0.01733034      -0.10297189 </v>
   <v>       0.11876219       0.06579440       0.26150041 </v>
   <v>      -0.13494094       0.16212520       0.44709995 </v>
   <v>       0.12653878      -0.27670577      -0.19324675 </v>
   <v>      -0.17928711       0.06728688       0.19709047 </v>
   <v>      -0.02028601      -0.05107178       0.02116282 </v>
   <v>       0.09879788      -0.04535250      -0.16654983 </v>
   <v>      -0.02996872       0.19330133       0.27783557 </v>
   <v>      -0.18512762       0.11095151       0.14611177 </v>
   <v>      -0.12548579      -0.08108643       0.49380883 </v>
   <v>       0.00151174      -0.19664263       0.02835217 </v>
   <v>      -0.21616030       0.05304477       0.26463111 </v>
   <v>       0.11554347      -0.06700866      -0.32046381 </v>
   <v>      -0.16546570       0.26239724       0.23934781 </v>
   <v>      -0.10400370      -0.07003406       0.20546935 </v>
   <v>       0.07745307      -0.08249689       0.11199837 </v>
   <v>       0.20969996       0.03109555      -0.30425927 </v>
   <v>       0.00357067       0.17450473      -0.29266553 </v>
   <v>       0.04223401       0.04097730      -0.49907767 </v>
   <v>      -0.11190392       0.08431780       0.04005552 </v>
   <v>      -0.10634979       0.07852907       0.07479645 </v>
   <v>       0.04867174      -0.04969949       0.01459335 </v>
   <v>       0.05848602      -0.14952800       0.02097432 </v>
   <v>       0.11020235       0.16276999      -0.11524110 </v>
   <v>       0.03959420      -0.01502423       0.03898341 </v>
   <v>       0.05775630      -0.00114804      -0.12008559 </v>
   <v>       0.02398513      -0.57843987       0.11110559 </v>
   <v>      -0.00484339      -0.00591405       0.03675366 </v>
   <v>      -0.25652721       0.14076385      -0.47484680 </v>
   <v>       0.17727905       0.20310479       0.12797173 </v>
   <v>       0.13290981       0.14537149      -0.35271972 </v>
   <v>      -0.16420731      -0.02445224       0.01316978 </v>
  </varray>
  <varray name="stress" >
   <v>      -1.43593697       0.21417022      -0.28395667 </v>
   <v>       0.21417023      -1.40203378      -0.36052985 </v>
   <v>      -0.28395667      -0.36052985      -1.04014777 </v>
  </varray>
  <energy>
   <i name="e_fr_energy">    -86.89610829 </i>
   <i name="e_wo_entrp">    -86.89610829 </i>
   <i name="e_0_energy">      0.00000000 </i>
  </energy>
  <time name="totalsc">  163.44  184.33</time>
 </calculation>
 <calculation>
  <scstep>
   <time name="dav">    4.64    4.64</time>
   <time name="total">    4.98    5.00</time>
   <energy>
    <i name="alphaZ">    115.53960605 </i>
    <i name="ewald"> 113130.83823616 </i>
    <i name="hartreedc">-153898.40287667 </i>
    <i name="XCdc">   -463.58724535 </i>
    <i name="pawpsdc">  44464.54251431 </i>
    <i name="pawaedc"> -42650.99684137 </i>
    <i name="eentropy">      0.00000000 </i>
    <i name="bandstr">  -3310.00832883 </i>
    <i name="atom">  42525.14383354 </i>
    <i name="e_fr_energy">    -86.93110217 </i>
    <i name="e_wo_entrp">    -86.93110217 </i>
    <i name="e_0_energy">    -86.93110217 </i>
   </energy>
  </scstep>
  <scstep>
   <time name="dav">    4.67    4.67</time>
   <time name="total">    5.06    5.07</time>
   <energy>
    <i name="e_fr_energy">    -86.93227283 </i>
    <i name="e_wo_entrp">    -86.93227283 </i>
    <i name="e_0_energy">    -86.93227283 </i>
   </energy>
  </scstep>
  <scstep>
   <time name="dav">    3.33    3.34</time>
   <time name="total">    3.56    3.58</time>
   <energy>
    <i name="alphaZ">    115.53960605 </i>
    <i name="ewald"> 113130.83823616 </i>
    <i name="hartreedc">-153898.66408590 </i>
    <i name="XCdc">   -463.58376240 </i>
    <i name="pawpsdc">  44461.95326062 </i>
    <i name="pawaedc"> -42648.36381887 </i>
    <i name="eentropy">      0.00000000 </i>
    <i name="bandstr">  -3309.79553046 </i>
    <i name="atom">  42525.14383354 </i>
    <i name="e_fr_energy">    -86.93226125 </i>
    <i name="e_wo_entrp">    -86.93226125 </i>
    <i name="e_0_energy">    -86.93226125 </i>
   </energy>
  </scstep>
  <structure>
   <crystal>
    <varray name="basis" >
     <v>      23.13042809       0.00000000       0.00000000 </v>
     <v>       0.00000000      23.13042809       0.00000000 </v>
     <v>       0.00000000       0.00000000      23.13042809 </v>
    </varray>
    <i name="volume">  12375.16539019 </i>
    <varray name="rec_basis" >
     <v>       0.04323310       0.00000000       0.00000000 </v>
     <v>       0.00000000       0.04323310       0.00000000 </v>
     <v>       0.00000000       0.00000000       0.04323310 </v>
    </varray>
   </crystal>
   <varray name="positions" >
    <v>       0.73836984       0.58371236       0.52398125 </v>
    <v>       0.64134933       0.58688211       0.59946334 </v>
    <v>       0.55396889       0.62829394       0.67238334 </v>
    <v>       0.69812579       0.47650493       0.55481771 </v>
    <v>       0.47603201       0.56718229       0.74037878 </v>
    <v>       0.55918762       0.50651081       0.65506407 </v>
    <v>       0.44994906       0.46025180       0.70082807 </v>
    <v>       0.61666401       0.41337595       0.60475605 </v>
    <v>       0.52350603       0.37689535       0.66359471 </v>
    <v>       0.63022511       0.61587952       0.48081309 </v>
    <v>       0.67567625       0.50588840       0.44140477 </v>
    <v>       0.53683042       0.63026152       0.55428751 </v>
    <v>       0.45462297       0.68977237       0.62664708 </v>
    <v>       0.38186334       0.62736850       0.69679610 </v>
    <v>       0.57951943       0.50951608       0.52930515 </v>
    <v>       0.62393695       0.40201038       0.48536261 </v>
    <v>       0.45335108       0.56315671       0.61859495 </v>
    <v>       0.35148496       0.51688309       0.67314990 </v>
    <v>       0.48228313       0.45055747       0.57871700 </v>
    <v>       0.53409921       0.34334795       0.54501586 </v>
    <v>       0.54766625       0.32633083       0.41845543 </v>
    <v>       0.50252669       0.43198425       0.46240527 </v>
    <v>       0.60203842       0.41865614       0.36508020 </v>
    <v>       0.42565562       0.66185636       0.51218993 </v>
    <v>       0.46375767       0.54358275       0.49997638 </v>
    <v>       0.55938203       0.52907649       0.41104368 </v>
    <v>       0.52096979       0.64489260       0.43982511 </v>
    <v>       0.65785447       0.51422401       0.32644946 </v>
    <v>       0.61963655       0.62241613       0.36066391 </v>
    <v>       0.46729596       0.26422318       0.48661089 </v>
    <v>       0.34295867       0.60447969       0.58324700 </v>
    <v>       0.40972016       0.36769339       0.53061068 </v>
    <v>       0.36470663       0.48101473       0.56064725 </v>
    <v>       0.48019828       0.42334678       0.34406965 </v>
    <v>       0.40663931       0.65161869       0.39563065 </v>
    <v>       0.42278386       0.34856132       0.41195426 </v>
    <v>       0.35105740       0.56889259       0.46687983 </v>
    <v>       0.44099071       0.53205283       0.38247862 </v>
    <v>       0.54329044       0.50735159       0.29085822 </v>
    <v>       0.50112333       0.61656182       0.32779676 </v>
    <v>       0.38109939       0.45322973       0.44578583 </v>
   </varray>
  </structure>
  <varray name="forces" >
   <v>      -0.11686816       0.02017099      -0.16950459 </v>
   <v>       0.25492728      -0.09872988       0.08472836 </v>
   <v>      -0.05549117      -0.00838722      -0.08854140 </v>
   <v>       0.16658001       0.16303703      -0.09017255 </v>
   <v>      -0.07980458       0.05007971       0.08390118 </v>
   <v>      -0.06642617       0.16525718       0.15450560 </v>
   <v>       0.15493743      -0.14028004      -0.25153485 </v>
   <v>      -0.03205982      -0.23862621      -0.05379183 </v>
   <v>      -0.17209029      -0.17090957       0.12839122 </v>
   <v>       0.26642648      -0.01251314      -0.08959209 </v>
   <v>       0.10778211       0.06490500       0.21793554 </v>
   <v>      -0.10994545       0.14901771       0.38061571 </v>
   <v>       0.11193245      -0.26010013      -0.17467696 </v>
   <v>      -0.17344723       0.07074630       0.18900813 </v>
   <v>      -0.02235866      -0.04892253       0.02010174 </v>
   <v>       0.09518221      -0.04306291      -0.15001538 </v>
   <v>      -0.03386408       0.17776487       0.26603487 </v>
   <v>      -0.17051414       0.10246048       0.13935845 </v>
   <v>      -0.11700883      -0.08079269       0.44664420 </v>
   <v>       0.00406035      -0.17948223       0.03106146 </v>
   <v>      -0.20168522       0.04875371       0.25184456 </v>
   <v>       0.10281716      -0.05328922      -0.28144817 </v>
   <v>      -0.15589197       0.25307516       0.23001327 </v>
   <v>      -0.09470469      -0.07337079       0.17868838 </v>
   <v>       0.07822944      -0.08336935       0.09771006 </v>
   <v>       0.19146763       0.03486906      -0.27926680 </v>
   <v>       0.00858274       0.16056981      -0.25111224 </v>
   <v>       0.04838021       0.03806295      -0.46219403 </v>
   <v>      -0.10271418       0.08062407       0.03447538 </v>
   <v>      -0.10395094       0.06131630       0.07904197 </v>
   <v>       0.04414082      -0.04833291       0.01865305 </v>
   <v>       0.05809347      -0.13443493       0.02060170 </v>
   <v>       0.10804895       0.15650573      -0.10392953 </v>
   <v>       0.02815613      -0.01848697       0.03917373 </v>
   <v>       0.05891758      -0.00192334      -0.11046766 </v>
   <v>       0.01987062      -0.53373238       0.10024085 </v>
   <v>      -0.00025168      -0.00412109       0.03263133 </v>
   <v>      -0.24139270       0.13323180      -0.44719388 </v>
   <v>       0.16220341       0.19286873       0.11815778 </v>
   <v>       0.12149409       0.14359664      -0.34281352 </v>
   <v>      -0.14176061      -0.03404569       0.00273694 </v>
  </varray>
  <varray name="stress" >
   <v>      -1.46005332       0.20497067      -0.27314180 </v>
   <v>       0.20497067      -1.42262548      -0.35538253 </v>
   <v>      -0.27314180      -0.35538253      -1.07600365 </v>
  </varray>
  <energy>
   <i name="e_fr_energy">    -86.93226125 </i>
   <i name="e_wo_entrp">    -86.93226125 </i>
   <i name="e_0_energy">      0.00000000 </i>
  </energy>
  <time name="totalsc">   21.99   24.37</time>
 </calculation>
 <calculation>
  <scstep>
   <time name="dav">    4.52    4.52</time>
   <time name="total">    4.86    5.00</time>
   <energy>
    <i name="alphaZ">    115.53960605 </i>
    <i name="ewald"> 112998.06589262 </i>
    <i name="hartreedc">-153766.55428073 </i>
    <i name="XCdc">   -463.67315858 </i>
    <i name="pawpsdc">  44459.63860966 </i>
    <i name="pawaedc"> -42646.02011103 </i>
    <i name="eentropy">      0.00000000 </i>
    <i name="bandstr">  -3309.15695597 </i>
    <i name="atom">  42525.14383354 </i>
    <i name="e_fr_energy">    -87.01656445 </i>
    <i name="e_wo_entrp">    -87.01656445 </i>
    <i name="e_0_energy">    -87.01656445 </i>
   </energy>
  </scstep>
  <scstep>
   <time name="dav">    4.76    4.76</time>
   <time name="total">    5.11    5.12</time>
   <energy>
    <i name="e_fr_energy">    -87.02686498 </i>
    <i name="e_wo_entrp">    -87.02686498 </i>
    <i name="e_0_energy">    -87.02686498 </i>
   </energy>
  </scstep>
  <scstep>
   <time name="dav">    4.74    4.75</time>
   <time name="total">    5.09    5.10</time>
   <energy>
    <i name="e_fr_energy">    -87.02666237 </i>
    <i name="e_wo_entrp">    -87.02666237 </i>
    <i name="e_0_energy">    -87.02666237 </i>
   </energy>
  </scstep>
  <scstep>
   <time name="dav">    4.69    4.69</time>
   <time name="total">    5.04    5.06</time>
   <energy>
    <i name="e_fr_energy">    -87.02648083 </i>
    <i name="e_wo_entrp">    -87.02648083 </i>
    <i name="e_0_energy">    -87.02648083 </i>
   </energy>
  </scstep>
  <scstep>
   <time name="dav">    3.32    3.33</time>
   <time name="total">    3.55    3.56</time>
   <energy>
    <i name="alphaZ">    115.53960605 </i>
    <i name="ewald"> 112998.06589262 </i>
    <i name="hartreedc">-153767.56448382 </i>
    <i name="XCdc">   -463.65884685 </i>
    <i name="pawpsdc">  44444.83551029 </i>
    <i name="pawaedc"> -42630.99563176 </i>
    <i name="eentropy">      0.00000000 </i>
    <i name="bandstr">  -3308.39236455 </i>
    <i name="atom">  42525.14383354 </i>
    <i name="e_fr_energy">    -87.02648448 </i>
    <i name="e_wo_entrp">    -87.02648448 </i>
    <i name="e_0_energy">    -87.02648448 </i>
   </energy>
  </scstep>
  <structure>
   <crystal>
    <varray name="basis" >
     <v>      23.13042809       0.00000000       0.00000000 </v>
     <v>       0.00000000      23.13042809       0.00000000 </v>
     <v>       0.00000000       0.00000000      23.13042809 </v>
    </varray>
    <i name="volume">  12375.16539019 </i>
    <varray name="rec_basis" >
     <v>       0.04323310       0.00000000       0.00000000 </v>
     <v>       0.00000000       0.04323310       0.00000000 </v>
     <v>       0.00000000       0.00000000       0.04323310 </v>
    </varray>
   </crystal>
   <varray name="positions" >
    <v>       0.73820220       0.58372948       0.52376101 </v>
    <v>       0.64169256       0.58675328       0.59957598 </v>
    <v>       0.55388669       0.62828344       0.67225246 </v>
    <v>       0.69836249       0.47674095       0.55467977 </v>
    <v>       0.47593143       0.56725411       0.74048624 </v>
    <v>       0.55908924       0.50673391       0.65527255 </v>
    <v>       0.45016864       0.46004712       0.70049065 </v>
    <v>       0.61662056       0.41304719       0.60469269 </v>
    <v>       0.52326525       0.37668918       0.66376730 </v>
    <v>       0.63061107       0.61585784       0.48068423 </v>
    <v>       0.67582487       0.50597074       0.44173202 </v>
    <v>       0.53666155       0.63046440       0.55484701 </v>
    <v>       0.45478132       0.68942610       0.62640525 </v>
    <v>       0.38163898       0.62745270       0.69704274 </v>
    <v>       0.57949404       0.50945217       0.52933163 </v>
    <v>       0.62406058       0.40195362       0.48515419 </v>
    <v>       0.45331358       0.56339861       0.61894264 </v>
    <v>       0.35125329       0.51702193       0.67333275 </v>
    <v>       0.48212610       0.45045599       0.57933495 </v>
    <v>       0.53410110       0.34310187       0.54505134 </v>
    <v>       0.54739575       0.32639721       0.41878659 </v>
    <v>       0.50267128       0.43190039       0.46200424 </v>
    <v>       0.60183135       0.41898451       0.36537972 </v>
    <v>       0.42552547       0.66176871       0.51244705 </v>
    <v>       0.46385459       0.54347951       0.50011653 </v>
    <v>       0.55964445       0.52911540       0.41066293 </v>
    <v>       0.52097426       0.64511097       0.43945886 </v>
    <v>       0.65790732       0.51427529       0.32582491 </v>
    <v>       0.61949651       0.62252164       0.36071404 </v>
    <v>       0.46716287       0.26432145       0.48670449 </v>
    <v>       0.34301958       0.60441749       0.58326526 </v>
    <v>       0.40979335       0.36750627       0.53063693 </v>
    <v>       0.36484454       0.48121843       0.56050304 </v>
    <v>       0.48024783       0.42332798       0.34411844 </v>
    <v>       0.40671158       0.65161726       0.39548037 </v>
    <v>       0.42281387       0.34783745       0.41209329 </v>
    <v>       0.35105133       0.56888519       0.46692583 </v>
    <v>       0.44066969       0.53222899       0.38188439 </v>
    <v>       0.54351229       0.50760576       0.29101837 </v>
    <v>       0.50128965       0.61674374       0.32735537 </v>
    <v>       0.38089390       0.45319913       0.44580231 </v>
   </varray>
  </structure>
  <varray name="forces" >
   <v>      -0.07623674       0.03924232      -0.16093686 </v>
   <v>       0.21790260      -0.09399205       0.07669937 </v>
   <v>      -0.03070790      -0.00967380      -0.04906366 </v>
   <v>       0.11597500       0.10329055      -0.03928357 </v>
   <v>      -0.08307337       0.03366816       0.08311302 </v>
   <v>      -0.03845736       0.14255593       0.13243345 </v>
   <v>       0.11745300      -0.08599227      -0.21672839 </v>
   <v>      -0.02691987      -0.18968522      -0.06518780 </v>
   <v>      -0.12731768      -0.20088108       0.10985214 </v>
   <v>       0.17060683      -0.00038963      -0.06118043 </v>
   <v>       0.08542328       0.06656425       0.11693363 </v>
   <v>      -0.04916631       0.12057837       0.22406747 </v>
   <v>       0.07771935      -0.23088138      -0.13580047 </v>
   <v>      -0.16892086       0.08522922       0.17961020 </v>
   <v>      -0.02912033      -0.04663857       0.01893609 </v>
   <v>       0.09067343      -0.03940627      -0.11486731 </v>
   <v>      -0.04631966       0.14669996       0.25038760 </v>
   <v>      -0.14319630       0.08814085       0.13034703 </v>
   <v>      -0.10348162      -0.08359820       0.34174364 </v>
   <v>       0.01174035      -0.14474958       0.04157342 </v>
   <v>      -0.17582207       0.03980828       0.23456308 </v>
   <v>       0.07694032      -0.01837746      -0.19713429 </v>
   <v>      -0.13995884       0.24437558       0.22031472 </v>
   <v>      -0.07597027      -0.08803871       0.11669846 </v>
   <v>       0.08446325      -0.09071203       0.06626582 </v>
   <v>       0.15543300       0.04703187      -0.22760686 </v>
   <v>       0.02167258       0.13230266      -0.15793635 </v>
   <v>       0.06657263       0.03298107      -0.39170414 </v>
   <v>      -0.08542306       0.07595064       0.02168642 </v>
   <v>      -0.10420393       0.01678615       0.09630394 </v>
   <v>       0.03437642      -0.04917823       0.03129853 </v>
   <v>       0.06089834      -0.10316889       0.02177506 </v>
   <v>       0.10863385       0.15062277      -0.08040216 </v>
   <v>      -0.00120647      -0.02861623       0.04211557 </v>
   <v>       0.06663623      -0.00490659      -0.09240778 </v>
   <v>       0.00942587      -0.44638322       0.07644586 </v>
   <v>       0.01172433       0.00014925       0.02401175 </v>
   <v>      -0.21822831       0.12087765      -0.40121875 </v>
   <v>       0.13182471       0.17967088       0.09878059 </v>
   <v>       0.09853210       0.14981125      -0.34007676 </v>
   <v>      -0.09089652      -0.06106827      -0.02442127 </v>
  </varray>
  <varray name="stress" >
   <v>      -1.51265595       0.18003163      -0.24512508 </v>
   <v>       0.18003162      -1.46708080      -0.33993139 </v>
   <v>      -0.24512508      -0.33993140      -1.15457256 </v>
  </varray>
  <energy>
   <i name="e_fr_energy">    -87.02648448 </i>
   <i name="e_wo_entrp">    -87.02648448 </i>
   <i name="e_0_energy">      0.00000000 </i>
  </energy>
  <time name="totalsc">   32.05   36.62</time>
 </calculation>
 <calculation>
  <scstep>
   <time name="dav">    4.47    4.47</time>
   <time name="total">    4.83    4.85</time>
   <energy>
    <i name="alphaZ">    115.53960605 </i>
    <i name="ewald"> 112735.29291440 </i>
    <i name="hartreedc">-153505.72231319 </i>
    <i name="XCdc">   -463.81144752 </i>
    <i name="pawpsdc">  44444.86713399 </i>
    <i name="pawaedc"> -42631.02862225 </i>
    <i name="eentropy">      0.00000000 </i>
    <i name="bandstr">  -3307.39430488 </i>
    <i name="atom">  42525.14383354 </i>
    <i name="e_fr_energy">    -87.11319986 </i>
    <i name="e_wo_entrp">    -87.11319986 </i>
    <i name="e_0_energy">    -87.11319986 </i>
   </energy>
  </scstep>
  <scstep>
   <time name="dav">    4.67    4.68</time>
   <time name="total">    5.02    5.04</time>
   <energy>
    <i name="e_fr_energy">    -87.15412739 </i>
    <i name="e_wo_entrp">    -87.15412739 </i>
    <i name="e_0_energy">    -87.15412739 </i>
   </energy>
  </scstep>
  <scstep>
   <time name="dav">    4.69    4.69</time>
   <time name="total">    5.03    5.07</time>
   <energy>
    <i name="e_fr_energy">    -87.15333554 </i>
    <i name="e_wo_entrp">    -87.15333554 </i>
    <i name="e_0_energy">    -87.15333554 </i>
   </energy>
  </scstep>
  <scstep>
   <time name="dav">    4.69    4.70</time>
   <time name="total">    5.04    5.98</time>
   <energy>
    <i name="e_fr_energy">    -87.15249706 </i>
    <i name="e_wo_entrp">    -87.15249706 </i>
    <i name="e_0_energy">    -87.15249706 </i>
   </energy>
  </scstep>
  <scstep>
   <time name="dav">    3.34    3.34</time>
   <time name="total">    3.61    3.63</time>
   <energy>
    <i name="alphaZ">    115.53960605 </i>
    <i name="ewald"> 112735.29291440 </i>
    <i name="hartreedc">-153507.58068117 </i>
    <i name="XCdc">   -463.78673675 </i>
    <i name="pawpsdc">  44423.25186998 </i>
    <i name="pawaedc"> -42609.06414670 </i>
    <i name="eentropy">      0.00000000 </i>
    <i name="bandstr">  -3305.94917648 </i>
    <i name="atom">  42525.14383354 </i>
    <i name="e_fr_energy">    -87.15251714 </i>
    <i name="e_wo_entrp">    -87.15251714 </i>
    <i name="e_0_energy">    -87.15251714 </i>
   </energy>
  </scstep>
  <structure>
   <crystal>
    <varray name="basis" >
     <v>      23.13042809       0.00000000       0.00000000 </v>
     <v>       0.00000000      23.13042809       0.00000000 </v>
     <v>       0.00000000       0.00000000      23.13042809 </v>
    </varray>
    <i name="volume">  12375.16539019 </i>
    <varray name="rec_basis" >
     <v>       0.04323310       0.00000000       0.00000000 </v>
     <v>       0.00000000       0.04323310       0.00000000 </v>
     <v>       0.00000000       0.00000000       0.04323310 </v>
    </varray>
   </crystal>
   <varray name="positions" >
    <v>       0.73786693       0.58376371       0.52332054 </v>
    <v>       0.64237902       0.58649563       0.59980125 </v>
    <v>       0.55372228       0.62826244       0.67199069 </v>
    <v>       0.69883590       0.47721300       0.55440389 </v>
    <v>       0.47573027       0.56739776       0.74070116 </v>
    <v>       0.55889249       0.50718012       0.65568950 </v>
    <v>       0.45060781       0.45963775       0.69981582 </v>
    <v>       0.61653368       0.41238967       0.60456597 </v>
    <v>       0.52278368       0.37627683       0.66411248 </v>
    <v>       0.63138298       0.61581446       0.48042651 </v>
    <v>       0.67612211       0.50613541       0.44238650 </v>
    <v>       0.53632382       0.63087017       0.55596602 </v>
    <v>       0.45509803       0.68873356       0.62592159 </v>
    <v>       0.38119026       0.62762111       0.69753602 </v>
    <v>       0.57944327       0.50932434       0.52938460 </v>
    <v>       0.62430785       0.40184012       0.48473734 </v>
    <v>       0.45323857       0.56388241       0.61963801 </v>
    <v>       0.35078995       0.51729962       0.67369844 </v>
    <v>       0.48181203       0.45025305       0.58057087 </v>
    <v>       0.53410488       0.34260971       0.54512230 </v>
    <v>       0.54685474       0.32652997       0.41944891 </v>
    <v>       0.50296047       0.43173268       0.46120218 </v>
    <v>       0.60141722       0.41964124       0.36597877 </v>
    <v>       0.42526517       0.66159343       0.51296130 </v>
    <v>       0.46404844       0.54327304       0.50039684 </v>
    <v>       0.56016929       0.52919323       0.40990142 </v>
    <v>       0.52098319       0.64554772       0.43872638 </v>
    <v>       0.65801303       0.51437785       0.32457581 </v>
    <v>       0.61921643       0.62273267       0.36081429 </v>
    <v>       0.46689670       0.26451800       0.48689170 </v>
    <v>       0.34314140       0.60429310       0.58330178 </v>
    <v>       0.40993973       0.36713203       0.53068943 </v>
    <v>       0.36512036       0.48162581       0.56021461 </v>
    <v>       0.48034693       0.42329038       0.34421601 </v>
    <v>       0.40685614       0.65161438       0.39517982 </v>
    <v>       0.42287390       0.34638972       0.41237137 </v>
    <v>       0.35103921       0.56887039       0.46701782 </v>
    <v>       0.44002765       0.53258129       0.38069594 </v>
    <v>       0.54395598       0.50811409       0.29133866 </v>
    <v>       0.50162230       0.61710758       0.32647258 </v>
    <v>       0.38048292       0.45313793       0.44583527 </v>
   </varray>
  </structure>
  <varray name="forces" >
   <v>       0.01717272       0.07979922      -0.13541697 </v>
   <v>       0.13170144      -0.07944215       0.05928313 </v>
   <v>       0.02599927      -0.01088714       0.04803403 </v>
   <v>       0.01641267      -0.02430277       0.06914393 </v>
   <v>      -0.08540724       0.00027768       0.07842784 </v>
   <v>       0.02104038       0.08983501       0.08372118 </v>
   <v>       0.00891111       0.03105206      -0.12412845 </v>
   <v>      -0.01504854      -0.08704668      -0.08484234 </v>
   <v>      -0.02766856      -0.26248760       0.06854202 </v>
   <v>      -0.02471005       0.02785507      -0.00948510 </v>
   <v>       0.03815134       0.06287576      -0.08143708 </v>
   <v>       0.07918982       0.05352900      -0.09542367 </v>
   <v>      -0.00397749      -0.15107064      -0.03552522 </v>
   <v>      -0.14970383       0.11259257       0.15025222 </v>
   <v>      -0.04002051      -0.04132143       0.01694165 </v>
   <v>       0.07941637      -0.03174220      -0.03870895 </v>
   <v>      -0.07194127       0.07233289       0.20628380 </v>
   <v>      -0.09228704       0.05367185       0.10460135 </v>
   <v>      -0.07009165      -0.08522193       0.11851025 </v>
   <v>       0.02829634      -0.07036592       0.06341738 </v>
   <v>      -0.10905677       0.01674901       0.18008954 </v>
   <v>       0.02322306       0.05551779      -0.03415963 </v>
   <v>      -0.09783665       0.21327433       0.18627638 </v>
   <v>      -0.03592444      -0.11361683      -0.01950754 </v>
   <v>       0.09419803      -0.10033611       0.00716986 </v>
   <v>       0.08362053       0.07509674      -0.10789703 </v>
   <v>       0.04113986       0.07378596       0.01423477 </v>
   <v>       0.10241954       0.02251781      -0.23787008 </v>
   <v>      -0.04404079       0.06592563      -0.00761226 </v>
   <v>      -0.09722494      -0.08308901       0.13324616 </v>
   <v>       0.01259544      -0.05016014       0.05657122 </v>
   <v>       0.06352271      -0.03403979       0.02299999 </v>
   <v>       0.10746296       0.13308530      -0.02876803 </v>
   <v>      -0.06068161      -0.04552802       0.03759906 </v>
   <v>       0.07780769      -0.01051062      -0.05555129 </v>
   <v>      -0.02000362      -0.24209963       0.01305917 </v>
   <v>       0.03603995       0.00968763       0.00324877 </v>
   <v>      -0.16871297       0.08995324      -0.28538827 </v>
   <v>       0.06220474       0.14169227       0.04763637 </v>
   <v>       0.05057192       0.15142946      -0.31000325 </v>
   <v>       0.01324011      -0.10926766      -0.07756488 </v>
  </varray>
  <varray name="stress" >
   <v>      -1.60122752       0.12450993      -0.18704608 </v>
   <v>       0.12450993      -1.54102424      -0.30978973 </v>
   <v>      -0.18704608      -0.30978973      -1.27580854 </v>
  </varray>
  <energy>
   <i name="e_fr_energy">    -87.15251714 </i>
   <i name="e_wo_entrp">    -87.15251714 </i>
   <i name="e_0_energy">      0.00000000 </i>
  </energy>
  <time name="totalsc">   31.90   32.97</time>
 </calculation>
 <calculation>
  <scstep>
   <time name="dav">    4.48    4.49</time>
   <time name="total">    4.83    4.85</time>
   <energy>
    <i name="alphaZ">    115.53960605 </i>
    <i name="ewald"> 112220.71157686 </i>
    <i name="hartreedc">-152994.00551334 </i>
    <i name="XCdc">   -463.98169767 </i>
    <i name="pawpsdc">  44423.15918226 </i>
    <i name="pawaedc"> -42608.97247337 </i>
    <i name="eentropy">      0.00000000 </i>
    <i name="bandstr">  -3304.59573607 </i>
    <i name="atom">  42525.14383354 </i>
    <i name="e_fr_energy">    -87.00122174 </i>
    <i name="e_wo_entrp">    -87.00122174 </i>
    <i name="e_0_energy">    -87.00122174 </i>
   </energy>
  </scstep>
  <scstep>
   <time name="dav">    4.69    4.69</time>
   <time name="total">    5.03    5.04</time>
   <energy>
    <i name="e_fr_energy">    -87.16777717 </i>
    <i name="e_wo_entrp">    -87.16777717 </i>
    <i name="e_0_energy">    -87.16777717 </i>
   </energy>
  </scstep>
  <scstep>
   <time name="dav">    4.73    4.73</time>
   <time name="total">    5.11    5.13</time>
   <energy>
    <i name="e_fr_energy">    -87.16481922 </i>
    <i name="e_wo_entrp">    -87.16481922 </i>
    <i name="e_0_energy">    -87.16481922 </i>
   </energy>
  </scstep>
  <scstep>
   <time name="dav">    4.67    4.67</time>
   <time name="total">    5.02    5.04</time>
   <energy>
    <i name="e_fr_energy">    -87.16150167 </i>
    <i name="e_wo_entrp">    -87.16150167 </i>
    <i name="e_0_energy">    -87.16150167 </i>
   </energy>
  </scstep>
  <scstep>
   <time name="dav">    4.76    4.76</time>
   <time name="total">    5.13    5.15</time>
   <energy>
    <i name="e_fr_energy">    -87.16161619 </i>
    <i name="e_wo_entrp">    -87.16161619 </i>
    <i name="e_0_energy">    -87.16161619 </i>
   </energy>
  </scstep>
  <scstep>
   <time name="dav">    3.44    3.44</time>
   <time name="total">    3.68    3.69</time>
   <energy>
    <i name="alphaZ">    115.53960605 </i>
    <i name="ewald"> 112220.71157686 </i>
    <i name="hartreedc">-152996.88481870 </i>
    <i name="XCdc">   -463.94567654 </i>
    <i name="pawpsdc">  44407.03834048 </i>
    <i name="pawaedc"> -42592.48029675 </i>
    <i name="eentropy">      0.00000000 </i>
    <i name="bandstr">  -3302.28409301 </i>
    <i name="atom">  42525.14383354 </i>
    <i name="e_fr_energy">    -87.16152806 </i>
    <i name="e_wo_entrp">    -87.16152806 </i>
    <i name="e_0_energy">    -87.16152806 </i>
   </energy>
  </scstep>
  <structure>
   <crystal>
    <varray name="basis" >
     <v>      23.13042809       0.00000000       0.00000000 </v>
     <v>       0.00000000      23.13042809       0.00000000 </v>
     <v>       0.00000000       0.00000000      23.13042809 </v>
    </varray>
    <i name="volume">  12375.16539019 </i>
    <varray name="rec_basis" >
     <v>       0.04323310       0.00000000       0.00000000 </v>
     <v>       0.00000000       0.04323310       0.00000000 </v>
     <v>       0.00000000       0.00000000       0.04323310 </v>
    </varray>
   </crystal>
   <varray name="positions" >
    <v>       0.73719639       0.58383217       0.52243960 </v>
    <v>       0.64375196       0.58598034       0.60025179 </v>
    <v>       0.55339348       0.62822044       0.67146715 </v>
    <v>       0.69978271       0.47815710       0.55385213 </v>
    <v>       0.47532794       0.56768505       0.74113100 </v>
    <v>       0.55849898       0.50807254       0.65652340 </v>
    <v>       0.45148616       0.45881901       0.69846615 </v>
    <v>       0.61635992       0.41107463       0.60431253 </v>
    <v>       0.52182054       0.37545214       0.66480283 </v>
    <v>       0.63292682       0.61572771       0.47991107 </v>
    <v>       0.67671659       0.50646475       0.44369548 </v>
    <v>       0.53564836       0.63168171       0.55820404 </v>
    <v>       0.45573143       0.68734847       0.62495427 </v>
    <v>       0.38029281       0.62795792       0.69852259 </v>
    <v>       0.57934172       0.50906870       0.52949053 </v>
    <v>       0.62480240       0.40161310       0.48390366 </v>
    <v>       0.45308856       0.56485000       0.62102875 </v>
    <v>       0.34986326       0.51785500       0.67442982 </v>
    <v>       0.48118390       0.44984716       0.58304269 </v>
    <v>       0.53411245       0.34162539       0.54526422 </v>
    <v>       0.54577272       0.32679549       0.42077356 </v>
    <v>       0.50353884       0.43139726       0.45959805 </v>
    <v>       0.60058896       0.42095471       0.36717685 </v>
    <v>       0.42474456       0.66124287       0.51398981 </v>
    <v>       0.46443615       0.54286009       0.50095747 </v>
    <v>       0.56121897       0.52934888       0.40837842 </v>
    <v>       0.52100107       0.64642123       0.43726140 </v>
    <v>       0.65822443       0.51458297       0.32207762 </v>
    <v>       0.61865628       0.62315474       0.36101479 </v>
    <v>       0.46636435       0.26491108       0.48726610 </v>
    <v>       0.34338503       0.60404433       0.58337483 </v>
    <v>       0.41023249       0.36638355       0.53079442 </v>
    <v>       0.36567199       0.48244057       0.55963776 </v>
    <v>       0.48054512       0.42321517       0.34441114 </v>
    <v>       0.40714524       0.65160864       0.39457871 </v>
    <v>       0.42299396       0.34349427       0.41292752 </v>
    <v>       0.35101497       0.56884079       0.46720179 </v>
    <v>       0.43874357       0.53328591       0.37831903 </v>
    <v>       0.54484338       0.50913076       0.29197924 </v>
    <v>       0.50228760       0.61783525       0.32470699 </v>
    <v>       0.37966096       0.45301553       0.44590120 </v>
   </varray>
  </structure>
  <varray name="forces" >
   <v>       0.23577830       0.17185898      -0.07382651 </v>
   <v>      -0.03380421      -0.05301979       0.03232117 </v>
   <v>       0.15612614      -0.01030007       0.30146649 </v>
   <v>      -0.15092601      -0.28169766       0.29687574 </v>
   <v>      -0.08568312      -0.05918758       0.06984837 </v>
   <v>       0.13661780      -0.01214743      -0.00398858 </v>
   <v>      -0.23480736       0.27467511       0.13260884 </v>
   <v>      -0.00035953       0.09113640      -0.11982453 </v>
   <v>       0.18155330      -0.40864266      -0.01256328 </v>
   <v>      -0.37828455       0.09362211       0.05665885 </v>
   <v>      -0.05507577       0.04083783      -0.42976018 </v>
   <v>       0.34572662      -0.10286999      -0.74769516 </v>
   <v>      -0.20386558       0.06397918       0.20842601 </v>
   <v>      -0.10473404       0.17049453       0.08648012 </v>
   <v>      -0.05474587      -0.03404338       0.01801587 </v>
   <v>       0.06019527      -0.01897995       0.11047826 </v>
   <v>      -0.13292356      -0.09089522       0.12095100 </v>
   <v>      -0.00021699      -0.00913060       0.05020957 </v>
   <v>       0.00573767      -0.08892161      -0.31691094 </v>
   <v>       0.06206640       0.06877753       0.11322880 </v>
   <v>       0.03442694      -0.04242091       0.05943117 </v>
   <v>      -0.07982820       0.21295496       0.26497489 </v>
   <v>       0.00011566       0.13472521       0.08868018 </v>
   <v>       0.03475620      -0.15852465      -0.29956764 </v>
   <v>       0.10750692      -0.11166082      -0.08391443 </v>
   <v>      -0.02331967       0.14666766       0.15885716 </v>
   <v>       0.06207065      -0.02543978       0.28496566 </v>
   <v>       0.17513650       0.00309128      -0.00524357 </v>
   <v>       0.04289124       0.05399876      -0.07004552 </v>
   <v>      -0.06950658      -0.31381508       0.22941807 </v>
   <v>      -0.03600215      -0.04652400       0.10850963 </v>
   <v>       0.06471544       0.10501003       0.02856485 </v>
   <v>       0.10094599       0.09795905       0.07650616 </v>
   <v>      -0.17765895      -0.06836089      -0.00402003 </v>
   <v>       0.08530389      -0.02057737       0.00726320 </v>
   <v>      -0.09988447       0.14106112      -0.14379530 </v>
   <v>       0.08098267       0.03106300      -0.04221731 </v>
   <v>      -0.11223144       0.03093977      -0.07881468 </v>
   <v>      -0.08939568       0.05634531      -0.08228826 </v>
   <v>      -0.04834738       0.15315249      -0.21816725 </v>
   <v>       0.19894753      -0.18519089      -0.17209689 </v>
  </varray>
  <varray name="stress" >
   <v>      -1.67835966      -0.00199139      -0.06904287 </v>
   <v>      -0.00199138      -1.59395576      -0.25411487 </v>
   <v>      -0.06904287      -0.25411487      -1.33408196 </v>
  </varray>
  <energy>
   <i name="e_fr_energy">    -87.16152806 </i>
   <i name="e_wo_entrp">    -87.16152806 </i>
   <i name="e_0_energy">      0.00000000 </i>
  </energy>
  <time name="totalsc">   37.14   37.70</time>
 </calculation>
 <calculation>
  <scstep>
   <time name="dav">    4.48    4.48</time>
   <time name="total">    4.83    4.84</time>
   <energy>
    <i name="alphaZ">    115.53960605 </i>
    <i name="ewald"> 112458.64931199 </i>
    <i name="hartreedc">-153234.89784989 </i>
    <i name="XCdc">   -463.86070463 </i>
    <i name="pawpsdc">  44406.04145971 </i>
    <i name="pawaedc"> -42591.48031059 </i>
    <i name="eentropy">      0.00000000 </i>
    <i name="bandstr">  -3302.29788510 </i>
    <i name="atom">  42525.14383354 </i>
    <i name="e_fr_energy">    -87.16253892 </i>
    <i name="e_wo_entrp">    -87.16253892 </i>
    <i name="e_0_energy">    -87.16253892 </i>
   </energy>
  </scstep>
  <scstep>
   <time name="dav">    4.66    4.67</time>
   <time name="total">    5.08    5.10</time>
   <energy>
    <i name="e_fr_energy">    -87.19841917 </i>
    <i name="e_wo_entrp">    -87.19841917 </i>
    <i name="e_0_energy">    -87.19841917 </i>
   </energy>
  </scstep>
  <scstep>
   <time name="dav">    4.76    4.77</time>
   <time name="total">    5.11    5.14</time>
   <energy>
    <i name="e_fr_energy">    -87.19777328 </i>
    <i name="e_wo_entrp">    -87.19777328 </i>
    <i name="e_0_energy">    -87.19777328 </i>
   </energy>
  </scstep>
  <scstep>
   <time name="dav">    4.67    4.68</time>
   <time name="total">    5.02    5.03</time>
   <energy>
    <i name="e_fr_energy">    -87.19712911 </i>
    <i name="e_wo_entrp">    -87.19712911 </i>
    <i name="e_0_energy">    -87.19712911 </i>
   </energy>
  </scstep>
  <scstep>
   <time name="dav">    3.40    3.41</time>
   <time name="total">    3.63    3.64</time>
   <energy>
    <i name="alphaZ">    115.53960605 </i>
    <i name="ewald"> 112458.64931199 </i>
    <i name="hartreedc">-153233.62391624 </i>
    <i name="XCdc">   -463.88525881 </i>
    <i name="pawpsdc">  44409.16730409 </i>
    <i name="pawaedc"> -42594.72714763 </i>
    <i name="eentropy">      0.00000000 </i>
    <i name="bandstr">  -3303.46092798 </i>
    <i name="atom">  42525.14383354 </i>
    <i name="e_fr_energy">    -87.19719498 </i>
    <i name="e_wo_entrp">    -87.19719498 </i>
    <i name="e_0_energy">    -87.19719498 </i>
   </energy>
  </scstep>
  <structure>
   <crystal>
    <varray name="basis" >
     <v>      23.13042809       0.00000000       0.00000000 </v>
     <v>       0.00000000      23.13042809       0.00000000 </v>
     <v>       0.00000000       0.00000000      23.13042809 </v>
    </varray>
    <i name="volume">  12375.16539019 </i>
    <varray name="rec_basis" >
     <v>       0.04323310       0.00000000       0.00000000 </v>
     <v>       0.00000000       0.04323310       0.00000000 </v>
     <v>       0.00000000       0.00000000       0.04323310 </v>
    </varray>
   </crystal>
   <varray name="positions" >
    <v>       0.73750880       0.58380027       0.52285004 </v>
    <v>       0.64311230       0.58622042       0.60004188 </v>
    <v>       0.55354667       0.62824001       0.67171107 </v>
    <v>       0.69934159       0.47771724       0.55410920 </v>
    <v>       0.47551539       0.56755120       0.74093073 </v>
    <v>       0.55868232       0.50765676       0.65613488 </v>
    <v>       0.45107693       0.45920047       0.69909496 </v>
    <v>       0.61644088       0.41168732       0.60443061 </v>
    <v>       0.52226927       0.37583636       0.66448119 </v>
    <v>       0.63220754       0.61576813       0.48015121 </v>
    <v>       0.67643962       0.50631131       0.44308562 </v>
    <v>       0.53596306       0.63130361       0.55716134 </v>
    <v>       0.45543632       0.68799379       0.62540495 </v>
    <v>       0.38071094       0.62780100       0.69806294 </v>
    <v>       0.57938903       0.50918780       0.52944117 </v>
    <v>       0.62457199       0.40171887       0.48429208 </v>
    <v>       0.45315845       0.56439920       0.62038080 </v>
    <v>       0.35029501       0.51759625       0.67408907 </v>
    <v>       0.48147655       0.45003627       0.58189106 </v>
    <v>       0.53410892       0.34208399       0.54519810 </v>
    <v>       0.54627684       0.32667179       0.42015640 </v>
    <v>       0.50326937       0.43155353       0.46034542 </v>
    <v>       0.60097485       0.42034276       0.36661866 </v>
    <v>       0.42498711       0.66140620       0.51351062 </v>
    <v>       0.46425551       0.54305248       0.50069627 </v>
    <v>       0.56072992       0.52927636       0.40908799 </v>
    <v>       0.52099274       0.64601426       0.43794394 </v>
    <v>       0.65812594       0.51448740       0.32324154 </v>
    <v>       0.61891726       0.62295810       0.36092138 </v>
    <v>       0.46661238       0.26472794       0.48709166 </v>
    <v>       0.34327152       0.60416023       0.58334080 </v>
    <v>       0.41009609       0.36673227       0.53074550 </v>
    <v>       0.36541498       0.48206097       0.55990652 </v>
    <v>       0.48045278       0.42325021       0.34432023 </v>
    <v>       0.40701055       0.65161131       0.39485877 </v>
    <v>       0.42293803       0.34484327       0.41266841 </v>
    <v>       0.35102626       0.56885458       0.46711608 </v>
    <v>       0.43934183       0.53295762       0.37942644 </v>
    <v>       0.54442994       0.50865709       0.29168079 </v>
    <v>       0.50197764       0.61749623       0.32552958 </v>
    <v>       0.38004391       0.45307256       0.44587048 </v>
   </varray>
  </structure>
  <varray name="forces" >
   <v>       0.12611453       0.12730809      -0.10236215 </v>
   <v>       0.03882371      -0.06450235       0.04183638 </v>
   <v>       0.09362103      -0.01069969       0.17478304 </v>
   <v>      -0.08044366      -0.16358489       0.19070121 </v>
   <v>      -0.08592125      -0.03362157       0.07308095 </v>
   <v>       0.08398047       0.03304859       0.03412302 </v>
   <v>      -0.11784195       0.15935337       0.00202584 </v>
   <v>      -0.00612313       0.01570116      -0.10347018 </v>
   <v>       0.08443852      -0.33555525       0.02452789 </v>
   <v>      -0.22245325       0.06144150       0.03358085 </v>
   <v>      -0.01189001       0.05262633      -0.27634995 </v>
   <v>       0.22047707      -0.02905663      -0.43994934 </v>
   <v>      -0.10468588      -0.04481978       0.08757900 </v>
   <v>      -0.12426895       0.14780570       0.11417932 </v>
   <v>      -0.04921783      -0.03712820       0.01691704 </v>
   <v>       0.06746727      -0.02415009       0.04273727 </v>
   <v>      -0.10416255      -0.01406060       0.15710256 </v>
   <v>      -0.03915402       0.01744695       0.07471475 </v>
   <v>      -0.02789068      -0.08642109      -0.11865596 </v>
   <v>       0.04583461       0.00759548       0.08873964 </v>
   <v>      -0.03180192      -0.01368459       0.11405600 </v>
   <v>      -0.03322035       0.13827411       0.12693892 </v>
   <v>      -0.04568476       0.17207358       0.13730599 </v>
   <v>       0.00413057      -0.13821816      -0.17012078 </v>
   <v>       0.10266993      -0.10759564      -0.04646442 </v>
   <v>       0.01579181       0.11241487       0.03257064 </v>
   <v>       0.05403631       0.01648355       0.16990862 </v>
   <v>       0.14130742       0.01102057      -0.09289872 </v>
   <v>       0.00288766       0.05714822      -0.04011481 </v>
   <v>      -0.08342002      -0.20241753       0.18022018 </v>
   <v>      -0.01328957      -0.04876964       0.08454745 </v>
   <v>       0.06468190       0.04168243       0.02552401 </v>
   <v>       0.10411650       0.11311597       0.02821399 </v>
   <v>      -0.12372109      -0.05966444       0.02033936 </v>
   <v>       0.08322876      -0.01600744      -0.01930281 </v>
   <v>      -0.05933941      -0.02614714      -0.06925045 </v>
   <v>       0.06098637       0.02080471      -0.02079969 </v>
   <v>      -0.12829582       0.05810082      -0.16589995 </v>
   <v>      -0.01819354       0.09449067      -0.01874916 </v>
   <v>      -0.00209639       0.15159765      -0.26207631 </v>
   <v>       0.11852159      -0.15342958      -0.12978920 </v>
  </varray>
  <varray name="stress" >
   <v>      -1.65742564       0.05637750      -0.11934887 </v>
   <v>       0.05637750      -1.58464397      -0.27910896 </v>
   <v>      -0.11934887      -0.27910896      -1.33840490 </v>
  </varray>
  <energy>
   <i name="e_fr_energy">    -87.19719498 </i>
   <i name="e_wo_entrp">    -87.19719498 </i>
   <i name="e_0_energy">      0.00000000 </i>
  </energy>
  <time name="totalsc">   32.03   32.40</time>
 </calculation>
 <calculation>
  <scstep>
   <time name="dav">    4.50    4.51</time>
   <time name="total">    4.86    4.88</time>
   <energy>
    <i name="alphaZ">    115.53960605 </i>
    <i name="ewald"> 112302.51813027 </i>
    <i name="hartreedc">-153078.30112036 </i>
    <i name="XCdc">   -464.04117295 </i>
    <i name="pawpsdc">  44409.03080138 </i>
    <i name="pawaedc"> -42594.58938786 </i>
    <i name="eentropy">      0.00000000 </i>
    <i name="bandstr">  -3302.54138130 </i>
    <i name="atom">  42525.14383354 </i>
    <i name="e_fr_energy">    -87.24069124 </i>
    <i name="e_wo_entrp">    -87.24069124 </i>
    <i name="e_0_energy">    -87.24069124 </i>
   </energy>
  </scstep>
  <scstep>
   <time name="dav">    4.76    4.76</time>
   <time name="total">    5.10    5.11</time>
   <energy>
    <i name="e_fr_energy">    -87.25099543 </i>
    <i name="e_wo_entrp">    -87.25099543 </i>
    <i name="e_0_energy">    -87.25099543 </i>
   </energy>
  </scstep>
  <scstep>
   <time name="dav">    4.76    4.76</time>
   <time name="total">    5.11    5.13</time>
   <energy>
    <i name="e_fr_energy">    -87.25086556 </i>
    <i name="e_wo_entrp">    -87.25086556 </i>
    <i name="e_0_energy">    -87.25086556 </i>
   </energy>
  </scstep>
  <scstep>
   <time name="dav">    4.64    4.65</time>
   <time name="total">    5.04    5.06</time>
   <energy>
    <i name="e_fr_energy">    -87.25049518 </i>
    <i name="e_wo_entrp">    -87.25049518 </i>
    <i name="e_0_energy">    -87.25049518 </i>
   </energy>
  </scstep>
  <scstep>
   <time name="dav">    3.55    3.55</time>
   <time name="total">    3.78    3.78</time>
   <energy>
    <i name="alphaZ">    115.53960605 </i>
    <i name="ewald"> 112302.51813027 </i>
    <i name="hartreedc">-153079.77742943 </i>
    <i name="XCdc">   -464.01088118 </i>
    <i name="pawpsdc">  44387.75890679 </i>
    <i name="pawaedc"> -42572.97559381 </i>
    <i name="eentropy">      0.00000000 </i>
    <i name="bandstr">  -3301.44703204 </i>
    <i name="atom">  42525.14383354 </i>
    <i name="e_fr_energy">    -87.25045980 </i>
    <i name="e_wo_entrp">    -87.25045980 </i>
    <i name="e_0_energy">    -87.25045980 </i>
   </energy>
  </scstep>
  <structure>
   <crystal>
    <varray name="basis" >
     <v>      23.13042809       0.00000000       0.00000000 </v>
     <v>       0.00000000      23.13042809       0.00000000 </v>
     <v>       0.00000000       0.00000000      23.13042809 </v>
    </varray>
    <i name="volume">  12375.16539019 </i>
    <varray name="rec_basis" >
     <v>       0.04323310       0.00000000       0.00000000 </v>
     <v>       0.00000000       0.04323310       0.00000000 </v>
     <v>       0.00000000       0.00000000       0.04323310 </v>
    </varray>
   </crystal>
[...]
       <r>     0.3380     0.0000   264.0000 </r>
       <r>     0.3787     0.0000   264.0000 </r>
       <r>     0.4195     0.0000   264.0000 </r>
       <r>     0.4602     0.0000   264.0000 </r>
       <r>     0.5010     0.0000   265.0000 </r>
       <r>     0.5418     0.0000   266.0000 </r>
       <r>     0.5825     0.0000   266.0000 </r>
       <r>     0.6233     0.0000   267.0000 </r>
       <r>     0.6641     0.0000   268.0000 </r>
       <r>     0.7048     0.0000   269.0000 </r>
       <r>     0.7456     0.0000   269.0000 </r>
       <r>     0.7863     0.0000   271.0000 </r>
       <r>     0.8271     0.0000   271.0000 </r>
       <r>     0.8679     0.0000   272.0000 </r>
       <r>     0.9086     0.0000   274.0000 </r>
       <r>     0.9494     0.0000   275.0000 </r>
       <r>     0.9902     0.0000   276.0000 </r>
       <r>     1.0309     0.0000   279.0000 </r>
       <r>     1.0717     0.0000   281.0000 </r>
       <r>     1.1124     0.0000   283.0000 </r>
       <r>     1.1532     0.0000   285.0000 </r>
       <r>     1.1940     0.0000   286.0000 </r>
       <r>     1.2347     0.0000   288.0000 </r>
       <r>     1.2755     0.0000   289.0000 </r>
       <r>     1.3163     0.0000   291.0000 </r>
       <r>     1.3570     0.0000   292.0000 </r>
       <r>     1.3978     0.0000   292.0000 </r>
       <r>     1.4385     0.0000   292.0000 </r>
       <r>     1.4793     0.0000   292.0000 </r>
       <r>     1.5201     0.0000   292.0000 </r>
       <r>     1.5608     0.0000   292.0000 </r>
       <r>     1.6016     0.0000   292.0000 </r>
       <r>     1.6423     0.0000   292.0000 </r>
       <r>     1.6831     0.0000   292.0000 </r>
       <r>     1.7239     0.0000   292.0000 </r>
       <r>     1.7646     0.0000   292.0000 </r>
       <r>     1.8054     0.0000   292.0000 </r>
       <r>     1.8462     0.0000   292.0000 </r>
       <r>     1.8869     0.0000   292.0000 </r>
      </set>
      <set comment="spin 2">
       <r>   -10.3417     0.0000     0.0000 </r>
       <r>   -10.3009     0.0000     0.0000 </r>
       <r>   -10.2602     0.0000     0.0000 </r>
       <r>   -10.2194     0.0000     0.0000 </r>
       <r>   -10.1787     0.0000     0.0000 </r>
       <r>   -10.1379     0.0000     0.0000 </r>
       <r>   -10.0971     0.0000     0.0000 </r>
       <r>   -10.0564     0.0000     0.0000 </r>
       <r>   -10.0156     0.0000     0.0000 </r>
       <r>    -9.9748     0.0000     0.0000 </r>
       <r>    -9.9341     0.0000     0.0000 </r>
       <r>    -9.8933     0.0000     0.0000 </r>
       <r>    -9.8526     0.0000     0.0000 </r>
       <r>    -9.8118     0.0000     0.0000 </r>
       <r>    -9.7710     0.0000     0.0000 </r>
       <r>    -9.7303     0.0000     1.0000 </r>
       <r>    -9.6895     0.0000     1.0000 </r>
       <r>    -9.6487     0.0000     1.0000 </r>
       <r>    -9.6080     0.0000     1.0000 </r>
       <r>    -9.5672     0.0000     1.0000 </r>
       <r>    -9.5265     0.0000     1.0000 </r>
       <r>    -9.4857     0.0000     1.0000 </r>
       <r>    -9.4449     0.0000     1.0000 </r>
       <r>    -9.4042     0.0000     1.0000 </r>
       <r>    -9.3634     0.0000     1.0000 </r>
       <r>    -9.3227     0.0000     1.0000 </r>
       <r>    -9.2819     0.0000     1.0000 </r>
       <r>    -9.2411     0.0000     2.0000 </r>
       <r>    -9.2004     0.0000     2.0000 </r>
       <r>    -9.1596     0.0000     3.0000 </r>
       <r>    -9.1188     0.0000     4.0000 </r>
       <r>    -9.0781     0.0000     5.0000 </r>
       <r>    -9.0373     0.0000     7.0000 </r>
       <r>    -8.9966     0.0000     9.0000 </r>
       <r>    -8.9558     0.0000    11.0000 </r>
       <r>    -8.9150     0.0000    12.0000 </r>
       <r>    -8.8743     0.0000    13.0000 </r>
       <r>    -8.8335     0.0000    16.0000 </r>
       <r>    -8.7927     0.0000    16.0000 </r>
       <r>    -8.7520     0.0000    19.0000 </r>
       <r>    -8.7112     0.0000    21.0000 </r>
       <r>    -8.6705     0.0000    23.0000 </r>
       <r>    -8.6297     0.0000    25.0000 </r>
       <r>    -8.5889     0.0000    27.0000 </r>
       <r>    -8.5482     0.0000    30.0000 </r>
       <r>    -8.5074    24.5326    33.0000 </r>
       <r>    -8.4666     0.0000    35.0000 </r>
       <r>    -8.4259     0.0000    38.0000 </r>
       <r>    -8.3851     0.0000    41.0000 </r>
       <r>    -8.3444     0.0000    43.0000 </r>
       <r>    -8.3036     0.0000    44.0000 </r>
       <r>    -8.2628     0.0000    47.0000 </r>
       <r>    -8.2221     0.0000    50.0000 </r>
       <r>    -8.1813    24.5326    54.0000 </r>
       <r>    -8.1406     0.0000    56.0000 </r>
       <r>    -8.0998     0.0000    59.0000 </r>
       <r>    -8.0590     0.0000    62.0000 </r>
       <r>    -8.0183     0.0000    65.0000 </r>
       <r>    -7.9775     0.0000    67.0000 </r>
       <r>    -7.9367     0.0000    69.0000 </r>
       <r>    -7.8960     0.0000    72.0000 </r>
       <r>    -7.8552     0.0000    74.0000 </r>
       <r>    -7.8145     0.0000    78.0000 </r>
       <r>    -7.7737     0.0000    80.0000 </r>
       <r>    -7.7329     0.0000    83.0000 </r>
       <r>    -7.6922     0.0000    86.0000 </r>
       <r>    -7.6514     0.0000    88.0000 </r>
       <r>    -7.6106     0.0000    91.0000 </r>
       <r>    -7.5699     0.0000    94.0000 </r>
       <r>    -7.5291     0.0000    97.0000 </r>
       <r>    -7.4884     0.0000    99.0000 </r>
       <r>    -7.4476     2.2166   101.0904 </r>
       <r>    -7.4068     0.0000   103.0000 </r>
       <r>    -7.3661     0.0000   106.0000 </r>
       <r>    -7.3253     0.0000   107.0000 </r>
       <r>    -7.2845     0.0000   111.0000 </r>
       <r>    -7.2438     0.0000   114.0000 </r>
       <r>    -7.2030     0.0000   117.0000 </r>
       <r>    -7.1623     0.0000   121.0000 </r>
       <r>    -7.1215     0.0000   123.0000 </r>
       <r>    -7.0807     0.2032   126.0083 </r>
       <r>    -7.0400     0.0000   129.0000 </r>
       <r>    -6.9992     2.7266   131.1111 </r>
       <r>    -6.9585     0.0000   136.0000 </r>
       <r>    -6.9177     0.0000   140.0000 </r>
       <r>    -6.8769     0.0000   144.0000 </r>
       <r>    -6.8362     0.0000   148.0000 </r>
       <r>    -6.7954     0.0000   153.0000 </r>
       <r>    -6.7546     0.0000   157.0000 </r>
       <r>    -6.7139     0.0000   163.0000 </r>
       <r>    -6.6731     0.0000   166.0000 </r>
       <r>    -6.6324     0.0000   169.0000 </r>
       <r>    -6.5916     0.0000   173.0000 </r>
       <r>    -6.5508     0.0000   177.0000 </r>
       <r>    -6.5101     0.0000   181.0000 </r>
       <r>    -6.4693     0.0000   185.0000 </r>
       <r>    -6.4285     0.0000   189.0000 </r>
       <r>    -6.3878     0.0000   194.0000 </r>
       <r>    -6.3470     0.0000   197.0000 </r>
       <r>    -6.3063     0.0000   200.0000 </r>
       <r>    -6.2655     0.0000   203.0000 </r>
       <r>    -6.2247     0.0000   205.0000 </r>
       <r>    -6.1840     0.0000   207.0000 </r>
       <r>    -6.1432     0.0000   209.0000 </r>
       <r>    -6.1024     0.0000   210.0000 </r>
       <r>    -6.0617     0.0000   210.0000 </r>
       <r>    -6.0209     0.0000   210.0000 </r>
       <r>    -5.9802     0.0000   211.0000 </r>
       <r>    -5.9394     0.0000   211.0000 </r>
       <r>    -5.8986     0.0000   211.0000 </r>
       <r>    -5.8579     0.0000   211.0000 </r>
       <r>    -5.8171     0.0000   212.0000 </r>
       <r>    -5.7764     0.0000   212.0000 </r>
       <r>    -5.7356     0.0000   212.0000 </r>
       <r>    -5.6948     0.0000   213.0000 </r>
       <r>    -5.6541     0.0000   213.0000 </r>
       <r>    -5.6133     0.0000   214.0000 </r>
       <r>    -5.5725     0.0000   214.0000 </r>
       <r>    -5.5318     0.0000   214.0000 </r>
       <r>    -5.4910     0.0000   214.0000 </r>
       <r>    -5.4503     0.0000   214.0000 </r>
       <r>    -5.4095     0.0000   214.0000 </r>
       <r>    -5.3687     0.0000   215.0000 </r>
       <r>    -5.3280     0.0000   215.0000 </r>
       <r>    -5.2872     0.0000   215.0000 </r>
       <r>    -5.2464     0.0000   215.0000 </r>
       <r>    -5.2057     0.0000   215.0000 </r>
       <r>    -5.1649     0.0000   215.0000 </r>
       <r>    -5.1242     0.0000   215.0000 </r>
       <r>    -5.0834     0.0000   215.0000 </r>
       <r>    -5.0426     0.0000   215.0000 </r>
       <r>    -5.0019     0.0000   215.0000 </r>
       <r>    -4.9611     0.0000   216.0000 </r>
       <r>    -4.9203     0.0000   216.0000 </r>
       <r>    -4.8796     0.0000   216.0000 </r>
       <r>    -4.8388     0.0000   216.0000 </r>
       <r>    -4.7981     0.0000   216.0000 </r>
       <r>    -4.7573     0.0000   217.0000 </r>
       <r>    -4.7165     0.0000   217.0000 </r>
       <r>    -4.6758     0.0000   217.0000 </r>
       <r>    -4.6350     0.0000   218.0000 </r>
       <r>    -4.5943     0.0000   218.0000 </r>
       <r>    -4.5535    24.5326   219.0000 </r>
       <r>    -4.5127     0.0000   219.0000 </r>
       <r>    -4.4720     0.0000   219.0000 </r>
       <r>    -4.4312     0.0000   219.0000 </r>
       <r>    -4.3904     0.0000   219.0000 </r>
       <r>    -4.3497     0.0000   219.0000 </r>
       <r>    -4.3089     0.0000   219.0000 </r>
       <r>    -4.2682     0.0000   219.0000 </r>
       <r>    -4.2274     0.0000   219.0000 </r>
       <r>    -4.1866     0.0000   220.0000 </r>
       <r>    -4.1459     0.0000   220.0000 </r>
       <r>    -4.1051     0.0000   221.0000 </r>
       <r>    -4.0643     0.0000   222.0000 </r>
       <r>    -4.0236     0.0000   222.0000 </r>
       <r>    -3.9828     0.0000   222.0000 </r>
       <r>    -3.9421     0.0000   222.0000 </r>
       <r>    -3.9013     0.0000   222.0000 </r>
       <r>    -3.8605     0.0000   222.0000 </r>
       <r>    -3.8198     0.0000   222.0000 </r>
       <r>    -3.7790     0.0000   223.0000 </r>
       <r>    -3.7382     0.0000   223.0000 </r>
       <r>    -3.6975     0.0000   224.0000 </r>
       <r>    -3.6567     0.0000   224.0000 </r>
       <r>    -3.6160     0.0000   224.0000 </r>
       <r>    -3.5752     0.0000   224.0000 </r>
       <r>    -3.5344     0.0000   224.0000 </r>
       <r>    -3.4937     0.0000   224.0000 </r>
       <r>    -3.4529     0.0000   224.0000 </r>
       <r>    -3.4122     0.0000   224.0000 </r>
       <r>    -3.3714     0.0000   225.0000 </r>
       <r>    -3.3306     0.0000   225.0000 </r>
       <r>    -3.2899     0.0000   226.0000 </r>
       <r>    -3.2491     0.0000   226.0000 </r>
       <r>    -3.2083     0.0000   226.0000 </r>
       <r>    -3.1676     0.0000   226.0000 </r>
       <r>    -3.1268     0.0000   226.0000 </r>
       <r>    -3.0861     0.0000   226.0000 </r>
       <r>    -3.0453     0.0000   227.0000 </r>
       <r>    -3.0045     0.0000   227.0000 </r>
       <r>    -2.9638     0.0000   228.0000 </r>
       <r>    -2.9230     0.0000   229.0000 </r>
       <r>    -2.8822     0.0000   229.0000 </r>
       <r>    -2.8415     0.0000   229.0000 </r>
       <r>    -2.8007     0.0000   229.0000 </r>
       <r>    -2.7600     0.0000   229.0000 </r>
       <r>    -2.7192     0.0000   230.0000 </r>
       <r>    -2.6784     0.0000   230.0000 </r>
       <r>    -2.6377     0.0000   231.0000 </r>
       <r>    -2.5969     0.0000   231.0000 </r>
       <r>    -2.5561     0.0000   231.0000 </r>
       <r>    -2.5154     0.0000   232.0000 </r>
       <r>    -2.4746     0.0000   232.0000 </r>
       <r>    -2.4339     0.0000   232.0000 </r>
       <r>    -2.3931     0.0000   232.0000 </r>
       <r>    -2.3523     0.0000   233.0000 </r>
       <r>    -2.3116     0.0000   233.0000 </r>
       <r>    -2.2708     0.0000   234.0000 </r>
       <r>    -2.2301     0.0000   234.0000 </r>
       <r>    -2.1893     0.0000   234.0000 </r>
       <r>    -2.1485     0.0000   235.0000 </r>
       <r>    -2.1078     0.0000   236.0000 </r>
       <r>    -2.0670     0.0000   236.0000 </r>
       <r>    -2.0262     0.0000   236.0000 </r>
       <r>    -1.9855     0.0000   237.0000 </r>
       <r>    -1.9447     0.0000   238.0000 </r>
       <r>    -1.9040     0.0000   238.0000 </r>
       <r>    -1.8632     0.0000   238.0000 </r>
       <r>    -1.8224     0.0000   239.0000 </r>
       <r>    -1.7817     0.0000   239.0000 </r>
       <r>    -1.7409     0.0000   240.0000 </r>
       <r>    -1.7001     0.0000   240.0000 </r>
       <r>    -1.6594     0.0000   241.0000 </r>
       <r>    -1.6186     0.0000   241.0000 </r>
       <r>    -1.5779     0.0000   241.0000 </r>
       <r>    -1.5371     0.0000   242.0000 </r>
       <r>    -1.4963     0.0000   242.0000 </r>
       <r>    -1.4556     0.0000   243.0000 </r>
       <r>    -1.4148     0.0000   244.0000 </r>
       <r>    -1.3740     0.0000   244.0000 </r>
       <r>    -1.3333     0.0000   244.0000 </r>
       <r>    -1.2925     0.0000   244.0000 </r>
       <r>    -1.2518     0.0000   244.0000 </r>
       <r>    -1.2110     0.0000   245.0000 </r>
       <r>    -1.1702     0.0000   245.0000 </r>
       <r>    -1.1295     0.0000   246.0000 </r>
       <r>    -1.0887     0.0000   246.0000 </r>
       <r>    -1.0479     0.0000   246.0000 </r>
       <r>    -1.0072     0.0000   246.0000 </r>
       <r>    -0.9664     0.0000   247.0000 </r>
       <r>    -0.9257     0.0000   247.0000 </r>
       <r>    -0.8849     0.0000   248.0000 </r>
       <r>    -0.8441     0.0000   249.0000 </r>
       <r>    -0.8034     0.0000   249.0000 </r>
       <r>    -0.7626     0.0000   249.0000 </r>
       <r>    -0.7219     0.0000   249.0000 </r>
       <r>    -0.6811     0.0000   249.0000 </r>
       <r>    -0.6403     0.0000   249.0000 </r>
       <r>    -0.5996     0.0000   250.0000 </r>
       <r>    -0.5588     0.0000   252.0000 </r>
       <r>    -0.5180     0.0000   253.0000 </r>
       <r>    -0.4773     0.0000   253.0000 </r>
       <r>    -0.4365     0.0000   253.0000 </r>
       <r>    -0.3958     0.0000   253.0000 </r>
       <r>    -0.3550     0.0000   254.0000 </r>
       <r>    -0.3142     0.0000   255.0000 </r>
       <r>    -0.2735     0.0000   255.0000 </r>
       <r>    -0.2327     0.0000   255.0000 </r>
       <r>    -0.1919     0.0000   256.0000 </r>
       <r>    -0.1512     0.0000   256.0000 </r>
       <r>    -0.1104     0.0000   257.0000 </r>
       <r>    -0.0697     0.0000   257.0000 </r>
       <r>    -0.0289     0.0000   258.0000 </r>
       <r>     0.0119     0.0000   258.0000 </r>
       <r>     0.0526     0.0000   259.0000 </r>
       <r>     0.0934     0.0000   260.0000 </r>
       <r>     0.1342     0.0000   261.0000 </r>
       <r>     0.1749     0.0000   261.0000 </r>
       <r>     0.2157     0.0000   262.0000 </r>
       <r>     0.2564     0.0000   263.0000 </r>
       <r>     0.2972     0.0000   263.0000 </r>
       <r>     0.3380     0.0000   263.0000 </r>
       <r>     0.3787     0.0000   264.0000 </r>
       <r>     0.4195     0.0000   264.0000 </r>
       <r>     0.4602     0.0000   264.0000 </r>
       <r>     0.5010     0.0000   265.0000 </r>
       <r>     0.5418     0.0000   265.0000 </r>
       <r>     0.5825     0.0000   266.0000 </r>
       <r>     0.6233    24.5326   267.0000 </r>
       <r>     0.6641     0.0000   268.0000 </r>
       <r>     0.7048     0.0000   269.0000 </r>
       <r>     0.7456     0.0000   269.0000 </r>
       <r>     0.7863     0.0000   270.0000 </r>
       <r>     0.8271     0.0000   271.0000 </r>
       <r>     0.8679     0.0000   273.0000 </r>
       <r>     0.9086     0.0000   273.0000 </r>
       <r>     0.9494     0.0000   275.0000 </r>
       <r>     0.9902     0.0000   276.0000 </r>
       <r>     1.0309     0.0000   278.0000 </r>
       <r>     1.0717     0.0000   281.0000 </r>
       <r>     1.1124     0.0000   282.0000 </r>
       <r>     1.1532     0.0000   284.0000 </r>
       <r>     1.1940     0.0000   286.0000 </r>
       <r>     1.2347     0.0000   288.0000 </r>
       <r>     1.2755     0.0000   288.0000 </r>
       <r>     1.3163     0.0000   290.0000 </r>
       <r>     1.3570     0.0000   292.0000 </r>
       <r>     1.3978     0.0000   292.0000 </r>
       <r>     1.4385     0.0000   292.0000 </r>
       <r>     1.4793     0.0000   292.0000 </r>
       <r>     1.5201     0.0000   292.0000 </r>
       <r>     1.5608     0.0000   292.0000 </r>
       <r>     1.6016     0.0000   292.0000 </r>
       <r>     1.6423     0.0000   292.0000 </r>
       <r>     1.6831     0.0000   292.0000 </r>
       <r>     1.7239     0.0000   292.0000 </r>
       <r>     1.7646     0.0000   292.0000 </r>
       <r>     1.8054     0.0000   292.0000 </r>
       <r>     1.8462     0.0000   292.0000 </r>
       <r>     1.8869     0.0000   292.0000 </r>
      </set>
     </set>
    </array>
   </total>
  </dos>
 </calculation>
 <structure name="finalpos" >
  <crystal>
   <varray name="basis" >
    <v>      23.13042809       0.00000000       0.00000000 </v>
    <v>       0.00000000      23.13042809       0.00000000 </v>
    <v>       0.00000000       0.00000000      23.13042809 </v>
   </varray>
   <i name="volume">  12375.16539019 </i>
   <varray name="rec_basis" >
    <v>       0.04323310       0.00000000       0.00000000 </v>
    <v>       0.00000000       0.04323310       0.00000000 </v>
    <v>       0.00000000       0.00000000       0.04323310 </v>
   </varray>
  </crystal>
  <varray name="positions" >
   <v>       0.73673523       0.58459280       0.51987371 </v>
   <v>       0.64467122       0.58699549       0.60054263 </v>
   <v>       0.55184645       0.62637012       0.67327957 </v>
   <v>       0.69773784       0.47766236       0.55508476 </v>
   <v>       0.46417945       0.56916348       0.74246817 </v>
   <v>       0.56311796       0.50894369       0.65695585 </v>
   <v>       0.45532816       0.45877632       0.69834162 </v>
   <v>       0.61236395       0.41138592       0.60466147 </v>
   <v>       0.51895325       0.36439644       0.66410133 </v>
   <v>       0.63077221       0.61837401       0.47900717 </v>
   <v>       0.67488699       0.50816071       0.43964620 </v>
   <v>       0.53720183       0.63037726       0.55459588 </v>
   <v>       0.45123335       0.68130166       0.62416447 </v>
   <v>       0.37117648       0.63342787       0.69935781 </v>
   <v>       0.58176215       0.50962606       0.52980765 </v>
   <v>       0.63027289       0.39897669       0.48673817 </v>
   <v>       0.45496944       0.56167725       0.62254580 </v>
   <v>       0.35346271       0.51930985       0.67659455 </v>
   <v>       0.48701224       0.44687883       0.58357089 </v>
   <v>       0.53632419       0.33611121       0.54652390 </v>
   <v>       0.54595408       0.32503489       0.42557654 </v>
   <v>       0.50908139       0.43134550       0.46436747 </v>
   <v>       0.59644315       0.42650489       0.37456151 </v>
   <v>       0.42611810       0.65758288       0.50939202 </v>
   <v>       0.46712857       0.54084588       0.49910141 </v>
   <v>       0.55726617       0.53719114       0.41149991 </v>
   <v>       0.52229938       0.65400134       0.43598304 </v>
   <v>       0.65489163       0.51472372       0.31935053 </v>
   <v>       0.61880634       0.62441821       0.35792572 </v>
   <v>       0.46418975       0.25881222       0.49222036 </v>
   <v>       0.34637465       0.60231676       0.58380114 </v>
   <v>       0.41399319       0.36712246       0.53082188 </v>
   <v>       0.37209589       0.48377576       0.55902659 </v>
   <v>       0.47434938       0.42424974       0.34934294 </v>
   <v>       0.40789090       0.65367685       0.39108396 </v>
   <v>       0.42355634       0.33838543       0.41386064 </v>
   <v>       0.35464053       0.56751997       0.46393113 </v>
   <v>       0.43452295       0.53795055       0.36921356 </v>
   <v>       0.53805255       0.51160761       0.29617649 </v>
   <v>       0.50166744       0.62508164       0.32072428 </v>
   <v>       0.38906668       0.45164196       0.44219765 </v>
  </varray>
 </structure>
</modeling>
