  22  22   0   0
  0.4452028E+03  0.2139572E-08  0.2139572E-08  0.2139572E-08  0.1000000E-15
  1.000000000000000E-004
  CAR 
 unknown system                          
      1.30309391     -9.95108059  301     -3.60185048      1.00000000
     -9.951  0.0000E+00  0.0000E+00  0.0000E+00  0.0000E+00
     -9.914  0.0000E+00  0.0000E+00  0.0000E+00  0.0000E+00
     -9.876  0.0000E+00  0.0000E+00  0.0000E+00  0.0000E+00
     -9.839  0.0000E+00  0.0000E+00  0.0000E+00  0.0000E+00
     -9.801  0.0000E+00  0.0000E+00  0.0000E+00  0.0000E+00
     -9.764  0.0000E+00  0.0000E+00  0.0000E+00  0.0000E+00
     -9.726  0.0000E+00  0.0000E+00  0.0000E+00  0.0000E+00
     -9.688  0.0000E+00  0.0000E+00  0.0000E+00  0.0000E+00
     -9.651  0.0000E+00  0.0000E+00  0.0000E+00  0.0000E+00
     -9.613  0.0000E+00  0.0000E+00  0.0000E+00  0.0000E+00
     -9.576  0.0000E+00  0.0000E+00  0.0000E+00  0.0000E+00
     -9.538  0.0000E+00  0.0000E+00  0.0000E+00  0.0000E+00
     -9.501  0.0000E+00  0.0000E+00  0.0000E+00  0.0000E+00
     -9.463  0.0000E+00  0.0000E+00  0.0000E+00  0.0000E+00
     -9.426  0.0000E+00  0.0000E+00  0.1000E-02  0.1000E-02
     -9.388  0.0000E+00  0.0000E+00  0.1000E-02  0.1000E-02
     -9.351  0.0000E+00  0.0000E+00  0.1000E-02  0.1000E-02
     -9.313  0.0000E+00  0.0000E+00  0.1000E-02  0.1000E-02
     -9.276  0.0000E+00  0.0000E+00  0.1000E-02  0.1000E-02
     -9.238  0.0000E+00  0.0000E+00  0.1000E-02  0.1000E-02
     -9.201  0.0000E+00  0.0000E+00  0.1000E-02  0.1000E-02
     -9.163  0.0000E+00  0.0000E+00  0.2000E-02  0.2000E-02
     -9.126  0.0000E+00  0.0000E+00  0.2000E-02  0.2000E-02
     -9.088  0.0000E+00  0.0000E+00  0.3000E-02  0.3000E-02
     -9.051  0.0000E+00  0.0000E+00  0.4000E-02  0.4000E-02
     -9.013  0.0000E+00  0.0000E+00  0.5000E-02  0.5000E-02
     -8.976  0.0000E+00  0.0000E+00  0.5000E-02  0.5000E-02
     -8.938  0.0000E+00  0.0000E+00  0.6000E-02  0.6000E-02
     -8.901  0.0000E+00  0.0000E+00  0.7000E-02  0.7000E-02
     -8.863  0.0000E+00  0.0000E+00  0.9000E-02  0.9000E-02
     -8.826  0.0000E+00  0.0000E+00  0.1000E-01  0.1000E-01
     -8.788  0.0000E+00  0.0000E+00  0.1100E-01  0.1100E-01
     -8.751  0.0000E+00  0.0000E+00  0.1200E-01  0.1200E-01
     -8.713  0.0000E+00  0.0000E+00  0.1200E-01  0.1200E-01
     -8.676  0.0000E+00  0.0000E+00  0.1300E-01  0.1300E-01
     -8.638  0.0000E+00  0.0000E+00  0.1400E-01  0.1400E-01
     -8.601  0.0000E+00  0.0000E+00  0.1500E-01  0.1500E-01
     -8.563  0.0000E+00  0.0000E+00  0.1500E-01  0.1500E-01
     -8.526  0.0000E+00  0.0000E+00  0.1600E-01  0.1600E-01
     -8.488  0.0000E+00  0.0000E+00  0.1600E-01  0.1600E-01
     -8.451  0.0000E+00  0.0000E+00  0.1800E-01  0.1800E-01
     -8.413  0.0000E+00  0.0000E+00  0.2000E-01  0.2000E-01
     -8.375  0.0000E+00  0.0000E+00  0.2100E-01  0.2100E-01
     -8.338  0.0000E+00  0.0000E+00  0.2200E-01  0.2200E-01
     -8.300  0.0000E+00  0.0000E+00  0.2300E-01  0.2300E-01
     -8.263  0.0000E+00  0.0000E+00  0.2400E-01  0.2400E-01
     -8.225  0.0000E+00  0.0000E+00  0.2600E-01  0.2600E-01
     -8.188  0.0000E+00  0.0000E+00  0.2700E-01  0.2700E-01
     -8.150  0.0000E+00  0.0000E+00  0.2800E-01  0.2800E-01
     -8.113  0.0000E+00  0.0000E+00  0.2900E-01  0.2900E-01
     -8.075  0.0000E+00  0.0000E+00  0.3100E-01  0.3100E-01
     -8.038  0.0000E+00  0.0000E+00  0.3200E-01  0.3200E-01
     -8.000  0.0000E+00  0.0000E+00  0.3300E-01  0.3300E-01
     -7.963  0.0000E+00  0.0000E+00  0.3400E-01  0.3400E-01
     -7.925  0.0000E+00  0.0000E+00  0.3600E-01  0.3600E-01
     -7.888  0.0000E+00  0.0000E+00  0.3800E-01  0.3800E-01
     -7.850  0.0000E+00  0.0000E+00  0.3900E-01  0.3900E-01
     -7.813  0.0000E+00  0.0000E+00  0.4100E-01  0.4100E-01
     -7.775  0.0000E+00  0.0000E+00  0.4200E-01  0.4200E-01
     -7.738  0.0000E+00  0.0000E+00  0.4200E-01  0.4200E-01
     -7.700  0.0000E+00  0.0000E+00  0.4400E-01  0.4400E-01
     -7.663  0.0000E+00  0.0000E+00  0.4600E-01  0.4600E-01
     -7.625  0.0000E+00  0.0000E+00  0.4800E-01  0.4800E-01
     -7.588  0.0000E+00  0.0000E+00  0.4900E-01  0.4900E-01
     -7.550  0.0000E+00  0.0000E+00  0.5000E-01  0.5000E-01
     -7.513  0.0000E+00  0.0000E+00  0.5100E-01  0.5100E-01
     -7.475  0.0000E+00  0.0000E+00  0.5200E-01  0.5200E-01
     -7.438  0.0000E+00  0.0000E+00  0.5300E-01  0.5300E-01
     -7.400  0.0000E+00  0.0000E+00  0.5600E-01  0.5600E-01
     -7.363  0.0000E+00  0.0000E+00  0.5800E-01  0.5800E-01
     -7.325  0.0000E+00  0.0000E+00  0.6000E-01  0.6000E-01
     -7.288  0.3531E-14  0.1480E-17  0.6100E-01  0.6100E-01
     -7.250  0.0000E+00  0.0000E+00  0.6200E-01  0.6200E-01
     -7.213  0.0000E+00  0.0000E+00  0.6400E-01  0.6400E-01
     -7.175  0.0000E+00  0.0000E+00  0.6600E-01  0.6600E-01
     -7.138  0.0000E+00  0.0000E+00  0.6800E-01  0.6800E-01
     -7.100  0.0000E+00  0.0000E+00  0.7000E-01  0.7000E-01
     -7.063  0.3351E-02  0.1472E-05  0.7113E-01  0.7100E-01
     -7.025  0.0000E+00  0.0000E+00  0.7400E-01  0.7400E-01
     -6.987  0.0000E+00  0.0000E+00  0.7700E-01  0.7700E-01
     -6.950  0.0000E+00  0.0000E+00  0.7800E-01  0.7800E-01
     -6.912  0.0000E+00  0.0000E+00  0.8100E-01  0.8100E-01
     -6.875  0.0000E+00  0.0000E+00  0.8400E-01  0.8400E-01
     -6.837  0.0000E+00  0.0000E+00  0.8500E-01  0.8500E-01
     -6.800  0.0000E+00  0.0000E+00  0.8800E-01  0.8800E-01
     -6.762  0.0000E+00  0.0000E+00  0.8800E-01  0.8800E-01
     -6.725  0.0000E+00  0.0000E+00  0.9000E-01  0.9000E-01
     -6.687  0.0000E+00  0.0000E+00  0.9300E-01  0.9300E-01
     -6.650  0.0000E+00  0.0000E+00  0.9500E-01  0.9500E-01
     -6.612  0.0000E+00  0.0000E+00  0.9700E-01  0.9700E-01
     -6.575  0.0000E+00  0.0000E+00  0.9900E-01  0.9900E-01
     -6.537  0.0000E+00  0.0000E+00  0.1010E+00  0.1010E+00
     -6.500  0.0000E+00  0.0000E+00  0.1020E+00  0.1020E+00
     -6.462  0.0000E+00  0.0000E+00  0.1050E+00  0.1050E+00
     -6.425  0.0000E+00  0.0000E+00  0.1060E+00  0.1060E+00
     -6.387  0.0000E+00  0.0000E+00  0.1080E+00  0.1080E+00
     -6.350  0.2596E-01  0.2646E-01  0.1100E+00  0.1100E+00
     -6.312  0.0000E+00  0.0000E+00  0.1120E+00  0.1120E+00
     -6.275  0.0000E+00  0.0000E+00  0.1120E+00  0.1120E+00
     -6.237  0.0000E+00  0.0000E+00  0.1130E+00  0.1130E+00
     -6.200  0.0000E+00  0.0000E+00  0.1130E+00  0.1130E+00
     -6.162  0.0000E+00  0.0000E+00  0.1130E+00  0.1130E+00
     -6.125  0.0000E+00  0.0000E+00  0.1140E+00  0.1140E+00
     -6.087  0.0000E+00  0.0000E+00  0.1140E+00  0.1140E+00
     -6.050  0.0000E+00  0.0000E+00  0.1140E+00  0.1140E+00
     -6.012  0.0000E+00  0.0000E+00  0.1140E+00  0.1140E+00
     -5.975  0.0000E+00  0.0000E+00  0.1140E+00  0.1140E+00
     -5.937  0.0000E+00  0.0000E+00  0.1140E+00  0.1140E+00
     -5.900  0.0000E+00  0.0000E+00  0.1140E+00  0.1140E+00
     -5.862  0.0000E+00  0.0000E+00  0.1140E+00  0.1140E+00
     -5.825  0.0000E+00  0.0000E+00  0.1140E+00  0.1140E+00
     -5.787  0.0000E+00  0.0000E+00  0.1140E+00  0.1140E+00
     -5.750  0.0000E+00  0.0000E+00  0.1140E+00  0.1140E+00
     -5.712  0.0000E+00  0.0000E+00  0.1140E+00  0.1140E+00
     -5.674  0.0000E+00  0.0000E+00  0.1140E+00  0.1140E+00
     -5.637  0.0000E+00  0.0000E+00  0.1140E+00  0.1140E+00
     -5.599  0.0000E+00  0.0000E+00  0.1140E+00  0.1140E+00
     -5.562  0.0000E+00  0.0000E+00  0.1140E+00  0.1140E+00
     -5.524  0.0000E+00  0.0000E+00  0.1140E+00  0.1140E+00
     -5.487  0.0000E+00  0.0000E+00  0.1140E+00  0.1140E+00
     -5.449  0.0000E+00  0.0000E+00  0.1140E+00  0.1140E+00
     -5.412  0.0000E+00  0.0000E+00  0.1140E+00  0.1140E+00
     -5.374  0.0000E+00  0.0000E+00  0.1140E+00  0.1140E+00
     -5.337  0.0000E+00  0.0000E+00  0.1150E+00  0.1150E+00
     -5.299  0.0000E+00  0.0000E+00  0.1150E+00  0.1150E+00
     -5.262  0.0000E+00  0.0000E+00  0.1160E+00  0.1160E+00
     -5.224  0.0000E+00  0.0000E+00  0.1160E+00  0.1160E+00
     -5.187  0.0000E+00  0.0000E+00  0.1160E+00  0.1160E+00
     -5.149  0.0000E+00  0.0000E+00  0.1160E+00  0.1160E+00
     -5.112  0.0000E+00  0.0000E+00  0.1160E+00  0.1160E+00
     -5.074  0.0000E+00  0.0000E+00  0.1160E+00  0.1160E+00
     -5.037  0.0000E+00  0.0000E+00  0.1160E+00  0.1160E+00
     -4.999  0.0000E+00  0.0000E+00  0.1160E+00  0.1160E+00
     -4.962  0.0000E+00  0.0000E+00  0.1160E+00  0.1160E+00
     -4.924  0.0000E+00  0.0000E+00  0.1160E+00  0.1160E+00
     -4.887  0.0000E+00  0.0000E+00  0.1160E+00  0.1160E+00
     -4.849  0.0000E+00  0.0000E+00  0.1160E+00  0.1160E+00
     -4.812  0.0000E+00  0.0000E+00  0.1160E+00  0.1160E+00
     -4.774  0.0000E+00  0.0000E+00  0.1160E+00  0.1160E+00
     -4.737  0.0000E+00  0.0000E+00  0.1160E+00  0.1160E+00
     -4.699  0.0000E+00  0.0000E+00  0.1170E+00  0.1170E+00
     -4.662  0.0000E+00  0.0000E+00  0.1180E+00  0.1180E+00
     -4.624  0.0000E+00  0.0000E+00  0.1180E+00  0.1180E+00
     -4.587  0.0000E+00  0.0000E+00  0.1180E+00  0.1180E+00
     -4.549  0.0000E+00  0.0000E+00  0.1180E+00  0.1180E+00
     -4.512  0.0000E+00  0.0000E+00  0.1180E+00  0.1180E+00
     -4.474  0.0000E+00  0.0000E+00  0.1180E+00  0.1180E+00
     -4.437  0.0000E+00  0.0000E+00  0.1180E+00  0.1180E+00
     -4.399  0.0000E+00  0.0000E+00  0.1180E+00  0.1180E+00
     -4.362  0.0000E+00  0.0000E+00  0.1180E+00  0.1180E+00
     -4.324  0.0000E+00  0.0000E+00  0.1180E+00  0.1180E+00
     -4.286  0.0000E+00  0.0000E+00  0.1180E+00  0.1180E+00
     -4.249  0.0000E+00  0.0000E+00  0.1180E+00  0.1180E+00
     -4.211  0.0000E+00  0.0000E+00  0.1190E+00  0.1190E+00
     -4.174  0.0000E+00  0.0000E+00  0.1190E+00  0.1190E+00
     -4.136  0.0000E+00  0.0000E+00  0.1190E+00  0.1190E+00
     -4.099  0.0000E+00  0.0000E+00  0.1200E+00  0.1200E+00
     -4.061  0.0000E+00  0.0000E+00  0.1200E+00  0.1200E+00
     -4.024  0.0000E+00  0.0000E+00  0.1200E+00  0.1200E+00
     -3.986  0.0000E+00  0.0000E+00  0.1200E+00  0.1200E+00
     -3.949  0.0000E+00  0.0000E+00  0.1200E+00  0.1200E+00
     -3.911  0.0000E+00  0.0000E+00  0.1200E+00  0.1200E+00
     -3.874  0.0000E+00  0.0000E+00  0.1200E+00  0.1200E+00
     -3.836  0.0000E+00  0.0000E+00  0.1200E+00  0.1200E+00
     -3.799  0.0000E+00  0.0000E+00  0.1200E+00  0.1200E+00
     -3.761  0.0000E+00  0.0000E+00  0.1200E+00  0.1200E+00
     -3.724  0.0000E+00  0.0000E+00  0.1200E+00  0.1200E+00
     -3.686  0.0000E+00  0.0000E+00  0.1200E+00  0.1200E+00
     -3.649  0.0000E+00  0.0000E+00  0.1200E+00  0.1200E+00
     -3.611  0.0000E+00  0.0000E+00  0.1210E+00  0.1210E+00
     -3.574  0.0000E+00  0.0000E+00  0.1210E+00  0.1210E+00
     -3.536  0.0000E+00  0.0000E+00  0.1210E+00  0.1210E+00
     -3.499  0.0000E+00  0.0000E+00  0.1210E+00  0.1210E+00
     -3.461  0.0000E+00  0.0000E+00  0.1220E+00  0.1220E+00
     -3.424  0.0000E+00  0.0000E+00  0.1220E+00  0.1220E+00
     -3.386  0.0000E+00  0.0000E+00  0.1220E+00  0.1220E+00
     -3.349  0.0000E+00  0.0000E+00  0.1220E+00  0.1220E+00
     -3.311  0.0000E+00  0.0000E+00  0.1220E+00  0.1220E+00
     -3.274  0.0000E+00  0.0000E+00  0.1220E+00  0.1220E+00
     -3.236  0.0000E+00  0.0000E+00  0.1220E+00  0.1220E+00
     -3.199  0.0000E+00  0.0000E+00  0.1220E+00  0.1220E+00
     -3.161  0.0000E+00  0.0000E+00  0.1220E+00  0.1220E+00
     -3.124  0.0000E+00  0.0000E+00  0.1220E+00  0.1220E+00
     -3.086  0.0000E+00  0.0000E+00  0.1220E+00  0.1220E+00
     -3.049  0.0000E+00  0.0000E+00  0.1220E+00  0.1220E+00
     -3.011  0.0000E+00  0.0000E+00  0.1220E+00  0.1220E+00
     -2.973  0.0000E+00  0.0000E+00  0.1220E+00  0.1220E+00
     -2.936  0.0000E+00  0.0000E+00  0.1220E+00  0.1220E+00
     -2.898  0.0000E+00  0.0000E+00  0.1220E+00  0.1220E+00
     -2.861  0.0000E+00  0.0000E+00  0.1220E+00  0.1220E+00
     -2.823  0.0000E+00  0.0000E+00  0.1230E+00  0.1230E+00
     -2.786  0.0000E+00  0.0000E+00  0.1230E+00  0.1230E+00
     -2.748  0.0000E+00  0.0000E+00  0.1230E+00  0.1230E+00
     -2.711  0.0000E+00  0.0000E+00  0.1240E+00  0.1240E+00
     -2.673  0.0000E+00  0.0000E+00  0.1240E+00  0.1240E+00
     -2.636  0.0000E+00  0.0000E+00  0.1240E+00  0.1240E+00
     -2.598  0.0000E+00  0.0000E+00  0.1240E+00  0.1240E+00
     -2.561  0.0000E+00  0.0000E+00  0.1240E+00  0.1240E+00
     -2.523  0.0000E+00  0.0000E+00  0.1250E+00  0.1250E+00
     -2.486  0.0000E+00  0.0000E+00  0.1250E+00  0.1250E+00
     -2.448  0.0000E+00  0.0000E+00  0.1250E+00  0.1250E+00
     -2.411  0.0000E+00  0.0000E+00  0.1260E+00  0.1260E+00
     -2.373  0.0000E+00  0.0000E+00  0.1260E+00  0.1260E+00
     -2.336  0.0000E+00  0.0000E+00  0.1270E+00  0.1270E+00
     -2.298  0.0000E+00  0.0000E+00  0.1280E+00  0.1280E+00
     -2.261  0.0000E+00  0.0000E+00  0.1280E+00  0.1280E+00
     -2.223  0.0000E+00  0.0000E+00  0.1280E+00  0.1280E+00
     -2.186  0.0000E+00  0.0000E+00  0.1280E+00  0.1280E+00
     -2.148  0.0000E+00  0.0000E+00  0.1280E+00  0.1280E+00
     -2.111  0.0000E+00  0.0000E+00  0.1280E+00  0.1280E+00
     -2.073  0.0000E+00  0.0000E+00  0.1290E+00  0.1290E+00
     -2.036  0.0000E+00  0.0000E+00  0.1290E+00  0.1290E+00
     -1.998  0.0000E+00  0.0000E+00  0.1290E+00  0.1290E+00
     -1.961  0.0000E+00  0.0000E+00  0.1290E+00  0.1290E+00
     -1.923  0.0000E+00  0.0000E+00  0.1300E+00  0.1300E+00
     -1.886  0.0000E+00  0.0000E+00  0.1300E+00  0.1300E+00
     -1.848  0.0000E+00  0.0000E+00  0.1300E+00  0.1300E+00
     -1.811  0.0000E+00  0.0000E+00  0.1300E+00  0.1300E+00
     -1.773  0.0000E+00  0.0000E+00  0.1300E+00  0.1300E+00
     -1.736  0.0000E+00  0.0000E+00  0.1300E+00  0.1300E+00
     -1.698  0.0000E+00  0.0000E+00  0.1310E+00  0.1310E+00
     -1.661  0.0000E+00  0.0000E+00  0.1320E+00  0.1320E+00
     -1.623  0.0000E+00  0.0000E+00  0.1320E+00  0.1320E+00
     -1.585  0.0000E+00  0.0000E+00  0.1320E+00  0.1320E+00
     -1.548  0.0000E+00  0.0000E+00  0.1320E+00  0.1320E+00
     -1.510  0.0000E+00  0.0000E+00  0.1320E+00  0.1320E+00
     -1.473  0.0000E+00  0.0000E+00  0.1320E+00  0.1320E+00
     -1.435  0.0000E+00  0.0000E+00  0.1320E+00  0.1320E+00
     -1.398  0.0000E+00  0.0000E+00  0.1320E+00  0.1320E+00
     -1.360  0.0000E+00  0.0000E+00  0.1320E+00  0.1320E+00
     -1.323  0.0000E+00  0.0000E+00  0.1320E+00  0.1320E+00
     -1.285  0.0000E+00  0.0000E+00  0.1320E+00  0.1320E+00
     -1.248  0.0000E+00  0.0000E+00  0.1320E+00  0.1320E+00
     -1.210  0.0000E+00  0.0000E+00  0.1320E+00  0.1320E+00
     -1.173  0.0000E+00  0.0000E+00  0.1320E+00  0.1320E+00
     -1.135  0.0000E+00  0.0000E+00  0.1320E+00  0.1320E+00
     -1.098  0.0000E+00  0.0000E+00  0.1320E+00  0.1320E+00
     -1.060  0.0000E+00  0.0000E+00  0.1320E+00  0.1320E+00
     -1.023  0.0000E+00  0.0000E+00  0.1340E+00  0.1340E+00
     -0.985  0.0000E+00  0.0000E+00  0.1340E+00  0.1340E+00
     -0.948  0.0000E+00  0.0000E+00  0.1350E+00  0.1350E+00
     -0.910  0.0000E+00  0.0000E+00  0.1350E+00  0.1350E+00
     -0.873  0.0000E+00  0.0000E+00  0.1350E+00  0.1350E+00
     -0.835  0.0000E+00  0.0000E+00  0.1350E+00  0.1350E+00
     -0.798  0.0000E+00  0.0000E+00  0.1360E+00  0.1360E+00
     -0.760  0.0000E+00  0.0000E+00  0.1360E+00  0.1360E+00
     -0.723  0.0000E+00  0.0000E+00  0.1360E+00  0.1360E+00
     -0.685  0.0000E+00  0.0000E+00  0.1370E+00  0.1370E+00
     -0.648  0.0000E+00  0.0000E+00  0.1370E+00  0.1370E+00
     -0.610  0.0000E+00  0.0000E+00  0.1370E+00  0.1370E+00
     -0.573  0.0000E+00  0.0000E+00  0.1380E+00  0.1380E+00
     -0.535  0.0000E+00  0.0000E+00  0.1380E+00  0.1380E+00
     -0.498  0.0000E+00  0.0000E+00  0.1380E+00  0.1380E+00
     -0.460  0.0000E+00  0.0000E+00  0.1390E+00  0.1390E+00
     -0.423  0.0000E+00  0.0000E+00  0.1400E+00  0.1400E+00
     -0.385  0.0000E+00  0.0000E+00  0.1400E+00  0.1400E+00
     -0.348  0.0000E+00  0.0000E+00  0.1410E+00  0.1410E+00
     -0.310  0.0000E+00  0.0000E+00  0.1420E+00  0.1420E+00
     -0.272  0.0000E+00  0.0000E+00  0.1420E+00  0.1420E+00
     -0.235  0.0000E+00  0.0000E+00  0.1430E+00  0.1430E+00
     -0.197  0.0000E+00  0.0000E+00  0.1430E+00  0.1430E+00
     -0.160  0.0000E+00  0.0000E+00  0.1430E+00  0.1430E+00
     -0.122  0.0000E+00  0.0000E+00  0.1430E+00  0.1430E+00
     -0.085  0.0000E+00  0.0000E+00  0.1430E+00  0.1430E+00
     -0.047  0.0000E+00  0.0000E+00  0.1440E+00  0.1440E+00
     -0.010  0.0000E+00  0.0000E+00  0.1450E+00  0.1450E+00
      0.028  0.0000E+00  0.0000E+00  0.1450E+00  0.1450E+00
      0.065  0.0000E+00  0.0000E+00  0.1450E+00  0.1450E+00
      0.103  0.0000E+00  0.0000E+00  0.1450E+00  0.1450E+00
      0.140  0.0000E+00  0.0000E+00  0.1450E+00  0.1450E+00
      0.178  0.0000E+00  0.0000E+00  0.1450E+00  0.1450E+00
      0.215  0.0000E+00  0.0000E+00  0.1460E+00  0.1460E+00
      0.253  0.0000E+00  0.0000E+00  0.1460E+00  0.1460E+00
      0.290  0.0000E+00  0.0000E+00  0.1470E+00  0.1470E+00
      0.328  0.0000E+00  0.0000E+00  0.1470E+00  0.1470E+00
      0.365  0.0000E+00  0.0000E+00  0.1470E+00  0.1470E+00
      0.403  0.0000E+00  0.0000E+00  0.1470E+00  0.1470E+00
      0.440  0.0000E+00  0.0000E+00  0.1480E+00  0.1480E+00
      0.478  0.0000E+00  0.0000E+00  0.1480E+00  0.1480E+00
      0.515  0.0000E+00  0.2666E-01  0.1490E+00  0.1490E+00
      0.553  0.0000E+00  0.0000E+00  0.1490E+00  0.1490E+00
      0.590  0.0000E+00  0.0000E+00  0.1500E+00  0.1500E+00
      0.628  0.0000E+00  0.0000E+00  0.1520E+00  0.1520E+00
      0.665  0.0000E+00  0.0000E+00  0.1520E+00  0.1520E+00
      0.703  0.0000E+00  0.0000E+00  0.1530E+00  0.1530E+00
      0.740  0.0000E+00  0.0000E+00  0.1540E+00  0.1540E+00
      0.778  0.0000E+00  0.0000E+00  0.1550E+00  0.1550E+00
      0.815  0.0000E+00  0.0000E+00  0.1560E+00  0.1560E+00
      0.853  0.0000E+00  0.0000E+00  0.1560E+00  0.1560E+00
      0.890  0.0000E+00  0.0000E+00  0.1560E+00  0.1560E+00
      0.928  0.0000E+00  0.0000E+00  0.1560E+00  0.1560E+00
      0.965  0.0000E+00  0.0000E+00  0.1560E+00  0.1560E+00
      1.003  0.0000E+00  0.0000E+00  0.1560E+00  0.1560E+00
      1.040  0.0000E+00  0.0000E+00  0.1560E+00  0.1560E+00
      1.078  0.0000E+00  0.0000E+00  0.1560E+00  0.1560E+00
      1.116  0.0000E+00  0.0000E+00  0.1560E+00  0.1560E+00
      1.153  0.0000E+00  0.0000E+00  0.1560E+00  0.1560E+00
      1.191  0.0000E+00  0.0000E+00  0.1560E+00  0.1560E+00
      1.228  0.0000E+00  0.0000E+00  0.1560E+00  0.1560E+00
      1.266  0.0000E+00  0.0000E+00  0.1560E+00  0.1560E+00
      1.303  0.0000E+00  0.0000E+00  0.1560E+00  0.1560E+00
