34
Energy = -71.12307875 eV
Ag 9.317163493969668 11.428384165325088 11.310265955912802
Ag 11.072854525644921 9.365665368042686 12.143840111004755
Ag 8.464335404342496 13.789500645140105 13.198458992935253
Ag 12.195350247791344 16.276380809043346 12.40453341819019
Ag 15.413063294526689 7.233168038848667 15.188919508369247
Ag 10.40009272116439 13.897361835773173 15.444238064337153
Ag 13.585190832087948 10.283263481653108 8.906648101542455
Ag 8.106847316047105 13.724388180822093 10.377888607531967
Ag 12.414293852861379 11.652794883190827 11.067782022846652
Ag 17.22259122891251 10.873889230276465 11.937364960868365
Ag 10.870605399604123 13.807640995301112 11.921912121739068
Ag 9.193517665385132 15.533488317220181 8.549328670683904
Ag 11.721931604449397 15.355957498630358 9.739208288124455
Ag 12.016415279576442 11.57731707867275 16.089959455429618
Ag 10.737665195589791 9.961430920846333 9.34170631222481
Ag 13.791843854647915 9.298852702616802 15.926329329479998
Ag 9.42245320923879 16.122854976212615 11.253611753162813
Ag 8.194764830966927 11.2644697546086 8.811376404088989
Ag 11.209046580202639 9.131001121652387 14.881601897210372
Ag 10.469334992696995 11.678300161928963 13.759029131333493
Ag 13.160134131172061 13.134703376806906 8.785773287101382
Ag 15.32829672225118 12.556058206781183 13.075398539319837
Ag 10.421450270558276 12.918626656106628 8.992357705688987
Ag 14.734586536419858 15.411512868505708 13.704739865730135
Ag 15.805126161158348 9.715461135216863 14.003088197579176
Ag 15.318547986811597 12.102986255435802 10.254838878852215
Ag 9.846218192852293 16.149900965697093 13.98356018323277
Ag 12.410887598138324 16.080054241839438 15.1610504667339
Ag 13.441421754185697 7.985467119666859 13.242250409994892
Ag 12.832019827417957 13.502231637299415 14.074197337346321
Ag 13.795288694718883 14.211658945915497 11.34785634010458
Ag 13.189458683730196 10.791080989406815 13.628487591627998
Ag 12.712079741551324 8.08285520166649 10.401183368968265
Ag 14.790755144076632 9.632566109502386 11.367625932465511
