  42  42   0   0
  0.2490958E+03  0.2187116E-08  0.2187116E-08  0.2187116E-08  0.1000000E-15
  1.000000000000000E-004
  CAR 
 unknown system                          
      2.12242050    -10.20016321  301     -3.24817224      1.00000000
    -10.200  0.0000E+00  0.0000E+00  0.0000E+00  0.0000E+00
    -10.159  0.0000E+00  0.0000E+00  0.0000E+00  0.0000E+00
    -10.118  0.0000E+00  0.0000E+00  0.0000E+00  0.0000E+00
    -10.077  0.0000E+00  0.0000E+00  0.0000E+00  0.0000E+00
    -10.036  0.0000E+00  0.0000E+00  0.0000E+00  0.0000E+00
     -9.995  0.0000E+00  0.0000E+00  0.0000E+00  0.0000E+00
     -9.954  0.0000E+00  0.0000E+00  0.0000E+00  0.0000E+00
     -9.913  0.0000E+00  0.0000E+00  0.0000E+00  0.0000E+00
     -9.872  0.0000E+00  0.0000E+00  0.0000E+00  0.0000E+00
     -9.830  0.0000E+00  0.0000E+00  0.0000E+00  0.0000E+00
     -9.789  0.0000E+00  0.0000E+00  0.0000E+00  0.0000E+00
     -9.748  0.0000E+00  0.0000E+00  0.0000E+00  0.0000E+00
     -9.707  0.0000E+00  0.0000E+00  0.0000E+00  0.0000E+00
     -9.666  0.0000E+00  0.0000E+00  0.0000E+00  0.0000E+00
     -9.625  0.0000E+00  0.0000E+00  0.1000E-02  0.1000E-02
     -9.584  0.0000E+00  0.0000E+00  0.1000E-02  0.1000E-02
     -9.543  0.0000E+00  0.0000E+00  0.1000E-02  0.1000E-02
     -9.502  0.0000E+00  0.0000E+00  0.1000E-02  0.1000E-02
     -9.461  0.0000E+00  0.0000E+00  0.1000E-02  0.1000E-02
     -9.420  0.0000E+00  0.0000E+00  0.1000E-02  0.1000E-02
     -9.379  0.0000E+00  0.0000E+00  0.1000E-02  0.1000E-02
     -9.338  0.0000E+00  0.0000E+00  0.1000E-02  0.1000E-02
     -9.297  0.0000E+00  0.0000E+00  0.1000E-02  0.1000E-02
     -9.255  0.0000E+00  0.0000E+00  0.1000E-02  0.1000E-02
     -9.214  0.0000E+00  0.0000E+00  0.1000E-02  0.1000E-02
     -9.173  0.0000E+00  0.0000E+00  0.1000E-02  0.1000E-02
     -9.132  0.0000E+00  0.0000E+00  0.2000E-02  0.2000E-02
     -9.091  0.0000E+00  0.0000E+00  0.3000E-02  0.3000E-02
     -9.050  0.0000E+00  0.0000E+00  0.3000E-02  0.3000E-02
     -9.009  0.0000E+00  0.0000E+00  0.3000E-02  0.3000E-02
     -8.968  0.0000E+00  0.0000E+00  0.4000E-02  0.4000E-02
     -8.927  0.0000E+00  0.0000E+00  0.6000E-02  0.6000E-02
     -8.886  0.0000E+00  0.0000E+00  0.7000E-02  0.7000E-02
     -8.845  0.0000E+00  0.0000E+00  0.8000E-02  0.8000E-02
     -8.804  0.0000E+00  0.0000E+00  0.1100E-01  0.1100E-01
     -8.763  0.0000E+00  0.0000E+00  0.1200E-01  0.1200E-01
     -8.721  0.0000E+00  0.0000E+00  0.1300E-01  0.1300E-01
     -8.680  0.0000E+00  0.0000E+00  0.1400E-01  0.1400E-01
     -8.639  0.0000E+00  0.0000E+00  0.1700E-01  0.1700E-01
     -8.598  0.0000E+00  0.0000E+00  0.1900E-01  0.1900E-01
     -8.557  0.0000E+00  0.0000E+00  0.2000E-01  0.2000E-01
     -8.516  0.0000E+00  0.0000E+00  0.2300E-01  0.2300E-01
     -8.475  0.0000E+00  0.0000E+00  0.2600E-01  0.2600E-01
     -8.434  0.0000E+00  0.0000E+00  0.2900E-01  0.2900E-01
     -8.393  0.0000E+00  0.0000E+00  0.3200E-01  0.3200E-01
     -8.352  0.0000E+00  0.0000E+00  0.3400E-01  0.3400E-01
     -8.311  0.2298E-01  0.2298E-01  0.3694E-01  0.3694E-01
     -8.270  0.0000E+00  0.0000E+00  0.3900E-01  0.3900E-01
     -8.229  0.0000E+00  0.0000E+00  0.4200E-01  0.4200E-01
     -8.187  0.0000E+00  0.0000E+00  0.4400E-01  0.4400E-01
     -8.146  0.0000E+00  0.0000E+00  0.4600E-01  0.4600E-01
     -8.105  0.0000E+00  0.0000E+00  0.5000E-01  0.5000E-01
     -8.064  0.0000E+00  0.0000E+00  0.5300E-01  0.5300E-01
     -8.023  0.0000E+00  0.0000E+00  0.5500E-01  0.5500E-01
     -7.982  0.0000E+00  0.0000E+00  0.5700E-01  0.5700E-01
     -7.941  0.0000E+00  0.0000E+00  0.5900E-01  0.5900E-01
     -7.900  0.0000E+00  0.0000E+00  0.6200E-01  0.6200E-01
     -7.859  0.0000E+00  0.0000E+00  0.6400E-01  0.6400E-01
     -7.818  0.0000E+00  0.0000E+00  0.6800E-01  0.6800E-01
     -7.777  0.0000E+00  0.0000E+00  0.7000E-01  0.7000E-01
     -7.736  0.0000E+00  0.0000E+00  0.7300E-01  0.7300E-01
     -7.695  0.0000E+00  0.0000E+00  0.7600E-01  0.7600E-01
     -7.653  0.0000E+00  0.0000E+00  0.7800E-01  0.7800E-01
     -7.612  0.0000E+00  0.0000E+00  0.8000E-01  0.8000E-01
     -7.571  0.0000E+00  0.0000E+00  0.8300E-01  0.8300E-01
     -7.530  0.0000E+00  0.0000E+00  0.8600E-01  0.8600E-01
     -7.489  0.0000E+00  0.0000E+00  0.8900E-01  0.8900E-01
     -7.448  0.0000E+00  0.0000E+00  0.9200E-01  0.9200E-01
     -7.407  0.0000E+00  0.0000E+00  0.9500E-01  0.9500E-01
     -7.366  0.0000E+00  0.0000E+00  0.9800E-01  0.9800E-01
     -7.325  0.0000E+00  0.0000E+00  0.1010E+00  0.1010E+00
     -7.284  0.0000E+00  0.0000E+00  0.1030E+00  0.1030E+00
     -7.243  0.0000E+00  0.0000E+00  0.1060E+00  0.1060E+00
     -7.202  0.0000E+00  0.0000E+00  0.1080E+00  0.1080E+00
     -7.161  0.0000E+00  0.0000E+00  0.1090E+00  0.1090E+00
     -7.120  0.0000E+00  0.0000E+00  0.1130E+00  0.1130E+00
     -7.078  0.0000E+00  0.0000E+00  0.1160E+00  0.1160E+00
     -7.037  0.0000E+00  0.0000E+00  0.1190E+00  0.1190E+00
     -6.996  0.0000E+00  0.0000E+00  0.1220E+00  0.1220E+00
     -6.955  0.0000E+00  0.0000E+00  0.1260E+00  0.1260E+00
     -6.914  0.0000E+00  0.0000E+00  0.1280E+00  0.1280E+00
     -6.873  0.0000E+00  0.0000E+00  0.1330E+00  0.1330E+00
     -6.832  0.1120E-06  0.1119E-06  0.1360E+00  0.1360E+00
     -6.791  0.0000E+00  0.0000E+00  0.1390E+00  0.1390E+00
     -6.750  0.0000E+00  0.0000E+00  0.1440E+00  0.1440E+00
     -6.709  0.0000E+00  0.0000E+00  0.1480E+00  0.1480E+00
     -6.668  0.2299E-02  0.2298E-02  0.1531E+00  0.1531E+00
     -6.627  0.0000E+00  0.0000E+00  0.1580E+00  0.1580E+00
     -6.586  0.8373E-04  0.8366E-04  0.1610E+00  0.1610E+00
     -6.544  0.0000E+00  0.0000E+00  0.1670E+00  0.1670E+00
     -6.503  0.0000E+00  0.0000E+00  0.1710E+00  0.1710E+00
     -6.462  0.0000E+00  0.0000E+00  0.1750E+00  0.1750E+00
     -6.421  0.0000E+00  0.0000E+00  0.1790E+00  0.1790E+00
     -6.380  0.0000E+00  0.0000E+00  0.1850E+00  0.1850E+00
     -6.339  0.0000E+00  0.0000E+00  0.1870E+00  0.1870E+00
     -6.298  0.0000E+00  0.0000E+00  0.1920E+00  0.1920E+00
     -6.257  0.0000E+00  0.0000E+00  0.1950E+00  0.1950E+00
     -6.216  0.0000E+00  0.0000E+00  0.1980E+00  0.1980E+00
     -6.175  0.0000E+00  0.0000E+00  0.2020E+00  0.2020E+00
     -6.134  0.0000E+00  0.0000E+00  0.2050E+00  0.2050E+00
     -6.093  0.0000E+00  0.0000E+00  0.2080E+00  0.2080E+00
     -6.052  0.0000E+00  0.0000E+00  0.2110E+00  0.2110E+00
     -6.010  0.0000E+00  0.0000E+00  0.2130E+00  0.2130E+00
     -5.969  0.0000E+00  0.0000E+00  0.2140E+00  0.2140E+00
     -5.928  0.0000E+00  0.0000E+00  0.2150E+00  0.2150E+00
     -5.887  0.0000E+00  0.0000E+00  0.2160E+00  0.2160E+00
     -5.846  0.0000E+00  0.0000E+00  0.2160E+00  0.2160E+00
     -5.805  0.0000E+00  0.0000E+00  0.2160E+00  0.2160E+00
     -5.764  0.0000E+00  0.0000E+00  0.2170E+00  0.2170E+00
     -5.723  0.0000E+00  0.0000E+00  0.2170E+00  0.2170E+00
     -5.682  0.0000E+00  0.0000E+00  0.2170E+00  0.2170E+00
     -5.641  0.0000E+00  0.0000E+00  0.2170E+00  0.2170E+00
     -5.600  0.0000E+00  0.0000E+00  0.2180E+00  0.2180E+00
     -5.559  0.0000E+00  0.0000E+00  0.2180E+00  0.2180E+00
     -5.518  0.0000E+00  0.0000E+00  0.2190E+00  0.2190E+00
     -5.477  0.0000E+00  0.0000E+00  0.2190E+00  0.2190E+00
     -5.435  0.0000E+00  0.0000E+00  0.2190E+00  0.2190E+00
     -5.394  0.0000E+00  0.0000E+00  0.2190E+00  0.2190E+00
     -5.353  0.0000E+00  0.0000E+00  0.2190E+00  0.2190E+00
     -5.312  0.0000E+00  0.0000E+00  0.2190E+00  0.2190E+00
     -5.271  0.0000E+00  0.0000E+00  0.2190E+00  0.2190E+00
     -5.230  0.0000E+00  0.0000E+00  0.2190E+00  0.2190E+00
     -5.189  0.3452E-11  0.3455E-11  0.2190E+00  0.2190E+00
     -5.148  0.0000E+00  0.0000E+00  0.2200E+00  0.2200E+00
     -5.107  0.0000E+00  0.0000E+00  0.2200E+00  0.2200E+00
     -5.066  0.0000E+00  0.0000E+00  0.2210E+00  0.2210E+00
     -5.025  0.0000E+00  0.0000E+00  0.2210E+00  0.2210E+00
     -4.984  0.0000E+00  0.0000E+00  0.2210E+00  0.2210E+00
     -4.943  0.0000E+00  0.0000E+00  0.2210E+00  0.2210E+00
     -4.901  0.0000E+00  0.0000E+00  0.2210E+00  0.2210E+00
     -4.860  0.0000E+00  0.0000E+00  0.2210E+00  0.2210E+00
     -4.819  0.0000E+00  0.0000E+00  0.2210E+00  0.2210E+00
     -4.778  0.0000E+00  0.0000E+00  0.2210E+00  0.2210E+00
     -4.737  0.0000E+00  0.0000E+00  0.2210E+00  0.2210E+00
     -4.696  0.0000E+00  0.0000E+00  0.2210E+00  0.2210E+00
     -4.655  0.0000E+00  0.0000E+00  0.2210E+00  0.2210E+00
     -4.614  0.0000E+00  0.0000E+00  0.2210E+00  0.2210E+00
     -4.573  0.0000E+00  0.0000E+00  0.2210E+00  0.2210E+00
     -4.532  0.0000E+00  0.0000E+00  0.2220E+00  0.2220E+00
     -4.491  0.0000E+00  0.0000E+00  0.2230E+00  0.2230E+00
     -4.450  0.0000E+00  0.0000E+00  0.2240E+00  0.2240E+00
     -4.409  0.0000E+00  0.0000E+00  0.2240E+00  0.2240E+00
     -4.367  0.0000E+00  0.0000E+00  0.2240E+00  0.2240E+00
     -4.326  0.0000E+00  0.0000E+00  0.2250E+00  0.2250E+00
     -4.285  0.0000E+00  0.0000E+00  0.2250E+00  0.2250E+00
     -4.244  0.0000E+00  0.0000E+00  0.2250E+00  0.2250E+00
     -4.203  0.0000E+00  0.0000E+00  0.2250E+00  0.2250E+00
     -4.162  0.0000E+00  0.0000E+00  0.2250E+00  0.2250E+00
     -4.121  0.0000E+00  0.0000E+00  0.2250E+00  0.2250E+00
     -4.080  0.0000E+00  0.0000E+00  0.2250E+00  0.2250E+00
     -4.039  0.0000E+00  0.0000E+00  0.2260E+00  0.2260E+00
     -3.998  0.0000E+00  0.0000E+00  0.2270E+00  0.2270E+00
     -3.957  0.0000E+00  0.0000E+00  0.2270E+00  0.2270E+00
     -3.916  0.0000E+00  0.0000E+00  0.2270E+00  0.2270E+00
     -3.875  0.0000E+00  0.0000E+00  0.2270E+00  0.2270E+00
     -3.833  0.0000E+00  0.0000E+00  0.2280E+00  0.2280E+00
     -3.792  0.0000E+00  0.0000E+00  0.2280E+00  0.2280E+00
     -3.751  0.0000E+00  0.0000E+00  0.2280E+00  0.2280E+00
     -3.710  0.0000E+00  0.0000E+00  0.2280E+00  0.2280E+00
     -3.669  0.0000E+00  0.0000E+00  0.2280E+00  0.2280E+00
     -3.628  0.0000E+00  0.0000E+00  0.2280E+00  0.2280E+00
     -3.587  0.0000E+00  0.0000E+00  0.2290E+00  0.2290E+00
     -3.546  0.0000E+00  0.0000E+00  0.2290E+00  0.2290E+00
     -3.505  0.0000E+00  0.0000E+00  0.2290E+00  0.2290E+00
     -3.464  0.0000E+00  0.0000E+00  0.2290E+00  0.2290E+00
     -3.423  0.0000E+00  0.0000E+00  0.2290E+00  0.2290E+00
     -3.382  0.0000E+00  0.0000E+00  0.2300E+00  0.2300E+00
     -3.341  0.0000E+00  0.0000E+00  0.2300E+00  0.2300E+00
     -3.300  0.0000E+00  0.0000E+00  0.2300E+00  0.2300E+00
     -3.258  0.0000E+00  0.0000E+00  0.2310E+00  0.2310E+00
     -3.217  0.0000E+00  0.0000E+00  0.2310E+00  0.2310E+00
     -3.176  0.0000E+00  0.0000E+00  0.2310E+00  0.2310E+00
     -3.135  0.0000E+00  0.0000E+00  0.2310E+00  0.2310E+00
     -3.094  0.0000E+00  0.0000E+00  0.2310E+00  0.2310E+00
     -3.053  0.0000E+00  0.0000E+00  0.2310E+00  0.2310E+00
     -3.012  0.0000E+00  0.0000E+00  0.2310E+00  0.2310E+00
     -2.971  0.0000E+00  0.0000E+00  0.2320E+00  0.2320E+00
     -2.930  0.0000E+00  0.0000E+00  0.2320E+00  0.2320E+00
     -2.889  0.0000E+00  0.0000E+00  0.2330E+00  0.2330E+00
     -2.848  0.0000E+00  0.0000E+00  0.2330E+00  0.2330E+00
     -2.807  0.0000E+00  0.0000E+00  0.2330E+00  0.2330E+00
     -2.766  0.0000E+00  0.0000E+00  0.2330E+00  0.2330E+00
     -2.724  0.0000E+00  0.0000E+00  0.2340E+00  0.2340E+00
     -2.683  0.0000E+00  0.0000E+00  0.2340E+00  0.2340E+00
     -2.642  0.0000E+00  0.0000E+00  0.2350E+00  0.2350E+00
     -2.601  0.0000E+00  0.0000E+00  0.2350E+00  0.2350E+00
     -2.560  0.0000E+00  0.0000E+00  0.2350E+00  0.2350E+00
     -2.519  0.0000E+00  0.0000E+00  0.2360E+00  0.2360E+00
     -2.478  0.0000E+00  0.0000E+00  0.2370E+00  0.2370E+00
     -2.437  0.0000E+00  0.0000E+00  0.2370E+00  0.2370E+00
     -2.396  0.0000E+00  0.0000E+00  0.2370E+00  0.2370E+00
     -2.355  0.0000E+00  0.0000E+00  0.2380E+00  0.2380E+00
     -2.314  0.0000E+00  0.0000E+00  0.2380E+00  0.2380E+00
     -2.273  0.0000E+00  0.0000E+00  0.2390E+00  0.2390E+00
     -2.232  0.0000E+00  0.0000E+00  0.2400E+00  0.2400E+00
     -2.190  0.0000E+00  0.0000E+00  0.2400E+00  0.2400E+00
     -2.149  0.0000E+00  0.0000E+00  0.2400E+00  0.2400E+00
     -2.108  0.0000E+00  0.0000E+00  0.2400E+00  0.2400E+00
     -2.067  0.0000E+00  0.0000E+00  0.2410E+00  0.2410E+00
     -2.026  0.0000E+00  0.0000E+00  0.2410E+00  0.2410E+00
     -1.985  0.0000E+00  0.0000E+00  0.2410E+00  0.2410E+00
     -1.944  0.0000E+00  0.0000E+00  0.2420E+00  0.2420E+00
     -1.903  0.0000E+00  0.0000E+00  0.2420E+00  0.2420E+00
     -1.862  0.0000E+00  0.0000E+00  0.2420E+00  0.2420E+00
     -1.821  0.0000E+00  0.0000E+00  0.2420E+00  0.2420E+00
     -1.780  0.0000E+00  0.0000E+00  0.2420E+00  0.2420E+00
     -1.739  0.0000E+00  0.0000E+00  0.2430E+00  0.2430E+00
     -1.698  0.0000E+00  0.0000E+00  0.2440E+00  0.2440E+00
     -1.657  0.0000E+00  0.0000E+00  0.2440E+00  0.2440E+00
     -1.615  0.0000E+00  0.0000E+00  0.2440E+00  0.2440E+00
     -1.574  0.0000E+00  0.0000E+00  0.2450E+00  0.2450E+00
     -1.533  0.0000E+00  0.0000E+00  0.2450E+00  0.2450E+00
     -1.492  0.0000E+00  0.0000E+00  0.2450E+00  0.2450E+00
     -1.451  0.0000E+00  0.0000E+00  0.2450E+00  0.2450E+00
     -1.410  0.0000E+00  0.0000E+00  0.2460E+00  0.2460E+00
     -1.369  0.0000E+00  0.0000E+00  0.2470E+00  0.2470E+00
     -1.328  0.0000E+00  0.0000E+00  0.2470E+00  0.2470E+00
     -1.287  0.0000E+00  0.0000E+00  0.2470E+00  0.2470E+00
     -1.246  0.0000E+00  0.0000E+00  0.2480E+00  0.2480E+00
     -1.205  0.0000E+00  0.0000E+00  0.2480E+00  0.2480E+00
     -1.164  0.0000E+00  0.0000E+00  0.2490E+00  0.2490E+00
     -1.123  0.0000E+00  0.0000E+00  0.2490E+00  0.2490E+00
     -1.081  0.0000E+00  0.0000E+00  0.2500E+00  0.2500E+00
     -1.040  0.0000E+00  0.0000E+00  0.2500E+00  0.2500E+00
     -0.999  0.0000E+00  0.0000E+00  0.2510E+00  0.2510E+00
     -0.958  0.0000E+00  0.0000E+00  0.2510E+00  0.2510E+00
     -0.917  0.0000E+00  0.0000E+00  0.2520E+00  0.2520E+00
     -0.876  0.0000E+00  0.0000E+00  0.2520E+00  0.2520E+00
     -0.835  0.0000E+00  0.0000E+00  0.2520E+00  0.2520E+00
     -0.794  0.0000E+00  0.0000E+00  0.2530E+00  0.2530E+00
     -0.753  0.0000E+00  0.0000E+00  0.2540E+00  0.2540E+00
     -0.712  0.0000E+00  0.0000E+00  0.2540E+00  0.2540E+00
     -0.671  0.0000E+00  0.0000E+00  0.2550E+00  0.2550E+00
     -0.630  0.0000E+00  0.0000E+00  0.2550E+00  0.2550E+00
     -0.589  0.0000E+00  0.0000E+00  0.2560E+00  0.2560E+00
     -0.547  0.0000E+00  0.0000E+00  0.2570E+00  0.2570E+00
     -0.506  0.0000E+00  0.0000E+00  0.2580E+00  0.2580E+00
     -0.465  0.0000E+00  0.0000E+00  0.2580E+00  0.2580E+00
     -0.424  0.0000E+00  0.0000E+00  0.2580E+00  0.2580E+00
     -0.383  0.0000E+00  0.0000E+00  0.2590E+00  0.2590E+00
     -0.342  0.0000E+00  0.0000E+00  0.2600E+00  0.2600E+00
     -0.301  0.0000E+00  0.0000E+00  0.2600E+00  0.2600E+00
     -0.260  0.0000E+00  0.0000E+00  0.2600E+00  0.2600E+00
     -0.219  0.0000E+00  0.0000E+00  0.2620E+00  0.2620E+00
     -0.178  0.0000E+00  0.0000E+00  0.2620E+00  0.2620E+00
     -0.137  0.0000E+00  0.0000E+00  0.2630E+00  0.2630E+00
     -0.096  0.0000E+00  0.0000E+00  0.2630E+00  0.2630E+00
     -0.055  0.0000E+00  0.0000E+00  0.2630E+00  0.2630E+00
     -0.013  0.0000E+00  0.0000E+00  0.2630E+00  0.2630E+00
      0.028  0.0000E+00  0.0000E+00  0.2640E+00  0.2640E+00
      0.069  0.0000E+00  0.0000E+00  0.2640E+00  0.2640E+00
      0.110  0.0000E+00  0.0000E+00  0.2640E+00  0.2640E+00
      0.151  0.0000E+00  0.0000E+00  0.2640E+00  0.2640E+00
      0.192  0.0000E+00  0.0000E+00  0.2640E+00  0.2640E+00
      0.233  0.0000E+00  0.0000E+00  0.2650E+00  0.2650E+00
      0.274  0.0000E+00  0.0000E+00  0.2660E+00  0.2660E+00
      0.315  0.0000E+00  0.0000E+00  0.2660E+00  0.2660E+00
      0.356  0.0000E+00  0.0000E+00  0.2670E+00  0.2670E+00
      0.397  0.0000E+00  0.0000E+00  0.2670E+00  0.2670E+00
      0.438  0.0000E+00  0.0000E+00  0.2680E+00  0.2680E+00
      0.479  0.0000E+00  0.0000E+00  0.2680E+00  0.2680E+00
      0.520  0.0000E+00  0.0000E+00  0.2680E+00  0.2680E+00
      0.562  0.0000E+00  0.0000E+00  0.2690E+00  0.2690E+00
      0.603  0.0000E+00  0.0000E+00  0.2700E+00  0.2700E+00
      0.644  0.0000E+00  0.0000E+00  0.2700E+00  0.2700E+00
      0.685  0.0000E+00  0.0000E+00  0.2700E+00  0.2700E+00
      0.726  0.0000E+00  0.0000E+00  0.2710E+00  0.2710E+00
      0.767  0.0000E+00  0.0000E+00  0.2720E+00  0.2720E+00
      0.808  0.0000E+00  0.0000E+00  0.2730E+00  0.2730E+00
      0.849  0.0000E+00  0.0000E+00  0.2740E+00  0.2740E+00
      0.890  0.0000E+00  0.0000E+00  0.2760E+00  0.2760E+00
      0.931  0.0000E+00  0.0000E+00  0.2760E+00  0.2760E+00
      0.972  0.0000E+00  0.0000E+00  0.2770E+00  0.2770E+00
      1.013  0.0000E+00  0.0000E+00  0.2780E+00  0.2780E+00
      1.054  0.7025E-02  0.7645E-02  0.2793E+00  0.2793E+00
      1.096  0.0000E+00  0.0000E+00  0.2810E+00  0.2810E+00
      1.137  0.2432E-01  0.2433E-01  0.2830E+00  0.2830E+00
      1.178  0.0000E+00  0.0000E+00  0.2840E+00  0.2840E+00
      1.219  0.0000E+00  0.0000E+00  0.2860E+00  0.2860E+00
      1.260  0.0000E+00  0.0000E+00  0.2870E+00  0.2870E+00
      1.301  0.0000E+00  0.0000E+00  0.2890E+00  0.2890E+00
      1.342  0.0000E+00  0.0000E+00  0.2910E+00  0.2910E+00
      1.383  0.0000E+00  0.0000E+00  0.2930E+00  0.2930E+00
      1.424  0.0000E+00  0.0000E+00  0.2950E+00  0.2950E+00
      1.465  0.0000E+00  0.0000E+00  0.2960E+00  0.2960E+00
      1.506  0.0000E+00  0.0000E+00  0.2970E+00  0.2970E+00
      1.547  0.0000E+00  0.0000E+00  0.2990E+00  0.2990E+00
      1.588  0.0000E+00  0.0000E+00  0.3000E+00  0.3000E+00
      1.630  0.0000E+00  0.0000E+00  0.3000E+00  0.3000E+00
      1.671  0.0000E+00  0.0000E+00  0.3000E+00  0.3000E+00
      1.712  0.0000E+00  0.0000E+00  0.3000E+00  0.3000E+00
      1.753  0.0000E+00  0.0000E+00  0.3000E+00  0.3000E+00
      1.794  0.0000E+00  0.0000E+00  0.3000E+00  0.3000E+00
      1.835  0.0000E+00  0.0000E+00  0.3000E+00  0.3000E+00
      1.876  0.0000E+00  0.0000E+00  0.3000E+00  0.3000E+00
      1.917  0.0000E+00  0.0000E+00  0.3000E+00  0.3000E+00
      1.958  0.0000E+00  0.0000E+00  0.3000E+00  0.3000E+00
      1.999  0.0000E+00  0.0000E+00  0.3000E+00  0.3000E+00
      2.040  0.0000E+00  0.0000E+00  0.3000E+00  0.3000E+00
      2.081  0.0000E+00  0.0000E+00  0.3000E+00  0.3000E+00
      2.122  0.0000E+00  0.0000E+00  0.3000E+00  0.3000E+00
