  55  55   0   0
  0.2670300E+03  0.2448918E-08  0.2448918E-08  0.2448918E-08  0.1000000E-15
  1.000000000000000E-004
  CAR 
 unknown system                          
      2.17028984    -10.51559282  301     -3.18949559      1.00000000
    -10.516  0.0000E+00  0.0000E+00  0.0000E+00  0.0000E+00
    -10.473  0.0000E+00  0.0000E+00  0.0000E+00  0.0000E+00
    -10.431  0.0000E+00  0.0000E+00  0.0000E+00  0.0000E+00
    -10.389  0.0000E+00  0.0000E+00  0.0000E+00  0.0000E+00
    -10.346  0.0000E+00  0.0000E+00  0.0000E+00  0.0000E+00
    -10.304  0.0000E+00  0.0000E+00  0.0000E+00  0.0000E+00
    -10.262  0.0000E+00  0.0000E+00  0.0000E+00  0.0000E+00
    -10.220  0.0000E+00  0.0000E+00  0.0000E+00  0.0000E+00
    -10.177  0.0000E+00  0.0000E+00  0.0000E+00  0.0000E+00
    -10.135  0.0000E+00  0.0000E+00  0.0000E+00  0.0000E+00
    -10.093  0.0000E+00  0.0000E+00  0.0000E+00  0.0000E+00
    -10.050  0.0000E+00  0.0000E+00  0.0000E+00  0.0000E+00
    -10.008  0.0000E+00  0.0000E+00  0.0000E+00  0.0000E+00
     -9.966  0.0000E+00  0.0000E+00  0.0000E+00  0.0000E+00
     -9.924  0.0000E+00  0.0000E+00  0.1000E-02  0.1000E-02
     -9.881  0.0000E+00  0.0000E+00  0.1000E-02  0.1000E-02
     -9.839  0.0000E+00  0.0000E+00  0.1000E-02  0.1000E-02
     -9.797  0.0000E+00  0.0000E+00  0.1000E-02  0.1000E-02
     -9.754  0.0000E+00  0.0000E+00  0.1000E-02  0.1000E-02
     -9.712  0.0000E+00  0.0000E+00  0.1000E-02  0.1000E-02
     -9.670  0.0000E+00  0.0000E+00  0.1000E-02  0.1000E-02
     -9.628  0.0000E+00  0.0000E+00  0.1000E-02  0.1000E-02
     -9.585  0.0000E+00  0.0000E+00  0.1000E-02  0.1000E-02
     -9.543  0.0000E+00  0.0000E+00  0.1000E-02  0.1000E-02
     -9.501  0.0000E+00  0.0000E+00  0.1000E-02  0.1000E-02
     -9.458  0.0000E+00  0.0000E+00  0.1000E-02  0.1000E-02
     -9.416  0.0000E+00  0.0000E+00  0.1000E-02  0.1000E-02
     -9.374  0.0000E+00  0.0000E+00  0.2000E-02  0.2000E-02
     -9.332  0.0000E+00  0.0000E+00  0.2000E-02  0.2000E-02
     -9.289  0.0000E+00  0.0000E+00  0.2000E-02  0.2000E-02
     -9.247  0.0000E+00  0.0000E+00  0.2000E-02  0.2000E-02
     -9.205  0.0000E+00  0.0000E+00  0.2000E-02  0.2000E-02
     -9.162  0.0000E+00  0.0000E+00  0.3000E-02  0.3000E-02
     -9.120  0.0000E+00  0.0000E+00  0.7000E-02  0.7000E-02
     -9.078  0.0000E+00  0.0000E+00  0.9000E-02  0.9000E-02
     -9.036  0.2365E-01  0.0000E+00  0.1000E-01  0.9000E-02
     -8.993  0.0000E+00  0.0000E+00  0.1400E-01  0.1400E-01
     -8.951  0.0000E+00  0.0000E+00  0.1500E-01  0.1500E-01
     -8.909  0.0000E+00  0.0000E+00  0.1900E-01  0.1900E-01
     -8.866  0.2365E-01  0.0000E+00  0.2300E-01  0.2200E-01
     -8.824  0.0000E+00  0.0000E+00  0.2600E-01  0.2600E-01
     -8.782  0.0000E+00  0.0000E+00  0.2800E-01  0.2800E-01
     -8.740  0.0000E+00  0.0000E+00  0.3000E-01  0.3000E-01
     -8.697  0.2363E-01  0.0000E+00  0.3400E-01  0.3300E-01
     -8.655  0.0000E+00  0.0000E+00  0.3900E-01  0.3900E-01
     -8.613  0.0000E+00  0.0000E+00  0.4200E-01  0.4200E-01
     -8.570  0.0000E+00  0.0000E+00  0.4500E-01  0.4500E-01
     -8.528  0.0000E+00  0.2374E-02  0.4700E-01  0.4610E-01
     -8.486  0.0000E+00  0.0000E+00  0.5100E-01  0.5100E-01
     -8.444  0.0000E+00  0.0000E+00  0.5400E-01  0.5400E-01
     -8.401  0.0000E+00  0.0000E+00  0.5700E-01  0.5700E-01
     -8.359  0.0000E+00  0.0000E+00  0.6100E-01  0.6000E-01
     -8.317  0.0000E+00  0.0000E+00  0.6300E-01  0.6300E-01
     -8.274  0.0000E+00  0.0000E+00  0.6600E-01  0.6500E-01
     -8.232  0.2365E-01  0.0000E+00  0.6800E-01  0.6700E-01
     -8.190  0.0000E+00  0.0000E+00  0.7200E-01  0.7100E-01
     -8.148  0.0000E+00  0.0000E+00  0.7400E-01  0.7400E-01
     -8.105  0.0000E+00  0.0000E+00  0.7900E-01  0.7800E-01
     -8.063  0.0000E+00  0.0000E+00  0.8600E-01  0.8400E-01
     -8.021  0.0000E+00  0.0000E+00  0.8800E-01  0.8700E-01
     -7.978  0.0000E+00  0.0000E+00  0.9200E-01  0.9200E-01
     -7.936  0.7102E-12  0.0000E+00  0.9300E-01  0.9300E-01
     -7.894  0.0000E+00  0.0000E+00  0.9800E-01  0.9700E-01
     -7.852  0.0000E+00  0.0000E+00  0.1020E+00  0.1020E+00
     -7.809  0.0000E+00  0.0000E+00  0.1050E+00  0.1050E+00
     -7.767  0.0000E+00  0.0000E+00  0.1090E+00  0.1090E+00
     -7.725  0.0000E+00  0.0000E+00  0.1140E+00  0.1130E+00
     -7.682  0.2365E-01  0.3466E-15  0.1190E+00  0.1170E+00
     -7.640  0.0000E+00  0.0000E+00  0.1240E+00  0.1240E+00
     -7.598  0.0000E+00  0.0000E+00  0.1260E+00  0.1260E+00
     -7.556  0.0000E+00  0.0000E+00  0.1280E+00  0.1280E+00
     -7.513  0.0000E+00  0.0000E+00  0.1310E+00  0.1310E+00
     -7.471  0.0000E+00  0.0000E+00  0.1370E+00  0.1360E+00
     -7.429  0.0000E+00  0.2365E-01  0.1420E+00  0.1400E+00
     -7.386  0.0000E+00  0.0000E+00  0.1450E+00  0.1450E+00
     -7.344  0.0000E+00  0.0000E+00  0.1480E+00  0.1480E+00
     -7.302  0.0000E+00  0.0000E+00  0.1540E+00  0.1540E+00
     -7.260  0.0000E+00  0.0000E+00  0.1580E+00  0.1580E+00
     -7.217  0.2365E-01  0.0000E+00  0.1630E+00  0.1610E+00
     -7.175  0.0000E+00  0.0000E+00  0.1680E+00  0.1670E+00
     -7.133  0.0000E+00  0.0000E+00  0.1720E+00  0.1720E+00
     -7.090  0.0000E+00  0.0000E+00  0.1750E+00  0.1740E+00
     -7.048  0.2364E-01  0.0000E+00  0.1790E+00  0.1780E+00
     -7.006  0.0000E+00  0.0000E+00  0.1830E+00  0.1830E+00
     -6.964  0.0000E+00  0.2275E-01  0.1900E+00  0.1880E+00
     -6.921  0.0000E+00  0.0000E+00  0.1950E+00  0.1930E+00
     -6.879  0.0000E+00  0.0000E+00  0.1980E+00  0.1980E+00
     -6.837  0.0000E+00  0.0000E+00  0.2040E+00  0.2020E+00
     -6.794  0.0000E+00  0.0000E+00  0.2090E+00  0.2090E+00
     -6.752  0.2501E-02  0.0000E+00  0.2141E+00  0.2140E+00
     -6.710  0.0000E+00  0.0000E+00  0.2190E+00  0.2180E+00
     -6.668  0.0000E+00  0.0000E+00  0.2240E+00  0.2240E+00
     -6.625  0.0000E+00  0.0000E+00  0.2310E+00  0.2310E+00
     -6.583  0.0000E+00  0.0000E+00  0.2330E+00  0.2330E+00
     -6.541  0.0000E+00  0.0000E+00  0.2400E+00  0.2400E+00
     -6.498  0.0000E+00  0.0000E+00  0.2470E+00  0.2450E+00
     -6.456  0.0000E+00  0.1607E-01  0.2530E+00  0.2517E+00
     -6.414  0.1393E-03  0.0000E+00  0.2580E+00  0.2570E+00
     -6.372  0.0000E+00  0.0000E+00  0.2630E+00  0.2620E+00
     -6.329  0.0000E+00  0.0000E+00  0.2660E+00  0.2650E+00
     -6.287  0.0000E+00  0.2773E-04  0.2700E+00  0.2690E+00
     -6.245  0.0000E+00  0.0000E+00  0.2740E+00  0.2720E+00
     -6.202  0.0000E+00  0.0000E+00  0.2760E+00  0.2750E+00
     -6.160  0.0000E+00  0.1252E-09  0.2810E+00  0.2790E+00
     -6.118  0.0000E+00  0.0000E+00  0.2820E+00  0.2820E+00
     -6.076  0.0000E+00  0.0000E+00  0.2820E+00  0.2820E+00
     -6.033  0.0000E+00  0.0000E+00  0.2820E+00  0.2820E+00
     -5.991  0.0000E+00  0.0000E+00  0.2820E+00  0.2820E+00
     -5.949  0.0000E+00  0.0000E+00  0.2820E+00  0.2820E+00
     -5.906  0.0000E+00  0.0000E+00  0.2820E+00  0.2820E+00
     -5.864  0.0000E+00  0.0000E+00  0.2850E+00  0.2840E+00
     -5.822  0.0000E+00  0.0000E+00  0.2850E+00  0.2850E+00
     -5.780  0.0000E+00  0.0000E+00  0.2860E+00  0.2860E+00
     -5.737  0.0000E+00  0.0000E+00  0.2860E+00  0.2860E+00
     -5.695  0.0000E+00  0.0000E+00  0.2860E+00  0.2860E+00
     -5.653  0.0000E+00  0.0000E+00  0.2860E+00  0.2860E+00
     -5.610  0.0000E+00  0.0000E+00  0.2870E+00  0.2870E+00
     -5.568  0.3359E-14  0.0000E+00  0.2870E+00  0.2870E+00
     -5.526  0.0000E+00  0.0000E+00  0.2880E+00  0.2880E+00
     -5.484  0.0000E+00  0.0000E+00  0.2880E+00  0.2880E+00
     -5.441  0.0000E+00  0.0000E+00  0.2880E+00  0.2880E+00
     -5.399  0.0000E+00  0.0000E+00  0.2880E+00  0.2880E+00
     -5.357  0.0000E+00  0.0000E+00  0.2880E+00  0.2880E+00
     -5.314  0.0000E+00  0.0000E+00  0.2880E+00  0.2880E+00
     -5.272  0.0000E+00  0.0000E+00  0.2880E+00  0.2880E+00
     -5.230  0.0000E+00  0.0000E+00  0.2880E+00  0.2880E+00
     -5.188  0.0000E+00  0.0000E+00  0.2880E+00  0.2880E+00
     -5.145  0.0000E+00  0.0000E+00  0.2880E+00  0.2880E+00
     -5.103  0.0000E+00  0.0000E+00  0.2880E+00  0.2880E+00
     -5.061  0.0000E+00  0.0000E+00  0.2890E+00  0.2890E+00
     -5.018  0.0000E+00  0.0000E+00  0.2890E+00  0.2890E+00
     -4.976  0.0000E+00  0.0000E+00  0.2910E+00  0.2900E+00
     -4.934  0.0000E+00  0.0000E+00  0.2910E+00  0.2910E+00
     -4.892  0.0000E+00  0.0000E+00  0.2910E+00  0.2910E+00
     -4.849  0.0000E+00  0.0000E+00  0.2910E+00  0.2910E+00
     -4.807  0.0000E+00  0.0000E+00  0.2910E+00  0.2910E+00
     -4.765  0.0000E+00  0.0000E+00  0.2910E+00  0.2910E+00
     -4.722  0.0000E+00  0.0000E+00  0.2910E+00  0.2910E+00
     -4.680  0.0000E+00  0.0000E+00  0.2920E+00  0.2920E+00
     -4.638  0.0000E+00  0.0000E+00  0.2930E+00  0.2930E+00
     -4.596  0.0000E+00  0.0000E+00  0.2930E+00  0.2930E+00
     -4.553  0.0000E+00  0.0000E+00  0.2930E+00  0.2930E+00
     -4.511  0.0000E+00  0.0000E+00  0.2940E+00  0.2930E+00
     -4.469  0.0000E+00  0.0000E+00  0.2940E+00  0.2940E+00
     -4.426  0.0000E+00  0.0000E+00  0.2940E+00  0.2940E+00
     -4.384  0.0000E+00  0.0000E+00  0.2940E+00  0.2940E+00
     -4.342  0.0000E+00  0.0000E+00  0.2950E+00  0.2950E+00
     -4.300  0.0000E+00  0.0000E+00  0.2950E+00  0.2950E+00
     -4.257  0.0000E+00  0.0000E+00  0.2950E+00  0.2950E+00
     -4.215  0.0000E+00  0.0000E+00  0.2950E+00  0.2950E+00
     -4.173  0.0000E+00  0.0000E+00  0.2950E+00  0.2950E+00
     -4.130  0.0000E+00  0.0000E+00  0.2950E+00  0.2950E+00
     -4.088  0.0000E+00  0.0000E+00  0.2950E+00  0.2950E+00
     -4.046  0.0000E+00  0.0000E+00  0.2960E+00  0.2950E+00
     -4.004  0.0000E+00  0.0000E+00  0.2970E+00  0.2970E+00
     -3.961  0.0000E+00  0.0000E+00  0.2970E+00  0.2970E+00
     -3.919  0.0000E+00  0.0000E+00  0.2980E+00  0.2980E+00
     -3.877  0.0000E+00  0.0000E+00  0.2980E+00  0.2980E+00
     -3.834  0.0000E+00  0.0000E+00  0.2980E+00  0.2980E+00
     -3.792  0.0000E+00  0.0000E+00  0.2990E+00  0.2990E+00
     -3.750  0.0000E+00  0.0000E+00  0.2990E+00  0.2990E+00
     -3.708  0.0000E+00  0.0000E+00  0.2990E+00  0.2990E+00
     -3.665  0.0000E+00  0.0000E+00  0.2990E+00  0.2990E+00
     -3.623  0.0000E+00  0.0000E+00  0.2990E+00  0.2990E+00
     -3.581  0.0000E+00  0.0000E+00  0.2990E+00  0.2990E+00
     -3.538  0.0000E+00  0.0000E+00  0.3010E+00  0.3000E+00
     -3.496  0.0000E+00  0.0000E+00  0.3010E+00  0.3010E+00
     -3.454  0.0000E+00  0.0000E+00  0.3010E+00  0.3010E+00
     -3.411  0.0000E+00  0.0000E+00  0.3010E+00  0.3010E+00
     -3.369  0.0000E+00  0.0000E+00  0.3010E+00  0.3010E+00
     -3.327  0.2365E-01  0.0000E+00  0.3020E+00  0.3010E+00
     -3.285  0.0000E+00  0.0000E+00  0.3020E+00  0.3020E+00
     -3.242  0.0000E+00  0.0000E+00  0.3020E+00  0.3020E+00
     -3.200  0.0000E+00  0.0000E+00  0.3030E+00  0.3020E+00
     -3.158  0.0000E+00  0.0000E+00  0.3040E+00  0.3030E+00
     -3.115  0.0000E+00  0.0000E+00  0.3040E+00  0.3040E+00
     -3.073  0.0000E+00  0.0000E+00  0.3040E+00  0.3040E+00
     -3.031  0.0000E+00  0.0000E+00  0.3070E+00  0.3050E+00
     -2.989  0.0000E+00  0.0000E+00  0.3070E+00  0.3070E+00
     -2.946  0.0000E+00  0.0000E+00  0.3070E+00  0.3070E+00
     -2.904  0.0000E+00  0.0000E+00  0.3070E+00  0.3070E+00
     -2.862  0.0000E+00  0.0000E+00  0.3080E+00  0.3080E+00
     -2.819  0.0000E+00  0.0000E+00  0.3090E+00  0.3080E+00
     -2.777  0.0000E+00  0.0000E+00  0.3090E+00  0.3090E+00
     -2.735  0.0000E+00  0.0000E+00  0.3090E+00  0.3090E+00
     -2.693  0.0000E+00  0.0000E+00  0.3090E+00  0.3090E+00
     -2.650  0.0000E+00  0.0000E+00  0.3100E+00  0.3100E+00
     -2.608  0.0000E+00  0.0000E+00  0.3100E+00  0.3100E+00
     -2.566  0.0000E+00  0.0000E+00  0.3100E+00  0.3100E+00
     -2.523  0.0000E+00  0.0000E+00  0.3100E+00  0.3100E+00
     -2.481  0.0000E+00  0.0000E+00  0.3100E+00  0.3100E+00
     -2.439  0.0000E+00  0.0000E+00  0.3100E+00  0.3100E+00
     -2.397  0.0000E+00  0.0000E+00  0.3130E+00  0.3120E+00
     -2.354  0.0000E+00  0.0000E+00  0.3130E+00  0.3130E+00
     -2.312  0.0000E+00  0.0000E+00  0.3130E+00  0.3130E+00
     -2.270  0.0000E+00  0.0000E+00  0.3130E+00  0.3130E+00
     -2.227  0.0000E+00  0.0000E+00  0.3130E+00  0.3130E+00
     -2.185  0.0000E+00  0.0000E+00  0.3130E+00  0.3130E+00
     -2.143  0.0000E+00  0.0000E+00  0.3130E+00  0.3130E+00
     -2.101  0.0000E+00  0.2365E-01  0.3150E+00  0.3140E+00
     -2.058  0.0000E+00  0.0000E+00  0.3160E+00  0.3160E+00
     -2.016  0.0000E+00  0.0000E+00  0.3160E+00  0.3160E+00
     -1.974  0.0000E+00  0.0000E+00  0.3190E+00  0.3180E+00
     -1.931  0.0000E+00  0.0000E+00  0.3190E+00  0.3190E+00
     -1.889  0.0000E+00  0.0000E+00  0.3200E+00  0.3190E+00
     -1.847  0.0000E+00  0.0000E+00  0.3210E+00  0.3210E+00
     -1.805  0.0000E+00  0.0000E+00  0.3210E+00  0.3210E+00
     -1.762  0.0000E+00  0.0000E+00  0.3220E+00  0.3220E+00
     -1.720  0.0000E+00  0.0000E+00  0.3220E+00  0.3220E+00
     -1.678  0.0000E+00  0.0000E+00  0.3220E+00  0.3220E+00
     -1.635  0.0000E+00  0.0000E+00  0.3220E+00  0.3220E+00
     -1.593  0.0000E+00  0.0000E+00  0.3220E+00  0.3220E+00
     -1.551  0.0000E+00  0.0000E+00  0.3220E+00  0.3220E+00
     -1.509  0.0000E+00  0.0000E+00  0.3230E+00  0.3230E+00
     -1.466  0.0000E+00  0.0000E+00  0.3230E+00  0.3230E+00
     -1.424  0.0000E+00  0.0000E+00  0.3230E+00  0.3230E+00
     -1.382  0.0000E+00  0.0000E+00  0.3250E+00  0.3230E+00
     -1.339  0.0000E+00  0.0000E+00  0.3250E+00  0.3250E+00
     -1.297  0.0000E+00  0.0000E+00  0.3270E+00  0.3260E+00
     -1.255  0.0000E+00  0.0000E+00  0.3280E+00  0.3270E+00
     -1.213  0.0000E+00  0.0000E+00  0.3290E+00  0.3280E+00
     -1.170  0.0000E+00  0.0000E+00  0.3290E+00  0.3290E+00
     -1.128  0.0000E+00  0.0000E+00  0.3300E+00  0.3300E+00
     -1.086  0.0000E+00  0.0000E+00  0.3300E+00  0.3300E+00
     -1.043  0.0000E+00  0.0000E+00  0.3300E+00  0.3300E+00
     -1.001  0.0000E+00  0.0000E+00  0.3300E+00  0.3300E+00
     -0.959  0.0000E+00  0.0000E+00  0.3300E+00  0.3300E+00
     -0.917  0.0000E+00  0.0000E+00  0.3300E+00  0.3300E+00
     -0.874  0.0000E+00  0.0000E+00  0.3310E+00  0.3310E+00
     -0.832  0.0000E+00  0.0000E+00  0.3310E+00  0.3310E+00
     -0.790  0.0000E+00  0.0000E+00  0.3310E+00  0.3310E+00
     -0.747  0.0000E+00  0.0000E+00  0.3310E+00  0.3310E+00
     -0.705  0.0000E+00  0.0000E+00  0.3310E+00  0.3310E+00
     -0.663  0.0000E+00  0.0000E+00  0.3330E+00  0.3330E+00
     -0.621  0.0000E+00  0.0000E+00  0.3330E+00  0.3330E+00
     -0.578  0.0000E+00  0.0000E+00  0.3340E+00  0.3340E+00
     -0.536  0.0000E+00  0.0000E+00  0.3360E+00  0.3350E+00
     -0.494  0.0000E+00  0.0000E+00  0.3380E+00  0.3360E+00
     -0.451  0.0000E+00  0.0000E+00  0.3380E+00  0.3380E+00
     -0.409  0.0000E+00  0.0000E+00  0.3380E+00  0.3380E+00
     -0.367  0.0000E+00  0.0000E+00  0.3380E+00  0.3380E+00
     -0.325  0.0000E+00  0.0000E+00  0.3400E+00  0.3390E+00
     -0.282  0.0000E+00  0.0000E+00  0.3400E+00  0.3400E+00
     -0.240  0.0000E+00  0.0000E+00  0.3400E+00  0.3400E+00
     -0.198  0.0000E+00  0.0000E+00  0.3410E+00  0.3410E+00
     -0.155  0.0000E+00  0.0000E+00  0.3420E+00  0.3410E+00
     -0.113  0.0000E+00  0.0000E+00  0.3430E+00  0.3430E+00
     -0.071  0.0000E+00  0.0000E+00  0.3440E+00  0.3440E+00
     -0.029  0.0000E+00  0.0000E+00  0.3450E+00  0.3440E+00
      0.014  0.0000E+00  0.0000E+00  0.3450E+00  0.3450E+00
      0.056  0.0000E+00  0.0000E+00  0.3450E+00  0.3450E+00
      0.098  0.0000E+00  0.0000E+00  0.3460E+00  0.3450E+00
      0.141  0.0000E+00  0.0000E+00  0.3470E+00  0.3460E+00
      0.183  0.0000E+00  0.0000E+00  0.3470E+00  0.3470E+00
      0.225  0.0000E+00  0.0000E+00  0.3470E+00  0.3470E+00
      0.267  0.0000E+00  0.0000E+00  0.3470E+00  0.3470E+00
      0.310  0.0000E+00  0.0000E+00  0.3470E+00  0.3470E+00
      0.352  0.0000E+00  0.1654E-06  0.3480E+00  0.3470E+00
      0.394  0.0000E+00  0.0000E+00  0.3480E+00  0.3480E+00
      0.437  0.0000E+00  0.0000E+00  0.3490E+00  0.3480E+00
      0.479  0.0000E+00  0.0000E+00  0.3490E+00  0.3490E+00
      0.521  0.2365E-01  0.0000E+00  0.3510E+00  0.3490E+00
      0.563  0.0000E+00  0.0000E+00  0.3510E+00  0.3510E+00
      0.606  0.0000E+00  0.0000E+00  0.3510E+00  0.3510E+00
      0.648  0.0000E+00  0.0000E+00  0.3520E+00  0.3520E+00
      0.690  0.0000E+00  0.0000E+00  0.3540E+00  0.3540E+00
      0.733  0.0000E+00  0.0000E+00  0.3560E+00  0.3540E+00
      0.775  0.0000E+00  0.0000E+00  0.3570E+00  0.3570E+00
      0.817  0.0000E+00  0.0000E+00  0.3580E+00  0.3580E+00
      0.859  0.0000E+00  0.0000E+00  0.3590E+00  0.3590E+00
      0.902  0.0000E+00  0.0000E+00  0.3610E+00  0.3600E+00
      0.944  0.0000E+00  0.0000E+00  0.3620E+00  0.3610E+00
      0.986  0.0000E+00  0.0000E+00  0.3640E+00  0.3630E+00
      1.029  0.0000E+00  0.0000E+00  0.3670E+00  0.3650E+00
      1.071  0.0000E+00  0.0000E+00  0.3690E+00  0.3690E+00
      1.113  0.0000E+00  0.0000E+00  0.3710E+00  0.3720E+00
      1.155  0.0000E+00  0.0000E+00  0.3730E+00  0.3730E+00
      1.198  0.0000E+00  0.0000E+00  0.3760E+00  0.3740E+00
      1.240  0.0000E+00  0.0000E+00  0.3780E+00  0.3780E+00
      1.282  0.0000E+00  0.0000E+00  0.3780E+00  0.3780E+00
      1.325  0.0000E+00  0.0000E+00  0.3810E+00  0.3800E+00
      1.367  0.0000E+00  0.0000E+00  0.3840E+00  0.3840E+00
      1.409  0.0000E+00  0.0000E+00  0.3860E+00  0.3870E+00
      1.451  0.0000E+00  0.0000E+00  0.3880E+00  0.3880E+00
      1.494  0.0000E+00  0.0000E+00  0.3890E+00  0.3890E+00
      1.536  0.0000E+00  0.0000E+00  0.3890E+00  0.3890E+00
      1.578  0.0000E+00  0.0000E+00  0.3910E+00  0.3900E+00
      1.621  0.0000E+00  0.0000E+00  0.3920E+00  0.3920E+00
      1.663  0.0000E+00  0.0000E+00  0.3920E+00  0.3920E+00
      1.705  0.0000E+00  0.0000E+00  0.3920E+00  0.3920E+00
      1.747  0.0000E+00  0.0000E+00  0.3920E+00  0.3920E+00
      1.790  0.0000E+00  0.0000E+00  0.3920E+00  0.3920E+00
      1.832  0.0000E+00  0.0000E+00  0.3920E+00  0.3920E+00
      1.874  0.0000E+00  0.0000E+00  0.3920E+00  0.3920E+00
      1.917  0.0000E+00  0.0000E+00  0.3920E+00  0.3920E+00
      1.959  0.0000E+00  0.0000E+00  0.3920E+00  0.3920E+00
      2.001  0.0000E+00  0.0000E+00  0.3920E+00  0.3920E+00
      2.043  0.0000E+00  0.0000E+00  0.3920E+00  0.3920E+00
      2.086  0.0000E+00  0.0000E+00  0.3920E+00  0.3920E+00
      2.128  0.0000E+00  0.0000E+00  0.3920E+00  0.3920E+00
      2.170  0.0000E+00  0.0000E+00  0.3920E+00  0.3920E+00
