   55   55 1000    2
  0.2670300E+03  0.2448918E-08  0.2448918E-08  0.2448918E-08  0.1000000E-15
  1.000000000000000E-004
  CAR 
 unknown system                          
    605      1    392
 
  0.0000000E+00  0.0000000E+00  0.0000000E+00  0.1000000E+01
    1       -9.938962     -9.932688
    2       -9.398848     -9.394276
    3       -9.192093     -9.188001
    4       -9.155528     -9.150418
    5       -9.149245     -9.141474
    6       -9.143686     -9.139691
    7       -9.138535     -9.135441
    8       -9.114771     -9.110559
    9       -9.093677     -9.090551
   10       -9.036041     -9.029999
   11       -9.032607     -9.026575
   12       -9.032004     -9.026159
   13       -9.015307     -9.004378
   14       -9.009260     -8.997256
   15       -8.963139     -8.956040
   16       -8.942660     -8.938356
   17       -8.941200     -8.932877
   18       -8.928373     -8.920240
   19       -8.926231     -8.919896
   20       -8.888567     -8.881400
   21       -8.887955     -8.881128
   22       -8.876739     -8.869664
   23       -8.866988     -8.860822
   24       -8.863070     -8.855122
   25       -8.843265     -8.836713
   26       -8.837541     -8.830834
   27       -8.813595     -8.807811
   28       -8.812280     -8.805867
   29       -8.778902     -8.770807
   30       -8.755723     -8.750075
   31       -8.730163     -8.722484
   32       -8.726528     -8.719390
   33       -8.716842     -8.710957
   34       -8.697512     -8.692024
   35       -8.691408     -8.680347
   36       -8.684189     -8.677636
   37       -8.677545     -8.672932
   38       -8.674650     -8.665641
   39       -8.666890     -8.661492
   40       -8.645759     -8.637617
   41       -8.626776     -8.619717
   42       -8.622690     -8.615608
   43       -8.609726     -8.603871
   44       -8.607698     -8.600482
   45       -8.591319     -8.588021
   46       -8.553569     -8.548805
   47       -8.534134     -8.528047
   48       -8.526065     -8.522024
   49       -8.523344     -8.520502
   50       -8.504655     -8.500655
   51       -8.501148     -8.496822
   52       -8.469933     -8.464286
   53       -8.466809     -8.461493
   54       -8.459159     -8.454472
   55       -8.437279     -8.432570
   56       -8.426433     -8.421198
   57       -8.416089     -8.411448
   58       -8.399135     -8.388966
   59       -8.391645     -8.385472
   60       -8.365960     -8.361073
   61       -8.361730     -8.352511
   62       -8.339337     -8.334175
   63       -8.339103     -8.332898
   64       -8.300824     -8.294780
   65       -8.286679     -8.280996
   66       -8.277070     -8.272179
   67       -8.253346     -8.245925
   68       -8.232414     -8.227431
   69       -8.219403     -8.212702
   70       -8.212580     -8.206565
   71       -8.210979     -8.203799
   72       -8.192789     -8.186970
   73       -8.177678     -8.163505
   74       -8.162319     -8.155153
   75       -8.146819     -8.138910
   76       -8.134929     -8.128776
   77       -8.124163     -8.116300
   78       -8.115258     -8.109770
   79       -8.110290     -8.104262
   80       -8.093039     -8.087581
   81       -8.091500     -8.083536
   82       -8.082191     -8.076994
   83       -8.081036     -8.075922
   84       -8.077645     -8.072304
   85       -8.067810     -8.061181
   86       -8.066906     -8.059237
   87       -8.041445     -8.035511
   88       -8.022570     -8.018151
   89       -8.012198     -8.007145
   90       -7.994850     -7.989300
   91       -7.993525     -7.988341
   92       -7.990048     -7.983681
   93       -7.945914     -7.938061
   94       -7.935667     -7.928718
   95       -7.926761     -7.922096
   96       -7.914088     -7.905760
   97       -7.902827     -7.895120
   98       -7.896098     -7.888810
   99       -7.888533     -7.883003
  100       -7.883712     -7.876691
  101       -7.877579     -7.870635
  102       -7.861954     -7.856618
  103       -7.822929     -7.818603
  104       -7.820213     -7.815319
  105       -7.816709     -7.813119
  106       -7.808018     -7.801152
  107       -7.803074     -7.797011
  108       -7.793430     -7.785843
  109       -7.779829     -7.775576
  110       -7.763175     -7.756698
  111       -7.754509     -7.750857
  112       -7.747362     -7.740691
  113       -7.740585     -7.736128
  114       -7.729439     -7.724078
  115       -7.721837     -7.717315
  116       -7.719927     -7.714057
  117       -7.701916     -7.698445
  118       -7.685838     -7.681875
  119       -7.683105     -7.677221
  120       -7.679007     -7.673675
  121       -7.667451     -7.663209
  122       -7.662660     -7.656425
  123       -7.661437     -7.652929
  124       -7.654031     -7.647027
  125       -7.618562     -7.611916
  126       -7.613375     -7.606123
  127       -7.583708     -7.576819
  128       -7.572836     -7.567682
  129       -7.552081     -7.545060
  130       -7.541720     -7.535610
  131       -7.533065     -7.527861
  132       -7.504472     -7.498681
  133       -7.496865     -7.491638
  134       -7.495372     -7.489369
  135       -7.483616     -7.477075
  136       -7.480016     -7.475074
  137       -7.473123     -7.466012
  138       -7.458348     -7.452426
  139       -7.448825     -7.442897
  140       -7.436577     -7.429032
  141       -7.431788     -7.426136
  142       -7.430865     -7.425771
  143       -7.422295     -7.414111
  144       -7.411203     -7.404624
  145       -7.407094     -7.401050
  146       -7.375968     -7.369746
  147       -7.365740     -7.360648
  148       -7.354905     -7.348948
  149       -7.339122     -7.333261
  150       -7.333289     -7.326170
  151       -7.332723     -7.325076
  152       -7.321552     -7.316871
  153       -7.312886     -7.307717
  154       -7.311481     -7.305243
  155       -7.296455     -7.290296
  156       -7.286439     -7.279788
  157       -7.279270     -7.270090
  158       -7.272594     -7.266909
  159       -7.255023     -7.248425
  160       -7.245811     -7.240540
  161       -7.235054     -7.229213
  162       -7.221732     -7.214190
  163       -7.218029     -7.210654
  164       -7.206312     -7.199236
  165       -7.202705     -7.196642
  166       -7.189362     -7.183075
  167       -7.188006     -7.181882
  168       -7.176817     -7.170235
  169       -7.166657     -7.161494
  170       -7.162091     -7.156811
  171       -7.147899     -7.141953
  172       -7.145389     -7.139911
  173       -7.131242     -7.124476
  174       -7.107662     -7.102398
  175       -7.094685     -7.089080
  176       -7.075216     -7.071030
  177       -7.071505     -7.065659
  178       -7.060908     -7.052506
  179       -7.048361     -7.042422
  180       -7.043806     -7.037767
  181       -7.034456     -7.026369
  182       -7.030060     -7.022175
  183       -7.025255     -7.020046
  184       -7.003221     -6.997965
  185       -7.001621     -6.996979
  186       -6.996406     -6.990012
  187       -6.976448     -6.969114
  188       -6.969443     -6.963671
  189       -6.966576     -6.959094
  190       -6.966248     -6.958731
  191       -6.962675     -6.955225
  192       -6.944916     -6.938998
  193       -6.933391     -6.928109
  194       -6.925478     -6.920643
  195       -6.923051     -6.918714
  196       -6.909432     -6.903866
  197       -6.901717     -6.896610
  198       -6.887443     -6.883204
  199       -6.873630     -6.869091
  200       -6.871849     -6.867171
  201       -6.866541     -6.862467
  202       -6.846932     -6.842384
  203       -6.840671     -6.835928
  204       -6.840121     -6.835145
  205       -6.829140     -6.824231
  206       -6.814485     -6.810774
  207       -6.813746     -6.809040
  208       -6.805651     -6.800890
  209       -6.803545     -6.799860
  210       -6.788775     -6.783886
  211       -6.784359     -6.777976
  212       -6.768166     -6.762827
  213       -6.766808     -6.761870
  214       -6.761507     -6.756493
  215       -6.752026     -6.747443
  216       -6.742065     -6.737807
  217       -6.727378     -6.722830
  218       -6.725368     -6.720704
  219       -6.711703     -6.705053
  220       -6.704871     -6.700546
  221       -6.688974     -6.682815
  222       -6.678453     -6.672450
  223       -6.677918     -6.671869
  224       -6.672097     -6.668517
  225       -6.661261     -6.657859
  226       -6.660408     -6.655782
  227       -6.651148     -6.646899
  228       -6.646942     -6.643439
  229       -6.637799     -6.634277
  230       -6.633103     -6.627730
  231       -6.632060     -6.627071
  232       -6.609351     -6.605392
  233       -6.597199     -6.591481
  234       -6.581406     -6.575959
  235       -6.570123     -6.563512
  236       -6.561552     -6.556011
  237       -6.557696     -6.551218
  238       -6.554027     -6.548977
  239       -6.552237     -6.544519
  240       -6.548734     -6.543394
  241       -6.520496     -6.515212
  242       -6.516178     -6.513005
  243       -6.512607     -6.509127
  244       -6.507705     -6.503186
  245       -6.505753     -6.501043
  246       -6.499862     -6.495120
  247       -6.499649     -6.494978
  248       -6.490704     -6.486145
  249       -6.479363     -6.475292
  250       -6.478203     -6.473235
  251       -6.475664     -6.472237
  252       -6.460024     -6.456143
  253       -6.458959     -6.454606
  254       -6.442998     -6.438697
  255       -6.441695     -6.435839
  256       -6.433633     -6.428266
  257       -6.421089     -6.417685
  258       -6.419233     -6.412226
  259       -6.413646     -6.409836
  260       -6.401854     -6.397428
  261       -6.392415     -6.389394
  262       -6.380532     -6.377577
  263       -6.373817     -6.367231
  264       -6.360531     -6.356867
  265       -6.359256     -6.355998
  266       -6.331635     -6.327751
  267       -6.324937     -6.322249
  268       -6.316701     -6.312114
  269       -6.303058     -6.298059
  270       -6.289819     -6.286750
  271       -6.266298     -6.260864
  272       -6.254986     -6.250529
  273       -6.247823     -6.243407
  274       -6.245702     -6.241760
  275       -6.211721     -6.206199
  276       -6.203839     -6.197539
  277       -6.193063     -6.187830
  278       -6.189735     -6.184037
  279       -6.187681     -6.183632
  280       -6.164507     -6.159702
  281       -6.161945     -6.157127
  282       -6.157281     -6.149932
  283       -5.884907     -5.870994
  284       -5.883826     -5.870417
  285       -5.867228     -5.852459
  286       -5.796222     -5.785081
  287       -5.626921     -5.614500
  288       -5.567582     -5.551539
  289       -5.075526     -5.064080
  290       -5.012068     -4.993425
  291       -4.992845     -4.974106
  292       -4.708982     -4.700541
  293       -4.676418     -4.662613
  294       -4.530786     -4.500388
  295       -4.374831     -4.362881
  296       -4.057026     -4.042833
  297       -4.025619     -4.012043
  298       -3.956572     -3.946989
  299       -3.833683     -3.818798
  300       -3.578052     -3.551773
  301       -3.554987     -3.532606
  302       -3.327723     -3.319343
  303       -3.218199     -3.159920
  304       -3.174189     -3.155929
  305       -3.045639     -3.033361
  306       -3.039591     -3.021163
  307       -3.034193     -3.013763
  308       -2.903140     -2.889354
  309       -2.831769     -2.814201
  310       -2.688713     -2.676671
  311       -2.435873     -2.425094
  312       -2.431685     -2.413272
  313       -2.402236     -2.382754
  314       -2.124121     -2.100943
  315       -2.123196     -2.100166
  316       -2.079441     -2.062745
  317       -1.995137     -1.977573
  318       -1.988529     -1.976436
  319       -1.977244     -1.964466
  320       -1.893394     -1.871400
  321       -1.881551     -1.861014
  322       -1.780328     -1.765310
  323       -1.520657     -1.510939
  324       -1.408378     -1.373906
  325       -1.404570     -1.372166
  326       -1.334307     -1.314352
  327       -1.308039     -1.289346
  328       -1.271179     -1.250504
  329       -1.215874     -1.201796
  330       -1.148803     -1.130079
  331       -0.905971     -0.888678
  332       -0.699665     -0.690535
  333       -0.690313     -0.673537
  334       -0.617696     -0.599878
  335       -0.568224     -0.547834
  336       -0.537779     -0.524415
  337       -0.502462     -0.483664
  338       -0.496519     -0.482238
  339       -0.366095     -0.342589
  340       -0.331107     -0.312520
  341       -0.224391     -0.202426
  342       -0.165270     -0.142630
  343       -0.143547     -0.127380
  344       -0.110392     -0.104158
  345       -0.035664     -0.023876
  346        0.087532      0.105975
  347        0.136691      0.155925
  348        0.332732      0.352287
  349        0.430808      0.459134
  350        0.520046      0.533208
  351        0.520742      0.534889
  352        0.611197      0.621213
  353        0.648830      0.666030
  354        0.660255      0.674081
  355        0.717310      0.740134
  356        0.725879      0.743747
  357        0.747055      0.753468
  358        0.799783      0.788647
  359        0.828613      0.828899
  360        0.877366      0.889846
  361        0.899782      0.911631
  362        0.931242      0.950293
  363        0.959096      0.973113
  364        0.984870      0.989887
  365        0.995369      0.996180
  366        1.004844      1.029573
  367        1.015678      1.031472
  368        1.040322      1.036927
  369        1.051049      1.045339
  370        1.077835      1.086196
  371        1.100786      1.098298
  372        1.119279      1.106939
  373        1.127373      1.132018
  374        1.172173      1.180578
  375        1.182375      1.199114
  376        1.184054      1.201859
  377        1.210432      1.225288
  378        1.223836      1.238933
  379        1.300945      1.291981
  380        1.307307      1.308207
  381        1.320557      1.333720
  382        1.328491      1.347048
  383        1.338025      1.348250
  384        1.358200      1.362790
  385        1.385291      1.398927
  386        1.387033      1.401405
  387        1.414351      1.404484
  388        1.424382      1.436851
  389        1.484534      1.479214
  390        1.552165      1.569560
  391        1.573790      1.579558
  392        1.590867      1.593659
