  49  49   0   0
  0.2374845E+03  0.2266090E-08  0.2266090E-08  0.2266090E-08  0.1000000E-15
  1.000000000000000E-004
  CAR 
 unknown system                          
      2.18151211    -10.29160147  301     -3.16113821      1.00000000
    -10.292  0.0000E+00  0.0000E+00  0.0000E+00  0.0000E+00
    -10.250  0.0000E+00  0.0000E+00  0.0000E+00  0.0000E+00
    -10.208  0.0000E+00  0.0000E+00  0.0000E+00  0.0000E+00
    -10.167  0.0000E+00  0.0000E+00  0.0000E+00  0.0000E+00
    -10.125  0.0000E+00  0.0000E+00  0.0000E+00  0.0000E+00
    -10.084  0.0000E+00  0.0000E+00  0.0000E+00  0.0000E+00
    -10.042  0.0000E+00  0.0000E+00  0.0000E+00  0.0000E+00
    -10.001  0.0000E+00  0.0000E+00  0.0000E+00  0.0000E+00
     -9.959  0.0000E+00  0.0000E+00  0.0000E+00  0.0000E+00
     -9.917  0.0000E+00  0.0000E+00  0.0000E+00  0.0000E+00
     -9.876  0.0000E+00  0.0000E+00  0.0000E+00  0.0000E+00
     -9.834  0.0000E+00  0.0000E+00  0.0000E+00  0.0000E+00
     -9.793  0.0000E+00  0.0000E+00  0.0000E+00  0.0000E+00
     -9.751  0.0000E+00  0.0000E+00  0.0000E+00  0.0000E+00
     -9.710  0.0000E+00  0.0000E+00  0.1000E-02  0.1000E-02
     -9.668  0.0000E+00  0.0000E+00  0.1000E-02  0.1000E-02
     -9.626  0.0000E+00  0.0000E+00  0.1000E-02  0.1000E-02
     -9.585  0.0000E+00  0.0000E+00  0.1000E-02  0.1000E-02
     -9.543  0.0000E+00  0.0000E+00  0.1000E-02  0.1000E-02
     -9.502  0.0000E+00  0.0000E+00  0.1000E-02  0.1000E-02
     -9.460  0.0000E+00  0.0000E+00  0.1000E-02  0.1000E-02
     -9.418  0.0000E+00  0.0000E+00  0.1000E-02  0.1000E-02
     -9.377  0.0000E+00  0.0000E+00  0.1000E-02  0.1000E-02
     -9.335  0.0000E+00  0.0000E+00  0.1000E-02  0.1000E-02
     -9.294  0.0000E+00  0.0000E+00  0.1000E-02  0.1000E-02
     -9.252  0.0000E+00  0.0000E+00  0.1000E-02  0.1000E-02
     -9.211  0.0000E+00  0.0000E+00  0.2000E-02  0.2000E-02
     -9.169  0.0000E+00  0.0000E+00  0.2000E-02  0.2000E-02
     -9.127  0.0000E+00  0.0000E+00  0.3000E-02  0.2000E-02
     -9.086  0.0000E+00  0.0000E+00  0.3000E-02  0.3000E-02
     -9.044  0.0000E+00  0.0000E+00  0.4000E-02  0.4000E-02
     -9.003  0.0000E+00  0.0000E+00  0.6000E-02  0.5000E-02
     -8.961  0.0000E+00  0.0000E+00  0.7000E-02  0.7000E-02
     -8.920  0.0000E+00  0.0000E+00  0.8000E-02  0.8000E-02
     -8.878  0.0000E+00  0.0000E+00  0.1000E-01  0.9000E-02
     -8.836  0.0000E+00  0.0000E+00  0.1100E-01  0.1100E-01
     -8.795  0.0000E+00  0.0000E+00  0.1200E-01  0.1200E-01
     -8.753  0.0000E+00  0.0000E+00  0.1400E-01  0.1400E-01
     -8.712  0.0000E+00  0.0000E+00  0.1600E-01  0.1600E-01
     -8.670  0.0000E+00  0.0000E+00  0.1900E-01  0.1800E-01
     -8.629  0.0000E+00  0.0000E+00  0.2000E-01  0.2000E-01
     -8.587  0.0000E+00  0.0000E+00  0.2100E-01  0.2100E-01
     -8.545  0.0000E+00  0.0000E+00  0.2400E-01  0.2400E-01
     -8.504  0.0000E+00  0.0000E+00  0.2700E-01  0.2600E-01
     -8.462  0.0000E+00  0.0000E+00  0.2900E-01  0.2800E-01
     -8.421  0.0000E+00  0.0000E+00  0.3100E-01  0.3100E-01
     -8.379  0.0000E+00  0.0000E+00  0.3500E-01  0.3400E-01
     -8.337  0.0000E+00  0.0000E+00  0.3800E-01  0.3800E-01
     -8.296  0.0000E+00  0.0000E+00  0.4100E-01  0.4100E-01
     -8.254  0.0000E+00  0.2405E-01  0.4600E-01  0.4600E-01
     -8.213  0.0000E+00  0.0000E+00  0.4800E-01  0.4700E-01
     -8.171  0.0000E+00  0.0000E+00  0.5100E-01  0.5000E-01
     -8.130  0.8330E-03  0.0000E+00  0.5303E-01  0.5300E-01
     -8.088  0.0000E+00  0.0000E+00  0.5800E-01  0.5800E-01
     -8.046  0.0000E+00  0.0000E+00  0.6100E-01  0.6100E-01
     -8.005  0.0000E+00  0.0000E+00  0.6500E-01  0.6500E-01
     -7.963  0.0000E+00  0.0000E+00  0.6600E-01  0.6600E-01
     -7.922  0.0000E+00  0.0000E+00  0.7100E-01  0.7100E-01
     -7.880  0.0000E+00  0.0000E+00  0.7300E-01  0.7300E-01
     -7.839  0.0000E+00  0.0000E+00  0.7600E-01  0.7500E-01
     -7.797  0.0000E+00  0.0000E+00  0.7900E-01  0.7900E-01
     -7.755  0.0000E+00  0.0000E+00  0.8300E-01  0.8100E-01
     -7.714  0.0000E+00  0.2405E-01  0.8500E-01  0.8500E-01
     -7.672  0.0000E+00  0.0000E+00  0.8900E-01  0.8800E-01
     -7.631  0.0000E+00  0.0000E+00  0.9100E-01  0.9100E-01
     -7.589  0.0000E+00  0.0000E+00  0.9400E-01  0.9400E-01
     -7.548  0.0000E+00  0.0000E+00  0.9800E-01  0.9800E-01
     -7.506  0.0000E+00  0.0000E+00  0.1000E+00  0.1000E+00
     -7.464  0.0000E+00  0.0000E+00  0.1030E+00  0.1030E+00
     -7.423  0.0000E+00  0.0000E+00  0.1060E+00  0.1060E+00
     -7.381  0.0000E+00  0.0000E+00  0.1100E+00  0.1090E+00
     -7.340  0.2405E-01  0.0000E+00  0.1130E+00  0.1120E+00
     -7.298  0.0000E+00  0.2405E-01  0.1170E+00  0.1160E+00
     -7.256  0.0000E+00  0.2405E-01  0.1200E+00  0.1200E+00
     -7.215  0.0000E+00  0.0000E+00  0.1230E+00  0.1230E+00
     -7.173  0.0000E+00  0.0000E+00  0.1270E+00  0.1260E+00
     -7.132  0.6817E-02  0.0000E+00  0.1303E+00  0.1300E+00
     -7.090  0.0000E+00  0.0000E+00  0.1330E+00  0.1330E+00
     -7.049  0.0000E+00  0.2405E-01  0.1360E+00  0.1360E+00
     -7.007  0.0000E+00  0.0000E+00  0.1400E+00  0.1400E+00
     -6.965  0.0000E+00  0.0000E+00  0.1440E+00  0.1430E+00
     -6.924  0.0000E+00  0.0000E+00  0.1460E+00  0.1450E+00
     -6.882  0.0000E+00  0.2405E-01  0.1510E+00  0.1510E+00
     -6.841  0.0000E+00  0.0000E+00  0.1540E+00  0.1540E+00
     -6.799  0.0000E+00  0.0000E+00  0.1590E+00  0.1580E+00
     -6.758  0.2031E-07  0.0000E+00  0.1630E+00  0.1630E+00
     -6.716  0.0000E+00  0.2405E-01  0.1680E+00  0.1670E+00
     -6.674  0.0000E+00  0.0000E+00  0.1720E+00  0.1710E+00
     -6.633  0.0000E+00  0.0000E+00  0.1760E+00  0.1760E+00
     -6.591  0.0000E+00  0.0000E+00  0.1810E+00  0.1800E+00
     -6.550  0.0000E+00  0.0000E+00  0.1840E+00  0.1840E+00
     -6.508  0.0000E+00  0.0000E+00  0.1900E+00  0.1900E+00
     -6.467  0.0000E+00  0.2269E-01  0.1960E+00  0.1959E+00
     -6.425  0.0000E+00  0.0000E+00  0.2020E+00  0.2010E+00
     -6.383  0.0000E+00  0.0000E+00  0.2080E+00  0.2080E+00
     -6.342  0.0000E+00  0.0000E+00  0.2130E+00  0.2120E+00
     -6.300  0.0000E+00  0.0000E+00  0.2170E+00  0.2170E+00
     -6.259  0.0000E+00  0.0000E+00  0.2230E+00  0.2230E+00
     -6.217  0.0000E+00  0.0000E+00  0.2270E+00  0.2260E+00
     -6.175  0.0000E+00  0.0000E+00  0.2320E+00  0.2310E+00
     -6.134  0.0000E+00  0.0000E+00  0.2370E+00  0.2360E+00
     -6.092  0.0000E+00  0.0000E+00  0.2400E+00  0.2390E+00
     -6.051  0.2404E-01  0.2405E-01  0.2440E+00  0.2430E+00
     -6.009  0.0000E+00  0.0000E+00  0.2480E+00  0.2470E+00
     -5.968  0.0000E+00  0.0000E+00  0.2490E+00  0.2490E+00
     -5.926  0.0000E+00  0.0000E+00  0.2510E+00  0.2510E+00
     -5.884  0.0000E+00  0.0000E+00  0.2520E+00  0.2520E+00
     -5.843  0.0000E+00  0.0000E+00  0.2520E+00  0.2520E+00
     -5.801  0.0000E+00  0.0000E+00  0.2520E+00  0.2520E+00
     -5.760  0.0000E+00  0.0000E+00  0.2530E+00  0.2520E+00
     -5.718  0.0000E+00  0.0000E+00  0.2530E+00  0.2530E+00
     -5.677  0.0000E+00  0.0000E+00  0.2530E+00  0.2530E+00
     -5.635  0.0000E+00  0.0000E+00  0.2530E+00  0.2530E+00
     -5.593  0.0000E+00  0.0000E+00  0.2530E+00  0.2530E+00
     -5.552  0.0000E+00  0.0000E+00  0.2540E+00  0.2540E+00
     -5.510  0.0000E+00  0.0000E+00  0.2540E+00  0.2540E+00
     -5.469  0.0000E+00  0.0000E+00  0.2540E+00  0.2540E+00
     -5.427  0.0000E+00  0.0000E+00  0.2540E+00  0.2540E+00
     -5.386  0.0000E+00  0.3982E-02  0.2550E+00  0.2542E+00
     -5.344  0.0000E+00  0.0000E+00  0.2550E+00  0.2550E+00
     -5.302  0.0000E+00  0.0000E+00  0.2550E+00  0.2550E+00
     -5.261  0.0000E+00  0.0000E+00  0.2550E+00  0.2550E+00
     -5.219  0.0000E+00  0.0000E+00  0.2550E+00  0.2550E+00
     -5.178  0.0000E+00  0.0000E+00  0.2550E+00  0.2550E+00
     -5.136  0.0000E+00  0.0000E+00  0.2550E+00  0.2550E+00
     -5.094  0.0000E+00  0.0000E+00  0.2560E+00  0.2550E+00
     -5.053  0.0000E+00  0.0000E+00  0.2560E+00  0.2560E+00
     -5.011  0.0000E+00  0.0000E+00  0.2570E+00  0.2570E+00
     -4.970  0.0000E+00  0.0000E+00  0.2570E+00  0.2570E+00
     -4.928  0.0000E+00  0.0000E+00  0.2580E+00  0.2580E+00
     -4.887  0.0000E+00  0.0000E+00  0.2590E+00  0.2580E+00
     -4.845  0.0000E+00  0.0000E+00  0.2590E+00  0.2590E+00
     -4.803  0.0000E+00  0.0000E+00  0.2590E+00  0.2590E+00
     -4.762  0.0000E+00  0.0000E+00  0.2590E+00  0.2590E+00
     -4.720  0.0000E+00  0.0000E+00  0.2590E+00  0.2590E+00
     -4.679  0.0000E+00  0.0000E+00  0.2600E+00  0.2600E+00
     -4.637  0.0000E+00  0.0000E+00  0.2600E+00  0.2600E+00
     -4.596  0.0000E+00  0.0000E+00  0.2600E+00  0.2600E+00
     -4.554  0.0000E+00  0.0000E+00  0.2600E+00  0.2600E+00
     -4.512  0.0000E+00  0.0000E+00  0.2600E+00  0.2600E+00
     -4.471  0.0000E+00  0.0000E+00  0.2600E+00  0.2600E+00
     -4.429  0.0000E+00  0.0000E+00  0.2600E+00  0.2600E+00
     -4.388  0.0000E+00  0.0000E+00  0.2600E+00  0.2600E+00
     -4.346  0.0000E+00  0.0000E+00  0.2600E+00  0.2600E+00
     -4.305  0.0000E+00  0.0000E+00  0.2610E+00  0.2610E+00
     -4.263  0.0000E+00  0.0000E+00  0.2610E+00  0.2610E+00
     -4.221  0.0000E+00  0.0000E+00  0.2610E+00  0.2610E+00
     -4.180  0.0000E+00  0.0000E+00  0.2620E+00  0.2610E+00
     -4.138  0.0000E+00  0.0000E+00  0.2620E+00  0.2620E+00
     -4.097  0.0000E+00  0.0000E+00  0.2630E+00  0.2630E+00
     -4.055  0.0000E+00  0.0000E+00  0.2630E+00  0.2630E+00
     -4.013  0.0000E+00  0.0000E+00  0.2630E+00  0.2630E+00
     -3.972  0.0000E+00  0.0000E+00  0.2640E+00  0.2640E+00
     -3.930  0.0000E+00  0.0000E+00  0.2640E+00  0.2640E+00
     -3.889  0.0000E+00  0.0000E+00  0.2640E+00  0.2640E+00
     -3.847  0.0000E+00  0.0000E+00  0.2640E+00  0.2640E+00
     -3.806  0.0000E+00  0.0000E+00  0.2650E+00  0.2650E+00
     -3.764  0.0000E+00  0.0000E+00  0.2650E+00  0.2650E+00
     -3.722  0.0000E+00  0.0000E+00  0.2650E+00  0.2650E+00
     -3.681  0.0000E+00  0.0000E+00  0.2650E+00  0.2650E+00
     -3.639  0.0000E+00  0.0000E+00  0.2660E+00  0.2660E+00
     -3.598  0.0000E+00  0.0000E+00  0.2660E+00  0.2660E+00
     -3.556  0.0000E+00  0.0000E+00  0.2670E+00  0.2670E+00
     -3.515  0.0000E+00  0.0000E+00  0.2670E+00  0.2670E+00
     -3.473  0.0000E+00  0.0000E+00  0.2670E+00  0.2670E+00
     -3.431  0.0000E+00  0.0000E+00  0.2670E+00  0.2670E+00
     -3.390  0.0000E+00  0.5910E-02  0.2680E+00  0.2672E+00
     -3.348  0.0000E+00  0.0000E+00  0.2680E+00  0.2680E+00
     -3.307  0.0000E+00  0.0000E+00  0.2680E+00  0.2680E+00
     -3.265  0.0000E+00  0.0000E+00  0.2680E+00  0.2680E+00
     -3.224  0.0000E+00  0.0000E+00  0.2690E+00  0.2690E+00
     -3.182  0.0000E+00  0.0000E+00  0.2690E+00  0.2690E+00
     -3.140  0.0000E+00  0.0000E+00  0.2700E+00  0.2690E+00
     -3.099  0.0000E+00  0.0000E+00  0.2700E+00  0.2700E+00
     -3.057  0.0000E+00  0.0000E+00  0.2700E+00  0.2700E+00
     -3.016  0.0000E+00  0.0000E+00  0.2700E+00  0.2700E+00
     -2.974  0.0000E+00  0.0000E+00  0.2700E+00  0.2700E+00
     -2.932  0.0000E+00  0.0000E+00  0.2700E+00  0.2700E+00
     -2.891  0.0000E+00  0.0000E+00  0.2710E+00  0.2700E+00
     -2.849  0.2395E-01  0.0000E+00  0.2720E+00  0.2710E+00
     -2.808  0.0000E+00  0.0000E+00  0.2720E+00  0.2720E+00
     -2.766  0.0000E+00  0.0000E+00  0.2720E+00  0.2720E+00
     -2.725  0.0000E+00  0.0000E+00  0.2720E+00  0.2720E+00
     -2.683  0.0000E+00  0.0000E+00  0.2720E+00  0.2720E+00
     -2.641  0.0000E+00  0.0000E+00  0.2720E+00  0.2720E+00
     -2.600  0.0000E+00  0.0000E+00  0.2730E+00  0.2730E+00
     -2.558  0.0000E+00  0.0000E+00  0.2740E+00  0.2740E+00
     -2.517  0.0000E+00  0.0000E+00  0.2740E+00  0.2740E+00
     -2.475  0.0000E+00  0.0000E+00  0.2750E+00  0.2740E+00
     -2.434  0.0000E+00  0.0000E+00  0.2750E+00  0.2750E+00
     -2.392  0.0000E+00  0.0000E+00  0.2760E+00  0.2760E+00
     -2.350  0.0000E+00  0.0000E+00  0.2760E+00  0.2760E+00
     -2.309  0.0000E+00  0.0000E+00  0.2770E+00  0.2760E+00
     -2.267  0.0000E+00  0.0000E+00  0.2770E+00  0.2770E+00
     -2.226  0.0000E+00  0.0000E+00  0.2780E+00  0.2770E+00
     -2.184  0.0000E+00  0.0000E+00  0.2780E+00  0.2780E+00
     -2.143  0.0000E+00  0.0000E+00  0.2780E+00  0.2780E+00
     -2.101  0.0000E+00  0.0000E+00  0.2780E+00  0.2780E+00
     -2.059  0.0000E+00  0.0000E+00  0.2800E+00  0.2790E+00
     -2.018  0.0000E+00  0.0000E+00  0.2800E+00  0.2800E+00
     -1.976  0.2405E-01  0.0000E+00  0.2810E+00  0.2800E+00
     -1.935  0.0000E+00  0.0000E+00  0.2810E+00  0.2810E+00
     -1.893  0.0000E+00  0.0000E+00  0.2810E+00  0.2810E+00
     -1.851  0.0000E+00  0.0000E+00  0.2820E+00  0.2820E+00
     -1.810  0.0000E+00  0.0000E+00  0.2820E+00  0.2820E+00
     -1.768  0.0000E+00  0.0000E+00  0.2830E+00  0.2820E+00
     -1.727  0.0000E+00  0.0000E+00  0.2830E+00  0.2830E+00
     -1.685  0.0000E+00  0.0000E+00  0.2840E+00  0.2840E+00
     -1.644  0.0000E+00  0.0000E+00  0.2850E+00  0.2840E+00
     -1.602  0.0000E+00  0.0000E+00  0.2850E+00  0.2850E+00
     -1.560  0.0000E+00  0.0000E+00  0.2850E+00  0.2850E+00
     -1.519  0.0000E+00  0.0000E+00  0.2860E+00  0.2850E+00
     -1.477  0.0000E+00  0.0000E+00  0.2860E+00  0.2860E+00
     -1.436  0.0000E+00  0.0000E+00  0.2870E+00  0.2860E+00
     -1.394  0.0000E+00  0.0000E+00  0.2870E+00  0.2870E+00
     -1.353  0.0000E+00  0.0000E+00  0.2880E+00  0.2870E+00
     -1.311  0.0000E+00  0.0000E+00  0.2890E+00  0.2890E+00
     -1.269  0.0000E+00  0.0000E+00  0.2890E+00  0.2890E+00
     -1.228  0.0000E+00  0.0000E+00  0.2890E+00  0.2890E+00
     -1.186  0.0000E+00  0.0000E+00  0.2890E+00  0.2890E+00
     -1.145  0.0000E+00  0.0000E+00  0.2890E+00  0.2890E+00
     -1.103  0.0000E+00  0.0000E+00  0.2900E+00  0.2900E+00
     -1.061  0.2396E-01  0.0000E+00  0.2910E+00  0.2900E+00
     -1.020  0.0000E+00  0.0000E+00  0.2910E+00  0.2910E+00
     -0.978  0.0000E+00  0.0000E+00  0.2920E+00  0.2920E+00
     -0.937  0.0000E+00  0.0000E+00  0.2920E+00  0.2920E+00
     -0.895  0.0000E+00  0.0000E+00  0.2940E+00  0.2930E+00
     -0.854  0.0000E+00  0.0000E+00  0.2950E+00  0.2940E+00
     -0.812  0.0000E+00  0.0000E+00  0.2960E+00  0.2960E+00
     -0.770  0.0000E+00  0.0000E+00  0.2960E+00  0.2960E+00
     -0.729  0.0000E+00  0.0000E+00  0.2960E+00  0.2960E+00
     -0.687  0.0000E+00  0.0000E+00  0.2960E+00  0.2960E+00
     -0.646  0.0000E+00  0.0000E+00  0.2970E+00  0.2960E+00
     -0.604  0.0000E+00  0.0000E+00  0.2980E+00  0.2980E+00
     -0.563  0.0000E+00  0.0000E+00  0.2980E+00  0.2980E+00
     -0.521  0.0000E+00  0.0000E+00  0.2980E+00  0.2980E+00
     -0.479  0.0000E+00  0.0000E+00  0.2990E+00  0.2980E+00
     -0.438  0.0000E+00  0.0000E+00  0.3000E+00  0.2990E+00
     -0.396  0.0000E+00  0.0000E+00  0.3000E+00  0.3000E+00
     -0.355  0.0000E+00  0.0000E+00  0.3000E+00  0.3000E+00
     -0.313  0.0000E+00  0.0000E+00  0.3000E+00  0.3000E+00
     -0.272  0.0000E+00  0.0000E+00  0.3020E+00  0.3010E+00
     -0.230  0.0000E+00  0.0000E+00  0.3020E+00  0.3020E+00
     -0.188  0.0000E+00  0.0000E+00  0.3040E+00  0.3030E+00
     -0.147  0.0000E+00  0.0000E+00  0.3040E+00  0.3040E+00
     -0.105  0.0000E+00  0.0000E+00  0.3040E+00  0.3040E+00
     -0.064  0.0000E+00  0.0000E+00  0.3040E+00  0.3040E+00
     -0.022  0.0000E+00  0.0000E+00  0.3050E+00  0.3040E+00
      0.020  0.0000E+00  0.6018E-02  0.3060E+00  0.3053E+00
      0.061  0.0000E+00  0.0000E+00  0.3060E+00  0.3060E+00
      0.103  0.0000E+00  0.0000E+00  0.3060E+00  0.3060E+00
      0.144  0.0000E+00  0.0000E+00  0.3060E+00  0.3060E+00
      0.186  0.0000E+00  0.0000E+00  0.3070E+00  0.3060E+00
      0.227  0.0000E+00  0.0000E+00  0.3070E+00  0.3070E+00
      0.269  0.0000E+00  0.0000E+00  0.3080E+00  0.3080E+00
      0.311  0.0000E+00  0.0000E+00  0.3090E+00  0.3090E+00
      0.352  0.0000E+00  0.0000E+00  0.3090E+00  0.3090E+00
      0.394  0.0000E+00  0.0000E+00  0.3090E+00  0.3090E+00
      0.435  0.0000E+00  0.0000E+00  0.3100E+00  0.3100E+00
      0.477  0.0000E+00  0.0000E+00  0.3100E+00  0.3100E+00
      0.518  0.0000E+00  0.0000E+00  0.3110E+00  0.3110E+00
      0.560  0.0000E+00  0.0000E+00  0.3110E+00  0.3110E+00
      0.602  0.0000E+00  0.0000E+00  0.3120E+00  0.3120E+00
      0.643  0.0000E+00  0.0000E+00  0.3120E+00  0.3120E+00
      0.685  0.0000E+00  0.0000E+00  0.3140E+00  0.3130E+00
      0.726  0.0000E+00  0.8977E-07  0.3150E+00  0.3140E+00
      0.768  0.0000E+00  0.0000E+00  0.3160E+00  0.3160E+00
      0.809  0.0000E+00  0.0000E+00  0.3170E+00  0.3170E+00
      0.851  0.0000E+00  0.0000E+00  0.3180E+00  0.3180E+00
      0.893  0.0000E+00  0.0000E+00  0.3200E+00  0.3190E+00
      0.934  0.0000E+00  0.0000E+00  0.3200E+00  0.3200E+00
      0.976  0.0000E+00  0.0000E+00  0.3220E+00  0.3220E+00
      1.017  0.0000E+00  0.0000E+00  0.3220E+00  0.3220E+00
      1.059  0.0000E+00  0.0000E+00  0.3240E+00  0.3230E+00
      1.101  0.0000E+00  0.0000E+00  0.3250E+00  0.3250E+00
      1.142  0.0000E+00  0.0000E+00  0.3270E+00  0.3260E+00
      1.184  0.0000E+00  0.0000E+00  0.3280E+00  0.3270E+00
      1.225  0.0000E+00  0.0000E+00  0.3300E+00  0.3300E+00
      1.267  0.0000E+00  0.0000E+00  0.3330E+00  0.3320E+00
      1.308  0.0000E+00  0.0000E+00  0.3350E+00  0.3340E+00
      1.350  0.0000E+00  0.0000E+00  0.3360E+00  0.3360E+00
      1.392  0.0000E+00  0.0000E+00  0.3370E+00  0.3370E+00
      1.433  0.0000E+00  0.0000E+00  0.3380E+00  0.3380E+00
      1.475  0.0000E+00  0.0000E+00  0.3390E+00  0.3390E+00
      1.516  0.0000E+00  0.0000E+00  0.3420E+00  0.3420E+00
      1.558  0.2251E-01  0.0000E+00  0.3449E+00  0.3430E+00
      1.599  0.0000E+00  0.0000E+00  0.3470E+00  0.3460E+00
      1.641  0.0000E+00  0.0000E+00  0.3480E+00  0.3480E+00
      1.683  0.0000E+00  0.0000E+00  0.3480E+00  0.3480E+00
      1.724  0.0000E+00  0.0000E+00  0.3480E+00  0.3480E+00
      1.766  0.0000E+00  0.0000E+00  0.3480E+00  0.3480E+00
      1.807  0.0000E+00  0.0000E+00  0.3480E+00  0.3480E+00
      1.849  0.0000E+00  0.0000E+00  0.3480E+00  0.3480E+00
      1.890  0.0000E+00  0.0000E+00  0.3480E+00  0.3480E+00
      1.932  0.0000E+00  0.0000E+00  0.3480E+00  0.3480E+00
      1.974  0.0000E+00  0.0000E+00  0.3480E+00  0.3480E+00
      2.015  0.0000E+00  0.0000E+00  0.3480E+00  0.3480E+00
      2.057  0.0000E+00  0.0000E+00  0.3480E+00  0.3480E+00
      2.098  0.0000E+00  0.0000E+00  0.3480E+00  0.3480E+00
      2.140  0.0000E+00  0.0000E+00  0.3480E+00  0.3480E+00
      2.182  0.0000E+00  0.0000E+00  0.3480E+00  0.3480E+00
