 vasp.5.3.5 31Mar14 (build Feb 01 2018 12:10:03) gamma-only                     
  
 executed on             LinuxIFC date 2019.03.22  06:24:53
 running on   32 total cores
 distrk:  each k-point on   32 cores,    1 groups
 distr:  one band on NCORES_PER_BAND=   8 cores,    4 groups


--------------------------------------------------------------------------------------------------------


 INCAR:
 POTCAR:    PAW_PBE Ag 02Apr2005                  
 POTCAR:    PAW_PBE Ag 02Apr2005                  
   VRHFIN =Ag : s1 d10                                                          
   LEXCH  = PE                                                                  
   EATOM  =  1037.2675 eV,   76.2370 Ry                                         
                                                                                
   TITEL  = PAW_PBE Ag 02Apr2005                                                
   LULTRA =        F    use ultrasoft PP ?                                      
   IUNSCR =        1    unscreen: 0-lin 1-nonlin 2-no                           
   RPACOR =    2.000    partial core radius                                     
   POMASS =  107.868; ZVAL   =   11.000    mass and valenz                      
   RCORE  =    2.500    outmost cutoff radius                                   
   RWIGS  =    2.840; RWIGS  =    1.503    wigner-seitz radius (au A)           
   ENMAX  =  249.844; ENMIN  =  187.383 eV                                      
   ICORE  =        3    local potential                                         
   LCOR   =        T    correct aug charges                                     
   LPAW   =        T    paw PP                                                  
   EAUG   =  412.496                                                            
   DEXC   =    0.000                                                            
   RMAX   =    2.560    core radius for proj-oper                               
   RAUG   =    1.300    factor for augmentation sphere                          
   RDEP   =    2.576    radius for radial grids                                 
   RDEPT  =    2.072    core radius for aug-charge                              
                                                                                
   Atomic configuration                                                         
   12 entries                                                                   
     n  l   j            E        occ.                                          
     1  0  0.50    -25324.9161   2.0000                                         
     2  0  0.50     -3728.5341   2.0000                                         
     2  1  1.50     -3344.0404   6.0000                                         
     3  0  0.50      -683.5581   2.0000                                         
     3  1  1.50      -557.3225   6.0000                                         
     3  2  2.50      -358.3853  10.0000                                         
     4  0  0.50       -95.0341   2.0000                                         
     4  1  1.50       -58.5511   6.0000                                         
     4  2  2.50        -7.4440  10.0000                                         
     5  0  0.50        -4.4045   1.0000                                         
     5  1  0.50        -1.3606   0.0000                                         
     4  3  2.50        -1.3606   0.0000                                         
   Description                                                                  
     l       E           TYP  RCUT    TYP  RCUT                                 
     2     -7.4439781     23  2.400                                             
     2     -8.8045607     23  2.400                                             
     0     -4.4044681     23  2.400                                             
     0      1.9520038     23  2.400                                             
     1     -1.3605826     23  2.500                                             
     1     27.2116520     23  2.500                                             
     3     -4.0817478     23  2.400                                             
  local pseudopotential read in
  partial core-charges read in
  partial kinetic energy density read in
  atomic valenz-charges read in
  non local Contribution for L=           2  read in
    real space projection operators read in
  non local Contribution for L=           2  read in
    real space projection operators read in
  non local Contribution for L=           0  read in
    real space projection operators read in
  non local Contribution for L=           0  read in
    real space projection operators read in
  non local Contribution for L=           1  read in
    real space projection operators read in
  non local Contribution for L=           1  read in
    real space projection operators read in
    PAW grid and wavefunctions read in
 
   number of l-projection  operators is LMAX  =           6
   number of lm-projection operators is LMMAX =          18
 

 ----------------------------------------------------------------------------- 
|                                                                             |
|  ADVICE TO THIS USER RUNNING 'VASP/VAMP'   (HEAR YOUR MASTER'S VOICE ...):  |
|                                                                             |
|      You have a (more or less) 'large supercell' and for larger cells       |
|      it might be more efficient to use real space projection opertators     |
|      So try LREAL= Auto  in the INCAR   file.                               |
|      Mind: At the moment your POTCAR file does not contain real space       |
|       projectors, and has to be modified,  BUT if you                       |
|      want to do an extremely  accurate calculation you might also keep the  |
|      reciprocal projection scheme          (i.e. LREAL=.FALSE.)             |
|                                                                             |
 ----------------------------------------------------------------------------- 

  PAW_PBE Ag 02Apr2005                  :
 energy of atom  1       EATOM=-1037.2675
 kinetic energy error for atom=    0.0689 (will be added to EATOM!!)
 
 
 POSCAR: Au25, -63.05342658 <s> Ag </s>          
  positions in direct lattice
  No initial velocities read in
 exchange correlation table for  LEXCH =        8
   RHO(1)=    0.500       N(1)  =     2000
   RHO(2)=  100.500       N(2)  =     4000
 


--------------------------------------------------------------------------------------------------------


 ion  position               nearest neighbor table
   1  0.459  0.368  0.363-   7 2.72   4 2.73   3 2.76   6 2.84
   2  0.561  0.555  0.374-   9 2.73   4 2.77   3 2.78   5 2.80  11 2.82   8 2.85  18 2.96
   3  0.458  0.491  0.338-   5 2.74   1 2.76   2 2.78   7 2.80   4 2.81  10 2.92
   4  0.540  0.440  0.421-   9 2.71  12 2.72   1 2.73   6 2.76   2 2.77   3 2.81   7 3.20
   5  0.458  0.615  0.331-   8 2.70  10 2.72   3 2.74   2 2.80  18 2.96
   6  0.476  0.358  0.490-  14 2.75   4 2.76  12 2.80   7 2.81   1 2.84  13 2.88  20 2.92
   7  0.397  0.443  0.438-  15 2.71   1 2.72  10 2.75   3 2.80   6 2.81  13 2.83   4 3.20
   8  0.558  0.682  0.352-  11 2.70   5 2.70  18 2.75   2 2.85
   9  0.628  0.512  0.469-   4 2.71   2 2.73  16 2.78  12 2.80  11 2.85  22 2.86  25 2.89
  10  0.402  0.568  0.431-  15 2.68   5 2.72   7 2.75  18 2.79  21 2.81   3 2.92
  11  0.632  0.638  0.440-   8 2.70  16 2.70   2 2.82   9 2.85  25 2.87  18 2.90
  12  0.581  0.414  0.535-   4 2.72  17 2.74   9 2.80   6 2.80  22 2.83  20 2.87  24 3.07
  13  0.370  0.397  0.555-  14 2.67  19 2.75  15 2.77   7 2.83  23 2.87  20 2.87   6 2.88
  14  0.423  0.292  0.581-  13 2.67  20 2.69   6 2.75
  15  0.342  0.515  0.522-  10 2.68  19 2.70   7 2.71  13 2.77  23 2.85  21 2.86
  16  0.699  0.595  0.532-  22 2.70  11 2.70   9 2.78  25 2.79
  17  0.600  0.407  0.657-  22 2.73  20 2.73  12 2.74  24 2.83
  18  0.501  0.642  0.456-  21 2.70   8 2.75  25 2.77  10 2.79  11 2.90   2 2.96   5 2.96
  19  0.289  0.466  0.621-  15 2.70  23 2.71  13 2.75
  20  0.484  0.391  0.618-  14 2.69  17 2.73  24 2.74  13 2.87  12 2.87  23 2.88   6 2.92
  21  0.455  0.574  0.546-  25 2.69  18 2.70  23 2.76  24 2.76  10 2.81  15 2.86
  22  0.649  0.504  0.597-  16 2.70  17 2.73  24 2.75  12 2.83   9 2.86  25 2.90
  23  0.408  0.496  0.632-  24 2.66  19 2.71  21 2.76  15 2.85  13 2.87  20 2.88
  24  0.527  0.507  0.623-  23 2.66  20 2.74  22 2.75  21 2.76  25 2.82  17 2.83  12 3.07
  25  0.574  0.601  0.550-  21 2.69  18 2.77  16 2.79  24 2.82  11 2.87   9 2.89  22 2.90
 
  LATTYP: Found a simple cubic cell.
 ALAT       =    22.0629136036
  
  Lattice vectors:
  
 A1 = (  22.0629136036,   0.0000000000,   0.0000000000)
 A2 = (   0.0000000000,  22.0629136036,   0.0000000000)
 A3 = (   0.0000000000,   0.0000000000,  22.0629136036)


Analysis of symmetry for initial positions (statically):
=====================================================================
 Subroutine PRICEL returns:
 Original cell was already a primitive cell.
 

 Routine SETGRP: Setting up the symmetry group for a 
 simple cubic supercell.


 Subroutine GETGRP returns: Found  1 space group operations
 (whereof  1 operations were pure point group operations)
 out of a pool of 48 trial point group operations.


The static configuration has the point symmetry C_1 .


Analysis of symmetry for dynamics (positions and initial velocities):
=====================================================================
 Subroutine PRICEL returns:
 Original cell was already a primitive cell.
 

 Routine SETGRP: Setting up the symmetry group for a 
 simple cubic supercell.


 Subroutine GETGRP returns: Found  1 space group operations
 (whereof  1 operations were pure point group operations)
 out of a pool of 48 trial point group operations.


The dynamic configuration has the point symmetry C_1 .


Analysis of magnetic symmetry:
=====================================================================
 Subroutine PRICEL returns:
 Original cell was already a primitive cell.
 

 Subroutine MAGSYM returns: Found  1 space group operations
 (whereof  1 operations were pure point group operations)
 out of a pool of  1 trial space group operations
 (whereof  1 operations were pure point group operations)
 and found also     1 'primitive' translations


The magnetic configuration has the point symmetry C_1 .
 
 
 KPOINTS: Gamma-point only                        
  k-points in reciprocal lattice
Space group operators:
 irot       det(A)        alpha          n_x          n_y          n_z        tau_x        tau_y        tau_z
    1     1.000000     0.000000     1.000000     0.000000     0.000000     0.000000     0.000000     0.000000


--------------------------------------------------------------------------------------------------------




 Dimension of arrays:
   k-points           NKPTS =      1   k-points in BZ     NKDIM =      1   number of bands    NBANDS=    180
   number of dos      NEDOS =    301   number of ions     NIONS =     25
   non local maximal  LDIM  =      6   non local SUM 2l+1 LMDIM =     18
   total plane-waves  NPLWV = 729000
   max r-space proj   IRMAX =      1   max aug-charges    IRDMAX=   3537
   dimension x,y,z NGX =    90 NGY =   90 NGZ =   90
   dimension x,y,z NGXF=   180 NGYF=  180 NGZF=  180
   support grid    NGXF=   180 NGYF=  180 NGZF=  180
   ions per type =              25
 NGX,Y,Z   is equivalent  to a cutoff of   6.78,  6.78,  6.78 a.u.
 NGXF,Y,Z  is equivalent  to a cutoff of  13.56, 13.56, 13.56 a.u.


 I would recommend the setting:
   dimension x,y,z NGX =    85 NGY =   85 NGZ =   85
 SYSTEM =  unknown system                          
 POSCAR =  Au25, -63.05342658 <s> Ag </s>          

 Startparameter for this run:
   NWRITE =      2    write-flag & timer
   PREC   = normal    normal or accurate (medium, high low for compatibility)
   ISTART =      0    job   : 0-new  1-cont  2-samecut
   ICHARG =      2    charge: 1-file 2-atom 10-const
   ISPIN  =      2    spin polarized calculation?
   LNONCOLLINEAR =      F non collinear calculations
   LSORBIT =      F    spin-orbit coupling
   INIWAV =      1    electr: 0-lowe 1-rand  2-diag
   LASPH  =      F    aspherical Exc in radial PAW
   METAGGA=      F    non-selfconsistent MetaGGA calc.

 Electronic Relaxation 1
   ENCUT  =  249.8 eV  18.36 Ry    4.29 a.u.  28.44 28.44 28.44*2*pi/ulx,y,z
   ENINI  =  249.8     initial cutoff
   ENAUG  =  412.5 eV  augmentation charge cutoff
   NELM   =     60;   NELMIN=  2; NELMDL= -5     # of ELM steps 
   EDIFF  = 0.1E-03   stopping-criterion for ELM
   LREAL  =      F    real-space projection
   NLSPLINE    = F    spline interpolate recip. space projectors
   LCOMPAT=      F    compatible to vasp.4.4
   GGA_COMPAT  = T    GGA compatible to vasp.4.4-vasp.4.6
   LMAXPAW     = -100 max onsite density
   LMAXMIX     =    2 max onsite mixed and CHGCAR
   VOSKOWN=      0    Vosko Wilk Nusair interpolation
   ROPT   =    0.00000
 Ionic relaxation
   EDIFFG = 0.1E-02   stopping-criterion for IOM
   NSW    =   1000    number of steps for IOM
   NBLOCK =      1;   KBLOCK =   1000    inner block; outer block 
   IBRION =      2    ionic relax: 0-MD 1-quasi-New 2-CG
   NFREE  =      1    steps in history (QN), initial steepest desc. (CG)
   ISIF   =      2    stress and relaxation
   IWAVPR =     11    prediction:  0-non 1-charg 2-wave 3-comb
   ISYM   =      2    0-nonsym 1-usesym 2-fastsym
   LCORR  =      T    Harris-Foulkes like correction to forces

   POTIM  = 0.1000    time-step for ionic-motion
   TEIN   =    0.0    initial temperature
   TEBEG  =    0.0;   TEEND  =   0.0 temperature during run
   SMASS  =  -3.00    Nose mass-parameter (am)
   estimated Nose-frequenzy (Omega)   =  0.10E-29 period in steps =****** mass=  -0.111E-25a.u.
   SCALEE = 1.0000    scale energy and forces
   NPACO  =    256;   APACO  = 16.0  distance and # of slots for P.C.
   PSTRESS=    0.0 pullay stress

  Mass of Ions in am
   POMASS = 107.87
  Ionic Valenz
   ZVAL   =  11.00
  Atomic Wigner-Seitz radii
   RWIGS  =  -1.00
  virtual crystal weights 
   VCA    =   1.00
   NELECT =     275.0000    total number of electrons
   NUPDOWN=      -1.0000    fix difference up-down

 DOS related values:
   EMIN   =  10.00;   EMAX   =-10.00  energy-range for DOS
   EFERMI =   0.00
   ISMEAR =     0;   SIGMA  =   0.00  broadening in eV -4-tet -1-fermi 0-gaus

 Electronic relaxation 2 (details)
   IALGO  =     38    algorithm
   LDIAG  =      T    sub-space diagonalisation (order eigenvalues)
   LSUBROT=      F    optimize rotation matrix (better conditioning)
   TURBO    =      0    0=normal 1=particle mesh
   IRESTART =      0    0=no restart 2=restart with 2 vectors
   NREBOOT  =      0    no. of reboots
   NMIN     =      0    reboot dimension
   EREF     =   0.00    reference energy to select bands
   IMIX   =      4    mixing-type and parameters
     AMIX     =   0.40;   BMIX     =  1.00
     AMIX_MAG =   1.60;   BMIX_MAG =  1.00
     AMIN     =   0.10
     WC   =   100.;   INIMIX=   1;  MIXPRE=   1;  MAXMIX= -45

 Intra band minimization:
   WEIMIN = 0.0010     energy-eigenvalue tresh-hold
   EBREAK =  0.14E-06  absolut break condition
   DEPER  =   0.30     relativ break condition  

   TIME   =   0.40     timestep for ELM

  volume/ion in A,a.u.               =     429.58      2898.98
  Fermi-wavevector in a.u.,A,eV,Ry     =   0.482528  0.911846  3.167894  0.232834
  Thomas-Fermi vector in A             =   1.481206
 
 Write flags
   LWAVE  =      F    write WAVECAR
   LCHARG =      F    write CHGCAR
   LVTOT  =      F    write LOCPOT, total local potential
   LVHAR  =      F    write LOCPOT, Hartree potential only
   LELF   =      F    write electronic localiz. function (ELF)
   LORBIT =      0    0 simple, 1 ext, 2 COOP (PROOUT)


 Dipole corrections
   LMONO  =      F    monopole corrections only (constant potential shift)
   LDIPOL =      F    correct potential (dipole corrections)
   IDIPOL =      0    1-x, 2-y, 3-z, 4-all directions 
   EPSILON=  1.0000000 bulk dielectric constant

 Exchange correlation treatment:
   GGA     =    PE    GGA type
   LEXCH   =     8    internal setting for exchange type
   VOSKOWN=      0    Vosko Wilk Nusair interpolation
   LHFCALC =     F    Hartree Fock is set to
   LHFONE  =     F    Hartree Fock one center treatment
   AEXX    =    0.0000 exact exchange contribution

 Linear response parameters
   LEPSILON=     F    determine dielectric tensor
   LRPA    =     F    only Hartree local field effects (RPA)
   LNABLA  =     F    use nabla operator in PAW spheres
   LVEL    =     F    velocity operator in full k-point grid
   LINTERFAST=   F  fast interpolation
   KINTER  =     0    interpolate to denser k-point grid
   CSHIFT  =0.1000    complex shift for real part using Kramers Kronig
   OMEGAMAX=  -1.0    maximum frequency
   DEG_THRESHOLD= 0.2000000E-02 threshold for treating states as degnerate
   RTIME   =    0.100 relaxation time in fs

 Orbital magnetization related:
   ORBITALMAG=     F  switch on orbital magnetization
   LCHIMAG   =     F  perturbation theory with respect to B field
   DQ        =  0.001000  dq finite difference perturbation B field



--------------------------------------------------------------------------------------------------------


 conjugate gradient relaxation of ions
 charge density and potential will be updated during run
 spin polarized calculation
 Variant of blocked Davidson
 Davidson routine will perform the subspace rotation
 perform sub-space diagonalisation
    after iterative eigenvector-optimisation
 modified Broyden-mixing scheme, WC =      100.0
 initial mixing is a Kerker type mixing with AMIX =  0.4000 and BMIX =      1.0000
 Hartree-type preconditioning will be used
 using additional bands           42
 reciprocal scheme for non local part
 use partial core corrections
 calculate Harris-corrections to forces 
   (improved forces if not selfconsistent)
 use gradient corrections 
 use of overlap-Matrix (Vanderbilt PP)
 Gauss-broadening in eV      SIGMA  =   0.00


--------------------------------------------------------------------------------------------------------


  energy-cutoff  :      249.84
  volume of cell :    10739.61
      direct lattice vectors                 reciprocal lattice vectors
    22.062913604  0.000000000  0.000000000     0.045324929  0.000000000  0.000000000
     0.000000000 22.062913604  0.000000000     0.000000000  0.045324929  0.000000000
     0.000000000  0.000000000 22.062913604     0.000000000  0.000000000  0.045324929

  length of vectors
    22.062913604 22.062913604 22.062913604     0.045324929  0.045324929  0.045324929


 
 k-points in units of 2pi/SCALE and weight: Gamma-point only                        
   0.00000000  0.00000000  0.00000000       1.000
 
 k-points in reciprocal lattice and weights: Gamma-point only                        
   0.00000000  0.00000000  0.00000000       1.000
 
 position of ions in fractional coordinates (direct lattice) 
   0.45865438  0.36840396  0.36297669
   0.56146068  0.55459964  0.37354272
   0.45827096  0.49115619  0.33829824
   0.54042518  0.44049936  0.42115002
   0.45790456  0.61509417  0.33146727
   0.47631342  0.35844495  0.49015831
   0.39656486  0.44334318  0.43842044
   0.55837142  0.68191033  0.35233276
   0.62756163  0.51236648  0.46900674
   0.40214700  0.56762083  0.43064264
   0.63192455  0.63815881  0.43960075
   0.58111551  0.41439592  0.53455038
   0.37021322  0.39744212  0.55543768
   0.42309517  0.29200498  0.58149805
   0.34211131  0.51515639  0.52212009
   0.69879283  0.59478714  0.53237039
   0.60039597  0.40728666  0.65719904
   0.50141516  0.64206945  0.45567253
   0.28911884  0.46567404  0.62080681
   0.48404058  0.39092410  0.61817029
   0.45472782  0.57437264  0.54633761
   0.64890240  0.50363203  0.59659285
   0.40766446  0.49596508  0.63162388
   0.52732536  0.50716413  0.62326091
   0.57389214  0.60069412  0.54970960
 
 position of ions in cartesian coordinates  (Angst):
  10.11925205  8.12806471  8.00832337
  12.38745840 12.23608393  8.24144075
  10.11079255 10.83633667  7.46384480
  11.92335412  9.71869940  9.29179657
  10.10270873 13.57076943  7.31313377
  10.50886178  7.90833992 10.81432038
   8.74937614  9.78144238  9.67283233
  12.31930035 15.04492872  7.77348720
  13.84583796 11.30429735 10.34765519
   8.87253453 12.52336938  9.50123132
  13.94209675 14.07964262  9.69887326
  12.82110128  9.14278140 11.79373878
   8.16798233  8.76873113 12.25457355
   9.33471218  6.44248062 12.82954123
   7.54797220 11.36585082 11.51949053
  15.41740587 13.12273728 11.74564192
  13.24648448  8.98593045 14.49972558
  11.06267941 14.16592285 10.05346358
   6.37880399 10.27412608 13.69680704
  10.67934547  8.62492456 13.63863764
  10.03262050 12.67233401 12.05379938
  14.31667767 11.11159000 13.16257641
   8.99426571 10.94243476 13.93546318
  11.63433394 11.18951840 13.75095172
  12.66173271 13.25306254 12.12819547
 


--------------------------------------------------------------------------------------------------------


 use parallel FFT for wavefunctions z direction half grid
 k-point  1 :   0.0000 0.0000 0.0000  plane waves:   48089

 maximum and minimum number of plane-waves per node :      6017     6003

 maximum number of plane-waves:     48089
 maximum index in each direction: 
   IXMAX=   28   IYMAX=   28   IZMAX=   28
   IXMIN=  -28   IYMIN=  -28   IZMIN=    0

 WARNING: aliasing errors must be expected set NGX to 114 to avoid them
 WARNING: aliasing errors must be expected set NGY to 114 to avoid them
 WARNING: aliasing errors must be expected set NGZ to 114 to avoid them
 aliasing errors are usually negligible using standard VASP settings
 and one can safely disregard these warnings

 parallel 3D FFT for wavefunctions:
    minimum data exchange during FFTs selected (reduces bandwidth)
 parallel 3D FFT for charge:
    minimum data exchange during FFTs selected (reduces bandwidth)


 total amount of memory used by VASP on root node    72560. kBytes
========================================================================

   base      :      30000. kBytes
   nonl-proj :       3274. kBytes
   fftplans  :       8576. kBytes
   grid      :      21928. kBytes
   one-center:         62. kBytes
   wavefun   :       8720. kBytes
 
     INWAV:  cpu time    0.00: real time    0.00
 Broyden mixing: mesh for mixing (old mesh)
   NGX = 57   NGY = 57   NGZ = 57
  (NGX  =180   NGY  =180   NGZ  =180)
  gives a total of 185193 points

 initial charge density was supplied:
 charge density of overlapping atoms calculated
 number of electron     275.0000000 magnetization      25.0000000
 keeping initial charge density in first step


--------------------------------------------------------------------------------------------------------


 Maximum index for augmentation-charges          259 (set IRDMAX)


--------------------------------------------------------------------------------------------------------


 First call to EWALD:  gamma=   0.080
 Maximum number of real-space cells 3x 3x 3
 Maximum number of reciprocal cells 3x 3x 3

 FEWALD executed in parallel
    FEWALD:  cpu time    0.00: real time    0.00


----------------------------------------- Iteration    1(   1)  ---------------------------------------


    POTLOK:  cpu time    0.37: real time    0.37
    SETDIJ:  cpu time    0.01: real time    0.01
     EDDAV:  cpu time    3.48: real time    3.48
       DOS:  cpu time    0.00: real time    0.00
    --------------------------------------------
      LOOP:  cpu time    3.85: real time    3.88

 eigenvalue-minimisations  :   720
 total energy-change (2. order) : 0.2445816E+04  (-0.4736490E+04)
 number of electron     275.0000000 magnetization      25.0000000
 augmentation part      275.0000000 magnetization      25.0000000

 Free energy of the ion-electron system (eV)
  ---------------------------------------------------
  alpha Z        PSCENC =        49.50004630
  Ewald energy   TEWEN  =     48173.10535427
  -Hartree energ DENC   =    -73003.92901829
  -exchange      EXHF   =         0.00000000
  -V(xc)+E(xc)   XCENC  =      -275.42988835
  PAW double counting   =     25084.30445174   -23931.61522197
  entropy T*S    EENTRO =        -0.00000000
  eigenvalues    EBANDS =       419.91439412
  atomic energy  EATOM  =     25929.96575216
  ---------------------------------------------------
  free energy    TOTEN  =      2445.81586999 eV

  energy without entropy =     2445.81586999  energy(sigma->0) =     2445.81586999


--------------------------------------------------------------------------------------------------------




----------------------------------------- Iteration    1(   2)  ---------------------------------------


     EDDAV:  cpu time    5.53: real time    5.53
       DOS:  cpu time    0.00: real time    0.00
    --------------------------------------------
      LOOP:  cpu time    5.53: real time    5.54

 eigenvalue-minimisations  :  1280
 total energy-change (2. order) :-0.1807055E+04  (-0.1605968E+04)
 number of electron     275.0000000 magnetization      25.0000000
 augmentation part      275.0000000 magnetization      25.0000000

 Free energy of the ion-electron system (eV)
  ---------------------------------------------------
  alpha Z        PSCENC =        49.50004630
  Ewald energy   TEWEN  =     48173.10535427
  -Hartree energ DENC   =    -73003.92901829
  -exchange      EXHF   =         0.00000000
  -V(xc)+E(xc)   XCENC  =      -275.42988835
  PAW double counting   =     25084.30445174   -23931.61522197
  entropy T*S    EENTRO =        -0.00000000
  eigenvalues    EBANDS =     -1387.14092872
  atomic energy  EATOM  =     25929.96575216
  ---------------------------------------------------
  free energy    TOTEN  =       638.76054715 eV

  energy without entropy =      638.76054715  energy(sigma->0) =      638.76054715


--------------------------------------------------------------------------------------------------------




----------------------------------------- Iteration    1(   3)  ---------------------------------------


     EDDAV:  cpu time    4.42: real time    4.43
       DOS:  cpu time    0.00: real time    0.00
    --------------------------------------------
      LOOP:  cpu time    4.42: real time    5.01

 eigenvalue-minimisations  :   976
 total energy-change (2. order) :-0.6464205E+03  (-0.5971047E+03)
 number of electron     275.0000000 magnetization      25.0000000
 augmentation part      275.0000000 magnetization      25.0000000

 Free energy of the ion-electron system (eV)
  ---------------------------------------------------
  alpha Z        PSCENC =        49.50004630
  Ewald energy   TEWEN  =     48173.10535427
  -Hartree energ DENC   =    -73003.92901829
  -exchange      EXHF   =         0.00000000
  -V(xc)+E(xc)   XCENC  =      -275.42988835
  PAW double counting   =     25084.30445174   -23931.61522197
  entropy T*S    EENTRO =         0.00000000
  eigenvalues    EBANDS =     -2033.56139541
  atomic energy  EATOM  =     25929.96575216
  ---------------------------------------------------
  free energy    TOTEN  =        -7.65991954 eV

  energy without entropy =       -7.65991954  energy(sigma->0) =       -7.65991954


--------------------------------------------------------------------------------------------------------




----------------------------------------- Iteration    1(   4)  ---------------------------------------


     EDDAV:  cpu time    3.84: real time    3.84
       DOS:  cpu time    0.00: real time    0.00
    --------------------------------------------
      LOOP:  cpu time    3.84: real time    3.85

 eigenvalue-minimisations  :   816
 total energy-change (2. order) :-0.4221831E+02  (-0.4131828E+02)
 number of electron     275.0000000 magnetization      25.0000000
 augmentation part      275.0000000 magnetization      25.0000000

 Free energy of the ion-electron system (eV)
  ---------------------------------------------------
  alpha Z        PSCENC =        49.50004630
  Ewald energy   TEWEN  =     48173.10535427
  -Hartree energ DENC   =    -73003.92901829
  -exchange      EXHF   =         0.00000000
  -V(xc)+E(xc)   XCENC  =      -275.42988835
  PAW double counting   =     25084.30445174   -23931.61522197
  entropy T*S    EENTRO =         0.00000000
  eigenvalues    EBANDS =     -2075.77970274
  atomic energy  EATOM  =     25929.96575216
  ---------------------------------------------------
  free energy    TOTEN  =       -49.87822687 eV

  energy without entropy =      -49.87822687  energy(sigma->0) =      -49.87822687


--------------------------------------------------------------------------------------------------------




----------------------------------------- Iteration    1(   5)  ---------------------------------------


     EDDAV:  cpu time    3.74: real time    3.74
       DOS:  cpu time    0.00: real time    0.00
    CHARGE:  cpu time    0.16: real time    0.16
    MIXING:  cpu time    0.01: real time    0.01
    --------------------------------------------
      LOOP:  cpu time    3.91: real time    4.43

 eigenvalue-minimisations  :   808
 total energy-change (2. order) :-0.7269240E+00  (-0.7252390E+00)
 number of electron     274.9999653 magnetization      22.1192977
 augmentation part      129.2122112 magnetization      21.6958020

 Broyden mixing:
  rms(total) = 0.28396E+01    rms(broyden)= 0.28392E+01
  rms(prec ) = 0.28885E+01
  weight for this iteration     100.00

 Free energy of the ion-electron system (eV)
  ---------------------------------------------------
  alpha Z        PSCENC =        49.50004630
  Ewald energy   TEWEN  =     48173.10535427
  -Hartree energ DENC   =    -73003.92901829
  -exchange      EXHF   =         0.00000000
  -V(xc)+E(xc)   XCENC  =      -275.42988835
  PAW double counting   =     25084.30445174   -23931.61522197
  entropy T*S    EENTRO =         0.00000000
  eigenvalues    EBANDS =     -2076.50662670
  atomic energy  EATOM  =     25929.96575216
  ---------------------------------------------------
  free energy    TOTEN  =       -50.60515083 eV

  energy without entropy =      -50.60515083  energy(sigma->0) =      -50.60515083


--------------------------------------------------------------------------------------------------------




----------------------------------------- Iteration    1(   6)  ---------------------------------------


    POTLOK:  cpu time    0.36: real time    0.36
    SETDIJ:  cpu time    0.01: real time    0.01
     EDDAV:  cpu time    3.51: real time    3.51
       DOS:  cpu time    0.00: real time    0.00
    CHARGE:  cpu time    0.16: real time    0.16
    MIXING:  cpu time    0.01: real time    0.01
    --------------------------------------------
      LOOP:  cpu time    4.05: real time    4.05

 eigenvalue-minimisations  :   724
 total energy-change (2. order) : 0.3765408E+02  (-0.1126025E+02)
 number of electron     274.9999646 magnetization      20.2010507
 augmentation part      132.1845568 magnetization      13.3283541

 Broyden mixing:
  rms(total) = 0.14682E+01    rms(broyden)= 0.14681E+01
  rms(prec ) = 0.14891E+01
  weight for this iteration     100.00

 eigenvalues of (default mixing * dielectric matrix)
  average eigenvalue GAMMA=   0.8569
  0.8569

 Free energy of the ion-electron system (eV)
  ---------------------------------------------------
  alpha Z        PSCENC =        49.50004630
  Ewald energy   TEWEN  =     48173.10535427
  -Hartree energ DENC   =    -72910.15719305
  -exchange      EXHF   =         0.00000000
  -V(xc)+E(xc)   XCENC  =      -256.53830189
  PAW double counting   =     25944.64438548   -24810.97563939
  entropy T*S    EENTRO =         0.00000000
  eigenvalues    EBANDS =     -2132.49547299
  atomic energy  EATOM  =     25929.96575216
  ---------------------------------------------------
  free energy    TOTEN  =       -12.95106911 eV

  energy without entropy =      -12.95106911  energy(sigma->0) =      -12.95106911


--------------------------------------------------------------------------------------------------------




----------------------------------------- Iteration    1(   7)  ---------------------------------------


    POTLOK:  cpu time    0.36: real time    0.36
    SETDIJ:  cpu time    0.01: real time    0.01
     EDDAV:  cpu time    3.64: real time    3.64
       DOS:  cpu time    0.00: real time    0.00
    CHARGE:  cpu time    0.16: real time    0.16
    MIXING:  cpu time    0.01: real time    0.01
    --------------------------------------------
      LOOP:  cpu time    4.18: real time    5.44

 eigenvalue-minimisations  :   760
 total energy-change (2. order) : 0.5610575E+01  (-0.6156069E+00)
 number of electron     274.9999648 magnetization      17.3330373
 augmentation part      132.0850628 magnetization      10.6930567

 Broyden mixing:
  rms(total) = 0.87296E+00    rms(broyden)= 0.87295E+00
  rms(prec ) = 0.88387E+00
  weight for this iteration     100.00

 eigenvalues of (default mixing * dielectric matrix)
  average eigenvalue GAMMA=   0.9768
  0.7501  1.2036

 Free energy of the ion-electron system (eV)
  ---------------------------------------------------
  alpha Z        PSCENC =        49.50004630
  Ewald energy   TEWEN  =     48173.10535427
  -Hartree energ DENC   =    -72973.51824263
  -exchange      EXHF   =         0.00000000
  -V(xc)+E(xc)   XCENC  =      -251.57460334
  PAW double counting   =     26463.25986447   -25341.71158700
  entropy T*S    EENTRO =         0.00000000
  eigenvalues    EBANDS =     -2056.36707835
  atomic energy  EATOM  =     25929.96575216
  ---------------------------------------------------
  free energy    TOTEN  =        -7.34049412 eV

  energy without entropy =       -7.34049412  energy(sigma->0) =       -7.34049412


--------------------------------------------------------------------------------------------------------




----------------------------------------- Iteration    1(   8)  ---------------------------------------


    POTLOK:  cpu time    0.36: real time    0.36
    SETDIJ:  cpu time    0.01: real time    0.01
     EDDAV:  cpu time    3.74: real time    3.74
       DOS:  cpu time    0.00: real time    0.00
    CHARGE:  cpu time    0.16: real time    0.16
    MIXING:  cpu time    0.01: real time    0.01
    --------------------------------------------
      LOOP:  cpu time    4.28: real time    4.29

 eigenvalue-minimisations  :   788
 total energy-change (2. order) :-0.4671412E+01  (-0.2467259E+00)
 number of electron     274.9999649 magnetization      15.2863837
 augmentation part      131.8251715 magnetization       8.8759747

 Broyden mixing:
  rms(total) = 0.46975E+00    rms(broyden)= 0.46974E+00
  rms(prec ) = 0.47377E+00
  weight for this iteration     100.00

 eigenvalues of (default mixing * dielectric matrix)
  average eigenvalue GAMMA=   1.2200
  2.1272  0.9167  0.6162

 Free energy of the ion-electron system (eV)
  ---------------------------------------------------
  alpha Z        PSCENC =        49.50004630
  Ewald energy   TEWEN  =     48173.10535427
  -Hartree energ DENC   =    -73041.32240012
  -exchange      EXHF   =         0.00000000
  -V(xc)+E(xc)   XCENC  =      -254.28867163
  PAW double counting   =     27059.81201238   -25950.45248304
  entropy T*S    EENTRO =         0.00000000
  eigenvalues    EBANDS =     -1978.33151604
  atomic energy  EATOM  =     25929.96575216
  ---------------------------------------------------
  free energy    TOTEN  =       -12.01190571 eV

  energy without entropy =      -12.01190571  energy(sigma->0) =      -12.01190571


--------------------------------------------------------------------------------------------------------




----------------------------------------- Iteration    1(   9)  ---------------------------------------


    POTLOK:  cpu time    0.36: real time    0.36
    SETDIJ:  cpu time    0.01: real time    0.01
     EDDAV:  cpu time    3.67: real time    3.67
       DOS:  cpu time    0.00: real time    0.00
    CHARGE:  cpu time    0.16: real time    0.16
    MIXING:  cpu time    0.01: real time    0.01
    --------------------------------------------
      LOOP:  cpu time    4.21: real time    4.22

 eigenvalue-minimisations  :   768
 total energy-change (2. order) :-0.5733341E+01  (-0.2032772E+00)
 number of electron     274.9999650 magnetization      14.6122353
 augmentation part      131.7574626 magnetization      10.3612918

 Broyden mixing:
  rms(total) = 0.35802E+00    rms(broyden)= 0.35795E+00
  rms(prec ) = 0.36595E+00
  weight for this iteration     100.00

 eigenvalues of (default mixing * dielectric matrix)
  average eigenvalue GAMMA=   1.0380
  2.1653  0.9282  0.5852  0.4734

 Free energy of the ion-electron system (eV)
  ---------------------------------------------------
  alpha Z        PSCENC =        49.50004630
  Ewald energy   TEWEN  =     48173.10535427
  -Hartree energ DENC   =    -73063.19574503
  -exchange      EXHF   =         0.00000000
  -V(xc)+E(xc)   XCENC  =      -258.09798132
  PAW double counting   =     27298.68521697   -26193.91226409
  entropy T*S    EENTRO =         0.00000000
  eigenvalues    EBANDS =     -1953.79562617
  atomic energy  EATOM  =     25929.96575216
  ---------------------------------------------------
  free energy    TOTEN  =       -17.74524690 eV

  energy without entropy =      -17.74524690  energy(sigma->0) =      -17.74524690


--------------------------------------------------------------------------------------------------------




----------------------------------------- Iteration    1(  10)  ---------------------------------------


    POTLOK:  cpu time    0.36: real time    0.36
    SETDIJ:  cpu time    0.01: real time    0.01
     EDDAV:  cpu time    3.88: real time    3.88
       DOS:  cpu time    0.00: real time    0.00
    CHARGE:  cpu time    0.16: real time    0.16
    MIXING:  cpu time    0.01: real time    0.01
    --------------------------------------------
      LOOP:  cpu time    4.42: real time    4.44

 eigenvalue-minimisations  :   824
 total energy-change (2. order) :-0.1192856E+01  (-0.2439494E-01)
 number of electron     274.9999650 magnetization      11.8485676
 augmentation part      131.7539592 magnetization       7.6981925

 Broyden mixing:
  rms(total) = 0.32161E+00    rms(broyden)= 0.32160E+00
  rms(prec ) = 0.32730E+00
  weight for this iteration     100.00

 eigenvalues of (default mixing * dielectric matrix)
  average eigenvalue GAMMA=   1.1173
  2.2058  1.2196  0.6549  0.7530  0.7530

 Free energy of the ion-electron system (eV)
  ---------------------------------------------------
  alpha Z        PSCENC =        49.50004630
  Ewald energy   TEWEN  =     48173.10535427
  -Hartree energ DENC   =    -73066.98646595
  -exchange      EXHF   =         0.00000000
  -V(xc)+E(xc)   XCENC  =      -258.79986560
  PAW double counting   =     27316.12074535   -26211.77835395
  entropy T*S    EENTRO =         0.00000000
  eigenvalues    EBANDS =     -1950.06531565
  atomic energy  EATOM  =     25929.96575216
  ---------------------------------------------------
  free energy    TOTEN  =       -18.93810306 eV

  energy without entropy =      -18.93810306  energy(sigma->0) =      -18.93810306


--------------------------------------------------------------------------------------------------------




----------------------------------------- Iteration    1(  11)  ---------------------------------------


    POTLOK:  cpu time    0.36: real time    0.36
    SETDIJ:  cpu time    0.01: real time    0.01
     EDDAV:  cpu time    3.55: real time    3.55
       DOS:  cpu time    0.00: real time    0.00
    CHARGE:  cpu time    0.16: real time    0.16
    MIXING:  cpu time    0.01: real time    0.01
    --------------------------------------------
      LOOP:  cpu time    4.09: real time    4.21

 eigenvalue-minimisations  :   732
 total energy-change (2. order) :-0.8989109E+01  (-0.4237960E+00)
 number of electron     274.9999650 magnetization       8.7792267
 augmentation part      131.7703225 magnetization       4.9957672

 Broyden mixing:
  rms(total) = 0.22436E+00    rms(broyden)= 0.22435E+00
  rms(prec ) = 0.22656E+00
  weight for this iteration     100.00

 eigenvalues of (default mixing * dielectric matrix)
  average eigenvalue GAMMA=   1.2714
  2.5513  2.0229  0.8858  0.8858  0.5943  0.6885

 Free energy of the ion-electron system (eV)
  ---------------------------------------------------
  alpha Z        PSCENC =        49.50004630
  Ewald energy   TEWEN  =     48173.10535427
  -Hartree energ DENC   =    -73076.73414435
  -exchange      EXHF   =         0.00000000
  -V(xc)+E(xc)   XCENC  =      -265.26893270
  PAW double counting   =     27306.35659650   -26202.59633299
  entropy T*S    EENTRO =         0.00000000
  eigenvalues    EBANDS =     -1942.25555114
  atomic energy  EATOM  =     25929.96575216
  ---------------------------------------------------
  free energy    TOTEN  =       -27.92721194 eV

  energy without entropy =      -27.92721194  energy(sigma->0) =      -27.92721194


--------------------------------------------------------------------------------------------------------




----------------------------------------- Iteration    1(  12)  ---------------------------------------


    POTLOK:  cpu time    0.36: real time    0.36
    SETDIJ:  cpu time    0.01: real time    0.01
     EDDAV:  cpu time    3.59: real time    3.60
       DOS:  cpu time    0.00: real time    0.00
    CHARGE:  cpu time    0.16: real time    0.16
    MIXING:  cpu time    0.01: real time    0.01
    --------------------------------------------
      LOOP:  cpu time    4.14: real time    4.14

 eigenvalue-minimisations  :   744
 total energy-change (2. order) :-0.8801254E+01  (-0.4156081E+00)
 number of electron     274.9999650 magnetization       7.2268152
 augmentation part      131.7967964 magnetization       3.8098899

 Broyden mixing:
  rms(total) = 0.14659E+00    rms(broyden)= 0.14657E+00
  rms(prec ) = 0.15100E+00
  weight for this iteration     100.00

 eigenvalues of (default mixing * dielectric matrix)
  average eigenvalue GAMMA=   1.3596
  3.4985  2.0781  0.9704  0.9704  0.7645  0.5958  0.6398

 Free energy of the ion-electron system (eV)
  ---------------------------------------------------
  alpha Z        PSCENC =        49.50004630
  Ewald energy   TEWEN  =     48173.10535427
  -Hartree energ DENC   =    -73078.44545446
  -exchange      EXHF   =         0.00000000
  -V(xc)+E(xc)   XCENC  =      -272.09456285
  PAW double counting   =     27264.04855826   -26160.26122543
  entropy T*S    EENTRO =         0.00000000
  eigenvalues    EBANDS =     -1942.54693397
  atomic energy  EATOM  =     25929.96575216
  ---------------------------------------------------
  free energy    TOTEN  =       -36.72846572 eV

  energy without entropy =      -36.72846572  energy(sigma->0) =      -36.72846572


--------------------------------------------------------------------------------------------------------




----------------------------------------- Iteration    1(  13)  ---------------------------------------


    POTLOK:  cpu time    0.36: real time    0.36
    SETDIJ:  cpu time    0.01: real time    0.01
     EDDAV:  cpu time    3.55: real time    3.55
       DOS:  cpu time    0.00: real time    0.00
    CHARGE:  cpu time    0.16: real time    0.16
    MIXING:  cpu time    0.01: real time    0.01
    --------------------------------------------
      LOOP:  cpu time    4.09: real time    4.49

 eigenvalue-minimisations  :   752
 total energy-change (2. order) :-0.4373096E+01  (-0.1163716E+00)
 number of electron     274.9999650 magnetization       6.9806139
 augmentation part      131.7835499 magnetization       5.6614962

 Broyden mixing:
  rms(total) = 0.18598E+00    rms(broyden)= 0.18584E+00
  rms(prec ) = 0.19493E+00
  weight for this iteration     100.00

 eigenvalues of (default mixing * dielectric matrix)
  average eigenvalue GAMMA=   1.2019
  3.5377  2.0665  0.9677  0.9677  0.7625  0.6504  0.5933  0.0690

 Free energy of the ion-electron system (eV)
  ---------------------------------------------------
  alpha Z        PSCENC =        49.50004630
  Ewald energy   TEWEN  =     48173.10535427
  -Hartree energ DENC   =    -73072.55023960
  -exchange      EXHF   =         0.00000000
  -V(xc)+E(xc)   XCENC  =      -275.56968734
  PAW double counting   =     27232.57539349   -26128.60378864
  entropy T*S    EENTRO =         0.00000000
  eigenvalues    EBANDS =     -1949.52439219
  atomic energy  EATOM  =     25929.96575216
  ---------------------------------------------------
  free energy    TOTEN  =       -41.10156154 eV

  energy without entropy =      -41.10156154  energy(sigma->0) =      -41.10156154


--------------------------------------------------------------------------------------------------------




----------------------------------------- Iteration    1(  14)  ---------------------------------------


    POTLOK:  cpu time    0.36: real time    0.36
    SETDIJ:  cpu time    0.01: real time    0.01
     EDDAV:  cpu time    4.24: real time    4.24
       DOS:  cpu time    0.00: real time    0.00
    CHARGE:  cpu time    0.16: real time    0.16
    MIXING:  cpu time    0.02: real time    0.01
    --------------------------------------------
      LOOP:  cpu time    4.78: real time    4.80

 eigenvalue-minimisations  :   920
 total energy-change (2. order) :-0.2309721E+00  (-0.2788862E-02)
 number of electron     274.9999650 magnetization       5.3767774
 augmentation part      131.7748104 magnetization       4.0863577

 Broyden mixing:
  rms(total) = 0.17234E+00    rms(broyden)= 0.17233E+00
  rms(prec ) = 0.18102E+00
  weight for this iteration     100.00

 eigenvalues of (default mixing * dielectric matrix)
  average eigenvalue GAMMA=   1.2323
  3.7168  2.1695  0.9986  0.9986  0.6586  0.6586  0.6961  0.6491  0.5452

 Free energy of the ion-electron system (eV)
  ---------------------------------------------------
  alpha Z        PSCENC =        49.50004630
  Ewald energy   TEWEN  =     48173.10535427
  -Hartree energ DENC   =    -73072.01527768
  -exchange      EXHF   =         0.00000000
  -V(xc)+E(xc)   XCENC  =      -275.75403068
  PAW double counting   =     27230.03989529   -26126.08457310
  entropy T*S    EENTRO =        -0.00000000
  eigenvalues    EBANDS =     -1950.08970018
  atomic energy  EATOM  =     25929.96575216
  ---------------------------------------------------
  free energy    TOTEN  =       -41.33253362 eV

  energy without entropy =      -41.33253362  energy(sigma->0) =      -41.33253362


--------------------------------------------------------------------------------------------------------




----------------------------------------- Iteration    1(  15)  ---------------------------------------


    POTLOK:  cpu time    0.36: real time    0.36
    SETDIJ:  cpu time    0.01: real time    0.01
     EDDAV:  cpu time    3.64: real time    3.63
       DOS:  cpu time    0.00: real time    0.00
    CHARGE:  cpu time    0.16: real time    0.16
    MIXING:  cpu time    0.02: real time    0.01
    --------------------------------------------
      LOOP:  cpu time    4.18: real time    4.19

 eigenvalue-minimisations  :   752
 total energy-change (2. order) :-0.2720477E+01  (-0.5473540E-01)
 number of electron     274.9999650 magnetization       3.3191383
 augmentation part      131.8051083 magnetization       2.1407176

 Broyden mixing:
  rms(total) = 0.11815E+00    rms(broyden)= 0.11814E+00
  rms(prec ) = 0.12223E+00
  weight for this iteration     100.00

 eigenvalues of (default mixing * dielectric matrix)
  average eigenvalue GAMMA=   1.4114
  5.1519  1.8954  1.8954  0.8522  0.8522  1.0170  0.6862  0.6588  0.6588  0.4460

 Free energy of the ion-electron system (eV)
  ---------------------------------------------------
  alpha Z        PSCENC =        49.50004630
  Ewald energy   TEWEN  =     48173.10535427
  -Hartree energ DENC   =    -73060.39379068
  -exchange      EXHF   =         0.00000000
  -V(xc)+E(xc)   XCENC  =      -278.17599406
  PAW double counting   =     27166.92652103   -26062.52238803
  entropy T*S    EENTRO =         0.00000000
  eigenvalues    EBANDS =     -1962.45851120
  atomic energy  EATOM  =     25929.96575216
  ---------------------------------------------------
  free energy    TOTEN  =       -44.05301021 eV

  energy without entropy =      -44.05301021  energy(sigma->0) =      -44.05301021


--------------------------------------------------------------------------------------------------------




----------------------------------------- Iteration    1(  16)  ---------------------------------------


    POTLOK:  cpu time    0.36: real time    0.36
    SETDIJ:  cpu time    0.01: real time    0.01
     EDDAV:  cpu time    3.54: real time    3.54
       DOS:  cpu time    0.00: real time    0.00
    CHARGE:  cpu time    0.16: real time    0.16
    MIXING:  cpu time    0.01: real time    0.01
    --------------------------------------------
      LOOP:  cpu time    4.08: real time    4.11

 eigenvalue-minimisations  :   728
 total energy-change (2. order) :-0.2688963E+01  (-0.7017354E-01)
 number of electron     274.9999650 magnetization       2.3947367
 augmentation part      131.8071638 magnetization       1.3272557

 Broyden mixing:
  rms(total) = 0.61419E-01    rms(broyden)= 0.61408E-01
  rms(prec ) = 0.65093E-01
  weight for this iteration     100.00

 eigenvalues of (default mixing * dielectric matrix)
  average eigenvalue GAMMA=   1.5355
  6.5587  2.1376  2.1376  0.8363  0.8363  0.9325  0.9325  0.7688  0.6467  0.6467
  0.4568

 Free energy of the ion-electron system (eV)
  ---------------------------------------------------
  alpha Z        PSCENC =        49.50004630
  Ewald energy   TEWEN  =     48173.10535427
  -Hartree energ DENC   =    -73048.05783342
  -exchange      EXHF   =         0.00000000
  -V(xc)+E(xc)   XCENC  =      -280.63033170
  PAW double counting   =     27130.10465447   -26025.57254323
  entropy T*S    EENTRO =         0.00000000
  eigenvalues    EBANDS =     -1975.15707246
  atomic energy  EATOM  =     25929.96575216
  ---------------------------------------------------
  free energy    TOTEN  =       -46.74197362 eV

  energy without entropy =      -46.74197362  energy(sigma->0) =      -46.74197362


--------------------------------------------------------------------------------------------------------




----------------------------------------- Iteration    1(  17)  ---------------------------------------


    POTLOK:  cpu time    0.36: real time    0.37
    SETDIJ:  cpu time    0.01: real time    0.01
     EDDAV:  cpu time    3.67: real time    3.67
       DOS:  cpu time    0.00: real time    0.00
    CHARGE:  cpu time    0.16: real time    0.16
    MIXING:  cpu time    0.01: real time    0.01
    --------------------------------------------
      LOOP:  cpu time    4.22: real time    4.24

 eigenvalue-minimisations  :   760
 total energy-change (2. order) :-0.1073636E+01  (-0.1670544E-01)
 number of electron     274.9999650 magnetization       1.7430111
 augmentation part      131.7977759 magnetization       0.7145160

 Broyden mixing:
  rms(total) = 0.47808E-01    rms(broyden)= 0.47800E-01
  rms(prec ) = 0.52031E-01
  weight for this iteration     100.00

 eigenvalues of (default mixing * dielectric matrix)
  average eigenvalue GAMMA=   1.5855
  7.2792  2.6568  1.5785  0.9173  0.9173  1.1282  1.1282  1.0005  0.6787  0.6387
  0.6387  0.4640

 Free energy of the ion-electron system (eV)
  ---------------------------------------------------
  alpha Z        PSCENC =        49.50004630
  Ewald energy   TEWEN  =     48173.10535427
  -Hartree energ DENC   =    -73040.05537011
  -exchange      EXHF   =         0.00000000
  -V(xc)+E(xc)   XCENC  =      -281.67397786
  PAW double counting   =     27125.93610795   -26021.19540106
  entropy T*S    EENTRO =         0.00000000
  eigenvalues    EBANDS =     -1983.39812135
  atomic energy  EATOM  =     25929.96575216
  ---------------------------------------------------
  free energy    TOTEN  =       -47.81560969 eV

  energy without entropy =      -47.81560969  energy(sigma->0) =      -47.81560969


--------------------------------------------------------------------------------------------------------




----------------------------------------- Iteration    1(  18)  ---------------------------------------


    POTLOK:  cpu time    0.36: real time    0.37
    SETDIJ:  cpu time    0.01: real time    0.01
     EDDAV:  cpu time    3.60: real time    3.61
       DOS:  cpu time    0.00: real time    0.00
    CHARGE:  cpu time    0.16: real time    0.16
    MIXING:  cpu time    0.02: real time    0.02
    --------------------------------------------
      LOOP:  cpu time    4.16: real time    4.16

 eigenvalue-minimisations  :   744
 total energy-change (2. order) :-0.1070156E+01  (-0.9126053E-02)
 number of electron     274.9999650 magnetization       1.3883359
 augmentation part      131.8124960 magnetization       0.3731747

 Broyden mixing:
  rms(total) = 0.32951E-01    rms(broyden)= 0.32941E-01
  rms(prec ) = 0.36508E-01
  weight for this iteration     100.00

 eigenvalues of (default mixing * dielectric matrix)
  average eigenvalue GAMMA=   1.6924
  8.0009  3.1298  1.8835  1.8835  1.1991  0.8942  0.8942  0.8210  0.8210  0.6833
  0.6833  0.6463  0.4609

 Free energy of the ion-electron system (eV)
  ---------------------------------------------------
  alpha Z        PSCENC =        49.50004630
  Ewald energy   TEWEN  =     48173.10535427
  -Hartree energ DENC   =    -73027.49074826
  -exchange      EXHF   =         0.00000000
  -V(xc)+E(xc)   XCENC  =      -282.82657402
  PAW double counting   =     27119.20989604   -26013.98048439
  entropy T*S    EENTRO =         0.00000000
  eigenvalues    EBANDS =     -1996.36900736
  atomic energy  EATOM  =     25929.96575216
  ---------------------------------------------------
  free energy    TOTEN  =       -48.88576527 eV

  energy without entropy =      -48.88576527  energy(sigma->0) =      -48.88576527


--------------------------------------------------------------------------------------------------------




----------------------------------------- Iteration    1(  19)  ---------------------------------------


    POTLOK:  cpu time    0.36: real time    0.36
    SETDIJ:  cpu time    0.01: real time    0.01
     EDDAV:  cpu time    3.60: real time    3.60
       DOS:  cpu time    0.00: real time    0.00
    CHARGE:  cpu time    0.16: real time    0.16
    MIXING:  cpu time    0.02: real time    0.02
    --------------------------------------------
      LOOP:  cpu time    4.15: real time    4.47

 eigenvalue-minimisations  :   744
 total energy-change (2. order) :-0.7114794E+00  (-0.4306434E-02)
 number of electron     274.9999650 magnetization       1.2679142
 augmentation part      131.8078290 magnetization       0.2471318

 Broyden mixing:
  rms(total) = 0.14574E-01    rms(broyden)= 0.14563E-01
  rms(prec ) = 0.17659E-01
  weight for this iteration     100.00

 eigenvalues of (default mixing * dielectric matrix)
  average eigenvalue GAMMA=   1.7164
  8.3365  3.6699  1.9033  1.6607  1.6607  0.8839  0.8839  1.0542  0.7892  0.7892
  0.6487  0.6487  0.6394  0.4615

 Free energy of the ion-electron system (eV)
  ---------------------------------------------------
  alpha Z        PSCENC =        49.50004630
  Ewald energy   TEWEN  =     48173.10535427
  -Hartree energ DENC   =    -73016.62389887
  -exchange      EXHF   =         0.00000000
  -V(xc)+E(xc)   XCENC  =      -283.60827200
  PAW double counting   =     27140.15665654   -26034.87519520
  entropy T*S    EENTRO =         0.00000000
  eigenvalues    EBANDS =     -2007.21768789
  atomic energy  EATOM  =     25929.96575216
  ---------------------------------------------------
  free energy    TOTEN  =       -49.59724469 eV

  energy without entropy =      -49.59724469  energy(sigma->0) =      -49.59724469


--------------------------------------------------------------------------------------------------------




----------------------------------------- Iteration    1(  20)  ---------------------------------------


    POTLOK:  cpu time    0.37: real time    0.37
    SETDIJ:  cpu time    0.01: real time    0.01
     EDDAV:  cpu time    3.70: real time    3.70
       DOS:  cpu time    0.00: real time    0.00
    CHARGE:  cpu time    0.16: real time    0.16
    MIXING:  cpu time    0.02: real time    0.02
    --------------------------------------------
      LOOP:  cpu time    4.24: real time    4.27

 eigenvalue-minimisations  :   768
 total energy-change (2. order) :-0.2361996E+00  (-0.6861911E-03)
 number of electron     274.9999650 magnetization       1.1476013
 augmentation part      131.8103630 magnetization       0.1238561

 Broyden mixing:
  rms(total) = 0.94615E-02    rms(broyden)= 0.94580E-02
  rms(prec ) = 0.11631E-01
  weight for this iteration     100.00

 eigenvalues of (default mixing * dielectric matrix)
  average eigenvalue GAMMA=   1.7256
  8.4833  3.9712  1.9902  1.7629  1.7629  1.2035  0.8858  0.8858  0.4612  0.8731
  0.8731  0.7283  0.7283  0.6374  0.6374

 Free energy of the ion-electron system (eV)
  ---------------------------------------------------
  alpha Z        PSCENC =        49.50004630
  Ewald energy   TEWEN  =     48173.10535427
  -Hartree energ DENC   =    -73009.37348877
  -exchange      EXHF   =         0.00000000
  -V(xc)+E(xc)   XCENC  =      -283.89175419
  PAW double counting   =     27145.14402209   -26039.85963574
  entropy T*S    EENTRO =         0.00000000
  eigenvalues    EBANDS =     -2014.42374045
  atomic energy  EATOM  =     25929.96575216
  ---------------------------------------------------
  free energy    TOTEN  =       -49.83344432 eV

  energy without entropy =      -49.83344432  energy(sigma->0) =      -49.83344432


--------------------------------------------------------------------------------------------------------




----------------------------------------- Iteration    1(  21)  ---------------------------------------


    POTLOK:  cpu time    0.36: real time    0.37
    SETDIJ:  cpu time    0.01: real time    0.01
     EDDAV:  cpu time    3.63: real time    3.63
       DOS:  cpu time    0.00: real time    0.00
    CHARGE:  cpu time    0.16: real time    0.16
    MIXING:  cpu time    0.02: real time    0.02
    --------------------------------------------
      LOOP:  cpu time    4.18: real time    4.20

 eigenvalue-minimisations  :   748
 total energy-change (2. order) :-0.1072769E+00  (-0.3140842E-03)
 number of electron     274.9999650 magnetization       1.0833556
 augmentation part      131.8187933 magnetization       0.0627981

 Broyden mixing:
  rms(total) = 0.48546E-02    rms(broyden)= 0.48531E-02
  rms(prec ) = 0.65067E-02
  weight for this iteration     100.00

 eigenvalues of (default mixing * dielectric matrix)
  average eigenvalue GAMMA=   1.7823
  8.6994  4.5471  2.5981  1.9124  1.9124  1.2027  1.2027  0.8846  0.8846  0.7503
  0.7503  0.7974  0.4613  0.6397  0.6397  0.6350

 Free energy of the ion-electron system (eV)
  ---------------------------------------------------
  alpha Z        PSCENC =        49.50004630
  Ewald energy   TEWEN  =     48173.10535427
  -Hartree energ DENC   =    -73003.49294429
  -exchange      EXHF   =         0.00000000
  -V(xc)+E(xc)   XCENC  =      -284.04244491
  PAW double counting   =     27145.36850303   -26040.11999715
  entropy T*S    EENTRO =        -0.00000000
  eigenvalues    EBANDS =     -2020.22499063
  atomic energy  EATOM  =     25929.96575216
  ---------------------------------------------------
  free energy    TOTEN  =       -49.94072120 eV

  energy without entropy =      -49.94072120  energy(sigma->0) =      -49.94072120


--------------------------------------------------------------------------------------------------------




----------------------------------------- Iteration    1(  22)  ---------------------------------------


    POTLOK:  cpu time    0.36: real time    0.36
    SETDIJ:  cpu time    0.01: real time    0.01
     EDDAV:  cpu time    3.08: real time    3.08
       DOS:  cpu time    0.00: real time    0.00
    CHARGE:  cpu time    0.16: real time    0.16
    MIXING:  cpu time    0.02: real time    0.02
    --------------------------------------------
      LOOP:  cpu time    3.63: real time    3.66

 eigenvalue-minimisations  :   596
 total energy-change (2. order) :-0.3854238E-01  (-0.1039440E-03)
 number of electron     274.9999650 magnetization       1.0588484
 augmentation part      131.8187258 magnetization       0.0374168

 Broyden mixing:
  rms(total) = 0.26487E-02    rms(broyden)= 0.26479E-02
  rms(prec ) = 0.39953E-02
  weight for this iteration     100.00

 eigenvalues of (default mixing * dielectric matrix)
  average eigenvalue GAMMA=   1.7767
  8.7456  4.9922  2.7095  1.9755  1.9755  1.2564  1.2564  0.8845  0.8845  0.8455
  0.7932  0.7932  0.4612  0.6827  0.6827  0.6326  0.6326

 Free energy of the ion-electron system (eV)
  ---------------------------------------------------
  alpha Z        PSCENC =        49.50004630
  Ewald energy   TEWEN  =     48173.10535427
  -Hartree energ DENC   =    -73000.25404858
  -exchange      EXHF   =         0.00000000
  -V(xc)+E(xc)   XCENC  =      -284.09922285
  PAW double counting   =     27147.49862032   -26042.30494276
  entropy T*S    EENTRO =         0.00000000
  eigenvalues    EBANDS =     -2023.39082245
  atomic energy  EATOM  =     25929.96575216
  ---------------------------------------------------
  free energy    TOTEN  =       -49.97926359 eV

  energy without entropy =      -49.97926359  energy(sigma->0) =      -49.97926359


--------------------------------------------------------------------------------------------------------




----------------------------------------- Iteration    1(  23)  ---------------------------------------


    POTLOK:  cpu time    0.36: real time    0.36
    SETDIJ:  cpu time    0.01: real time    0.01
     EDDAV:  cpu time    2.90: real time    2.90
       DOS:  cpu time    0.00: real time    0.00
    CHARGE:  cpu time    0.16: real time    0.16
    MIXING:  cpu time    0.02: real time    0.02
    --------------------------------------------
      LOOP:  cpu time    3.45: real time    3.45

 eigenvalue-minimisations  :   544
 total energy-change (2. order) :-0.4358831E-02  (-0.3379720E-04)
 number of electron     274.9999650 magnetization       1.0287797
 augmentation part      131.8185009 magnetization       0.0073534

 Broyden mixing:
  rms(total) = 0.19694E-02    rms(broyden)= 0.19691E-02
  rms(prec ) = 0.29683E-02
  weight for this iteration     100.00

 eigenvalues of (default mixing * dielectric matrix)
  average eigenvalue GAMMA=   1.7778
  8.8117  5.1124  2.8805  2.1213  1.7566  1.7566  1.1691  1.1691  0.8857  0.8857
  0.8293  0.7782  0.7782  0.4612  0.6689  0.6689  0.6337  0.6337

 Free energy of the ion-electron system (eV)
  ---------------------------------------------------
  alpha Z        PSCENC =        49.50004630
  Ewald energy   TEWEN  =     48173.10535427
  -Hartree energ DENC   =    -72998.58077058
  -exchange      EXHF   =         0.00000000
  -V(xc)+E(xc)   XCENC  =      -284.11002844
  PAW double counting   =     27147.70779692   -26042.52196010
  entropy T*S    EENTRO =         0.00000000
  eigenvalues    EBANDS =     -2025.04981296
  atomic energy  EATOM  =     25929.96575216
  ---------------------------------------------------
  free energy    TOTEN  =       -49.98362242 eV

  energy without entropy =      -49.98362242  energy(sigma->0) =      -49.98362242


--------------------------------------------------------------------------------------------------------




----------------------------------------- Iteration    1(  24)  ---------------------------------------


    POTLOK:  cpu time    0.36: real time    0.36
    SETDIJ:  cpu time    0.01: real time    0.01
     EDDAV:  cpu time    2.87: real time    2.87
       DOS:  cpu time    0.00: real time    0.00
    CHARGE:  cpu time    0.16: real time    0.16
    MIXING:  cpu time    0.02: real time    0.02
    --------------------------------------------
      LOOP:  cpu time    3.42: real time    3.46

 eigenvalue-minimisations  :   536
 total energy-change (2. order) :-0.3956057E-02  (-0.3552489E-04)
 number of electron     274.9999650 magnetization       1.0100792
 augmentation part      131.8189103 magnetization      -0.0106528

 Broyden mixing:
  rms(total) = 0.14551E-02    rms(broyden)= 0.14550E-02
  rms(prec ) = 0.20584E-02
  weight for this iteration     100.00

 eigenvalues of (default mixing * dielectric matrix)
  average eigenvalue GAMMA=   1.8134
  8.8583  5.2706  3.5786  2.2931  1.9577  1.9577  1.2327  1.2327  0.8851  0.8851
  0.9464  0.8025  0.8025  0.4612  0.7018  0.7018  0.6278  0.6278  0.6311

 Free energy of the ion-electron system (eV)
  ---------------------------------------------------
  alpha Z        PSCENC =        49.50004630
  Ewald energy   TEWEN  =     48173.10535427
  -Hartree energ DENC   =    -72996.84395683
  -exchange      EXHF   =         0.00000000
  -V(xc)+E(xc)   XCENC  =      -284.12061621
  PAW double counting   =     27147.76416387   -26042.57728743
  entropy T*S    EENTRO =         0.00000000
  eigenvalues    EBANDS =     -2026.78103461
  atomic energy  EATOM  =     25929.96575216
  ---------------------------------------------------
  free energy    TOTEN  =       -49.98757848 eV

  energy without entropy =      -49.98757848  energy(sigma->0) =      -49.98757848


--------------------------------------------------------------------------------------------------------




----------------------------------------- Iteration    1(  25)  ---------------------------------------


    POTLOK:  cpu time    0.36: real time    0.36
    SETDIJ:  cpu time    0.01: real time    0.01
     EDDAV:  cpu time    2.80: real time    2.80
       DOS:  cpu time    0.00: real time    0.00
    CHARGE:  cpu time    0.16: real time    0.16
    MIXING:  cpu time    0.02: real time    0.02
    --------------------------------------------
      LOOP:  cpu time    3.35: real time    3.36

 eigenvalue-minimisations  :   516
 total energy-change (2. order) :-0.2937182E-02  (-0.1838504E-04)
 number of electron     274.9999650 magnetization       1.0025484
 augmentation part      131.8184101 magnetization      -0.0177103

 Broyden mixing:
  rms(total) = 0.93434E-03    rms(broyden)= 0.93420E-03
  rms(prec ) = 0.12972E-02
  weight for this iteration     100.00

 eigenvalues of (default mixing * dielectric matrix)
  average eigenvalue GAMMA=   1.8160
  8.8802  5.4303  3.9072  2.4600  1.9190  1.9190  1.3812  1.3812  0.8851  0.8851
  0.9892  0.9892  0.4612  0.7579  0.7579  0.7791  0.6456  0.6456  0.6230  0.6230

 Free energy of the ion-electron system (eV)
  ---------------------------------------------------
  alpha Z        PSCENC =        49.50004630
  Ewald energy   TEWEN  =     48173.10535427
  -Hartree energ DENC   =    -72995.54436489
  -exchange      EXHF   =         0.00000000
  -V(xc)+E(xc)   XCENC  =      -284.12718462
  PAW double counting   =     27148.26704268   -26043.08322902
  entropy T*S    EENTRO =         0.00000000
  eigenvalues    EBANDS =     -2028.07393255
  atomic energy  EATOM  =     25929.96575216
  ---------------------------------------------------
  free energy    TOTEN  =       -49.99051566 eV

  energy without entropy =      -49.99051566  energy(sigma->0) =      -49.99051566


--------------------------------------------------------------------------------------------------------




----------------------------------------- Iteration    1(  26)  ---------------------------------------


    POTLOK:  cpu time    0.36: real time    0.36
    SETDIJ:  cpu time    0.01: real time    0.01
     EDDAV:  cpu time    2.87: real time    2.87
       DOS:  cpu time    0.00: real time    0.00
    CHARGE:  cpu time    0.16: real time    0.16
    MIXING:  cpu time    0.02: real time    0.02
    --------------------------------------------
      LOOP:  cpu time    3.43: real time    3.44

 eigenvalue-minimisations  :   536
 total energy-change (2. order) :-0.2279481E-02  (-0.5911137E-05)
 number of electron     274.9999650 magnetization       1.0006597
 augmentation part      131.8188224 magnetization      -0.0192748

 Broyden mixing:
  rms(total) = 0.49275E-03    rms(broyden)= 0.49255E-03
  rms(prec ) = 0.69155E-03
  weight for this iteration     100.00

 eigenvalues of (default mixing * dielectric matrix)
  average eigenvalue GAMMA=   1.8448
  8.8781  5.7918  4.2978  2.6390  2.2315  1.8020  1.8020  0.8852  0.8852  1.1738
  1.1738  1.0769  0.4612  0.7665  0.7665  0.7872  0.7872  0.6419  0.6419  0.6254
  0.6254

 Free energy of the ion-electron system (eV)
  ---------------------------------------------------
  alpha Z        PSCENC =        49.50004630
  Ewald energy   TEWEN  =     48173.10535427
  -Hartree energ DENC   =    -72994.66937233
  -exchange      EXHF   =         0.00000000
  -V(xc)+E(xc)   XCENC  =      -284.13344560
  PAW double counting   =     27148.12039425   -26042.92945640
  entropy T*S    EENTRO =         0.00000000
  eigenvalues    EBANDS =     -2028.95206778
  atomic energy  EATOM  =     25929.96575216
  ---------------------------------------------------
  free energy    TOTEN  =       -49.99279514 eV

  energy without entropy =      -49.99279514  energy(sigma->0) =      -49.99279514


--------------------------------------------------------------------------------------------------------




----------------------------------------- Iteration    1(  27)  ---------------------------------------


    POTLOK:  cpu time    0.36: real time    0.36
    SETDIJ:  cpu time    0.01: real time    0.01
     EDDAV:  cpu time    2.76: real time    2.76
       DOS:  cpu time    0.00: real time    0.00
    CHARGE:  cpu time    0.16: real time    0.16
    MIXING:  cpu time    0.02: real time    0.02
    --------------------------------------------
      LOOP:  cpu time    3.31: real time    3.34

 eigenvalue-minimisations  :   504
 total energy-change (2. order) :-0.1337145E-02  (-0.1877393E-05)
 number of electron     274.9999650 magnetization       1.0010915
 augmentation part      131.8190126 magnetization      -0.0187169

 Broyden mixing:
  rms(total) = 0.37553E-03    rms(broyden)= 0.37543E-03
  rms(prec ) = 0.50114E-03
  weight for this iteration     100.00

 eigenvalues of (default mixing * dielectric matrix)
  average eigenvalue GAMMA=   1.8788
  8.8645  6.4307  4.6311  2.9241  2.4371  1.8448  1.8448  1.3062  1.3062  0.8851
  0.8851  0.9258  0.9258  0.9155  0.4612  0.7557  0.7557  0.6603  0.6603  0.6276
  0.6276  0.6596

 Free energy of the ion-electron system (eV)
  ---------------------------------------------------
  alpha Z        PSCENC =        49.50004630
  Ewald energy   TEWEN  =     48173.10535427
  -Hartree energ DENC   =    -72994.26041761
  -exchange      EXHF   =         0.00000000
  -V(xc)+E(xc)   XCENC  =      -284.13672176
  PAW double counting   =     27148.31746987   -26043.12620821
  entropy T*S    EENTRO =         0.00000000
  eigenvalues    EBANDS =     -2029.35940732
  atomic energy  EATOM  =     25929.96575216
  ---------------------------------------------------
  free energy    TOTEN  =       -49.99413228 eV

  energy without entropy =      -49.99413228  energy(sigma->0) =      -49.99413228


--------------------------------------------------------------------------------------------------------




----------------------------------------- Iteration    1(  28)  ---------------------------------------


    POTLOK:  cpu time    0.36: real time    0.37
    SETDIJ:  cpu time    0.01: real time    0.01
     EDDAV:  cpu time    2.73: real time    2.73
       DOS:  cpu time    0.00: real time    0.00
    CHARGE:  cpu time    0.16: real time    0.16
    MIXING:  cpu time    0.02: real time    0.02
    --------------------------------------------
      LOOP:  cpu time    3.29: real time    3.32

 eigenvalue-minimisations  :   496
 total energy-change (2. order) :-0.3223592E-03  (-0.7223473E-06)
 number of electron     274.9999650 magnetization       1.0015454
 augmentation part      131.8190468 magnetization      -0.0183268

 Broyden mixing:
  rms(total) = 0.21449E-03    rms(broyden)= 0.21443E-03
  rms(prec ) = 0.30774E-03
  weight for this iteration     100.00

 eigenvalues of (default mixing * dielectric matrix)
  average eigenvalue GAMMA=   1.8908
  8.8195  7.0493  4.7636  3.1043  2.3831  1.8362  1.8362  1.4866  1.4866  0.8852
  0.8852  1.0119  1.0119  0.9840  0.4612  0.7649  0.7649  0.7125  0.7125  0.6385
  0.6385  0.6366  0.6147

 Free energy of the ion-electron system (eV)
  ---------------------------------------------------
  alpha Z        PSCENC =        49.50004630
  Ewald energy   TEWEN  =     48173.10535427
  -Hartree energ DENC   =    -72994.05974279
  -exchange      EXHF   =         0.00000000
  -V(xc)+E(xc)   XCENC  =      -284.13789188
  PAW double counting   =     27148.44190596   -26043.25156635
  entropy T*S    EENTRO =         0.00000000
  eigenvalues    EBANDS =     -2029.55831232
  atomic energy  EATOM  =     25929.96575216
  ---------------------------------------------------
  free energy    TOTEN  =       -49.99445464 eV

  energy without entropy =      -49.99445464  energy(sigma->0) =      -49.99445464


--------------------------------------------------------------------------------------------------------




----------------------------------------- Iteration    1(  29)  ---------------------------------------


    POTLOK:  cpu time    0.36: real time    0.36
    SETDIJ:  cpu time    0.01: real time    0.01
     EDDAV:  cpu time    2.70: real time    2.70
       DOS:  cpu time    0.00: real time    0.00
    --------------------------------------------
      LOOP:  cpu time    3.07: real time    3.08

 eigenvalue-minimisations  :   488
 total energy-change (2. order) :-0.5383730E-04  (-0.2670001E-06)
 number of electron     274.9999650 magnetization       1.0015454
 augmentation part      131.8190468 magnetization      -0.0183268

 Free energy of the ion-electron system (eV)
  ---------------------------------------------------
  alpha Z        PSCENC =        49.50004630
  Ewald energy   TEWEN  =     48173.10535427
  -Hartree energ DENC   =    -72993.97082170
  -exchange      EXHF   =         0.00000000
  -V(xc)+E(xc)   XCENC  =      -284.13829947
  PAW double counting   =     27148.45833996   -26043.26897613
  entropy T*S    EENTRO =         0.00000000
  eigenvalues    EBANDS =     -2029.64590387
  atomic energy  EATOM  =     25929.96575216
  ---------------------------------------------------
  free energy    TOTEN  =       -49.99450848 eV

  energy without entropy =      -49.99450848  energy(sigma->0) =      -49.99450848


--------------------------------------------------------------------------------------------------------




 average (electrostatic) potential at core
  the test charge radii are     1.1249
  (the norm of the test charge is              1.0000)
       1 -82.3451       2 -82.3446       3 -82.3892       4 -82.4003       5 -82.3061
       6 -82.4255       7 -82.3022       8 -82.2346       9 -82.3841      10 -82.3055
      11 -82.2989      12 -82.2559      13 -82.4181      14 -82.3037      15 -82.4281
      16 -82.3381      17 -82.1771      18 -82.2437      19 -82.0631      20 -82.3615
      21 -82.2414      22 -82.4508      23 -82.2851      24 -82.3324      25 -82.3081
 
 
 
 E-fermi :  -3.6986     XC(G=0):  -0.9020     alpha+bet : -0.5343


 spin component 1

 k-point     1 :       0.0000    0.0000    0.0000
  band No.  band energies     occupation 
      1      -9.4469      1.00000
      2      -9.2518      1.00000
      3      -9.1920      1.00000
      4      -9.1384      1.00000
      5      -9.1152      1.00000
      6      -9.0902      1.00000
      7      -9.0111      1.00000
      8      -8.9918      1.00000
      9      -8.9680      1.00000
     10      -8.9470      1.00000
     11      -8.8870      1.00000
     12      -8.8517      1.00000
     13      -8.8426      1.00000
     14      -8.7959      1.00000
     15      -8.7901      1.00000
     16      -8.7322      1.00000
     17      -8.6679      1.00000
     18      -8.6473      1.00000
     19      -8.6176      1.00000
     20      -8.5991      1.00000
     21      -8.5911      1.00000
     22      -8.5642      1.00000
     23      -8.5289      1.00000
     24      -8.4965      1.00000
     25      -8.4872      1.00000
     26      -8.4791      1.00000
     27      -8.4201      1.00000
     28      -8.4155      1.00000
     29      -8.3862      1.00000
     30      -8.3402      1.00000
     31      -8.3145      1.00000
     32      -8.2933      1.00000
     33      -8.2876      1.00000
     34      -8.2468      1.00000
     35      -8.2296      1.00000
     36      -8.2175      1.00000
     37      -8.2096      1.00000
     38      -8.1609      1.00000
     39      -8.1344      1.00000
     40      -8.1205      1.00000
     41      -8.1045      1.00000
     42      -8.0511      1.00000
     43      -8.0014      1.00000
     44      -7.9835      1.00000
     45      -7.9611      1.00000
     46      -7.9446      1.00000
     47      -7.9250      1.00000
     48      -7.8864      1.00000
     49      -7.8455      1.00000
     50      -7.8267      1.00000
     51      -7.7928      1.00000
     52      -7.7613      1.00000
     53      -7.7487      1.00000
     54      -7.7104      1.00000
     55      -7.6792      1.00000
     56      -7.6321      1.00000
     57      -7.6028      1.00000
     58      -7.5694      1.00000
     59      -7.5493      1.00000
     60      -7.5135      1.00000
     61      -7.4803      1.00000
     62      -7.4465      1.00000
     63      -7.4248      1.00000
     64      -7.4146      1.00000
     65      -7.4050      1.00000
     66      -7.3729      1.00000
     67      -7.3612      1.00000
     68      -7.3276      1.00000
     69      -7.3049      1.00000
     70      -7.2783      1.00000
     71      -7.2663      1.00000
     72      -7.2389      1.00000
     73      -7.2192      1.00000
     74      -7.2067      1.00000
     75      -7.1829      1.00000
     76      -7.1714      1.00000
     77      -7.1568      1.00000
     78      -7.1496      1.00000
     79      -7.1155      1.00000
     80      -7.1059      1.00000
     81      -7.0996      1.00000
     82      -7.0708      1.00000
     83      -7.0573      1.00000
     84      -7.0532      1.00000
     85      -7.0389      1.00000
     86      -7.0143      1.00000
     87      -7.0087      1.00000
     88      -6.9748      1.00000
     89      -6.9656      1.00000
     90      -6.9518      1.00000
     91      -6.9358      1.00000
     92      -6.9300      1.00000
     93      -6.9197      1.00000
     94      -6.9034      1.00000
     95      -6.8948      1.00000
     96      -6.8910      1.00000
     97      -6.8734      1.00000
     98      -6.8499      1.00000
     99      -6.8330      1.00000
    100      -6.8204      1.00000
    101      -6.8103      1.00000
    102      -6.7808      1.00000
    103      -6.7739      1.00000
    104      -6.7362      1.00000
    105      -6.7310      1.00000
    106      -6.6980      1.00000
    107      -6.6938      1.00000
    108      -6.6881      1.00000
    109      -6.6716      1.00000
    110      -6.6304      1.00000
    111      -6.6196      1.00000
    112      -6.6073      1.00000
    113      -6.5834      1.00000
    114      -6.5716      1.00000
    115      -6.5549      1.00000
    116      -6.5304      1.00000
    117      -6.5089      1.00000
    118      -6.4851      1.00000
    119      -6.4699      1.00000
[...]
    131      -5.6521      1.00000
    132      -4.9416      1.00000
    133      -4.8148      1.00000
    134      -4.5526      1.00000
    135      -4.3805      1.00000
    136      -4.0789      1.00000
    137      -3.7924      1.00000
    138      -3.5293      0.00000
    139      -3.0939      0.00000
    140      -2.8987      0.00000
    141      -2.7749      0.00000
    142      -2.6539      0.00000
    143      -2.4231      0.00000
    144      -2.2246      0.00000
    145      -2.1245      0.00000
    146      -2.0078      0.00000
    147      -1.9103      0.00000
    148      -1.6354      0.00000
    149      -1.5180      0.00000
    150      -1.4121      0.00000
    151      -1.1622      0.00000
    152      -0.9825      0.00000
    153      -0.9738      0.00000
    154      -0.9257      0.00000
    155      -0.8476      0.00000
    156      -0.7073      0.00000
    157      -0.6356      0.00000
    158      -0.5992      0.00000
    159      -0.3988      0.00000
    160      -0.1689      0.00000
    161      -0.1296      0.00000
    162       0.0376      0.00000
    163       0.1111      0.00000
    164       0.2334      0.00000
    165       0.4009      0.00000
    166       0.4292      0.00000
    167       0.5131      0.00000
    168       0.5811      0.00000
    169       0.6226      0.00000
    170       0.6419      0.00000
    171       0.6609      0.00000
    172       0.6955      0.00000
    173       0.7274      0.00000
    174       0.8111      0.00000
    175       0.8254      0.00000
    176       0.8415      0.00000
    177       0.8889      0.00000
    178       0.9125      0.00000
    179       0.9318      0.00000
    180       0.9369      0.00000


--------------------------------------------------------------------------------------------------------


 soft charge-density along one line, spin component           1
         0         1         2         3         4         5         6         7         8         9
 total charge-density along one line
 
 soft charge-density along one line, spin component           2
         0         1         2         3         4         5         6         7         8         9
 total charge-density along one line
 
 pseudopotential strength for first ion, spin component:           1
-10.360   0.001   0.001  -0.017  -0.001 -10.332   0.001   0.001
  0.001 -10.367  -0.005   0.002   0.010   0.001 -10.339  -0.005
  0.001  -0.005 -10.356   0.001  -0.007   0.001  -0.005 -10.329
 -0.017   0.002   0.001 -10.353   0.000  -0.016   0.002   0.001
 -0.001   0.010  -0.007   0.000 -10.355  -0.001   0.009  -0.007
-10.332   0.001   0.001  -0.016  -0.001 -10.281   0.001   0.001
  0.001 -10.339  -0.005   0.002   0.009   0.001 -10.288  -0.005
  0.001  -0.005 -10.329   0.001  -0.007   0.001  -0.005 -10.278
 -0.016   0.002   0.001 -10.326   0.000  -0.016   0.002   0.001
 -0.001   0.009  -0.007   0.000 -10.328  -0.001   0.009  -0.007
 -0.000   0.005   0.001   0.000  -0.004  -0.000   0.005   0.001
 -0.001   0.008   0.002   0.001  -0.007  -0.000   0.008   0.002
 -0.003  -0.022   0.016  -0.000   0.028  -0.002  -0.022   0.016
 -0.000  -0.028  -0.027  -0.003  -0.000  -0.000  -0.027  -0.026
 -0.028  -0.000   0.001  -0.023  -0.003  -0.027  -0.000   0.001
 -0.003  -0.027   0.020  -0.000   0.034  -0.003  -0.026   0.019
 -0.000  -0.034  -0.033  -0.003  -0.000  -0.000  -0.032  -0.032
 -0.034  -0.000   0.002  -0.028  -0.003  -0.033  -0.000   0.002
 pseudopotential strength for first ion, spin component:           2
-10.359   0.001   0.001  -0.016  -0.001 -10.332   0.001   0.001
  0.001 -10.366  -0.005   0.002   0.010   0.001 -10.339  -0.005
  0.001  -0.005 -10.356   0.001  -0.007   0.001  -0.005 -10.329
 -0.016   0.002   0.001 -10.348   0.001  -0.016   0.002   0.001
 -0.001   0.010  -0.007   0.001 -10.354  -0.001   0.009  -0.007
-10.332   0.001   0.001  -0.016  -0.001 -10.280   0.001   0.001
  0.001 -10.339  -0.005   0.002   0.009   0.001 -10.287  -0.005
  0.001  -0.005 -10.329   0.001  -0.007   0.001  -0.005 -10.278
 -0.016   0.002   0.001 -10.322   0.001  -0.015   0.002   0.001
 -0.001   0.009  -0.007   0.001 -10.327  -0.001   0.009  -0.006
 -0.000   0.005   0.001  -0.000  -0.005  -0.000   0.005   0.001
 -0.001   0.008   0.002  -0.000  -0.007  -0.001   0.008   0.002
 -0.003  -0.023   0.016   0.000   0.028  -0.003  -0.022   0.016
  0.000  -0.028  -0.028  -0.003  -0.000   0.000  -0.027  -0.026
 -0.028   0.000   0.001  -0.024  -0.003  -0.027   0.000   0.001
 -0.003  -0.028   0.020   0.000   0.034  -0.003  -0.027   0.019
  0.000  -0.034  -0.034  -0.004  -0.001   0.000  -0.032  -0.032
 -0.034   0.000   0.002  -0.029  -0.004  -0.033   0.000   0.002
 total augmentation occupancy for first ion, spin component:           1
  2.433   0.001  -0.018   0.074   0.002  -0.467  -0.003   0.033  -0.156  -0.013  -0.004   0.007  -0.010   0.005  -0.062  -0.001
  0.001   2.486   0.130   0.051  -0.091  -0.003  -0.563  -0.113  -0.026   0.081  -0.360   0.105  -0.057  -0.089  -0.005  -0.008
 -0.018   0.130   2.707   0.042   0.183   0.033  -0.113  -0.702  -0.040  -0.201  -0.149   0.022   0.076  -0.131  -0.002   0.007
  0.074   0.051   0.042   2.478   0.046  -0.156  -0.026  -0.040  -0.467  -0.049  -0.060   0.008   0.009  -0.024  -0.067   0.000
  0.002  -0.091   0.183   0.046   2.578  -0.013   0.081  -0.201  -0.049  -0.543   0.403  -0.082   0.117  -0.020  -0.015   0.009
 -0.467  -0.003   0.033  -0.156  -0.013   0.474   0.004  -0.047   0.228   0.022   0.008  -0.008   0.010  -0.005   0.102  -0.001
 -0.003  -0.563  -0.113  -0.026   0.081   0.004   0.609   0.099   0.005  -0.074   0.295  -0.075   0.080   0.117   0.002  -0.007
  0.033  -0.113  -0.702  -0.040  -0.201  -0.047   0.099   0.674   0.038   0.217   0.133  -0.023  -0.091   0.151  -0.000   0.005
 -0.156  -0.026  -0.040  -0.467  -0.049   0.228   0.005   0.038   0.436   0.051   0.058  -0.011  -0.010   0.022   0.096   0.000
 -0.013   0.081  -0.201  -0.049  -0.543   0.022  -0.074   0.217   0.051   0.492  -0.345   0.069  -0.139   0.020   0.017   0.009
 -0.004  -0.360  -0.149  -0.060   0.403   0.008   0.295   0.133   0.058  -0.345   1.785  -0.207   0.215   0.174   0.015  -0.019
  0.007   0.105   0.022   0.008  -0.082  -0.008  -0.075  -0.023  -0.011   0.069  -0.207   0.041  -0.039  -0.032  -0.004   0.003
 -0.010  -0.057   0.076   0.009   0.117   0.010   0.080  -0.091  -0.010  -0.139   0.215  -0.039   0.068   0.003  -0.001  -0.005
  0.005  -0.089  -0.131  -0.024  -0.020  -0.005   0.117   0.151   0.022   0.020   0.174  -0.032   0.003   0.066   0.004  -0.001
 -0.062  -0.005  -0.002  -0.067  -0.015   0.102   0.002  -0.000   0.096   0.017   0.015  -0.004  -0.001   0.004   0.034  -0.000
 -0.001  -0.008   0.007   0.000   0.009  -0.001  -0.007   0.005   0.000   0.009  -0.019   0.003  -0.005  -0.001  -0.000   0.001
 -0.000  -0.010  -0.009  -0.000  -0.001   0.000  -0.008  -0.009  -0.001   0.000  -0.015   0.002  -0.001  -0.005  -0.000   0.000
 -0.013   0.000   0.000  -0.010  -0.000  -0.007  -0.000   0.000  -0.006  -0.001  -0.002   0.000  -0.000  -0.000  -0.002   0.000
 total augmentation occupancy for first ion, spin component:           2
 -0.006   0.001  -0.003   0.016   0.002   0.002  -0.000   0.002  -0.012  -0.001  -0.007  -0.001   0.002   0.000  -0.004   0.000
  0.001  -0.008  -0.001  -0.004  -0.000  -0.000   0.004   0.001   0.003   0.000   0.003   0.001  -0.001   0.000   0.001   0.000
 -0.003  -0.001  -0.007   0.003   0.002   0.002   0.001   0.004  -0.003  -0.001  -0.000   0.001   0.001  -0.000  -0.001  -0.000
  0.016  -0.004   0.003   0.071   0.014  -0.013   0.003  -0.003  -0.057  -0.011  -0.036  -0.005   0.007   0.001  -0.018   0.000
  0.002  -0.000   0.002   0.014  -0.009  -0.001   0.000  -0.001  -0.011   0.004  -0.009   0.000   0.001  -0.001  -0.002   0.000
  0.002  -0.000   0.002  -0.013  -0.001   0.002  -0.000  -0.001   0.010   0.001   0.005   0.000  -0.001  -0.000   0.003  -0.000
 -0.000   0.004   0.001   0.003   0.000  -0.000  -0.001  -0.001  -0.003  -0.000  -0.003  -0.000   0.001  -0.000  -0.001  -0.000
  0.002   0.001   0.004  -0.003  -0.001  -0.001  -0.001  -0.001   0.002   0.001  -0.001  -0.000  -0.000  -0.000   0.000   0.000
 -0.012   0.003  -0.003  -0.057  -0.011   0.010  -0.003   0.002   0.047   0.008   0.028   0.003  -0.005   0.000   0.014   0.000
 -0.001   0.000  -0.001  -0.011   0.004   0.001  -0.000   0.001   0.008   0.000   0.007  -0.000  -0.000   0.000   0.002   0.000
 -0.007   0.003  -0.000  -0.036  -0.009   0.005  -0.003  -0.001   0.028   0.007   0.020   0.000  -0.004  -0.000   0.010  -0.000
 -0.001   0.001   0.001  -0.005   0.000   0.000  -0.000  -0.000   0.003  -0.000   0.000   0.000  -0.000  -0.000   0.001   0.000
  0.002  -0.001   0.001   0.007   0.001  -0.001   0.001  -0.000  -0.005  -0.000  -0.004  -0.000   0.000  -0.000  -0.001   0.000
  0.000   0.000  -0.000   0.001  -0.001  -0.000  -0.000  -0.000   0.000   0.000  -0.000  -0.000  -0.000  -0.000   0.000   0.000
 -0.004   0.001  -0.001  -0.018  -0.002   0.003  -0.001   0.000   0.014   0.002   0.010   0.001  -0.001   0.000   0.004  -0.000
  0.000   0.000  -0.000   0.000   0.000  -0.000  -0.000   0.000   0.000   0.000  -0.000   0.000   0.000   0.000  -0.000   0.000
  0.000  -0.000   0.000   0.000   0.000  -0.000  -0.000  -0.000  -0.000  -0.000  -0.000   0.000   0.000  -0.000  -0.000  -0.000
  0.000  -0.000   0.000   0.000   0.000  -0.000   0.000  -0.000  -0.000  -0.000  -0.000   0.000   0.000  -0.000  -0.000  -0.000


------------------------ aborting loop because EDIFF is reached ----------------------------------------


    CHARGE:  cpu time    0.15: real time    0.15
    FORLOC:  cpu time    0.02: real time    0.02
    FORNL :  cpu time    2.11: real time    2.11
    STRESS:  cpu time    2.79: real time    2.80
    FORCOR:  cpu time    0.37: real time    0.37
    FORHAR:  cpu time    0.06: real time    0.06
    MIXING:  cpu time    0.01: real time    0.01
    OFIELD:  cpu time    0.00: real time    0.00

  FORCE on cell =-STRESS in cart. coord.  units (eV):
  Direction    XX          YY          ZZ          XY          YZ          ZX
  --------------------------------------------------------------------------------------
  Alpha Z    49.50005    49.50005    49.50005
  Ewald   16934.74058 14898.65240 16059.37591  5808.22293 -7471.16987  1209.26163
  Hartree 25144.04697 23236.91841 24349.17799  5238.63150 -6704.70540   993.78096
  E(xc)   -1449.26260 -1449.39210 -1449.48401     1.31041    -1.83271     0.63158
  Local  -46142.44130-42198.73811-44474.48199-11038.44695 14166.66507 -2196.64223
  n-local  -265.53145  -266.46113  -264.86545     0.51290    -1.26843    -0.42687
  augment  2295.83299  2295.87909  2296.31987    -3.06990     3.76923    -1.84813
  Kinetic  3423.58927  3424.24713  3425.26003    -7.18613     8.60040    -4.79277
  Fock        0.00000     0.00000     0.00000     0.00000     0.00000     0.00000
  -------------------------------------------------------------------------------------
  Total      -9.52549    -9.39427    -9.19761    -0.02525     0.05830    -0.03584
  in kB      -1.42105    -1.40147    -1.37214    -0.00377     0.00870    -0.00535
  external pressure =       -1.40 kB  Pullay stress =        0.00 kB


 VOLUME and BASIS-vectors are now :
 -----------------------------------------------------------------------------
  energy-cutoff  :      249.84
  volume of cell :    10739.61
      direct lattice vectors                 reciprocal lattice vectors
    22.062913604  0.000000000  0.000000000     0.045324929  0.000000000  0.000000000
     0.000000000 22.062913604  0.000000000     0.000000000  0.045324929  0.000000000
     0.000000000  0.000000000 22.062913604     0.000000000  0.000000000  0.045324929

  length of vectors
    22.062913604 22.062913604 22.062913604     0.045324929  0.045324929  0.045324929


 FORCES acting on ions
    electron-ion (+dipol)            ewald-force                    non-local-force                 convergence-correction
 -----------------------------------------------------------------------------------------------
   0.152E+03 0.967E+03 0.923E+03   -.151E+03 -.962E+03 -.919E+03   -.319E+00 -.532E+01 -.428E+01   0.286E-01 -.363E-01 -.382E-01
   -.540E+03 -.900E+02 0.954E+03   0.539E+03 0.889E+02 -.952E+03   0.298E+00 0.120E+01 -.213E+01   -.240E-02 -.626E-02 -.422E-01
   0.313E+03 0.197E+03 0.123E+04   -.312E+03 -.197E+03 -.123E+04   -.179E+01 -.547E+00 -.378E+01   0.153E-01 -.223E-01 -.369E-01
   -.528E+03 0.576E+03 0.658E+03   0.529E+03 -.576E+03 -.656E+03   -.819E+00 -.897E+00 -.156E+01   -.125E-01 0.469E-01 -.913E-02
   0.475E+03 -.632E+03 0.100E+04   -.472E+03 0.631E+03 -.998E+03   -.253E+01 0.172E+01 -.339E+01   0.360E-02 -.695E-02 -.198E-01
   -.671E+02 0.114E+04 0.219E+03   0.665E+02 -.114E+04 -.219E+03   0.606E+00 -.277E+01 -.354E-01   -.326E-02 -.151E-01 0.288E-01
   0.867E+03 0.409E+03 0.535E+03   -.866E+03 -.408E+03 -.534E+03   -.621E+00 -.111E+01 -.146E+01   -.611E-01 -.433E-01 -.989E-03
   -.282E+03 -.994E+03 0.709E+03   0.280E+03 0.989E+03 -.706E+03   0.182E+01 0.491E+01 -.289E+01   -.217E-01 -.291E-01 0.103E-01
   -.103E+04 0.239E+03 0.401E+03   0.103E+04 -.239E+03 -.401E+03   0.268E+01 -.104E+00 -.100E+00   -.692E-01 0.293E-01 0.227E-01
   0.969E+03 -.640E+03 0.403E+03   -.967E+03 0.638E+03 -.401E+03   -.223E+01 0.218E+01 -.168E+01   0.342E-01 -.396E-01 0.284E-01
   -.836E+03 -.864E+03 0.291E+03   0.834E+03 0.861E+03 -.291E+03   0.208E+01 0.260E+01 -.383E+00   -.436E-01 0.108E-03 0.249E-02
   -.752E+03 0.786E+03 -.636E+02   0.751E+03 -.785E+03 0.624E+02   0.707E+00 -.107E+01 0.126E+01   -.107E-01 0.251E-01 -.426E-02
   0.901E+03 0.665E+03 -.207E+03   -.900E+03 -.665E+03 0.208E+03   -.134E+01 -.210E+00 -.406E+00   0.171E-01 0.218E-01 0.140E-01
   0.319E+03 0.115E+04 -.374E+03   -.318E+03 -.114E+04 0.372E+03   -.107E+01 -.697E+01 0.186E+01   0.746E-03 0.276E-01 -.583E-02
   0.115E+04 -.468E+03 -.376E+02   -.114E+04 0.465E+03 0.370E+02   -.312E+01 0.332E+01 0.690E+00   0.665E-01 -.817E-02 -.262E-01
   -.115E+04 -.482E+03 -.224E+03   0.114E+04 0.479E+03 0.222E+03   0.529E+01 0.230E+01 0.155E+01   -.208E-01 0.292E-01 0.318E-01
   -.654E+03 0.588E+03 -.968E+03   0.651E+03 -.585E+03 0.963E+03   0.276E+01 -.304E+01 0.470E+01   0.304E-02 -.260E-01 -.446E-01
   0.289E+03 -.113E+04 -.107E+03   -.287E+03 0.113E+04 0.107E+03   -.152E+01 0.281E+01 -.879E+00   0.616E-03 -.461E-01 -.410E-01
   0.104E+04 0.237E+02 -.603E+03   -.103E+04 -.229E+02 0.600E+03   -.557E+01 -.910E+00 0.361E+01   0.814E-02 0.857E-01 0.354E-01
   0.164E+02 0.706E+03 -.916E+03   -.157E+02 -.705E+03 0.914E+03   -.633E+00 -.984E+00 0.128E+01   -.216E-01 -.605E-02 0.373E-01
   0.276E+03 -.457E+03 -.289E+03   -.276E+03 0.459E+03 0.289E+03   -.365E+00 -.123E+01 -.885E+00   0.623E-01 -.647E-01 0.193E-01
   -.105E+04 0.964E+00 -.701E+03   0.104E+04 -.583E+00 0.699E+03   0.377E+01 -.386E+00 0.220E+01   -.993E-02 0.501E-02 -.751E-02
   0.505E+03 -.364E+03 -.106E+04   -.503E+03 0.362E+03 0.106E+04   -.212E+01 0.192E+01 0.277E+01   0.291E-01 0.475E-01 -.942E-02
   -.117E+03 -.397E+03 -.111E+04   0.115E+03 0.396E+03 0.111E+04   0.187E+01 0.102E+01 0.269E+01   -.915E-03 0.260E-01 0.244E-01
   -.267E+03 -.925E+03 -.660E+03   0.265E+03 0.923E+03 0.659E+03   0.193E+01 0.236E+01 0.121E+01   0.232E-02 -.426E-02 0.365E-01
 -----------------------------------------------------------------------------------------------
   0.218E+00 -.706E+00 0.433E-01   -.455E-12 0.227E-12 0.114E-12   -.249E+00 0.779E+00 -.357E-01   -.629E-02 -.102E-01 0.536E-02
 
 
 POSITION                                       TOTAL-FORCE (eV/Angst)
 -----------------------------------------------------------------------------------
     10.12197      8.08563      8.08211         0.007596      0.008396      0.011721
     12.28247     12.37749      8.25079         0.002362     -0.000908     -0.011829
     10.07095     10.87611      7.38620        -0.003901     -0.007317     -0.000383
     11.78003      9.85461      9.39508        -0.018342     -0.012756     -0.000817
     10.06085     13.72168      7.16017        -0.007819     -0.007773     -0.000412
     10.48829      7.86166     10.93473         0.001861      0.009244     -0.013212
      8.87465      9.85251      9.74686         0.011707     -0.022884     -0.022073
     12.28579     15.18129      7.73439         0.001188      0.005085     -0.005996
     13.88117     11.36912     10.33909        -0.001443      0.010311      0.003569
      8.78062     12.60188      9.33451         0.010805     -0.005367     -0.011298
     13.92280     14.16095      9.70685         0.000538     -0.000924      0.003782
     12.74419      9.29597     11.92149        -0.011853      0.002067     -0.000230
      8.16566      8.78120     12.29477        -0.005925      0.010871      0.010387
      9.25005      6.37699     12.96251        -0.002820     -0.008257      0.003320
      7.47813     11.38857     11.52336        -0.005465      0.001588      0.012916
     15.57251     13.15745     11.65982        -0.006736      0.004885      0.000474
     13.28509      9.00120     14.64083         0.000954     -0.004975     -0.003559
     11.03926     14.15219     10.04928        -0.000145     -0.008383      0.007810
      6.27664     10.25139     13.72460         0.010614      0.017799     -0.002371
     10.65587      8.60785     13.73148         0.004919      0.010117      0.002654
     10.36877     11.75704     11.50608         0.008303     -0.008378     -0.007334
     14.41230     11.16197     13.19216         0.003165     -0.002169      0.002649
      8.97599     10.91747     13.91333        -0.000855      0.005183      0.003251
     11.70675     11.19131     13.88127         0.006924     -0.005430      0.011897
     12.69689     13.21088     12.11779        -0.005631      0.009975      0.005082
 -----------------------------------------------------------------------------------
    total drift:                               -0.037578      0.063485      0.012926


--------------------------------------------------------------------------------------------------------



  FREE ENERGIE OF THE ION-ELECTRON SYSTEM (eV)
  ---------------------------------------------------
  free  energy   TOTEN  =       -50.37447460 eV

  energy  without entropy=      -50.37447460  energy(sigma->0) =      -50.37447460
 
 d Force = 0.2456488E-03[ 0.820E-04, 0.409E-03]  d Energy = 0.4664073E-03-0.221E-03
 d Force =-0.7275401E+01[-0.727E+01,-0.728E+01]  d Ewald  =-0.7275402E+01 0.811E-06


--------------------------------------------------------------------------------------------------------


    POTLOK:  cpu time    0.38: real time    0.38


--------------------------------------------------------------------------------------------------------




--------------------------------------------------------------------------------------------------------


  
 reached required accuracy - stopping structural energy minimisation
     LOOP+:  cpu time   17.30: real time   18.48
    4ORBIT:  cpu time    0.00: real time    0.00

 total amount of memory used by VASP on root node    72560. kBytes
========================================================================

   base      :      30000. kBytes
   nonl-proj :       3274. kBytes
   fftplans  :       8576. kBytes
   grid      :      21928. kBytes
   one-center:         62. kBytes
   wavefun   :       8720. kBytes
 
  
  
 General timing and accounting informations for this job:
 ========================================================
  
                  Total CPU time used (sec):     1084.668
                            User time (sec):     1077.755
                          System time (sec):        6.912
                         Elapsed time (sec):     1151.607
  
                   Maximum memory used (kb):       91356.
                   Average memory used (kb):           0.
  
                          Minor page faults:      1153554
                          Major page faults:            0
                 Voluntary context switches:         7912
