40
Energy = -85.57371458 eV
Ag 15.65876523424549 9.782741181996975 8.414261142963529
Ag 16.459326646888137 8.336032541370317 10.69402050643527
Ag 12.932355491425376 10.332555010132696 7.84681821623238
Ag 12.467836895747658 12.867476205199022 6.6961570177126095
Ag 14.619131999857 12.410090495785305 8.630136673243888
Ag 15.467657076384704 11.006225323985374 10.945354044518098
Ag 13.702425436630854 8.757339065418034 10.18069002843396
Ag 11.016141803191438 9.179913797770016 9.520193747369483
Ag 16.146052567375783 9.5159797875705 13.224550443250584
Ag 10.54529614994188 11.819667995150233 8.448283228697228
Ag 12.467508771775712 14.132690571883458 9.17041619561997
Ag 14.340833149234616 7.483337872028693 12.577517232283759
Ag 12.597421346452816 11.42755292600849 10.524088891004904
Ag 11.629588248458768 7.969312349467798 12.09997572654123
Ag 14.485852359639837 13.627454764240772 11.143492640835309
Ag 9.065508941656635 7.944599180865905 10.913749452761552
Ag 8.694590111219089 10.635982876054499 10.13086186739595
Ag 10.142997980096206 14.346397162676519 7.503719150453439
Ag 15.225243971203733 12.172381716860079 13.579379566635971
Ag 13.35475862510703 10.03128556151705 13.00159496471344
Ag 10.42469270787256 10.568826462230971 12.43855319029353
Ag 7.372777517519033 9.61119052623263 12.41174614110908
Ag 10.267456545312248 15.671978987197994 9.93060700938129
Ag 6.317918170419702 11.66804336828576 10.92313553650304
Ag 12.425590514049645 12.728175984084015 13.076633322346657
Ag 14.329849523111333 14.807698518781157 13.697955882653288
Ag 10.381066291272427 13.115167552627364 11.11453692053548
Ag 8.146469177454444 13.366989008107495 9.39385113012487
Ag 9.215017029519405 7.870098385051739 13.682616471705071
Ag 12.324885045641487 15.319358462950168 11.778555365132707
Ag 11.276515067664686 9.37346158798631 14.850458654940313
Ag 13.11032860012658 11.382242954931307 15.544643359650845
Ag 8.320267338984799 14.95807919054729 11.8088947231453
Ag 14.936505644661969 13.406409737443617 16.086532831328604
Ag 8.215895260393102 12.367254228444367 12.940598814847723
Ag 10.379460147007537 12.136553815736603 15.015423403929514
Ag 12.28474660456098 14.096675728393814 15.620769950419891
Ag 5.7824249082889425 14.288018772887654 11.231268782703374
Ag 10.319100361272922 14.564431794395022 13.662505142636338
Ag 8.463383779783467 10.230159225468327 14.874352956432897
