       N       E                     dE             d eps       ncg     rms          rms(c)
DAV:   1     0.441748292127E+04    0.44175E+04   -0.90832E+04  1280   0.594E+02
DAV:   2     0.969030722320E+03   -0.34485E+04   -0.30833E+04  2224   0.146E+02
DAV:   3    -0.388675388682E+02   -0.10079E+04   -0.92258E+03  1648   0.896E+01
DAV:   4    -0.958974062742E+02   -0.57030E+02   -0.56099E+02  1424   0.229E+01
DAV:   5    -0.967498741035E+02   -0.85247E+00   -0.85082E+00  1456   0.334E+00    0.401E+01
DAV:   6    -0.372658866267E+02    0.59484E+02   -0.18350E+02  1296   0.172E+01    0.215E+01
DAV:   7    -0.319871419454E+02    0.52787E+01   -0.10106E+01  1360   0.516E+00    0.133E+01
DAV:   8    -0.245709153187E+02    0.74162E+01   -0.31444E+00  1376   0.378E+00    0.711E+00
DAV:   9    -0.303316084160E+02   -0.57607E+01   -0.15190E+00  1400   0.193E+00    0.476E+00
DAV:  10    -0.455055173871E+02   -0.15174E+02   -0.46041E+00  1352   0.277E+00    0.417E+00
DAV:  11    -0.553588053469E+02   -0.98533E+01   -0.34306E+00  1360   0.289E+00    0.362E+00
DAV:  12    -0.632627073081E+02   -0.79039E+01   -0.26791E+00  1352   0.250E+00    0.267E+00
DAV:  13    -0.745605733262E+02   -0.11298E+02   -0.48020E+00  1328   0.216E+00    0.235E+00
DAV:  14    -0.790624693769E+02   -0.45019E+01   -0.11388E+00  1376   0.138E+00    0.231E+00
DAV:  15    -0.807066694024E+02   -0.16442E+01   -0.21931E-01  1416   0.958E-01    0.188E+00
DAV:  16    -0.850053143887E+02   -0.42986E+01   -0.10529E+00  1344   0.142E+00    0.131E+00
DAV:  17    -0.891781543552E+02   -0.41728E+01   -0.88710E-01  1320   0.110E+00    0.882E-01
DAV:  18    -0.911466994876E+02   -0.19685E+01   -0.27702E-01  1304   0.656E-01    0.680E-01
DAV:  19    -0.929521152401E+02   -0.18054E+01   -0.12768E-01  1328   0.547E-01    0.479E-01
DAV:  20    -0.941445429465E+02   -0.11924E+01   -0.49128E-02  1376   0.424E-01    0.281E-01
DAV:  21    -0.946729425445E+02   -0.52840E+00   -0.12293E-02  1360   0.211E-01    0.234E-01
DAV:  22    -0.948904965504E+02   -0.21755E+00   -0.30512E-03  1384   0.214E-01    0.148E-01
DAV:  23    -0.951431421102E+02   -0.25265E+00   -0.43174E-03  1328   0.134E-01    0.808E-02
DAV:  24    -0.952549803175E+02   -0.11184E+00   -0.98762E-04  1328   0.861E-02    0.510E-02
DAV:  25    -0.953099838106E+02   -0.55003E-01   -0.30616E-04   920   0.285E-02    0.343E-02
DAV:  26    -0.953614834877E+02   -0.51500E-01   -0.28649E-04   896   0.326E-02    0.217E-02
DAV:  27    -0.953771057227E+02   -0.15622E-01   -0.72878E-05   952   0.126E-02    0.181E-02
DAV:  28    -0.953883392397E+02   -0.11234E-01   -0.80792E-05   872   0.176E-02    0.133E-02
DAV:  29    -0.953955736100E+02   -0.72344E-02   -0.54298E-05   896   0.101E-02    0.878E-03
DAV:  30    -0.953989550268E+02   -0.33814E-02   -0.27595E-05   880   0.681E-03    0.594E-03
DAV:  31    -0.954014129815E+02   -0.24580E-02   -0.94399E-06   824   0.542E-03    0.365E-03
DAV:  32    -0.954030756911E+02   -0.16627E-02   -0.40542E-06   808   0.310E-03    0.243E-03
DAV:  33    -0.954037125845E+02   -0.63689E-03   -0.15583E-06   848   0.307E-03    0.135E-03
DAV:  34    -0.954040154541E+02   -0.30287E-03   -0.11690E-06   816   0.261E-03    0.919E-04
DAV:  35    -0.954041888498E+02   -0.17340E-03   -0.60684E-07   832   0.142E-03    0.650E-04
DAV:  36    -0.954042869091E+02   -0.98059E-04   -0.29969E-07   856   0.110E-03
   1 F= -.95404287E+02 E0= -.95404287E+02  d E =-.954043E+02  mag=     1.0012
       N       E                     dE             d eps       ncg     rms          rms(c)
DAV:   1    -0.954675793778E+02   -0.63391E-01   -0.45052E+00  1328   0.324E+00    0.166E-01
DAV:   2    -0.954696135370E+02   -0.20342E-02   -0.20377E-02  1368   0.307E-01    0.120E-01
DAV:   3    -0.954695421299E+02    0.71407E-04   -0.39321E-04  1192   0.479E-02
   2 F= -.95469542E+02 E0= -.95469542E+02  d E =-.652552E-01  mag=     1.0008
       N       E                     dE             d eps       ncg     rms          rms(c)
DAV:   1    -0.956233925330E+02   -0.15378E+00   -0.40622E+01  1280   0.973E+00    0.475E-01
DAV:   2    -0.956416940964E+02   -0.18302E-01   -0.18330E-01  1336   0.921E-01    0.354E-01
DAV:   3    -0.956411554680E+02    0.53863E-03   -0.34476E-03  1352   0.140E-01    0.224E-01
DAV:   4    -0.956408101996E+02    0.34527E-03   -0.19145E-03  1384   0.772E-02    0.357E-02
DAV:   5    -0.956407892532E+02    0.20946E-04   -0.60639E-05   856   0.204E-02
   3 F= -.95640789E+02 E0= -.95640789E+02  d E =-.236502E+00  mag=     1.0004
       N       E                     dE             d eps       ncg     rms          rms(c)
DAV:   1    -0.958131885315E+02   -0.17238E+00   -0.16259E+02  1280   0.195E+01    0.849E-01
DAV:   2    -0.958862908441E+02   -0.73102E-01   -0.72825E-01  1312   0.185E+00    0.681E-01
DAV:   3    -0.958845931467E+02    0.16977E-02   -0.12808E-02  1352   0.265E-01    0.465E-01
DAV:   4    -0.958829102212E+02    0.16829E-02   -0.83774E-03  1360   0.154E-01    0.928E-02
DAV:   5    -0.958828876938E+02    0.22527E-04   -0.21141E-04   912   0.411E-02
   4 F= -.95882888E+02 E0= -.95882888E+02  d E =-.478601E+00  mag=     1.0002
       N       E                     dE             d eps       ncg     rms          rms(c)
DAV:   1    -0.957353352946E+02    0.14757E+00   -0.65572E+02  1280   0.394E+01    0.143E+00
DAV:   2    -0.960354404285E+02   -0.30011E+00   -0.29568E+00  1336   0.376E+00    0.129E+00
DAV:   3    -0.960322788740E+02    0.31616E-02   -0.48743E-02  1360   0.503E-01    0.957E-01
DAV:   4    -0.960236908637E+02    0.85880E-02   -0.24168E-02  1360   0.261E-01    0.365E-01
DAV:   5    -0.960238788832E+02   -0.18802E-03   -0.33022E-03  1368   0.110E-01    0.118E-01
DAV:   6    -0.960237462927E+02    0.13259E-03   -0.53012E-04  1360   0.365E-02    0.566E-02
DAV:   7    -0.960238535990E+02   -0.10731E-03   -0.10722E-04   888   0.197E-02    0.208E-02
DAV:   8    -0.960239897604E+02   -0.13616E-03   -0.29440E-05   856   0.105E-02    0.722E-03
DAV:   9    -0.960241120616E+02   -0.12230E-03   -0.57393E-06   888   0.435E-03    0.362E-03
DAV:  10    -0.960242290272E+02   -0.11697E-03   -0.21922E-06   864   0.216E-03    0.230E-03
DAV:  11    -0.960243876277E+02   -0.15860E-03   -0.32080E-06   840   0.178E-03    0.163E-03
DAV:  12    -0.960245118492E+02   -0.12422E-03   -0.24891E-06   880   0.147E-03    0.139E-03
DAV:  13    -0.960245741628E+02   -0.62314E-04   -0.79664E-07   880   0.945E-04
   5 F= -.96024574E+02 E0= -.96024574E+02  d E =-.620287E+00  mag=     1.0000
       N       E                     dE             d eps       ncg     rms          rms(c)
DAV:   1    -0.961033184359E+02   -0.78807E-01   -0.77643E+01  1296   0.134E+01    0.562E-01
DAV:   2    -0.961395347185E+02   -0.36216E-01   -0.36036E-01  1360   0.129E+00    0.459E-01
DAV:   3    -0.961387139829E+02    0.82074E-03   -0.59792E-03  1368   0.166E-01    0.308E-01
DAV:   4    -0.961378175791E+02    0.89640E-03   -0.38722E-03  1352   0.108E-01    0.731E-02
DAV:   5    -0.961378123864E+02    0.51927E-05   -0.11045E-04   872   0.303E-02
   6 F= -.96137812E+02 E0= -.96137812E+02  d E =-.113238E+00  mag=     1.0000
       N       E                     dE             d eps       ncg     rms          rms(c)
DAV:   1    -0.961224830907E+02    0.15334E-01   -0.19110E+02  1280   0.211E+01    0.789E-01
DAV:   2    -0.962118179600E+02   -0.89335E-01   -0.88686E-01  1336   0.202E+00    0.681E-01
DAV:   3    -0.962103698909E+02    0.14481E-02   -0.14086E-02  1336   0.253E-01    0.482E-01
DAV:   4    -0.962079229746E+02    0.24469E-02   -0.84473E-03  1368   0.158E-01    0.151E-01
DAV:   5    -0.962079910257E+02   -0.68051E-04   -0.58511E-04  1368   0.547E-02
   7 F= -.96207991E+02 E0= -.96207991E+02  d E =-.183417E+00  mag=     1.0000
       N       E                     dE             d eps       ncg     rms          rms(c)
DAV:   1    -0.962404936945E+02   -0.32571E-01   -0.22841E+01  1304   0.727E+00    0.232E-01
DAV:   2    -0.962514130806E+02   -0.10919E-01   -0.10597E-01  1368   0.693E-01    0.181E-01
DAV:   3    -0.962512365967E+02    0.17648E-03   -0.16698E-03  1416   0.844E-02    0.127E-01
DAV:   4    -0.962510018236E+02    0.23477E-03   -0.89217E-04  1352   0.497E-02    0.398E-02
DAV:   5    -0.962510559979E+02   -0.54174E-04   -0.69157E-05   888   0.186E-02
   8 F= -.96251056E+02 E0= -.96251056E+02  d E =-.430650E-01  mag=     1.0000
       N       E                     dE             d eps       ncg     rms          rms(c)
DAV:   1    -0.962252036026E+02    0.25798E-01   -0.20655E+02  1280   0.219E+01    0.780E-01
DAV:   2    -0.963253489620E+02   -0.10015E+00   -0.97504E-01  1344   0.210E+00    0.548E-01
DAV:   3    -0.963232845813E+02    0.20644E-02   -0.15921E-02  1392   0.265E-01    0.369E-01
DAV:   4    -0.963209580849E+02    0.23265E-02   -0.82414E-03  1344   0.151E-01    0.104E-01
DAV:   5    -0.963210535899E+02   -0.95505E-04   -0.41992E-04  1288   0.476E-02
   9 F= -.96321054E+02 E0= -.96321054E+02  d E =-.113063E+00  mag=     1.0000
       N       E                     dE             d eps       ncg     rms          rms(c)
DAV:   1    -0.963166313982E+02    0.43267E-02   -0.17483E+01  1296   0.636E+00    0.222E-01
DAV:   2    -0.963251322273E+02   -0.85008E-02   -0.81567E-02  1360   0.607E-01    0.169E-01
DAV:   3    -0.963250290940E+02    0.10313E-03   -0.12986E-03  1400   0.745E-02    0.114E-01
DAV:   4    -0.963249666847E+02    0.62409E-04   -0.70458E-04  1368   0.446E-02
  10 F= -.96324967E+02 E0= -.96324967E+02  d E =-.116976E+00  mag=     1.0000
       N       E                     dE             d eps       ncg     rms          rms(c)
DAV:   1    -0.963471006592E+02   -0.22072E-01   -0.31612E+01  1280   0.849E+00    0.214E-01
DAV:   2    -0.963626592964E+02   -0.15559E-01   -0.14832E-01  1328   0.823E-01    0.200E-01
DAV:   3    -0.963624910572E+02    0.16824E-03   -0.22734E-03  1392   0.995E-02    0.152E-01
DAV:   4    -0.963620348680E+02    0.45619E-03   -0.83864E-04  1344   0.468E-02    0.753E-02
DAV:   5    -0.963620818856E+02   -0.47018E-04   -0.53908E-04  1376   0.381E-02
  11 F= -.96362082E+02 E0= -.96362082E+02  d E =-.371152E-01  mag=     1.0000
       N       E                     dE             d eps       ncg     rms          rms(c)
DAV:   1    -0.962937169511E+02    0.68318E-01   -0.28814E+02  1280   0.257E+01    0.768E-01
DAV:   2    -0.964348515237E+02   -0.14113E+00   -0.13926E+00  1336   0.253E+00    0.613E-01
DAV:   3    -0.964322344936E+02    0.26170E-02   -0.22395E-02  1392   0.322E-01    0.433E-01
DAV:   4    -0.964279691712E+02    0.42653E-02   -0.78869E-03  1328   0.143E-01    0.201E-01
DAV:   5    -0.964276799648E+02    0.28921E-03   -0.29335E-03  1376   0.914E-02    0.642E-02
DAV:   6    -0.964277721981E+02   -0.92233E-04   -0.16112E-04   904   0.216E-02
  12 F= -.96427772E+02 E0= -.96427772E+02  d E =-.102806E+00  mag=     1.0000
       N       E                     dE             d eps       ncg     rms          rms(c)
DAV:   1    -0.964071078091E+02    0.20572E-01   -0.58984E+01  1280   0.116E+01    0.311E-01
DAV:   2    -0.964354615707E+02   -0.28354E-01   -0.27534E-01  1336   0.112E+00    0.283E-01
DAV:   3    -0.964350292732E+02    0.43230E-03   -0.42414E-03  1384   0.137E-01    0.211E-01
DAV:   4    -0.964340890472E+02    0.94023E-03   -0.19929E-03  1328   0.713E-02    0.935E-02
DAV:   5    -0.964341666886E+02   -0.77641E-04   -0.75699E-04  1384   0.463E-02
  13 F= -.96434167E+02 E0= -.96434167E+02  d E =-.109200E+00  mag=     1.0000
       N       E                     dE             d eps       ncg     rms          rms(c)
DAV:   1    -0.964398745918E+02   -0.57855E-02   -0.10296E+02  1280   0.154E+01    0.410E-01
DAV:   2    -0.964899848653E+02   -0.50110E-01   -0.48510E-01  1328   0.150E+00    0.390E-01
DAV:   3    -0.964894881810E+02    0.49668E-03   -0.76775E-03  1416   0.186E-01    0.289E-01
DAV:   4    -0.964879592620E+02    0.15289E-02   -0.27637E-03  1336   0.873E-02    0.150E-01
DAV:   5    -0.964879243272E+02    0.34935E-04   -0.17139E-03  1384   0.684E-02    0.540E-02
DAV:   6    -0.964879576732E+02   -0.33346E-04   -0.78125E-05   856   0.145E-02
  14 F= -.96487958E+02 E0= -.96487958E+02  d E =-.537910E-01  mag=     1.0000
       N       E                     dE             d eps       ncg     rms          rms(c)
DAV:   1    -0.964034189390E+02    0.84505E-01   -0.24324E+02  1280   0.236E+01    0.661E-01
DAV:   2    -0.965218859821E+02   -0.11847E+00   -0.11588E+00  1336   0.232E+00    0.605E-01
DAV:   3    -0.965203252058E+02    0.15608E-02   -0.18679E-02  1384   0.296E-01    0.438E-01
DAV:   4    -0.965165803106E+02    0.37449E-02   -0.60446E-03  1336   0.129E-01    0.234E-01
DAV:   5    -0.965161810391E+02    0.39927E-03   -0.36829E-03  1384   0.100E-01    0.763E-02
DAV:   6    -0.965161962741E+02   -0.15235E-04   -0.13898E-04   896   0.196E-02
  15 F= -.96516196E+02 E0= -.96516196E+02  d E =-.820296E-01  mag=     1.0000
       N       E                     dE             d eps       ncg     rms          rms(c)
DAV:   1    -0.964998979912E+02    0.16283E-01   -0.12247E+02  1280   0.168E+01    0.425E-01
DAV:   2    -0.965571764878E+02   -0.57278E-01   -0.56358E-01  1336   0.161E+00    0.420E-01
DAV:   3    -0.965564016500E+02    0.77484E-03   -0.86936E-03  1400   0.197E-01    0.321E-01
DAV:   4    -0.965543454747E+02    0.20562E-02   -0.32040E-03  1344   0.914E-02    0.171E-01
DAV:   5    -0.965541837960E+02    0.16168E-03   -0.23984E-03  1344   0.800E-02    0.618E-02
DAV:   6    -0.965542005765E+02   -0.16781E-04   -0.74319E-05   856   0.145E-02
  16 F= -.96554201E+02 E0= -.96554201E+02  d E =-.380043E-01  mag=     1.0000
       N       E                     dE             d eps       ncg     rms          rms(c)
DAV:   1    -0.965199102013E+02    0.34274E-01   -0.87779E+01  1280   0.142E+01    0.356E-01
DAV:   2    -0.965610837164E+02   -0.41174E-01   -0.40371E-01  1344   0.136E+00    0.349E-01
DAV:   3    -0.965605444668E+02    0.53925E-03   -0.62271E-03  1392   0.167E-01    0.266E-01
DAV:   4    -0.965591026172E+02    0.14418E-02   -0.22919E-03  1344   0.774E-02    0.140E-01
DAV:   5    -0.965590012115E+02    0.10141E-03   -0.16909E-03  1368   0.672E-02    0.514E-02
DAV:   6    -0.965590030625E+02   -0.18510E-05   -0.55977E-05   832   0.125E-02
  17 F= -.96559003E+02 E0= -.96559003E+02  d E =-.428068E-01  mag=     1.0000
       N       E                     dE             d eps       ncg     rms          rms(c)
DAV:   1    -0.965415476398E+02    0.17454E-01   -0.11740E+02  1280   0.165E+01    0.396E-01
DAV:   2    -0.965971735116E+02   -0.55626E-01   -0.53469E-01  1360   0.157E+00    0.390E-01
DAV:   3    -0.965965491722E+02    0.62434E-03   -0.81740E-03  1424   0.191E-01    0.299E-01
DAV:   4    -0.965946223449E+02    0.19268E-02   -0.28379E-03  1368   0.861E-02    0.161E-01
DAV:   5    -0.965943874509E+02    0.23489E-03   -0.24493E-03  1392   0.797E-02    0.583E-02
DAV:   6    -0.965943863789E+02    0.10720E-05   -0.63043E-05   880   0.137E-02
  18 F= -.96594386E+02 E0= -.96594386E+02  d E =-.353833E-01  mag=     1.0000
       N       E                     dE             d eps       ncg     rms          rms(c)
DAV:   1    -0.965178744017E+02    0.76513E-01   -0.18285E+02  1280   0.206E+01    0.499E-01
DAV:   2    -0.966047436291E+02   -0.86869E-01   -0.83580E-01  1360   0.197E+00    0.485E-01
DAV:   3    -0.966038044647E+02    0.93916E-03   -0.12863E-02  1416   0.240E-01    0.370E-01
DAV:   4    -0.966008629495E+02    0.29415E-02   -0.42332E-03  1376   0.106E-01    0.201E-01
DAV:   5    -0.966004508926E+02    0.41206E-03   -0.36819E-03  1384   0.975E-02    0.707E-02
DAV:   6    -0.966004589688E+02   -0.80762E-05   -0.87742E-05   864   0.163E-02
  19 F= -.96600459E+02 E0= -.96600459E+02  d E =-.414559E-01  mag=     1.0000
       N       E                     dE             d eps       ncg     rms          rms(c)
DAV:   1    -0.965713233570E+02    0.29128E-01   -0.12984E+02  1280   0.173E+01    0.376E-01
DAV:   2    -0.966348254278E+02   -0.63502E-01   -0.60019E-01  1344   0.167E+00    0.401E-01
DAV:   3    -0.966344245812E+02    0.40085E-03   -0.93230E-03  1408   0.205E-01    0.309E-01
DAV:   4    -0.966323664523E+02    0.20581E-02   -0.21636E-03  1376   0.767E-02    0.199E-01
DAV:   5    -0.966317303736E+02    0.63608E-03   -0.40682E-03  1352   0.101E-01    0.703E-02
DAV:   6    -0.966317754561E+02   -0.45083E-04   -0.52916E-05   872   0.134E-02
  20 F= -.96631775E+02 E0= -.96631775E+02  d E =-.313165E-01  mag=     1.0000
       N       E                     dE             d eps       ncg     rms          rms(c)
DAV:   1    -0.962230741112E+02    0.40866E+00   -0.90093E+02  1280   0.460E+01    0.128E+00
DAV:   2    -0.966652732948E+02   -0.44220E+00   -0.42829E+00  1360   0.450E+00    0.110E+00
DAV:   3    -0.966593072809E+02    0.59660E-02   -0.68351E-02  1400   0.568E-01    0.768E-01
DAV:   4    -0.966464207112E+02    0.12887E-01   -0.16838E-02  1376   0.213E-01    0.455E-01
DAV:   5    -0.966435591369E+02    0.28616E-02   -0.14422E-02  1360   0.192E-01    0.142E-01
DAV:   6    -0.966437866036E+02   -0.22747E-03   -0.23244E-04   952   0.292E-02    0.837E-02
DAV:   7    -0.966440745747E+02   -0.28797E-03   -0.95866E-05   896   0.174E-02    0.316E-02
DAV:   8    -0.966442999978E+02   -0.22542E-03   -0.27087E-05   896   0.914E-03    0.105E-02
DAV:   9    -0.966445521314E+02   -0.25213E-03   -0.90714E-06   896   0.488E-03    0.381E-03
DAV:  10    -0.966447191156E+02   -0.16698E-03   -0.29755E-06   888   0.210E-03    0.221E-03
DAV:  11    -0.966448438146E+02   -0.12470E-03   -0.14412E-06   864   0.117E-03    0.155E-03
DAV:  12    -0.966450928288E+02   -0.24901E-03   -0.52188E-06   888   0.156E-03    0.115E-03
DAV:  13    -0.966451958883E+02   -0.10306E-03   -0.17565E-06   896   0.954E-04    0.103E-03
DAV:  14    -0.966452772141E+02   -0.81326E-04   -0.10236E-06   872   0.766E-04
  21 F= -.96645277E+02 E0= -.96645277E+02  d E =-.448182E-01  mag=     1.0000
       N       E                     dE             d eps       ncg     rms          rms(c)
DAV:   1    -0.965936086863E+02    0.51587E-01   -0.13428E+02  1280   0.176E+01    0.378E-01
DAV:   2    -0.966570625586E+02   -0.63454E-01   -0.61379E-01  1360   0.169E+00    0.409E-01
DAV:   3    -0.966564986690E+02    0.56389E-03   -0.95020E-03  1424   0.208E-01    0.317E-01
DAV:   4    -0.966543412659E+02    0.21574E-02   -0.21711E-03  1376   0.767E-02    0.206E-01
DAV:   5    -0.966535931668E+02    0.74810E-03   -0.45014E-03  1384   0.106E-01    0.731E-02
DAV:   6    -0.966536218753E+02   -0.28708E-04   -0.60791E-05   896   0.143E-02
  22 F= -.96653622E+02 E0= -.96653622E+02  d E =-.531629E-01  mag=     1.0000
       N       E                     dE             d eps       ncg     rms          rms(c)
DAV:   1    -0.966118457021E+02    0.41747E-01   -0.20286E+02  1280   0.217E+01    0.550E-01
DAV:   2    -0.967089054710E+02   -0.97060E-01   -0.93886E-01  1336   0.208E+00    0.491E-01
DAV:   3    -0.967074055159E+02    0.15000E-02   -0.14489E-02  1416   0.254E-01    0.367E-01
DAV:   4    -0.967041493870E+02    0.32561E-02   -0.53276E-03  1352   0.117E-01    0.179E-01
DAV:   5    -0.967038105798E+02    0.33881E-03   -0.31255E-03  1384   0.912E-02    0.616E-02
DAV:   6    -0.967038216232E+02   -0.11043E-04   -0.10552E-04   880   0.178E-02
  23 F= -.96703822E+02 E0= -.96703822E+02  d E =-.501997E-01  mag=     1.0000
       N       E                     dE             d eps       ncg     rms          rms(c)
DAV:   1    -0.966542899743E+02    0.49521E-01   -0.13498E+02  1296   0.177E+01    0.446E-01
DAV:   2    -0.967183356078E+02   -0.64046E-01   -0.62227E-01  1352   0.169E+00    0.401E-01
DAV:   3    -0.967173371394E+02    0.99847E-03   -0.95300E-03  1416   0.206E-01    0.299E-01
DAV:   4    -0.967151399224E+02    0.21972E-02   -0.36598E-03  1352   0.967E-02    0.144E-01
DAV:   5    -0.967149676469E+02    0.17228E-03   -0.20541E-03  1392   0.741E-02    0.526E-02
DAV:   6    -0.967149958844E+02   -0.28238E-04   -0.74709E-05   856   0.148E-02
  24 F= -.96714996E+02 E0= -.96714996E+02  d E =-.613740E-01  mag=     1.0000
       N       E                     dE             d eps       ncg     rms          rms(c)
DAV:   1    -0.966312042948E+02    0.83763E-01   -0.27470E+02  1280   0.252E+01    0.667E-01
DAV:   2    -0.967612733801E+02   -0.13007E+00   -0.12654E+00  1360   0.241E+00    0.560E-01
DAV:   3    -0.967590199923E+02    0.22534E-02   -0.19394E-02  1400   0.290E-01    0.410E-01
DAV:   4    -0.967548347539E+02    0.41852E-02   -0.76938E-03  1336   0.140E-01    0.184E-01
DAV:   5    -0.967546122909E+02    0.22246E-03   -0.31466E-03  1384   0.923E-02    0.645E-02
DAV:   6    -0.967546314250E+02   -0.19134E-04   -0.13445E-04   912   0.201E-02
  25 F= -.96754631E+02 E0= -.96754631E+02  d E =-.396355E-01  mag=     1.0000
       N       E                     dE             d eps       ncg     rms          rms(c)
DAV:   1    -0.967465746006E+02    0.80377E-02   -0.20586E+01  1280   0.688E+00    0.166E-01
DAV:   2    -0.967561776355E+02   -0.96030E-02   -0.93232E-02  1368   0.651E-01    0.155E-01
DAV:   3    -0.967560477795E+02    0.12986E-03   -0.13915E-03  1400   0.767E-02    0.119E-01
DAV:   4    -0.967557470999E+02    0.30068E-03   -0.59676E-04  1352   0.389E-02    0.561E-02
DAV:   5    -0.967557751522E+02   -0.28052E-04   -0.32456E-04  1176   0.299E-02
  26 F= -.96755775E+02 E0= -.96755775E+02  d E =-.407793E-01  mag=     1.0000
       N       E                     dE             d eps       ncg     rms          rms(c)
DAV:   1    -0.967240710011E+02    0.31676E-01   -0.15026E+02  1280   0.186E+01    0.464E-01
DAV:   2    -0.967934367067E+02   -0.69366E-01   -0.67176E-01  1344   0.175E+00    0.404E-01
DAV:   3    -0.967923500018E+02    0.10867E-02   -0.99869E-03  1400   0.203E-01    0.304E-01
DAV:   4    -0.967901454588E+02    0.22045E-02   -0.40678E-03  1344   0.102E-01    0.136E-01
DAV:   5    -0.967900376757E+02    0.10778E-03   -0.17535E-03  1392   0.695E-02    0.488E-02
DAV:   6    -0.967900451846E+02   -0.75088E-05   -0.66500E-05   856   0.145E-02
  27 F= -.96790045E+02 E0= -.96790045E+02  d E =-.342700E-01  mag=     1.0000
       N       E                     dE             d eps       ncg     rms          rms(c)
DAV:   1    -0.967692082829E+02    0.20829E-01   -0.60426E+01  1280   0.118E+01    0.285E-01
DAV:   2    -0.967974603175E+02   -0.28252E-01   -0.26903E-01  1344   0.111E+00    0.256E-01
DAV:   3    -0.967970962944E+02    0.36402E-03   -0.39562E-03  1384   0.128E-01    0.196E-01
DAV:   4    -0.967961841569E+02    0.91214E-03   -0.17410E-03  1344   0.665E-02    0.860E-02
DAV:   5    -0.967961616064E+02    0.22550E-04   -0.76434E-04  1376   0.457E-02
  28 F= -.96796162E+02 E0= -.96796162E+02  d E =-.403865E-01  mag=     1.0000
       N       E                     dE             d eps       ncg     rms          rms(c)
DAV:   1    -0.967612604782E+02    0.34924E-01   -0.15578E+02  1280   0.189E+01    0.445E-01
DAV:   2    -0.968345138051E+02   -0.73253E-01   -0.70966E-01  1336   0.180E+00    0.426E-01
DAV:   3    -0.968336114287E+02    0.90238E-03   -0.10405E-02  1384   0.210E-01    0.322E-01
DAV:   4    -0.968313350940E+02    0.22763E-02   -0.31171E-03  1352   0.901E-02    0.179E-01
DAV:   5    -0.968309436815E+02    0.39141E-03   -0.28480E-03  1384   0.865E-02    0.586E-02
DAV:   6    -0.968309739284E+02   -0.30247E-04   -0.51238E-05   856   0.133E-02
  29 F= -.96830974E+02 E0= -.96830974E+02  d E =-.348123E-01  mag=     1.0000
       N       E                     dE             d eps       ncg     rms          rms(c)
DAV:   1    -0.967299289696E+02    0.10101E+00   -0.24992E+02  1280   0.240E+01    0.596E-01
DAV:   2    -0.968470692623E+02   -0.11714E+00   -0.11480E+00  1344   0.229E+00    0.544E-01
DAV:   3    -0.968452457730E+02    0.18235E-02   -0.17005E-02  1376   0.273E-01    0.401E-01
DAV:   4    -0.968416804583E+02    0.35653E-02   -0.49151E-03  1344   0.113E-01    0.223E-01
DAV:   5    -0.968410361413E+02    0.64432E-03   -0.39614E-03  1360   0.102E-01    0.692E-02
DAV:   6    -0.968410843041E+02   -0.48163E-04   -0.67721E-05   872   0.157E-02
  30 F= -.96841084E+02 E0= -.96841084E+02  d E =-.449227E-01  mag=     1.0000
       N       E                     dE             d eps       ncg     rms          rms(c)
DAV:   1    -0.968354459625E+02    0.55902E-02   -0.44263E+01  1280   0.100E+01    0.210E-01
DAV:   2    -0.968557387411E+02   -0.20293E-01   -0.19818E-01  1344   0.948E-01    0.219E-01
DAV:   3    -0.968554865207E+02    0.25222E-03   -0.28458E-03  1408   0.110E-01    0.172E-01
DAV:   4    -0.968548189198E+02    0.66760E-03   -0.76467E-04  1352   0.446E-02    0.103E-01
DAV:   5    -0.968546690724E+02    0.14985E-03   -0.12030E-03  1376   0.551E-02    0.360E-02
DAV:   6    -0.968546935727E+02   -0.24500E-04   -0.17115E-05   808   0.750E-03
  31 F= -.96854694E+02 E0= -.96854694E+02  d E =-.136093E-01  mag=     1.0000
       N       E                     dE             d eps       ncg     rms          rms(c)
DAV:   1    -0.968188791087E+02    0.35790E-01   -0.99554E+01  1280   0.151E+01    0.335E-01
DAV:   2    -0.968654547803E+02   -0.46576E-01   -0.45078E-01  1336   0.143E+00    0.334E-01
DAV:   3    -0.968648949875E+02    0.55979E-03   -0.66394E-03  1392   0.169E-01    0.256E-01
DAV:   4    -0.968634102558E+02    0.14847E-02   -0.17685E-03  1344   0.681E-02    0.151E-01
DAV:   5    -0.968630597544E+02    0.35050E-03   -0.23032E-03  1336   0.769E-02    0.497E-02
DAV:   6    -0.968630922626E+02   -0.32508E-04   -0.34790E-05   840   0.107E-02
  32 F= -.96863092E+02 E0= -.96863092E+02  d E =-.220080E-01  mag=     1.0000
       N       E                     dE             d eps       ncg     rms          rms(c)
DAV:   1    -0.968756489973E+02   -0.12589E-01   -0.66950E+00  1280   0.394E+00    0.130E-01
DAV:   2    -0.968787118351E+02   -0.30628E-02   -0.30635E-02  1368   0.370E-01    0.981E-02
DAV:   3    -0.968786689446E+02    0.42890E-04   -0.49448E-04  1408   0.460E-02
  33 F= -.96878669E+02 E0= -.96878669E+02  d E =-.155767E-01  mag=     1.0000
       N       E                     dE             d eps       ncg     rms          rms(c)
DAV:   1    -0.968792202586E+02   -0.50842E-03   -0.30465E+01  1280   0.841E+00    0.293E-01
DAV:   2    -0.968929732597E+02   -0.13753E-01   -0.13930E-01  1376   0.787E-01    0.217E-01
DAV:   3    -0.968927062437E+02    0.26702E-03   -0.22598E-03  1400   0.975E-02    0.145E-01
DAV:   4    -0.968924173629E+02    0.28888E-03   -0.10202E-03  1368   0.547E-02    0.397E-02
DAV:   5    -0.968924372282E+02   -0.19865E-04   -0.50236E-05   856   0.183E-02
  34 F= -.96892437E+02 E0= -.96892437E+02  d E =-.293450E-01  mag=     1.0000
       N       E                     dE             d eps       ncg     rms          rms(c)
DAV:   1    -0.968983678601E+02   -0.59505E-02   -0.78852E+00  1296   0.426E+00    0.118E-01
DAV:   2    -0.969021126372E+02   -0.37448E-02   -0.36279E-02  1352   0.405E-01    0.999E-02
DAV:   3    -0.969020836381E+02    0.28999E-04   -0.56923E-04  1416   0.494E-02
  35 F= -.96902084E+02 E0= -.96902084E+02  d E =-.964641E-02  mag=     1.0000
       N       E                     dE             d eps       ncg     rms          rms(c)
DAV:   1    -0.968941806380E+02    0.79320E-02   -0.36758E+01  1296   0.921E+00    0.272E-01
DAV:   2    -0.969112809474E+02   -0.17100E-01   -0.16757E-01  1352   0.871E-01    0.231E-01
DAV:   3    -0.969109842247E+02    0.29672E-03   -0.26370E-03  1416   0.106E-01    0.166E-01
DAV:   4    -0.969104576713E+02    0.52655E-03   -0.13935E-03  1352   0.613E-02    0.608E-02
DAV:   5    -0.969104704420E+02   -0.12771E-04   -0.21414E-04   880   0.288E-02
  36 F= -.96910470E+02 E0= -.96910470E+02  d E =-.180332E-01  mag=     1.0000
       N       E                     dE             d eps       ncg     rms          rms(c)
DAV:   1    -0.969123041516E+02   -0.18465E-02   -0.12275E+01  1296   0.531E+00    0.127E-01
DAV:   2    -0.969181986597E+02   -0.58945E-02   -0.56269E-02  1368   0.504E-01    0.114E-01
DAV:   3    -0.969181276739E+02    0.70986E-04   -0.81190E-04  1408   0.581E-02
  37 F= -.96918128E+02 E0= -.96918128E+02  d E =-.765723E-02  mag=     1.0000
       N       E                     dE             d eps       ncg     rms          rms(c)
DAV:   1    -0.969077260279E+02    0.10473E-01   -0.33582E+01  1280   0.879E+00    0.228E-01
DAV:   2    -0.969232567381E+02   -0.15531E-01   -0.15132E-01  1368   0.828E-01    0.210E-01
DAV:   3    -0.969229303588E+02    0.32638E-03   -0.21922E-03  1408   0.945E-02    0.161E-01
DAV:   4    -0.969222966185E+02    0.63374E-03   -0.14214E-03  1352   0.604E-02    0.609E-02
DAV:   5    -0.969223098739E+02   -0.13255E-04   -0.34040E-04  1200   0.322E-02
  38 F= -.96922310E+02 E0= -.96922310E+02  d E =-.118394E-01  mag=     1.0000
       N       E                     dE             d eps       ncg     rms          rms(c)
DAV:   1    -0.969216119597E+02    0.68466E-03   -0.15807E+01  1280   0.599E+00    0.136E-01
DAV:   2    -0.969290241642E+02   -0.74122E-02   -0.71679E-02  1360   0.565E-01    0.131E-01
DAV:   3    -0.969289249695E+02    0.99195E-04   -0.10182E-03  1400   0.636E-02    0.103E-01
DAV:   4    -0.969286685156E+02    0.25645E-03   -0.41071E-04  1296   0.327E-02    0.504E-02
DAV:   5    -0.969286691777E+02   -0.66215E-06   -0.28789E-04  1096   0.282E-02
  39 F= -.96928669E+02 E0= -.96928669E+02  d E =-.635930E-02  mag=     1.0000
       N       E                     dE             d eps       ncg     rms          rms(c)
DAV:   1    -0.969124489313E+02    0.16220E-01   -0.43476E+01  1280   0.994E+00    0.229E-01
DAV:   2    -0.969327632678E+02   -0.20314E-01   -0.19764E-01  1344   0.940E-01    0.220E-01
DAV:   3    -0.969324462214E+02    0.31705E-03   -0.28202E-03  1384   0.106E-01    0.171E-01
DAV:   4    -0.969316810161E+02    0.76521E-03   -0.11287E-03  1336   0.539E-02    0.846E-02
DAV:   5    -0.969315953463E+02    0.85670E-04   -0.76703E-04  1384   0.446E-02
  40 F= -.96931595E+02 E0= -.96931595E+02  d E =-.928547E-02  mag=     1.0000
       N       E                     dE             d eps       ncg     rms          rms(c)
DAV:   1    -0.969293272301E+02    0.23538E-02   -0.17792E+01  1280   0.638E+00    0.136E-01
DAV:   2    -0.969375127046E+02   -0.81855E-02   -0.79397E-02  1344   0.595E-01    0.132E-01
DAV:   3    -0.969374101867E+02    0.10252E-03   -0.11470E-03  1408   0.670E-02    0.105E-01
DAV:   4    -0.969371372916E+02    0.27290E-03   -0.43500E-04  1336   0.332E-02    0.514E-02
DAV:   5    -0.969371428693E+02   -0.55777E-05   -0.32301E-04  1224   0.295E-02
  41 F= -.96937143E+02 E0= -.96937143E+02  d E =-.554752E-02  mag=     1.0000
       N       E                     dE             d eps       ncg     rms          rms(c)
DAV:   1    -0.969279609072E+02    0.91764E-02   -0.24986E+01  1280   0.756E+00    0.162E-01
DAV:   2    -0.969394178592E+02   -0.11457E-01   -0.11130E-01  1336   0.705E-01    0.157E-01
DAV:   3    -0.969392544242E+02    0.16344E-03   -0.16085E-03  1400   0.795E-02    0.124E-01
DAV:   4    -0.969388338103E+02    0.42061E-03   -0.62071E-04  1360   0.396E-02    0.606E-02
DAV:   5    -0.969388015797E+02    0.32231E-04   -0.45895E-04  1368   0.346E-02
  42 F= -.96938802E+02 E0= -.96938802E+02  d E =-.720623E-02  mag=     1.0000
       N       E                     dE             d eps       ncg     rms          rms(c)
DAV:   1    -0.969340282627E+02    0.48055E-02   -0.24922E+01  1280   0.759E+00    0.164E-01
DAV:   2    -0.969454092395E+02   -0.11381E-01   -0.10965E-01  1352   0.703E-01    0.158E-01
DAV:   3    -0.969452354487E+02    0.17379E-03   -0.15250E-03  1416   0.783E-02    0.124E-01
DAV:   4    -0.969447955967E+02    0.43985E-03   -0.63422E-04  1320   0.406E-02    0.603E-02
DAV:   5    -0.969447447673E+02    0.50829E-04   -0.44005E-04  1368   0.341E-02
  43 F= -.96944745E+02 E0= -.96944745E+02  d E =-.594319E-02  mag=     1.0000
       N       E                     dE             d eps       ncg     rms          rms(c)
DAV:   1    -0.969364227568E+02    0.83728E-02   -0.22572E+01  1280   0.722E+00    0.158E-01
DAV:   2    -0.969468036659E+02   -0.10381E-01   -0.99560E-02  1352   0.670E-01    0.150E-01
DAV:   3    -0.969466536810E+02    0.14998E-03   -0.13890E-03  1392   0.747E-02    0.117E-01
DAV:   4    -0.969462692341E+02    0.38445E-03   -0.57841E-04  1336   0.389E-02    0.560E-02
DAV:   5    -0.969462373384E+02    0.31896E-04   -0.37236E-04  1312   0.315E-02
  44 F= -.96946237E+02 E0= -.96946237E+02  d E =-.743576E-02  mag=     1.0000
       N       E                     dE             d eps       ncg     rms          rms(c)
DAV:   1    -0.969390013460E+02    0.72679E-02   -0.29796E+01  1280   0.830E+00    0.186E-01
DAV:   2    -0.969530151099E+02   -0.14014E-01   -0.13284E-01  1352   0.777E-01    0.179E-01
DAV:   3    -0.969528393875E+02    0.17572E-03   -0.18853E-03  1384   0.878E-02    0.139E-01
DAV:   4    -0.969523319960E+02    0.50739E-03   -0.77766E-04  1360   0.451E-02    0.691E-02
DAV:   5    -0.969522957286E+02    0.36267E-04   -0.53460E-04  1376   0.375E-02
  45 F= -.96952296E+02 E0= -.96952296E+02  d E =-.605839E-02  mag=     1.0000
       N       E                     dE             d eps       ncg     rms          rms(c)
DAV:   1    -0.969314670017E+02    0.20865E-01   -0.51132E+01  1280   0.109E+01    0.252E-01
DAV:   2    -0.969550639613E+02   -0.23597E-01   -0.22729E-01  1360   0.101E+00    0.235E-01
DAV:   3    -0.969546820005E+02    0.38196E-03   -0.32203E-03  1384   0.115E-01    0.179E-01
DAV:   4    -0.969537955686E+02    0.88643E-03   -0.14205E-03  1352   0.607E-02    0.853E-02
DAV:   5    -0.969537276825E+02    0.67886E-04   -0.77718E-04  1384   0.455E-02
  46 F= -.96953728E+02 E0= -.96953728E+02  d E =-.749034E-02  mag=     1.0000
       N       E                     dE             d eps       ncg     rms          rms(c)
DAV:   1    -0.969513805516E+02    0.24150E-02   -0.11804E+01  1280   0.521E+00    0.106E-01
DAV:   2    -0.969568678486E+02   -0.54873E-02   -0.52291E-02  1352   0.486E-01    0.107E-01
DAV:   3    -0.969568075135E+02    0.60335E-04   -0.75611E-04  1384   0.554E-02
  47 F= -.96956808E+02 E0= -.96956808E+02  d E =-.307983E-02  mag=     1.0000
       N       E                     dE             d eps       ncg     rms          rms(c)
DAV:   1    -0.969226880488E+02    0.34180E-01   -0.83892E+01  1280   0.139E+01    0.304E-01
DAV:   2    -0.969600416604E+02   -0.37354E-01   -0.36462E-01  1352   0.129E+00    0.313E-01
DAV:   3    -0.969592837425E+02    0.75792E-03   -0.52535E-03  1416   0.145E-01    0.253E-01
DAV:   4    -0.969573816296E+02    0.19021E-02   -0.25353E-03  1352   0.800E-02    0.129E-01
DAV:   5    -0.969570819356E+02    0.29969E-03   -0.19631E-03  1376   0.710E-02    0.503E-02
DAV:   6    -0.969571590991E+02   -0.77163E-04   -0.28518E-05   864   0.101E-02
  48 F= -.96957159E+02 E0= -.96957159E+02  d E =-.343142E-02  mag=     1.0000
       N       E                     dE             d eps       ncg     rms          rms(c)
DAV:   1    -0.969596751532E+02   -0.25932E-02   -0.42136E+00  1312   0.312E+00    0.891E-02
DAV:   2    -0.969616481849E+02   -0.19730E-02   -0.18877E-02  1408   0.292E-01    0.757E-02
DAV:   3    -0.969616415896E+02    0.65953E-05   -0.25645E-04   896   0.346E-02
  49 F= -.96961642E+02 E0= -.96961642E+02  d E =-.448249E-02  mag=     1.0000
       N       E                     dE             d eps       ncg     rms          rms(c)
DAV:   1    -0.969623907104E+02   -0.74253E-03   -0.34083E-01  1328   0.890E-01    0.375E-02
DAV:   2    -0.969625783961E+02   -0.18769E-03   -0.14555E-03  1424   0.810E-02    0.286E-02
DAV:   3    -0.969626099421E+02   -0.31546E-04   -0.21923E-05   816   0.968E-03
  50 F= -.96962610E+02 E0= -.96962610E+02  d E =-.545084E-02  mag=     1.0000
       N       E                     dE             d eps       ncg     rms          rms(c)
DAV:   1    -0.969646226822E+02   -0.20443E-02   -0.13847E+00  1320   0.179E+00    0.420E-02
DAV:   2    -0.969652784881E+02   -0.65581E-03   -0.60748E-03  1400   0.166E-01    0.399E-02
DAV:   3    -0.969652875969E+02   -0.91088E-05   -0.81671E-05   832   0.201E-02
  51 F= -.96965288E+02 E0= -.96965288E+02  d E =-.267765E-02  mag=     1.0000
       N       E                     dE             d eps       ncg     rms          rms(c)
DAV:   1    -0.969661641823E+02   -0.88569E-03   -0.64728E+00  1280   0.388E+00    0.950E-02
DAV:   2    -0.969690432529E+02   -0.28791E-02   -0.28073E-02  1384   0.358E-01    0.918E-02
DAV:   3    -0.969690113749E+02    0.31878E-04   -0.41898E-04  1320   0.426E-02
  52 F= -.96969011E+02 E0= -.96969011E+02  d E =-.640143E-02  mag=     1.0000
       N       E                     dE             d eps       ncg     rms          rms(c)
DAV:   1    -0.969699068774E+02   -0.86362E-03   -0.27719E+00  1320   0.254E+00    0.800E-02
DAV:   2    -0.969711077418E+02   -0.12009E-02   -0.12092E-02  1392   0.233E-01    0.695E-02
DAV:   3    -0.969710805618E+02    0.27180E-04   -0.17753E-04   856   0.277E-02
  53 F= -.96971081E+02 E0= -.96971081E+02  d E =-.206919E-02  mag=     1.0000
       N       E                     dE             d eps       ncg     rms          rms(c)
DAV:   1    -0.969712028477E+02   -0.95106E-04   -0.90193E-02  1344   0.460E-01    0.227E-02
DAV:   2    -0.969712461398E+02   -0.43292E-04   -0.37270E-04  1128   0.414E-02
  54 F= -.96971246E+02 E0= -.96971246E+02  d E =-.223476E-02  mag=     1.0000
       N       E                     dE             d eps       ncg     rms          rms(c)
DAV:   1    -0.969718816047E+02   -0.67876E-03   -0.18648E+00  1312   0.208E+00    0.446E-02
DAV:   2    -0.969727308331E+02   -0.84923E-03   -0.82577E-03  1384   0.194E-01    0.459E-02
DAV:   3    -0.969727230300E+02    0.78031E-05   -0.11164E-04   832   0.230E-02
  55 F= -.96972723E+02 E0= -.96972723E+02  d E =-.147689E-02  mag=     1.0000
       N       E                     dE             d eps       ncg     rms          rms(c)
DAV:   1    -0.969729159613E+02   -0.18513E-03   -0.14950E+00  1320   0.186E+00    0.473E-02
DAV:   2    -0.969735737131E+02   -0.65775E-03   -0.64476E-03  1392   0.172E-01    0.473E-02
DAV:   3    -0.969735623613E+02    0.11352E-04   -0.79775E-05   824   0.192E-02
  56 F= -.96973562E+02 E0= -.96973562E+02  d E =-.231622E-02  mag=     1.0000
       N       E                     dE             d eps       ncg     rms          rms(c)
DAV:   1    -0.969736305089E+02   -0.56796E-04   -0.71049E-01  1328   0.128E+00    0.456E-02
DAV:   2    -0.969739413742E+02   -0.31087E-03   -0.31303E-03  1376   0.117E-01    0.350E-02
DAV:   3    -0.969739356381E+02    0.57361E-05   -0.48641E-05   800   0.145E-02
  57 F= -.96973936E+02 E0= -.96973936E+02  d E =-.373277E-03  mag=     1.0000
       N       E                     dE             d eps       ncg     rms          rms(c)
DAV:   1    -0.969738995672E+02    0.41807E-04   -0.37716E-02  1344   0.293E-01    0.789E-03
DAV:   2    -0.969739167346E+02   -0.17167E-04   -0.14965E-04   832   0.278E-02
  58 F= -.96973917E+02 E0= -.96973917E+02  d E =-.354373E-03  mag=     1.0000
