       N       E                     dE             d eps       ncg     rms          rms(c)
DAV:   1     0.843719532933E+03    0.84372E+03   -0.15610E+04   272   0.527E+02
DAV:   2     0.313593469720E+03   -0.53013E+03   -0.46705E+03   504   0.984E+01
DAV:   3     0.451591576001E+01   -0.30908E+03   -0.28763E+03   424   0.859E+01
DAV:   4    -0.362474575601E+02   -0.40763E+02   -0.36778E+02   352   0.330E+01
DAV:   5    -0.386321314235E+02   -0.23847E+01   -0.22648E+01   292   0.831E+00    0.174E+01
DAV:   6    -0.361477731803E+02    0.24844E+01   -0.67584E+00   272   0.915E+00    0.860E+00
DAV:   7    -0.354348490814E+02    0.71292E+00   -0.12650E+00   296   0.376E+00    0.429E+00
DAV:   8    -0.351773233953E+02    0.25753E+00   -0.26514E-01   308   0.305E+00    0.203E+00
DAV:   9    -0.352969948062E+02   -0.11967E+00   -0.15018E-01   300   0.357E+00    0.188E+00
DAV:  10    -0.354628161329E+02   -0.16582E+00   -0.74083E-02   296   0.228E+00    0.688E-01
DAV:  11    -0.356196404385E+02   -0.15682E+00   -0.38857E-02   308   0.122E+00    0.624E-01
DAV:  12    -0.357931737126E+02   -0.17353E+00   -0.23054E-02   296   0.785E-01    0.254E-01
DAV:  13    -0.359541225717E+02   -0.16095E+00   -0.14157E-02   300   0.458E-01    0.277E-01
DAV:  14    -0.360731729542E+02   -0.11905E+00   -0.10254E-02   288   0.441E-01    0.196E-01
DAV:  15    -0.361830364985E+02   -0.10986E+00   -0.14915E-02   292   0.418E-01    0.200E-01
DAV:  16    -0.362073630762E+02   -0.24327E-01   -0.39439E-03   308   0.285E-01    0.862E-02
DAV:  17    -0.362213737487E+02   -0.14011E-01   -0.12780E-03   284   0.145E-01    0.571E-02
DAV:  18    -0.362275037640E+02   -0.61300E-02   -0.42268E-04   220   0.103E-01    0.455E-02
DAV:  19    -0.362298415387E+02   -0.23378E-02   -0.39929E-04   224   0.721E-02    0.306E-02
DAV:  20    -0.362286555337E+02    0.11860E-02   -0.32985E-04   228   0.458E-02    0.198E-02
DAV:  21    -0.362293537630E+02   -0.69823E-03   -0.60581E-05   192   0.396E-02    0.239E-02
DAV:  22    -0.362308525673E+02   -0.14988E-02   -0.55572E-05   192   0.332E-02    0.110E-02
DAV:  23    -0.362336965920E+02   -0.28440E-02   -0.13057E-04   188   0.206E-02    0.711E-03
DAV:  24    -0.362349111084E+02   -0.12145E-02   -0.48743E-05   192   0.142E-02    0.575E-03
DAV:  25    -0.362356831664E+02   -0.77206E-03   -0.36047E-05   188   0.131E-02    0.426E-03
DAV:  26    -0.362361303649E+02   -0.44720E-03   -0.27643E-05   192   0.938E-03    0.197E-03
DAV:  27    -0.362362281722E+02   -0.97807E-04   -0.96430E-06   204   0.575E-03
   1 F= -.36236228E+02 E0= -.36236228E+02  d E =-.362362E+02  mag=     8.0002
       N       E                     dE             d eps       ncg     rms          rms(c)
DAV:   1    -0.362419580635E+02   -0.58277E-02   -0.38768E-01   276   0.189E+00    0.166E-01
DAV:   2    -0.362422592765E+02   -0.30121E-03   -0.56038E-03   280   0.262E-01    0.955E-02
DAV:   3    -0.362424641336E+02   -0.20486E-03   -0.39370E-04   276   0.141E-01    0.984E-02
DAV:   4    -0.362424372204E+02    0.26913E-04   -0.14988E-04   192   0.144E-01
   2 F= -.36242437E+02 E0= -.36242437E+02  d E =-.620905E-02  mag=     8.0001
       N       E                     dE             d eps       ncg     rms          rms(c)
DAV:   1    -0.362507603756E+02   -0.82962E-02   -0.34960E+00   272   0.568E+00    0.497E-01
DAV:   2    -0.362532969757E+02   -0.25366E-02   -0.50663E-02   280   0.782E-01    0.279E-01
DAV:   3    -0.362548615995E+02   -0.15646E-02   -0.32787E-03   292   0.375E-01    0.274E-01
DAV:   4    -0.362547892517E+02    0.72348E-04   -0.15048E-03   292   0.421E-01    0.215E-01
DAV:   5    -0.362548051927E+02   -0.15941E-04   -0.57275E-04   276   0.204E-01
   3 F= -.36254805E+02 E0= -.36254805E+02  d E =-.185770E-01  mag=     8.0000
       N       E                     dE             d eps       ncg     rms          rms(c)
DAV:   1    -0.362377684627E+02    0.17021E-01   -0.13959E+01   272   0.113E+01    0.947E-01
DAV:   2    -0.362487439039E+02   -0.10975E-01   -0.20334E-01   280   0.159E+00    0.559E-01
DAV:   3    -0.362555043585E+02   -0.67605E-02   -0.15672E-02   276   0.890E-01    0.620E-01
DAV:   4    -0.362539552475E+02    0.15491E-02   -0.59339E-03   276   0.834E-01    0.365E-01
DAV:   5    -0.362547345371E+02   -0.77929E-03   -0.24585E-03   276   0.345E-01    0.164E-01
DAV:   6    -0.362550570449E+02   -0.32251E-03   -0.14452E-03   284   0.299E-01    0.140E-01
DAV:   7    -0.362550794395E+02   -0.22395E-04   -0.35596E-04   240   0.162E-01
   4 F= -.36255079E+02 E0= -.36255079E+02  d E =-.188513E-01  mag=     8.0000
       N       E                     dE             d eps       ncg     rms          rms(c)
DAV:   1    -0.362570414305E+02   -0.19844E-02   -0.45541E-01   272   0.203E+00    0.168E-01
DAV:   2    -0.362575902587E+02   -0.54883E-03   -0.65896E-03   292   0.362E-01    0.184E-01
DAV:   3    -0.362577480744E+02   -0.15782E-03   -0.98881E-04   280   0.282E-01    0.115E-01
DAV:   4    -0.362577947330E+02   -0.46659E-04   -0.22255E-04   188   0.151E-01
   5 F= -.36257795E+02 E0= -.36257795E+02  d E =-.271529E-02  mag=     8.0000
       N       E                     dE             d eps       ncg     rms          rms(c)
DAV:   1    -0.362584418886E+02   -0.69381E-03   -0.66778E-02   284   0.785E-01    0.951E-02
DAV:   2    -0.362585652181E+02   -0.12333E-03   -0.11047E-03   288   0.164E-01    0.939E-02
DAV:   3    -0.362586015077E+02   -0.36290E-04   -0.27804E-04   216   0.158E-01
   6 F= -.36258602E+02 E0= -.36258602E+02  d E =-.352207E-02  mag=     8.0000
