unknown system                          
           1
    18.329383    0.000000    0.000000
     0.000000   18.329383    0.000000
     0.000000    0.000000   18.329383
   Ag
  10
Direct configuration=     1
   0.49026669  0.44831126  0.41075132
   0.34621803  0.34820684  0.55428348
   0.58147347  0.57132631  0.39429355
   0.49296356  0.56879740  0.52388589
   0.41638205  0.58432932  0.39993793
   0.36688330  0.48365533  0.50223959
   0.61155709  0.46228536  0.49615426
   0.63697429  0.61475062  0.52651308
   0.48478986  0.40574644  0.55860283
   0.57249166  0.51259111  0.63333806
Direct configuration=     2
   0.49026920  0.44831655  0.41074389
   0.34622334  0.34822485  0.55428015
   0.58146200  0.57132444  0.39428093
   0.49296998  0.56878057  0.52387636
   0.41640972  0.58432419  0.39994108
   0.36685778  0.48365222  0.50224157
   0.61156087  0.46228729  0.49615363
   0.63696933  0.61474930  0.52651069
   0.48478805  0.40575867  0.55861168
   0.57248974  0.51258192  0.63336002
Direct configuration=     3
   0.49027672  0.44833241  0.41072162
   0.34623925  0.34827887  0.55427014
   0.58142760  0.57131883  0.39424305
   0.49298923  0.56873006  0.52384777
   0.41649274  0.58430879  0.39995051
   0.36678121  0.48364289  0.50224749
   0.61157220  0.46229308  0.49615173
   0.63695444  0.61474534  0.52650353
   0.48478263  0.40579537  0.55863823
   0.57248396  0.51255436  0.63342593
