  10  10   0   0
  0.7417559E+03  0.1950235E-08  0.1950235E-08  0.1950235E-08  0.1000000E-15
  1.000000000000000E-004
  CAR 
 unknown system                          
      1.01428159     -9.54513226  301     -4.42381655      1.00000000
     -9.545  0.0000E+00  0.0000E+00  0.0000E+00  0.0000E+00
     -9.510  0.0000E+00  0.0000E+00  0.0000E+00  0.0000E+00
     -9.475  0.0000E+00  0.0000E+00  0.0000E+00  0.0000E+00
     -9.440  0.0000E+00  0.0000E+00  0.0000E+00  0.0000E+00
     -9.404  0.0000E+00  0.0000E+00  0.0000E+00  0.0000E+00
     -9.369  0.0000E+00  0.0000E+00  0.0000E+00  0.0000E+00
     -9.334  0.0000E+00  0.0000E+00  0.0000E+00  0.0000E+00
     -9.299  0.0000E+00  0.0000E+00  0.0000E+00  0.0000E+00
     -9.264  0.0000E+00  0.0000E+00  0.0000E+00  0.0000E+00
     -9.228  0.0000E+00  0.0000E+00  0.0000E+00  0.0000E+00
     -9.193  0.0000E+00  0.0000E+00  0.0000E+00  0.0000E+00
     -9.158  0.0000E+00  0.0000E+00  0.0000E+00  0.0000E+00
     -9.123  0.0000E+00  0.0000E+00  0.0000E+00  0.0000E+00
     -9.088  0.0000E+00  0.0000E+00  0.0000E+00  0.0000E+00
     -9.052  0.0000E+00  0.0000E+00  0.1000E-02  0.1000E-02
     -9.017  0.0000E+00  0.0000E+00  0.1000E-02  0.1000E-02
     -8.982  0.0000E+00  0.0000E+00  0.1000E-02  0.1000E-02
     -8.947  0.0000E+00  0.0000E+00  0.3000E-02  0.3000E-02
     -8.912  0.0000E+00  0.0000E+00  0.4000E-02  0.4000E-02
     -8.876  0.0000E+00  0.0000E+00  0.4000E-02  0.4000E-02
     -8.841  0.0000E+00  0.0000E+00  0.4000E-02  0.4000E-02
     -8.806  0.0000E+00  0.0000E+00  0.4000E-02  0.4000E-02
     -8.771  0.0000E+00  0.0000E+00  0.4000E-02  0.4000E-02
     -8.736  0.0000E+00  0.0000E+00  0.4000E-02  0.4000E-02
     -8.700  0.0000E+00  0.0000E+00  0.4000E-02  0.4000E-02
     -8.665  0.0000E+00  0.0000E+00  0.4000E-02  0.4000E-02
     -8.630  0.0000E+00  0.0000E+00  0.4000E-02  0.4000E-02
     -8.595  0.0000E+00  0.0000E+00  0.4000E-02  0.4000E-02
     -8.560  0.0000E+00  0.0000E+00  0.5000E-02  0.5000E-02
     -8.524  0.0000E+00  0.0000E+00  0.5000E-02  0.5000E-02
     -8.489  0.0000E+00  0.0000E+00  0.5000E-02  0.5000E-02
     -8.454  0.0000E+00  0.0000E+00  0.5000E-02  0.5000E-02
     -8.419  0.6664E-02  0.6856E-02  0.5235E-02  0.5241E-02
     -8.384  0.0000E+00  0.0000E+00  0.6000E-02  0.6000E-02
     -8.348  0.0000E+00  0.0000E+00  0.6000E-02  0.6000E-02
     -8.313  0.0000E+00  0.0000E+00  0.7000E-02  0.7000E-02
     -8.278  0.0000E+00  0.0000E+00  0.7000E-02  0.7000E-02
     -8.243  0.0000E+00  0.0000E+00  0.7000E-02  0.7000E-02
     -8.208  0.0000E+00  0.0000E+00  0.8000E-02  0.8000E-02
     -8.172  0.0000E+00  0.0000E+00  0.9000E-02  0.9000E-02
     -8.137  0.0000E+00  0.0000E+00  0.1100E-01  0.1100E-01
     -8.102  0.0000E+00  0.0000E+00  0.1100E-01  0.1100E-01
     -8.067  0.0000E+00  0.0000E+00  0.1100E-01  0.1100E-01
     -8.032  0.0000E+00  0.0000E+00  0.1200E-01  0.1200E-01
     -7.996  0.0000E+00  0.0000E+00  0.1200E-01  0.1200E-01
     -7.961  0.0000E+00  0.0000E+00  0.1300E-01  0.1300E-01
     -7.926  0.0000E+00  0.0000E+00  0.1400E-01  0.1400E-01
     -7.891  0.0000E+00  0.0000E+00  0.1400E-01  0.1400E-01
     -7.856  0.0000E+00  0.0000E+00  0.1500E-01  0.1500E-01
     -7.820  0.0000E+00  0.0000E+00  0.1500E-01  0.1500E-01
     -7.785  0.0000E+00  0.0000E+00  0.1600E-01  0.1600E-01
     -7.750  0.0000E+00  0.0000E+00  0.1700E-01  0.1700E-01
     -7.715  0.0000E+00  0.0000E+00  0.1800E-01  0.1800E-01
     -7.680  0.0000E+00  0.0000E+00  0.1800E-01  0.1800E-01
     -7.644  0.0000E+00  0.0000E+00  0.1800E-01  0.1800E-01
     -7.609  0.0000E+00  0.0000E+00  0.2000E-01  0.2000E-01
     -7.574  0.0000E+00  0.0000E+00  0.2100E-01  0.2100E-01
     -7.539  0.0000E+00  0.0000E+00  0.2200E-01  0.2200E-01
     -7.504  0.0000E+00  0.0000E+00  0.2300E-01  0.2300E-01
     -7.468  0.0000E+00  0.0000E+00  0.2300E-01  0.2300E-01
     -7.433  0.0000E+00  0.0000E+00  0.2300E-01  0.2300E-01
     -7.398  0.0000E+00  0.0000E+00  0.2300E-01  0.2300E-01
     -7.363  0.0000E+00  0.0000E+00  0.2300E-01  0.2300E-01
     -7.328  0.0000E+00  0.0000E+00  0.2400E-01  0.2400E-01
     -7.292  0.0000E+00  0.0000E+00  0.2400E-01  0.2400E-01
     -7.257  0.0000E+00  0.0000E+00  0.2600E-01  0.2600E-01
     -7.222  0.0000E+00  0.0000E+00  0.2700E-01  0.2700E-01
     -7.187  0.0000E+00  0.0000E+00  0.2700E-01  0.2700E-01
     -7.152  0.0000E+00  0.0000E+00  0.2700E-01  0.2700E-01
     -7.116  0.0000E+00  0.0000E+00  0.2700E-01  0.2700E-01
     -7.081  0.2841E-01  0.2841E-01  0.2900E-01  0.2900E-01
     -7.046  0.0000E+00  0.0000E+00  0.2900E-01  0.2900E-01
     -7.011  0.0000E+00  0.0000E+00  0.3100E-01  0.3100E-01
     -6.976  0.0000E+00  0.0000E+00  0.3300E-01  0.3300E-01
     -6.940  0.0000E+00  0.0000E+00  0.3500E-01  0.3500E-01
     -6.905  0.0000E+00  0.0000E+00  0.3600E-01  0.3600E-01
     -6.870  0.0000E+00  0.0000E+00  0.3800E-01  0.3800E-01
     -6.835  0.0000E+00  0.0000E+00  0.3900E-01  0.3900E-01
     -6.800  0.0000E+00  0.0000E+00  0.4100E-01  0.4100E-01
     -6.764  0.0000E+00  0.0000E+00  0.4300E-01  0.4300E-01
     -6.729  0.0000E+00  0.0000E+00  0.4400E-01  0.4400E-01
     -6.694  0.0000E+00  0.0000E+00  0.4600E-01  0.4600E-01
     -6.659  0.0000E+00  0.0000E+00  0.4600E-01  0.4600E-01
     -6.624  0.0000E+00  0.0000E+00  0.4700E-01  0.4700E-01
     -6.588  0.0000E+00  0.0000E+00  0.4700E-01  0.4700E-01
     -6.553  0.0000E+00  0.0000E+00  0.4700E-01  0.4700E-01
     -6.518  0.0000E+00  0.0000E+00  0.4700E-01  0.4700E-01
     -6.483  0.0000E+00  0.0000E+00  0.4800E-01  0.4800E-01
     -6.448  0.0000E+00  0.0000E+00  0.4800E-01  0.4800E-01
     -6.413  0.0000E+00  0.0000E+00  0.4900E-01  0.4900E-01
     -6.377  0.0000E+00  0.0000E+00  0.4900E-01  0.4900E-01
     -6.342  0.0000E+00  0.0000E+00  0.5000E-01  0.5000E-01
     -6.307  0.0000E+00  0.0000E+00  0.5100E-01  0.5100E-01
     -6.272  0.0000E+00  0.0000E+00  0.5100E-01  0.5100E-01
     -6.237  0.0000E+00  0.0000E+00  0.5100E-01  0.5100E-01
     -6.201  0.0000E+00  0.0000E+00  0.5100E-01  0.5100E-01
     -6.166  0.0000E+00  0.0000E+00  0.5100E-01  0.5100E-01
     -6.131  0.0000E+00  0.0000E+00  0.5100E-01  0.5100E-01
     -6.096  0.0000E+00  0.0000E+00  0.5100E-01  0.5100E-01
     -6.061  0.0000E+00  0.0000E+00  0.5100E-01  0.5100E-01
     -6.025  0.0000E+00  0.0000E+00  0.5200E-01  0.5200E-01
     -5.990  0.0000E+00  0.0000E+00  0.5200E-01  0.5200E-01
     -5.955  0.0000E+00  0.0000E+00  0.5200E-01  0.5200E-01
     -5.920  0.0000E+00  0.0000E+00  0.5200E-01  0.5200E-01
     -5.885  0.0000E+00  0.0000E+00  0.5200E-01  0.5200E-01
     -5.849  0.0000E+00  0.0000E+00  0.5200E-01  0.5200E-01
     -5.814  0.0000E+00  0.0000E+00  0.5200E-01  0.5200E-01
     -5.779  0.0000E+00  0.0000E+00  0.5200E-01  0.5200E-01
     -5.744  0.0000E+00  0.0000E+00  0.5200E-01  0.5200E-01
     -5.709  0.0000E+00  0.0000E+00  0.5200E-01  0.5200E-01
     -5.673  0.0000E+00  0.0000E+00  0.5200E-01  0.5200E-01
     -5.638  0.0000E+00  0.0000E+00  0.5200E-01  0.5200E-01
     -5.603  0.0000E+00  0.0000E+00  0.5200E-01  0.5200E-01
     -5.568  0.0000E+00  0.0000E+00  0.5200E-01  0.5200E-01
     -5.533  0.0000E+00  0.0000E+00  0.5200E-01  0.5200E-01
     -5.497  0.0000E+00  0.0000E+00  0.5200E-01  0.5200E-01
     -5.462  0.0000E+00  0.0000E+00  0.5200E-01  0.5200E-01
     -5.427  0.0000E+00  0.0000E+00  0.5300E-01  0.5300E-01
     -5.392  0.0000E+00  0.0000E+00  0.5300E-01  0.5300E-01
     -5.357  0.0000E+00  0.0000E+00  0.5300E-01  0.5300E-01
     -5.321  0.0000E+00  0.0000E+00  0.5300E-01  0.5300E-01
     -5.286  0.0000E+00  0.0000E+00  0.5300E-01  0.5300E-01
     -5.251  0.0000E+00  0.0000E+00  0.5300E-01  0.5300E-01
     -5.216  0.0000E+00  0.0000E+00  0.5300E-01  0.5300E-01
     -5.181  0.0000E+00  0.0000E+00  0.5300E-01  0.5300E-01
     -5.145  0.0000E+00  0.0000E+00  0.5300E-01  0.5300E-01
     -5.110  0.0000E+00  0.0000E+00  0.5300E-01  0.5300E-01
     -5.075  0.0000E+00  0.0000E+00  0.5300E-01  0.5300E-01
     -5.040  0.0000E+00  0.0000E+00  0.5300E-01  0.5300E-01
     -5.005  0.0000E+00  0.0000E+00  0.5300E-01  0.5300E-01
     -4.969  0.0000E+00  0.0000E+00  0.5300E-01  0.5300E-01
     -4.934  0.0000E+00  0.0000E+00  0.5300E-01  0.5300E-01
     -4.899  0.0000E+00  0.0000E+00  0.5300E-01  0.5300E-01
     -4.864  0.0000E+00  0.0000E+00  0.5300E-01  0.5300E-01
     -4.829  0.0000E+00  0.0000E+00  0.5300E-01  0.5300E-01
     -4.793  0.0000E+00  0.0000E+00  0.5300E-01  0.5300E-01
     -4.758  0.0000E+00  0.0000E+00  0.5300E-01  0.5300E-01
     -4.723  0.0000E+00  0.0000E+00  0.5300E-01  0.5300E-01
     -4.688  0.0000E+00  0.0000E+00  0.5300E-01  0.5300E-01
     -4.653  0.0000E+00  0.0000E+00  0.5300E-01  0.5300E-01
     -4.617  0.0000E+00  0.0000E+00  0.5300E-01  0.5300E-01
     -4.582  0.0000E+00  0.0000E+00  0.5400E-01  0.5400E-01
     -4.547  0.0000E+00  0.0000E+00  0.5400E-01  0.5400E-01
     -4.512  0.0000E+00  0.0000E+00  0.5400E-01  0.5400E-01
     -4.477  0.0000E+00  0.0000E+00  0.5400E-01  0.5400E-01
     -4.441  0.0000E+00  0.0000E+00  0.5400E-01  0.5400E-01
     -4.406  0.0000E+00  0.0000E+00  0.5500E-01  0.5500E-01
     -4.371  0.0000E+00  0.0000E+00  0.5500E-01  0.5500E-01
     -4.336  0.0000E+00  0.0000E+00  0.5500E-01  0.5500E-01
     -4.301  0.0000E+00  0.0000E+00  0.5500E-01  0.5500E-01
     -4.265  0.0000E+00  0.0000E+00  0.5500E-01  0.5500E-01
     -4.230  0.0000E+00  0.0000E+00  0.5500E-01  0.5500E-01
     -4.195  0.0000E+00  0.0000E+00  0.5500E-01  0.5500E-01
     -4.160  0.0000E+00  0.0000E+00  0.5500E-01  0.5500E-01
     -4.125  0.0000E+00  0.0000E+00  0.5500E-01  0.5500E-01
     -4.089  0.0000E+00  0.0000E+00  0.5500E-01  0.5500E-01
     -4.054  0.0000E+00  0.0000E+00  0.5500E-01  0.5500E-01
     -4.019  0.0000E+00  0.0000E+00  0.5500E-01  0.5500E-01
     -3.984  0.0000E+00  0.0000E+00  0.5500E-01  0.5500E-01
     -3.949  0.0000E+00  0.0000E+00  0.5500E-01  0.5500E-01
     -3.913  0.0000E+00  0.0000E+00  0.5500E-01  0.5500E-01
     -3.878  0.0000E+00  0.0000E+00  0.5500E-01  0.5500E-01
     -3.843  0.0000E+00  0.0000E+00  0.5500E-01  0.5500E-01
     -3.808  0.0000E+00  0.0000E+00  0.5500E-01  0.5500E-01
     -3.773  0.0000E+00  0.0000E+00  0.5500E-01  0.5500E-01
     -3.737  0.0000E+00  0.0000E+00  0.5500E-01  0.5500E-01
     -3.702  0.0000E+00  0.0000E+00  0.5500E-01  0.5500E-01
     -3.667  0.0000E+00  0.0000E+00  0.5500E-01  0.5500E-01
     -3.632  0.0000E+00  0.0000E+00  0.5500E-01  0.5500E-01
     -3.597  0.0000E+00  0.0000E+00  0.5500E-01  0.5500E-01
     -3.561  0.0000E+00  0.0000E+00  0.5500E-01  0.5500E-01
     -3.526  0.0000E+00  0.0000E+00  0.5500E-01  0.5500E-01
     -3.491  0.0000E+00  0.0000E+00  0.5500E-01  0.5500E-01
     -3.456  0.0000E+00  0.0000E+00  0.5500E-01  0.5500E-01
     -3.421  0.0000E+00  0.0000E+00  0.5500E-01  0.5500E-01
     -3.385  0.0000E+00  0.0000E+00  0.5500E-01  0.5500E-01
     -3.350  0.0000E+00  0.0000E+00  0.5500E-01  0.5500E-01
     -3.315  0.0000E+00  0.0000E+00  0.5500E-01  0.5500E-01
     -3.280  0.0000E+00  0.0000E+00  0.5500E-01  0.5500E-01
     -3.245  0.0000E+00  0.0000E+00  0.5500E-01  0.5500E-01
     -3.209  0.0000E+00  0.0000E+00  0.5500E-01  0.5500E-01
     -3.174  0.0000E+00  0.0000E+00  0.5500E-01  0.5500E-01
     -3.139  0.0000E+00  0.0000E+00  0.5500E-01  0.5500E-01
     -3.104  0.0000E+00  0.0000E+00  0.5600E-01  0.5600E-01
     -3.069  0.0000E+00  0.0000E+00  0.5600E-01  0.5600E-01
     -3.033  0.0000E+00  0.0000E+00  0.5600E-01  0.5600E-01
     -2.998  0.0000E+00  0.0000E+00  0.5600E-01  0.5600E-01
     -2.963  0.0000E+00  0.0000E+00  0.5600E-01  0.5600E-01
     -2.928  0.0000E+00  0.0000E+00  0.5600E-01  0.5600E-01
     -2.893  0.0000E+00  0.0000E+00  0.5600E-01  0.5600E-01
     -2.858  0.0000E+00  0.0000E+00  0.5600E-01  0.5600E-01
     -2.822  0.0000E+00  0.0000E+00  0.5700E-01  0.5700E-01
     -2.787  0.0000E+00  0.0000E+00  0.5700E-01  0.5700E-01
     -2.752  0.0000E+00  0.0000E+00  0.5700E-01  0.5700E-01
     -2.717  0.0000E+00  0.0000E+00  0.5700E-01  0.5700E-01
     -2.682  0.0000E+00  0.0000E+00  0.5700E-01  0.5700E-01
     -2.646  0.0000E+00  0.0000E+00  0.5700E-01  0.5700E-01
     -2.611  0.0000E+00  0.0000E+00  0.5700E-01  0.5700E-01
     -2.576  0.0000E+00  0.0000E+00  0.5800E-01  0.5800E-01
     -2.541  0.0000E+00  0.0000E+00  0.5800E-01  0.5800E-01
     -2.506  0.0000E+00  0.0000E+00  0.5800E-01  0.5800E-01
     -2.470  0.0000E+00  0.0000E+00  0.5800E-01  0.5800E-01
     -2.435  0.0000E+00  0.0000E+00  0.5800E-01  0.5800E-01
     -2.400  0.0000E+00  0.0000E+00  0.5800E-01  0.5800E-01
     -2.365  0.0000E+00  0.0000E+00  0.5800E-01  0.5800E-01
     -2.330  0.0000E+00  0.0000E+00  0.5800E-01  0.5800E-01
     -2.294  0.0000E+00  0.0000E+00  0.5800E-01  0.5800E-01
     -2.259  0.0000E+00  0.0000E+00  0.5800E-01  0.5800E-01
     -2.224  0.0000E+00  0.0000E+00  0.5800E-01  0.5800E-01
     -2.189  0.0000E+00  0.0000E+00  0.5800E-01  0.5800E-01
     -2.154  0.0000E+00  0.0000E+00  0.5800E-01  0.5800E-01
     -2.118  0.0000E+00  0.0000E+00  0.5900E-01  0.5900E-01
     -2.083  0.0000E+00  0.0000E+00  0.5900E-01  0.5900E-01
     -2.048  0.0000E+00  0.0000E+00  0.5900E-01  0.5900E-01
     -2.013  0.0000E+00  0.0000E+00  0.5900E-01  0.5900E-01
     -1.978  0.0000E+00  0.0000E+00  0.5900E-01  0.5900E-01
     -1.942  0.0000E+00  0.0000E+00  0.6000E-01  0.6000E-01
     -1.907  0.0000E+00  0.0000E+00  0.6000E-01  0.6000E-01
     -1.872  0.0000E+00  0.0000E+00  0.6000E-01  0.6000E-01
     -1.837  0.0000E+00  0.0000E+00  0.6000E-01  0.6000E-01
     -1.802  0.0000E+00  0.0000E+00  0.6000E-01  0.6000E-01
     -1.766  0.0000E+00  0.0000E+00  0.6000E-01  0.6000E-01
     -1.731  0.0000E+00  0.0000E+00  0.6000E-01  0.6000E-01
     -1.696  0.0000E+00  0.0000E+00  0.6000E-01  0.6000E-01
     -1.661  0.0000E+00  0.0000E+00  0.6000E-01  0.6000E-01
     -1.626  0.0000E+00  0.0000E+00  0.6000E-01  0.6000E-01
     -1.590  0.0000E+00  0.0000E+00  0.6000E-01  0.6000E-01
     -1.555  0.0000E+00  0.0000E+00  0.6000E-01  0.6000E-01
     -1.520  0.0000E+00  0.0000E+00  0.6000E-01  0.6000E-01
     -1.485  0.0000E+00  0.0000E+00  0.6000E-01  0.6000E-01
     -1.450  0.0000E+00  0.0000E+00  0.6000E-01  0.6000E-01
     -1.414  0.0000E+00  0.0000E+00  0.6000E-01  0.6000E-01
     -1.379  0.0000E+00  0.0000E+00  0.6000E-01  0.6000E-01
     -1.344  0.0000E+00  0.0000E+00  0.6000E-01  0.6000E-01
     -1.309  0.0000E+00  0.0000E+00  0.6000E-01  0.6000E-01
     -1.274  0.0000E+00  0.0000E+00  0.6000E-01  0.6000E-01
     -1.238  0.0000E+00  0.0000E+00  0.6000E-01  0.6000E-01
     -1.203  0.0000E+00  0.0000E+00  0.6100E-01  0.6100E-01
     -1.168  0.0000E+00  0.0000E+00  0.6100E-01  0.6100E-01
     -1.133  0.0000E+00  0.0000E+00  0.6200E-01  0.6200E-01
     -1.098  0.7026E-04  0.4309E-07  0.6300E-01  0.6300E-01
     -1.062  0.0000E+00  0.0000E+00  0.6400E-01  0.6400E-01
     -1.027  0.0000E+00  0.0000E+00  0.6400E-01  0.6400E-01
     -0.992  0.0000E+00  0.0000E+00  0.6400E-01  0.6400E-01
     -0.957  0.0000E+00  0.0000E+00  0.6400E-01  0.6400E-01
     -0.922  0.0000E+00  0.0000E+00  0.6400E-01  0.6400E-01
     -0.886  0.0000E+00  0.0000E+00  0.6400E-01  0.6400E-01
     -0.851  0.0000E+00  0.0000E+00  0.6400E-01  0.6400E-01
     -0.816  0.0000E+00  0.0000E+00  0.6400E-01  0.6400E-01
     -0.781  0.0000E+00  0.0000E+00  0.6500E-01  0.6500E-01
     -0.746  0.0000E+00  0.0000E+00  0.6500E-01  0.6500E-01
     -0.710  0.0000E+00  0.0000E+00  0.6500E-01  0.6500E-01
     -0.675  0.0000E+00  0.0000E+00  0.6500E-01  0.6500E-01
     -0.640  0.0000E+00  0.0000E+00  0.6500E-01  0.6500E-01
     -0.605  0.0000E+00  0.0000E+00  0.6500E-01  0.6500E-01
     -0.570  0.0000E+00  0.0000E+00  0.6600E-01  0.6600E-01
     -0.534  0.0000E+00  0.0000E+00  0.6600E-01  0.6600E-01
     -0.499  0.0000E+00  0.0000E+00  0.6600E-01  0.6600E-01
     -0.464  0.0000E+00  0.0000E+00  0.6600E-01  0.6600E-01
     -0.429  0.0000E+00  0.0000E+00  0.6600E-01  0.6600E-01
     -0.394  0.0000E+00  0.0000E+00  0.6600E-01  0.6600E-01
     -0.358  0.0000E+00  0.0000E+00  0.6600E-01  0.6600E-01
     -0.323  0.0000E+00  0.0000E+00  0.6600E-01  0.6600E-01
     -0.288  0.0000E+00  0.0000E+00  0.6600E-01  0.6600E-01
     -0.253  0.0000E+00  0.0000E+00  0.6600E-01  0.6600E-01
     -0.218  0.0000E+00  0.0000E+00  0.6600E-01  0.6600E-01
     -0.182  0.0000E+00  0.0000E+00  0.6600E-01  0.6600E-01
     -0.147  0.0000E+00  0.0000E+00  0.6600E-01  0.6600E-01
     -0.112  0.0000E+00  0.0000E+00  0.6600E-01  0.6600E-01
     -0.077  0.0000E+00  0.0000E+00  0.6600E-01  0.6600E-01
     -0.042  0.0000E+00  0.0000E+00  0.6700E-01  0.6700E-01
     -0.006  0.0000E+00  0.0000E+00  0.6700E-01  0.6700E-01
      0.029  0.0000E+00  0.0000E+00  0.6800E-01  0.6800E-01
      0.064  0.0000E+00  0.0000E+00  0.6800E-01  0.6800E-01
      0.099  0.0000E+00  0.0000E+00  0.6900E-01  0.6900E-01
      0.134  0.0000E+00  0.0000E+00  0.6900E-01  0.6900E-01
      0.170  0.0000E+00  0.0000E+00  0.6900E-01  0.6900E-01
      0.205  0.0000E+00  0.0000E+00  0.7000E-01  0.7000E-01
      0.240  0.0000E+00  0.0000E+00  0.7000E-01  0.7000E-01
      0.275  0.0000E+00  0.0000E+00  0.7000E-01  0.7000E-01
      0.310  0.0000E+00  0.0000E+00  0.7000E-01  0.7000E-01
      0.346  0.0000E+00  0.0000E+00  0.7000E-01  0.7000E-01
      0.381  0.0000E+00  0.0000E+00  0.7000E-01  0.7000E-01
      0.416  0.0000E+00  0.0000E+00  0.7100E-01  0.7100E-01
      0.451  0.0000E+00  0.0000E+00  0.7100E-01  0.7100E-01
      0.486  0.0000E+00  0.0000E+00  0.7100E-01  0.7100E-01
      0.522  0.0000E+00  0.0000E+00  0.7100E-01  0.7100E-01
      0.557  0.0000E+00  0.0000E+00  0.7200E-01  0.7200E-01
      0.592  0.0000E+00  0.0000E+00  0.7200E-01  0.7200E-01
      0.627  0.0000E+00  0.0000E+00  0.7200E-01  0.7200E-01
      0.662  0.0000E+00  0.0000E+00  0.7200E-01  0.7200E-01
      0.697  0.0000E+00  0.0000E+00  0.7200E-01  0.7200E-01
      0.733  0.0000E+00  0.0000E+00  0.7200E-01  0.7200E-01
      0.768  0.0000E+00  0.0000E+00  0.7200E-01  0.7200E-01
      0.803  0.0000E+00  0.0000E+00  0.7200E-01  0.7200E-01
      0.838  0.0000E+00  0.0000E+00  0.7200E-01  0.7200E-01
      0.873  0.0000E+00  0.0000E+00  0.7200E-01  0.7200E-01
      0.909  0.0000E+00  0.0000E+00  0.7200E-01  0.7200E-01
      0.944  0.0000E+00  0.0000E+00  0.7200E-01  0.7200E-01
      0.979  0.0000E+00  0.0000E+00  0.7200E-01  0.7200E-01
      1.014  0.0000E+00  0.0000E+00  0.7200E-01  0.7200E-01
