 vasp.5.3.5 31Mar14 (build Feb 01 2018 12:10:03) gamma-only                     
  
 executed on             LinuxIFC date 2019.03.21  15:26:22
 running on   32 total cores
 distrk:  each k-point on   32 cores,    1 groups
 distr:  one band on NCORES_PER_BAND=   8 cores,    4 groups


--------------------------------------------------------------------------------------------------------


 INCAR:
 POTCAR:    PAW_PBE Ag 02Apr2005                  
 POTCAR:    PAW_PBE Ag 02Apr2005                  
   VRHFIN =Ag : s1 d10                                                          
   LEXCH  = PE                                                                  
   EATOM  =  1037.2675 eV,   76.2370 Ry                                         
                                                                                
   TITEL  = PAW_PBE Ag 02Apr2005                                                
   LULTRA =        F    use ultrasoft PP ?                                      
   IUNSCR =        1    unscreen: 0-lin 1-nonlin 2-no                           
   RPACOR =    2.000    partial core radius                                     
   POMASS =  107.868; ZVAL   =   11.000    mass and valenz                      
   RCORE  =    2.500    outmost cutoff radius                                   
   RWIGS  =    2.840; RWIGS  =    1.503    wigner-seitz radius (au A)           
   ENMAX  =  249.844; ENMIN  =  187.383 eV                                      
   ICORE  =        3    local potential                                         
   LCOR   =        T    correct aug charges                                     
   LPAW   =        T    paw PP                                                  
   EAUG   =  412.496                                                            
   DEXC   =    0.000                                                            
   RMAX   =    2.560    core radius for proj-oper                               
   RAUG   =    1.300    factor for augmentation sphere                          
   RDEP   =    2.576    radius for radial grids                                 
   RDEPT  =    2.072    core radius for aug-charge                              
                                                                                
   Atomic configuration                                                         
   12 entries                                                                   
     n  l   j            E        occ.                                          
     1  0  0.50    -25324.9161   2.0000                                         
     2  0  0.50     -3728.5341   2.0000                                         
     2  1  1.50     -3344.0404   6.0000                                         
     3  0  0.50      -683.5581   2.0000                                         
     3  1  1.50      -557.3225   6.0000                                         
     3  2  2.50      -358.3853  10.0000                                         
     4  0  0.50       -95.0341   2.0000                                         
     4  1  1.50       -58.5511   6.0000                                         
     4  2  2.50        -7.4440  10.0000                                         
     5  0  0.50        -4.4045   1.0000                                         
     5  1  0.50        -1.3606   0.0000                                         
     4  3  2.50        -1.3606   0.0000                                         
   Description                                                                  
     l       E           TYP  RCUT    TYP  RCUT                                 
     2     -7.4439781     23  2.400                                             
     2     -8.8045607     23  2.400                                             
     0     -4.4044681     23  2.400                                             
     0      1.9520038     23  2.400                                             
     1     -1.3605826     23  2.500                                             
     1     27.2116520     23  2.500                                             
     3     -4.0817478     23  2.400                                             
  local pseudopotential read in
  partial core-charges read in
  partial kinetic energy density read in
  atomic valenz-charges read in
  non local Contribution for L=           2  read in
    real space projection operators read in
  non local Contribution for L=           2  read in
    real space projection operators read in
  non local Contribution for L=           0  read in
    real space projection operators read in
  non local Contribution for L=           0  read in
    real space projection operators read in
  non local Contribution for L=           1  read in
    real space projection operators read in
  non local Contribution for L=           1  read in
    real space projection operators read in
    PAW grid and wavefunctions read in
 
   number of l-projection  operators is LMAX  =           6
   number of lm-projection operators is LMMAX =          18
 
  PAW_PBE Ag 02Apr2005                  :
 energy of atom  1       EATOM=-1037.2675
 kinetic energy error for atom=    0.0689 (will be added to EATOM!!)
 
 
 POSCAR: Ag10, -17.78580638 <s> Ag </s>          
  positions in direct lattice
  No initial velocities read in
 exchange correlation table for  LEXCH =        8
   RHO(1)=    0.500       N(1)  =     2000
   RHO(2)=  100.500       N(2)  =     4000
 


--------------------------------------------------------------------------------------------------------


 ion  position               nearest neighbor table
   1  0.500  0.637  0.339-   3 2.73   2 2.73   5 2.74
   2  0.391  0.633  0.427-   3 2.73   1 2.73   8 2.77
   3  0.495  0.541  0.440-   5 2.72   2 2.73   1 2.73   4 2.74   8 2.75   6 2.83
   4  0.596  0.444  0.453-   3 2.74   6 2.74   5 2.76   7 2.77
   5  0.602  0.541  0.351-   3 2.72   1 2.74   4 2.76
   6  0.497  0.450  0.553-  10 2.72   9 2.73   7 2.74   4 2.74   8 2.76   3 2.83
   7  0.602  0.357  0.566-   6 2.74  10 2.74   4 2.77
   8  0.396  0.548  0.540-   3 2.75   6 2.76   9 2.76   2 2.77
   9  0.408  0.471  0.659-   6 2.73  10 2.74   8 2.76
  10  0.513  0.378  0.672-   6 2.72   9 2.74   7 2.74
 
  LATTYP: Found a simple cubic cell.
 ALAT       =    19.5023523736
  
  Lattice vectors:
  
 A1 = (  19.5023523736,   0.0000000000,   0.0000000000)
 A2 = (   0.0000000000,  19.5023523736,   0.0000000000)
 A3 = (   0.0000000000,   0.0000000000,  19.5023523736)


Analysis of symmetry for initial positions (statically):
=====================================================================
 Subroutine PRICEL returns:
 Original cell was already a primitive cell.
 

 Routine SETGRP: Setting up the symmetry group for a 
 simple cubic supercell.


 Subroutine GETGRP returns: Found  1 space group operations
 (whereof  1 operations were pure point group operations)
 out of a pool of 48 trial point group operations.


The static configuration has the point symmetry C_1 .


Analysis of symmetry for dynamics (positions and initial velocities):
=====================================================================
 Subroutine PRICEL returns:
 Original cell was already a primitive cell.
 

 Routine SETGRP: Setting up the symmetry group for a 
 simple cubic supercell.


 Subroutine GETGRP returns: Found  1 space group operations
 (whereof  1 operations were pure point group operations)
 out of a pool of 48 trial point group operations.


The dynamic configuration has the point symmetry C_1 .


Analysis of magnetic symmetry:
=====================================================================
 Subroutine PRICEL returns:
 Original cell was already a primitive cell.
 

 Subroutine MAGSYM returns: Found  1 space group operations
 (whereof  1 operations were pure point group operations)
 out of a pool of  1 trial space group operations
 (whereof  1 operations were pure point group operations)
 and found also     1 'primitive' translations


The magnetic configuration has the point symmetry C_1 .
 
 
 KPOINTS: Gamma-point only                        
  k-points in reciprocal lattice
Space group operators:
 irot       det(A)        alpha          n_x          n_y          n_z        tau_x        tau_y        tau_z
    1     1.000000     0.000001     1.000000     0.000000     0.000000     0.000000     0.000000     0.000000


--------------------------------------------------------------------------------------------------------




 Dimension of arrays:
   k-points           NKPTS =      1   k-points in BZ     NKDIM =      1   number of bands    NBANDS=     72
   number of dos      NEDOS =    301   number of ions     NIONS =     10
   non local maximal  LDIM  =      6   non local SUM 2l+1 LMDIM =     18
   total plane-waves  NPLWV = 512000
   max r-space proj   IRMAX =      1   max aug-charges    IRDMAX=   3593
   dimension x,y,z NGX =    80 NGY =   80 NGZ =   80
   dimension x,y,z NGXF=   160 NGYF=  160 NGZF=  160
   support grid    NGXF=   160 NGYF=  160 NGZF=  160
   ions per type =              10
 NGX,Y,Z   is equivalent  to a cutoff of   6.82,  6.82,  6.82 a.u.
 NGXF,Y,Z  is equivalent  to a cutoff of  13.64, 13.64, 13.64 a.u.


 I would recommend the setting:
   dimension x,y,z NGX =    75 NGY =   75 NGZ =   75
 SYSTEM =  unknown system                          
 POSCAR =  Ag10, -17.78580638 <s> Ag </s>          

 Startparameter for this run:
   NWRITE =      2    write-flag & timer
   PREC   = normal    normal or accurate (medium, high low for compatibility)
   ISTART =      0    job   : 0-new  1-cont  2-samecut
   ICHARG =      2    charge: 1-file 2-atom 10-const
   ISPIN  =      2    spin polarized calculation?
   LNONCOLLINEAR =      F non collinear calculations
   LSORBIT =      F    spin-orbit coupling
   INIWAV =      1    electr: 0-lowe 1-rand  2-diag
   LASPH  =      F    aspherical Exc in radial PAW
   METAGGA=      F    non-selfconsistent MetaGGA calc.

 Electronic Relaxation 1
   ENCUT  =  249.8 eV  18.36 Ry    4.29 a.u.  25.13 25.13 25.13*2*pi/ulx,y,z
   ENINI  =  249.8     initial cutoff
   ENAUG  =  412.5 eV  augmentation charge cutoff
   NELM   =     60;   NELMIN=  2; NELMDL= -5     # of ELM steps 
   EDIFF  = 0.1E-03   stopping-criterion for ELM
   LREAL  =      F    real-space projection
   NLSPLINE    = F    spline interpolate recip. space projectors
   LCOMPAT=      F    compatible to vasp.4.4
   GGA_COMPAT  = T    GGA compatible to vasp.4.4-vasp.4.6
   LMAXPAW     = -100 max onsite density
   LMAXMIX     =    2 max onsite mixed and CHGCAR
   VOSKOWN=      0    Vosko Wilk Nusair interpolation
   ROPT   =    0.00000
 Ionic relaxation
   EDIFFG = 0.1E-02   stopping-criterion for IOM
   NSW    =   1000    number of steps for IOM
   NBLOCK =      1;   KBLOCK =   1000    inner block; outer block 
   IBRION =      2    ionic relax: 0-MD 1-quasi-New 2-CG
   NFREE  =      1    steps in history (QN), initial steepest desc. (CG)
   ISIF   =      2    stress and relaxation
   IWAVPR =     11    prediction:  0-non 1-charg 2-wave 3-comb
   ISYM   =      2    0-nonsym 1-usesym 2-fastsym
   LCORR  =      T    Harris-Foulkes like correction to forces

   POTIM  = 0.1000    time-step for ionic-motion
   TEIN   =    0.0    initial temperature
   TEBEG  =    0.0;   TEEND  =   0.0 temperature during run
   SMASS  =  -3.00    Nose mass-parameter (am)
   estimated Nose-frequenzy (Omega)   =  0.10E-29 period in steps =****** mass=  -0.869E-26a.u.
   SCALEE = 1.0000    scale energy and forces
   NPACO  =    256;   APACO  = 16.0  distance and # of slots for P.C.
   PSTRESS=    0.0 pullay stress

  Mass of Ions in am
   POMASS = 107.87
  Ionic Valenz
   ZVAL   =  11.00
  Atomic Wigner-Seitz radii
   RWIGS  =  -1.00
  virtual crystal weights 
   VCA    =   1.00
   NELECT =     110.0000    total number of electrons
   NUPDOWN=      -1.0000    fix difference up-down

 DOS related values:
   EMIN   =  10.00;   EMAX   =-10.00  energy-range for DOS
   EFERMI =   0.00
   ISMEAR =     0;   SIGMA  =   0.00  broadening in eV -4-tet -1-fermi 0-gaus

 Electronic relaxation 2 (details)
   IALGO  =     38    algorithm
   LDIAG  =      T    sub-space diagonalisation (order eigenvalues)
   LSUBROT=      F    optimize rotation matrix (better conditioning)
   TURBO    =      0    0=normal 1=particle mesh
   IRESTART =      0    0=no restart 2=restart with 2 vectors
   NREBOOT  =      0    no. of reboots
   NMIN     =      0    reboot dimension
   EREF     =   0.00    reference energy to select bands
   IMIX   =      4    mixing-type and parameters
     AMIX     =   0.40;   BMIX     =  1.00
     AMIX_MAG =   1.60;   BMIX_MAG =  1.00
     AMIN     =   0.10
     WC   =   100.;   INIMIX=   1;  MIXPRE=   1;  MAXMIX= -45

 Intra band minimization:
   WEIMIN = 0.0010     energy-eigenvalue tresh-hold
   EBREAK =  0.35E-06  absolut break condition
   DEPER  =   0.30     relativ break condition  

   TIME   =   0.40     timestep for ELM

  volume/ion in A,a.u.               =     741.76      5005.62
  Fermi-wavevector in a.u.,A,eV,Ry     =   0.402209  0.760065  2.201046  0.161772
  Thomas-Fermi vector in A             =   1.352321
 
 Write flags
   LWAVE  =      F    write WAVECAR
   LCHARG =      F    write CHGCAR
   LVTOT  =      F    write LOCPOT, total local potential
   LVHAR  =      F    write LOCPOT, Hartree potential only
   LELF   =      F    write electronic localiz. function (ELF)
   LORBIT =      0    0 simple, 1 ext, 2 COOP (PROOUT)


 Dipole corrections
   LMONO  =      F    monopole corrections only (constant potential shift)
   LDIPOL =      F    correct potential (dipole corrections)
   IDIPOL =      0    1-x, 2-y, 3-z, 4-all directions 
   EPSILON=  1.0000000 bulk dielectric constant

 Exchange correlation treatment:
   GGA     =    PE    GGA type
   LEXCH   =     8    internal setting for exchange type
   VOSKOWN=      0    Vosko Wilk Nusair interpolation
   LHFCALC =     F    Hartree Fock is set to
   LHFONE  =     F    Hartree Fock one center treatment
   AEXX    =    0.0000 exact exchange contribution

 Linear response parameters
   LEPSILON=     F    determine dielectric tensor
   LRPA    =     F    only Hartree local field effects (RPA)
   LNABLA  =     F    use nabla operator in PAW spheres
   LVEL    =     F    velocity operator in full k-point grid
   LINTERFAST=   F  fast interpolation
   KINTER  =     0    interpolate to denser k-point grid
   CSHIFT  =0.1000    complex shift for real part using Kramers Kronig
   OMEGAMAX=  -1.0    maximum frequency
   DEG_THRESHOLD= 0.2000000E-02 threshold for treating states as degnerate
   RTIME   =    0.100 relaxation time in fs

 Orbital magnetization related:
   ORBITALMAG=     F  switch on orbital magnetization
   LCHIMAG   =     F  perturbation theory with respect to B field
   DQ        =  0.001000  dq finite difference perturbation B field



--------------------------------------------------------------------------------------------------------


 conjugate gradient relaxation of ions
 charge density and potential will be updated during run
 spin polarized calculation
 Variant of blocked Davidson
 Davidson routine will perform the subspace rotation
 perform sub-space diagonalisation
    after iterative eigenvector-optimisation
 modified Broyden-mixing scheme, WC =      100.0
 initial mixing is a Kerker type mixing with AMIX =  0.4000 and BMIX =      1.0000
 Hartree-type preconditioning will be used
 using additional bands           17
 reciprocal scheme for non local part
 use partial core corrections
 calculate Harris-corrections to forces 
   (improved forces if not selfconsistent)
 use gradient corrections 
 use of overlap-Matrix (Vanderbilt PP)
 Gauss-broadening in eV      SIGMA  =   0.00


--------------------------------------------------------------------------------------------------------


  energy-cutoff  :      249.84
  volume of cell :     7417.56
      direct lattice vectors                 reciprocal lattice vectors
    19.502352374  0.000000000  0.000000000     0.051275866  0.000000000  0.000000000
     0.000000000 19.502352374  0.000000000     0.000000000  0.051275866  0.000000000
     0.000000000  0.000000000 19.502352374     0.000000000  0.000000000  0.051275866

  length of vectors
    19.502352374 19.502352374 19.502352374     0.051275866  0.051275866  0.051275866


 
 k-points in units of 2pi/SCALE and weight: Gamma-point only                        
   0.00000000  0.00000000  0.00000000       1.000
 
 k-points in reciprocal lattice and weights: Gamma-point only                        
   0.00000000  0.00000000  0.00000000       1.000
 
 position of ions in fractional coordinates (direct lattice) 
   0.50020306  0.63721808  0.33885262
   0.39090035  0.63317335  0.42656416
   0.49504983  0.54082508  0.44019960
   0.59601956  0.44388689  0.45339687
   0.60228745  0.54128988  0.35086405
   0.49733534  0.44971858  0.55340413
   0.60236203  0.35725300  0.56599289
   0.39570362  0.54750624  0.53989831
   0.40761926  0.47092013  0.65856101
   0.51251949  0.37820877  0.67226637
 
 position of ions in cartesian coordinates  (Angst):
   9.75513629 12.42725154  6.60842319
   7.62347644 12.34836975  8.31900458
   9.65463631 10.54736135  8.58492764
  11.62378352  8.65683851  8.84230547
  11.74602217 10.55642596  6.84267439
   9.69920914  8.77057018 10.79268239
  11.74747660  6.96727399 11.03819270
   7.71715143 10.67765953 10.52928704
   7.94953435  9.18405027 12.84348891
   9.99533562  7.37596078 13.11077556
 


--------------------------------------------------------------------------------------------------------


 use parallel FFT for wavefunctions z direction half grid
 k-point  1 :   0.0000 0.0000 0.0000  plane waves:   33270

 maximum and minimum number of plane-waves per node :      4162     4155

 maximum number of plane-waves:     33270
 maximum index in each direction: 
   IXMAX=   25   IYMAX=   25   IZMAX=   25
   IXMIN=  -25   IYMIN=  -25   IZMIN=    0

 WARNING: aliasing errors must be expected set NGX to 102 to avoid them
 WARNING: aliasing errors must be expected set NGY to 102 to avoid them
 WARNING: aliasing errors must be expected set NGZ to 102 to avoid them
 aliasing errors are usually negligible using standard VASP settings
 and one can safely disregard these warnings

 parallel 3D FFT for wavefunctions:
    minimum data exchange during FFTs selected (reduces bandwidth)
 parallel 3D FFT for charge:
    minimum data exchange during FFTs selected (reduces bandwidth)


 total amount of memory used by VASP on root node    53920. kBytes
========================================================================

   base      :      30000. kBytes
   nonl-proj :       1264. kBytes
   fftplans  :       5768. kBytes
   grid      :      14451. kBytes
   one-center:         31. kBytes
   wavefun   :       2406. kBytes
 
     INWAV:  cpu time    0.00: real time    0.00
 Broyden mixing: mesh for mixing (old mesh)
   NGX = 51   NGY = 51   NGZ = 51
  (NGX  =160   NGY  =160   NGZ  =160)
  gives a total of 132651 points

 initial charge density was supplied:
 charge density of overlapping atoms calculated
 number of electron     110.0000000 magnetization      10.0000000
 keeping initial charge density in first step


--------------------------------------------------------------------------------------------------------


 Maximum index for augmentation-charges          269 (set IRDMAX)


--------------------------------------------------------------------------------------------------------


 First call to EWALD:  gamma=   0.091
 Maximum number of real-space cells 3x 3x 3
 Maximum number of reciprocal cells 3x 3x 3

 FEWALD executed in parallel
    FEWALD:  cpu time    0.00: real time    0.00


----------------------------------------- Iteration    1(   1)  ---------------------------------------


    POTLOK:  cpu time    0.23: real time    0.23
    SETDIJ:  cpu time    0.00: real time    0.01
     EDDAV:  cpu time    0.64: real time    0.64
       DOS:  cpu time    0.00: real time    0.00
    --------------------------------------------
      LOOP:  cpu time    0.88: real time    0.90

 eigenvalue-minimisations  :   288
 total energy-change (2. order) : 0.9597719E+03  (-0.1592775E+04)
 number of electron     110.0000000 magnetization      10.0000000
 augmentation part      110.0000000 magnetization      10.0000000

 Free energy of the ion-electron system (eV)
  ---------------------------------------------------
  alpha Z        PSCENC =        11.46708901
  Ewald energy   TEWEN  =      8056.60891741
  -Hartree energ DENC   =    -17976.48739201
  -exchange      EXHF   =         0.00000000
  -V(xc)+E(xc)   XCENC  =      -113.27632822
  PAW double counting   =     10033.72178070    -9572.64608879
  entropy T*S    EENTRO =         0.00000000
  eigenvalues    EBANDS =       148.39764324
  atomic energy  EATOM  =     10371.98630086
  ---------------------------------------------------
  free energy    TOTEN  =       959.77192220 eV

  energy without entropy =      959.77192220  energy(sigma->0) =      959.77192220


--------------------------------------------------------------------------------------------------------




----------------------------------------- Iteration    1(   2)  ---------------------------------------


     EDDAV:  cpu time    1.05: real time    1.05
       DOS:  cpu time    0.00: real time    0.00
    --------------------------------------------
      LOOP:  cpu time    1.05: real time    1.06

 eigenvalue-minimisations  :   544
 total energy-change (2. order) :-0.5269881E+03  (-0.4617290E+03)
 number of electron     110.0000000 magnetization      10.0000000
 augmentation part      110.0000000 magnetization      10.0000000

 Free energy of the ion-electron system (eV)
  ---------------------------------------------------
  alpha Z        PSCENC =        11.46708901
  Ewald energy   TEWEN  =      8056.60891741
  -Hartree energ DENC   =    -17976.48739201
  -exchange      EXHF   =         0.00000000
  -V(xc)+E(xc)   XCENC  =      -113.27632822
  PAW double counting   =     10033.72178070    -9572.64608879
  entropy T*S    EENTRO =         0.00000000
  eigenvalues    EBANDS =      -378.59040713
  atomic energy  EATOM  =     10371.98630086
  ---------------------------------------------------
  free energy    TOTEN  =       432.78387183 eV

  energy without entropy =      432.78387183  energy(sigma->0) =      432.78387183


--------------------------------------------------------------------------------------------------------




----------------------------------------- Iteration    1(   3)  ---------------------------------------


     EDDAV:  cpu time    0.89: real time    0.89
       DOS:  cpu time    0.00: real time    0.00
    --------------------------------------------
      LOOP:  cpu time    0.89: real time    0.90

 eigenvalue-minimisations  :   440
 total energy-change (2. order) :-0.3741665E+03  (-0.3438716E+03)
 number of electron     110.0000000 magnetization      10.0000000
 augmentation part      110.0000000 magnetization      10.0000000

 Free energy of the ion-electron system (eV)
  ---------------------------------------------------
  alpha Z        PSCENC =        11.46708901
  Ewald energy   TEWEN  =      8056.60891741
  -Hartree energ DENC   =    -17976.48739201
  -exchange      EXHF   =         0.00000000
  -V(xc)+E(xc)   XCENC  =      -113.27632822
  PAW double counting   =     10033.72178070    -9572.64608879
  entropy T*S    EENTRO =         0.00000000
  eigenvalues    EBANDS =      -752.75691236
  atomic energy  EATOM  =     10371.98630086
  ---------------------------------------------------
  free energy    TOTEN  =        58.61736659 eV

  energy without entropy =       58.61736659  energy(sigma->0) =       58.61736659


--------------------------------------------------------------------------------------------------------




----------------------------------------- Iteration    1(   4)  ---------------------------------------


     EDDAV:  cpu time    0.80: real time    0.80
       DOS:  cpu time    0.00: real time    0.00
    --------------------------------------------
      LOOP:  cpu time    0.80: real time    0.82

 eigenvalue-minimisations  :   384
 total energy-change (2. order) :-0.7348679E+02  (-0.6724654E+02)
 number of electron     110.0000000 magnetization      10.0000000
 augmentation part      110.0000000 magnetization      10.0000000

 Free energy of the ion-electron system (eV)
  ---------------------------------------------------
  alpha Z        PSCENC =        11.46708901
  Ewald energy   TEWEN  =      8056.60891741
  -Hartree energ DENC   =    -17976.48739201
  -exchange      EXHF   =         0.00000000
  -V(xc)+E(xc)   XCENC  =      -113.27632822
  PAW double counting   =     10033.72178070    -9572.64608879
  entropy T*S    EENTRO =         0.00000000
  eigenvalues    EBANDS =      -826.24369751
  atomic energy  EATOM  =     10371.98630086
  ---------------------------------------------------
  free energy    TOTEN  =       -14.86941856 eV

  energy without entropy =      -14.86941856  energy(sigma->0) =      -14.86941856


--------------------------------------------------------------------------------------------------------




----------------------------------------- Iteration    1(   5)  ---------------------------------------


     EDDAV:  cpu time    0.66: real time    0.66
       DOS:  cpu time    0.00: real time    0.00
    CHARGE:  cpu time    0.05: real time    0.05
    MIXING:  cpu time    0.01: real time    0.01
    --------------------------------------------
      LOOP:  cpu time    0.72: real time    1.05

 eigenvalue-minimisations  :   304
 total energy-change (2. order) :-0.2670410E+01  (-0.2660394E+01)
 number of electron     109.9999498 magnetization       8.4954160
 augmentation part       52.1988790 magnetization       8.6916898

 Broyden mixing:
  rms(total) = 0.16657E+01    rms(broyden)= 0.16655E+01
  rms(prec ) = 0.16980E+01
  weight for this iteration     100.00

 Free energy of the ion-electron system (eV)
  ---------------------------------------------------
  alpha Z        PSCENC =        11.46708901
  Ewald energy   TEWEN  =      8056.60891741
  -Hartree energ DENC   =    -17976.48739201
  -exchange      EXHF   =         0.00000000
  -V(xc)+E(xc)   XCENC  =      -113.27632822
  PAW double counting   =     10033.72178070    -9572.64608879
  entropy T*S    EENTRO =         0.00000000
  eigenvalues    EBANDS =      -828.91410752
  atomic energy  EATOM  =     10371.98630086
  ---------------------------------------------------
  free energy    TOTEN  =       -17.53982856 eV

  energy without entropy =      -17.53982856  energy(sigma->0) =      -17.53982856


--------------------------------------------------------------------------------------------------------




----------------------------------------- Iteration    1(   6)  ---------------------------------------


    POTLOK:  cpu time    0.22: real time    0.22
    SETDIJ:  cpu time    0.00: real time    0.01
     EDDAV:  cpu time    0.65: real time    0.65
       DOS:  cpu time    0.00: real time    0.00
    CHARGE:  cpu time    0.04: real time    0.05
    MIXING:  cpu time    0.01: real time    0.01
    --------------------------------------------
      LOOP:  cpu time    0.93: real time    1.95

 eigenvalue-minimisations  :   296
 total energy-change (2. order) : 0.1844322E+02  (-0.4772885E+01)
 number of electron     109.9999490 magnetization       7.3451734
 augmentation part       53.0273297 magnetization       6.6483721

 Broyden mixing:
  rms(total) = 0.81224E+00    rms(broyden)= 0.81219E+00
  rms(prec ) = 0.83383E+00
  weight for this iteration     100.00

 eigenvalues of (default mixing * dielectric matrix)
  average eigenvalue GAMMA=   0.8395
  0.8395

 Free energy of the ion-electron system (eV)
  ---------------------------------------------------
  alpha Z        PSCENC =        11.46708901
  Ewald energy   TEWEN  =      8056.60891741
  -Hartree energ DENC   =    -17952.51565299
  -exchange      EXHF   =         0.00000000
  -V(xc)+E(xc)   XCENC  =      -102.19917965
  PAW double counting   =     10316.98621321    -9861.81999881
  entropy T*S    EENTRO =         0.00000000
  eigenvalues    EBANDS =      -839.61029461
  atomic energy  EATOM  =     10371.98630086
  ---------------------------------------------------
  free energy    TOTEN  =         0.90339442 eV

  energy without entropy =        0.90339442  energy(sigma->0) =        0.90339442


--------------------------------------------------------------------------------------------------------




----------------------------------------- Iteration    1(   7)  ---------------------------------------


    POTLOK:  cpu time    0.22: real time    0.22
    SETDIJ:  cpu time    0.01: real time    0.01
     EDDAV:  cpu time    0.69: real time    0.69
       DOS:  cpu time    0.00: real time    0.00
    CHARGE:  cpu time    0.05: real time    0.05
    MIXING:  cpu time    0.00: real time    0.01
    --------------------------------------------
      LOOP:  cpu time    0.97: real time    0.98

 eigenvalue-minimisations  :   320
 total energy-change (2. order) : 0.3440972E+01  (-0.2307796E+00)
 number of electron     109.9999491 magnetization       5.9300004
 augmentation part       52.9581480 magnetization       5.3851303

 Broyden mixing:
  rms(total) = 0.47156E+00    rms(broyden)= 0.47155E+00
  rms(prec ) = 0.48540E+00
  weight for this iteration     100.00

 eigenvalues of (default mixing * dielectric matrix)
  average eigenvalue GAMMA=   0.8703
  0.7061  1.0344

 Free energy of the ion-electron system (eV)
  ---------------------------------------------------
  alpha Z        PSCENC =        11.46708901
  Ewald energy   TEWEN  =      8056.60891741
  -Hartree energ DENC   =    -17979.01373056
  -exchange      EXHF   =         0.00000000
  -V(xc)+E(xc)   XCENC  =       -98.49543515
  PAW double counting   =     10494.13569806   -10043.16973056
  entropy T*S    EENTRO =         0.00000000
  eigenvalues    EBANDS =      -809.17474240
  atomic energy  EATOM  =     10371.98630086
  ---------------------------------------------------
  free energy    TOTEN  =         4.34436666 eV

  energy without entropy =        4.34436666  energy(sigma->0) =        4.34436666


--------------------------------------------------------------------------------------------------------




----------------------------------------- Iteration    1(   8)  ---------------------------------------


    POTLOK:  cpu time    0.22: real time    0.22
    SETDIJ:  cpu time    0.00: real time    0.01
     EDDAV:  cpu time    0.70: real time    0.70
       DOS:  cpu time    0.00: real time    0.00
    CHARGE:  cpu time    0.05: real time    0.05
    MIXING:  cpu time    0.00: real time    0.01
    --------------------------------------------
      LOOP:  cpu time    0.99: real time    1.00

 eigenvalue-minimisations  :   328
 total energy-change (2. order) :-0.5592076E+01  (-0.2350235E+00)
 number of electron     109.9999492 magnetization       4.6608967
 augmentation part       52.8178993 magnetization       4.2592584

 Broyden mixing:
  rms(total) = 0.25964E+00    rms(broyden)= 0.25963E+00
  rms(prec ) = 0.26564E+00
  weight for this iteration     100.00

 eigenvalues of (default mixing * dielectric matrix)
  average eigenvalue GAMMA=   1.1161
  0.6237  0.9583  1.7663

 Free energy of the ion-electron system (eV)
  ---------------------------------------------------
  alpha Z        PSCENC =        11.46708901
  Ewald energy   TEWEN  =      8056.60891741
  -Hartree energ DENC   =    -18004.08074788
  -exchange      EXHF   =         0.00000000
  -V(xc)+E(xc)   XCENC  =      -102.16772865
  PAW double counting   =     10658.92540168   -10211.52961368
  entropy T*S    EENTRO =         0.00000000
  eigenvalues    EBANDS =      -782.45732814
  atomic energy  EATOM  =     10371.98630086
  ---------------------------------------------------
  free energy    TOTEN  =        -1.24770941 eV

  energy without entropy =       -1.24770941  energy(sigma->0) =       -1.24770941


--------------------------------------------------------------------------------------------------------




----------------------------------------- Iteration    1(   9)  ---------------------------------------


    POTLOK:  cpu time    0.22: real time    0.22
    SETDIJ:  cpu time    0.00: real time    0.01
     EDDAV:  cpu time    0.71: real time    0.71
       DOS:  cpu time    0.00: real time    0.00
    CHARGE:  cpu time    0.05: real time    0.05
    MIXING:  cpu time    0.01: real time    0.01
    --------------------------------------------
      LOOP:  cpu time    1.00: real time    1.00

 eigenvalue-minimisations  :   328
 total energy-change (2. order) :-0.5081139E+01  (-0.1970660E+00)
 number of electron     109.9999492 magnetization       3.1549329
 augmentation part       52.8019423 magnetization       2.8820828

 Broyden mixing:
  rms(total) = 0.15764E+00    rms(broyden)= 0.15764E+00
  rms(prec ) = 0.16230E+00
  weight for this iteration     100.00

 eigenvalues of (default mixing * dielectric matrix)
  average eigenvalue GAMMA=   1.3044
  0.6252  0.8348  1.6590  2.0986

 Free energy of the ion-electron system (eV)
  ---------------------------------------------------
  alpha Z        PSCENC =        11.46708901
  Ewald energy   TEWEN  =      8056.60891741
  -Hartree energ DENC   =    -18012.35242739
  -exchange      EXHF   =         0.00000000
  -V(xc)+E(xc)   XCENC  =      -105.83044820
  PAW double counting   =     10747.84941664   -10302.16564201
  entropy T*S    EENTRO =         0.00000000
  eigenvalues    EBANDS =      -773.89205463
  atomic energy  EATOM  =     10371.98630086
  ---------------------------------------------------
  free energy    TOTEN  =        -6.32884831 eV

  energy without entropy =       -6.32884831  energy(sigma->0) =       -6.32884831


--------------------------------------------------------------------------------------------------------




----------------------------------------- Iteration    1(  10)  ---------------------------------------


    POTLOK:  cpu time    0.22: real time    0.22
    SETDIJ:  cpu time    0.01: real time    0.01
     EDDAV:  cpu time    0.67: real time    0.67
       DOS:  cpu time    0.00: real time    0.00
    CHARGE:  cpu time    0.05: real time    0.05
    MIXING:  cpu time    0.01: real time    0.01
    --------------------------------------------
      LOOP:  cpu time    0.96: real time    1.62

 eigenvalue-minimisations  :   304
 total energy-change (2. order) :-0.5679684E+01  (-0.2732968E+00)
 number of electron     109.9999491 magnetization       2.4489152
 augmentation part       52.8862935 magnetization       2.3279571

 Broyden mixing:
  rms(total) = 0.10251E+00    rms(broyden)= 0.10250E+00
  rms(prec ) = 0.10498E+00
  weight for this iteration     100.00

 eigenvalues of (default mixing * dielectric matrix)
  average eigenvalue GAMMA=   1.2948
  2.6748  1.4333  0.8664  0.8664  0.6331

 Free energy of the ion-electron system (eV)
  ---------------------------------------------------
  alpha Z        PSCENC =        11.46708901
  Ewald energy   TEWEN  =      8056.60891741
  -Hartree energ DENC   =    -18007.91057425
  -exchange      EXHF   =         0.00000000
  -V(xc)+E(xc)   XCENC  =      -110.34790369
  PAW double counting   =     10756.51874725   -10311.03041162
  entropy T*S    EENTRO =         0.00000000
  eigenvalues    EBANDS =      -779.30069689
  atomic energy  EATOM  =     10371.98630086
  ---------------------------------------------------
  free energy    TOTEN  =       -12.00853193 eV

  energy without entropy =      -12.00853193  energy(sigma->0) =      -12.00853193


--------------------------------------------------------------------------------------------------------




----------------------------------------- Iteration    1(  11)  ---------------------------------------


    POTLOK:  cpu time    0.22: real time    0.22
    SETDIJ:  cpu time    0.01: real time    0.01
     EDDAV:  cpu time    0.70: real time    0.70
       DOS:  cpu time    0.00: real time    0.00
    CHARGE:  cpu time    0.05: real time    0.05
    MIXING:  cpu time    0.01: real time    0.01
    --------------------------------------------
      LOOP:  cpu time    0.98: real time    1.24

 eigenvalue-minimisations  :   320
 total energy-change (2. order) :-0.1798714E+01  (-0.4370032E-01)
 number of electron     109.9999491 magnetization       1.3117650
 augmentation part       52.8604397 magnetization       1.2322540

 Broyden mixing:
  rms(total) = 0.74805E-01    rms(broyden)= 0.74802E-01
  rms(prec ) = 0.78361E-01
  weight for this iteration     100.00

 eigenvalues of (default mixing * dielectric matrix)
  average eigenvalue GAMMA=   1.4591
  2.6987  2.3917  1.2196  1.0368  0.6377  0.7699

 Free energy of the ion-electron system (eV)
  ---------------------------------------------------
  alpha Z        PSCENC =        11.46708901
  Ewald energy   TEWEN  =      8056.60891741
  -Hartree energ DENC   =    -18009.01388784
  -exchange      EXHF   =         0.00000000
  -V(xc)+E(xc)   XCENC  =      -111.76800777
  PAW double counting   =     10752.55320036   -10307.16094791
  entropy T*S    EENTRO =         0.00000000
  eigenvalues    EBANDS =      -778.47990982
  atomic energy  EATOM  =     10371.98630086
  ---------------------------------------------------
  free energy    TOTEN  =       -13.80724571 eV

  energy without entropy =      -13.80724571  energy(sigma->0) =      -13.80724571


--------------------------------------------------------------------------------------------------------




----------------------------------------- Iteration    1(  12)  ---------------------------------------


    POTLOK:  cpu time    0.22: real time    0.22
    SETDIJ:  cpu time    0.01: real time    0.01
     EDDAV:  cpu time    0.64: real time    0.64
       DOS:  cpu time    0.00: real time    0.00
    CHARGE:  cpu time    0.04: real time    0.05
    MIXING:  cpu time    0.01: real time    0.01
    --------------------------------------------
      LOOP:  cpu time    0.93: real time    0.93

 eigenvalue-minimisations  :   288
 total energy-change (2. order) :-0.2449736E+01  (-0.6882344E-01)
 number of electron     109.9999490 magnetization       0.7402226
 augmentation part       52.8950793 magnetization       0.7061530

 Broyden mixing:
  rms(total) = 0.41641E-01    rms(broyden)= 0.41631E-01
  rms(prec ) = 0.43312E-01
  weight for this iteration     100.00

 eigenvalues of (default mixing * dielectric matrix)
  average eigenvalue GAMMA=   1.5233
  3.7653  2.4593  1.3262  1.0738  0.7946  0.6219  0.6219

 Free energy of the ion-electron system (eV)
  ---------------------------------------------------
  alpha Z        PSCENC =        11.46708901
  Ewald energy   TEWEN  =      8056.60891741
  -Hartree energ DENC   =    -18001.39785878
  -exchange      EXHF   =         0.00000000
  -V(xc)+E(xc)   XCENC  =      -114.07574568
  PAW double counting   =     10694.78275984   -10248.62073172
  entropy T*S    EENTRO =         0.00000000
  eigenvalues    EBANDS =      -787.00771305
  atomic energy  EATOM  =     10371.98630086
  ---------------------------------------------------
  free energy    TOTEN  =       -16.25698211 eV

  energy without entropy =      -16.25698211  energy(sigma->0) =      -16.25698211


--------------------------------------------------------------------------------------------------------




----------------------------------------- Iteration    1(  13)  ---------------------------------------


    POTLOK:  cpu time    0.22: real time    0.22
    SETDIJ:  cpu time    0.00: real time    0.01
     EDDAV:  cpu time    0.70: real time    0.70
       DOS:  cpu time    0.00: real time    0.00
    CHARGE:  cpu time    0.05: real time    0.05
    MIXING:  cpu time    0.01: real time    0.01
    --------------------------------------------
      LOOP:  cpu time    0.98: real time    0.99

 eigenvalue-minimisations  :   320
 total energy-change (2. order) :-0.6862401E+00  (-0.1095677E-01)
 number of electron     109.9999490 magnetization       0.4146597
 augmentation part       52.8987960 magnetization       0.3999738

 Broyden mixing:
  rms(total) = 0.24043E-01    rms(broyden)= 0.24035E-01
  rms(prec ) = 0.26112E-01
  weight for this iteration     100.00

 eigenvalues of (default mixing * dielectric matrix)
  average eigenvalue GAMMA=   1.6157
  4.7871  2.3641  1.6556  1.1861  0.9418  0.7415  0.6303  0.6190

 Free energy of the ion-electron system (eV)
  ---------------------------------------------------
  alpha Z        PSCENC =        11.46708901
  Ewald energy   TEWEN  =      8056.60891741
  -Hartree energ DENC   =    -17998.47194294
  -exchange      EXHF   =         0.00000000
  -V(xc)+E(xc)   XCENC  =      -114.75762717
  PAW double counting   =     10682.46593204   -10236.15303134
  entropy T*S    EENTRO =         0.00000000
  eigenvalues    EBANDS =      -790.08886012
  atomic energy  EATOM  =     10371.98630086
  ---------------------------------------------------
  free energy    TOTEN  =       -16.94322226 eV

  energy without entropy =      -16.94322226  energy(sigma->0) =      -16.94322226


--------------------------------------------------------------------------------------------------------




----------------------------------------- Iteration    1(  14)  ---------------------------------------


    POTLOK:  cpu time    0.22: real time    0.22
    SETDIJ:  cpu time    0.00: real time    0.01
     EDDAV:  cpu time    0.68: real time    0.68
       DOS:  cpu time    0.00: real time    0.00
    CHARGE:  cpu time    0.05: real time    0.05
    MIXING:  cpu time    0.01: real time    0.01
    --------------------------------------------
      LOOP:  cpu time    0.97: real time    0.97

 eigenvalue-minimisations  :   312
 total energy-change (2. order) :-0.3499845E+00  (-0.2944090E-02)
 number of electron     109.9999490 magnetization       0.1520220
 augmentation part       52.8982077 magnetization       0.1475750

 Broyden mixing:
  rms(total) = 0.14760E-01    rms(broyden)= 0.14755E-01
  rms(prec ) = 0.16908E-01
  weight for this iteration     100.00

 eigenvalues of (default mixing * dielectric matrix)
  average eigenvalue GAMMA=   1.7168
  5.1810  2.7462  2.0489  1.5203  1.0215  0.9320  0.6962  0.6525  0.6525

 Free energy of the ion-electron system (eV)
  ---------------------------------------------------
  alpha Z        PSCENC =        11.46708901
  Ewald energy   TEWEN  =      8056.60891741
  -Hartree energ DENC   =    -17996.32633791
  -exchange      EXHF   =         0.00000000
  -V(xc)+E(xc)   XCENC  =      -115.12290775
  PAW double counting   =     10682.34938251   -10236.00498365
  entropy T*S    EENTRO =         0.00000000
  eigenvalues    EBANDS =      -792.25066722
  atomic energy  EATOM  =     10371.98630086
  ---------------------------------------------------
  free energy    TOTEN  =       -17.29320675 eV

  energy without entropy =      -17.29320675  energy(sigma->0) =      -17.29320675


--------------------------------------------------------------------------------------------------------




----------------------------------------- Iteration    1(  15)  ---------------------------------------


    POTLOK:  cpu time    0.22: real time    0.22
    SETDIJ:  cpu time    0.01: real time    0.01
     EDDAV:  cpu time    0.64: real time    0.64
       DOS:  cpu time    0.00: real time    0.00
    CHARGE:  cpu time    0.05: real time    0.05
    MIXING:  cpu time    0.01: real time    0.01
    --------------------------------------------
      LOOP:  cpu time    0.93: real time    0.94

 eigenvalue-minimisations  :   288
 total energy-change (2. order) :-0.3391918E+00  (-0.2037269E-02)
 number of electron     109.9999490 magnetization       0.0645554
 augmentation part       52.8981556 magnetization       0.0617268

 Broyden mixing:
  rms(total) = 0.57612E-02    rms(broyden)= 0.57514E-02
  rms(prec ) = 0.72114E-02
  weight for this iteration     100.00

 eigenvalues of (default mixing * dielectric matrix)
  average eigenvalue GAMMA=   1.7806
  5.9634  3.1324  2.3050  1.6333  1.0526  0.8655  0.8655  0.6434  0.6434  0.7012

 Free energy of the ion-electron system (eV)
  ---------------------------------------------------
  alpha Z        PSCENC =        11.46708901
  Ewald energy   TEWEN  =      8056.60891741
  -Hartree energ DENC   =    -17992.95259039
  -exchange      EXHF   =         0.00000000
  -V(xc)+E(xc)   XCENC  =      -115.49967630
  PAW double counting   =     10686.87726845   -10240.49791042
  entropy T*S    EENTRO =         0.00000000
  eigenvalues    EBANDS =      -795.62179719
  atomic energy  EATOM  =     10371.98630086
  ---------------------------------------------------
  free energy    TOTEN  =       -17.63239858 eV

  energy without entropy =      -17.63239858  energy(sigma->0) =      -17.63239858


--------------------------------------------------------------------------------------------------------




----------------------------------------- Iteration    1(  16)  ---------------------------------------


    POTLOK:  cpu time    0.22: real time    0.22
    SETDIJ:  cpu time    0.01: real time    0.01
     EDDAV:  cpu time    0.68: real time    0.68
       DOS:  cpu time    0.00: real time    0.00
    CHARGE:  cpu time    0.05: real time    0.05
    MIXING:  cpu time    0.01: real time    0.01
    --------------------------------------------
      LOOP:  cpu time    0.97: real time    0.97

 eigenvalue-minimisations  :   312
 total energy-change (2. order) :-0.6760522E-01  (-0.3021683E-03)
 number of electron     109.9999490 magnetization       0.0293135
 augmentation part       52.9019915 magnetization       0.0286972

 Broyden mixing:
  rms(total) = 0.31132E-02    rms(broyden)= 0.31112E-02
  rms(prec ) = 0.45069E-02
  weight for this iteration     100.00

 eigenvalues of (default mixing * dielectric matrix)
  average eigenvalue GAMMA=   1.7591
  6.2772  3.1216  2.3922  1.6947  1.1922  1.0607  0.8714  0.7707  0.6379  0.6379
  0.6937

 Free energy of the ion-electron system (eV)
  ---------------------------------------------------
  alpha Z        PSCENC =        11.46708901
  Ewald energy   TEWEN  =      8056.60891741
  -Hartree energ DENC   =    -17991.54052308
  -exchange      EXHF   =         0.00000000
  -V(xc)+E(xc)   XCENC  =      -115.58495436
  PAW double counting   =     10686.88774591   -10240.49439111
  entropy T*S    EENTRO =         0.00000000
  eigenvalues    EBANDS =      -797.03018843
  atomic energy  EATOM  =     10371.98630086
  ---------------------------------------------------
  free energy    TOTEN  =       -17.70000380 eV

  energy without entropy =      -17.70000380  energy(sigma->0) =      -17.70000380


--------------------------------------------------------------------------------------------------------




----------------------------------------- Iteration    1(  17)  ---------------------------------------


    POTLOK:  cpu time    0.22: real time    0.22
    SETDIJ:  cpu time    0.00: real time    0.01
     EDDAV:  cpu time    0.57: real time    0.57
       DOS:  cpu time    0.00: real time    0.00
    CHARGE:  cpu time    0.05: real time    0.05
    MIXING:  cpu time    0.01: real time    0.01
    --------------------------------------------
      LOOP:  cpu time    0.86: real time    0.86

 eigenvalue-minimisations  :   240
 total energy-change (2. order) :-0.1964411E-01  (-0.1075795E-03)
 number of electron     109.9999490 magnetization       0.0134874
 augmentation part       52.9021114 magnetization       0.0128075

 Broyden mixing:
  rms(total) = 0.17297E-02    rms(broyden)= 0.17293E-02
  rms(prec ) = 0.29546E-02
  weight for this iteration     100.00

 eigenvalues of (default mixing * dielectric matrix)
  average eigenvalue GAMMA=   1.7964
  6.3633  3.4754  2.4872  2.0429  1.6714  1.0070  0.9149  0.9149  0.7539  0.6347
  0.6459  0.6459

 Free energy of the ion-electron system (eV)
  ---------------------------------------------------
  alpha Z        PSCENC =        11.46708901
  Ewald energy   TEWEN  =      8056.60891741
  -Hartree energ DENC   =    -17990.67376644
  -exchange      EXHF   =         0.00000000
  -V(xc)+E(xc)   XCENC  =      -115.61067672
  PAW double counting   =     10686.97091062   -10240.58569375
  entropy T*S    EENTRO =        -0.00000000
  eigenvalues    EBANDS =      -797.88272889
  atomic energy  EATOM  =     10371.98630086
  ---------------------------------------------------
  free energy    TOTEN  =       -17.71964791 eV

  energy without entropy =      -17.71964791  energy(sigma->0) =      -17.71964791


--------------------------------------------------------------------------------------------------------




----------------------------------------- Iteration    1(  18)  ---------------------------------------


    POTLOK:  cpu time    0.22: real time    0.22
    SETDIJ:  cpu time    0.01: real time    0.01
     EDDAV:  cpu time    0.59: real time    0.59
       DOS:  cpu time    0.00: real time    0.00
    CHARGE:  cpu time    0.05: real time    0.05
    MIXING:  cpu time    0.01: real time    0.01
    --------------------------------------------
      LOOP:  cpu time    0.88: real time    0.89

 eigenvalue-minimisations  :   256
 total energy-change (2. order) :-0.2345205E-02  (-0.7250095E-04)
 number of electron     109.9999490 magnetization       0.0054693
 augmentation part       52.9020377 magnetization       0.0050221

 Broyden mixing:
  rms(total) = 0.10257E-02    rms(broyden)= 0.10255E-02
  rms(prec ) = 0.18151E-02
  weight for this iteration     100.00

 eigenvalues of (default mixing * dielectric matrix)
  average eigenvalue GAMMA=   1.7934
  6.4417  3.7960  2.6927  2.2941  1.6098  1.1829  0.9113  0.9113  0.8369  0.7356
  0.6321  0.6321  0.6382

 Free energy of the ion-electron system (eV)
  ---------------------------------------------------
  alpha Z        PSCENC =        11.46708901
  Ewald energy   TEWEN  =      8056.60891741
  -Hartree energ DENC   =    -17989.79604253
  -exchange      EXHF   =         0.00000000
  -V(xc)+E(xc)   XCENC  =      -115.61842430
  PAW double counting   =     10687.26390886   -10240.88935815
  entropy T*S    EENTRO =         0.00000000
  eigenvalues    EBANDS =      -798.74438426
  atomic energy  EATOM  =     10371.98630086
  ---------------------------------------------------
  free energy    TOTEN  =       -17.72199311 eV

  energy without entropy =      -17.72199311  energy(sigma->0) =      -17.72199311


--------------------------------------------------------------------------------------------------------




----------------------------------------- Iteration    1(  19)  ---------------------------------------


    POTLOK:  cpu time    0.22: real time    0.22
    SETDIJ:  cpu time    0.01: real time    0.01
     EDDAV:  cpu time    0.56: real time    0.56
       DOS:  cpu time    0.00: real time    0.00
    CHARGE:  cpu time    0.05: real time    0.05
    MIXING:  cpu time    0.01: real time    0.01
    --------------------------------------------
      LOOP:  cpu time    0.84: real time    0.85

 eigenvalue-minimisations  :   232
 total energy-change (2. order) :-0.5939953E-03  (-0.1139735E-04)
 number of electron     109.9999490 magnetization       0.0016190
 augmentation part       52.9028129 magnetization       0.0012024

 Broyden mixing:
  rms(total) = 0.76820E-03    rms(broyden)= 0.76811E-03
  rms(prec ) = 0.12926E-02
  weight for this iteration     100.00

 eigenvalues of (default mixing * dielectric matrix)
  average eigenvalue GAMMA=   1.7826
  6.4744  4.0476  2.8228  2.2594  1.7685  1.3779  0.9756  0.9756  0.8622  0.7571
  0.7571  0.6377  0.6200  0.6200

 Free energy of the ion-electron system (eV)
  ---------------------------------------------------
  alpha Z        PSCENC =        11.46708901
  Ewald energy   TEWEN  =      8056.60891741
  -Hartree energ DENC   =    -17989.28122647
  -exchange      EXHF   =         0.00000000
  -V(xc)+E(xc)   XCENC  =      -115.62409699
  PAW double counting   =     10686.98875290   -10240.60949444
  entropy T*S    EENTRO =         0.00000000
  eigenvalues    EBANDS =      -799.25882938
  atomic energy  EATOM  =     10371.98630086
  ---------------------------------------------------
  free energy    TOTEN  =       -17.72258711 eV

  energy without entropy =      -17.72258711  energy(sigma->0) =      -17.72258711


--------------------------------------------------------------------------------------------------------




----------------------------------------- Iteration    1(  20)  ---------------------------------------


    POTLOK:  cpu time    0.22: real time    0.22
    SETDIJ:  cpu time    0.00: real time    0.01
     EDDAV:  cpu time    0.49: real time    0.49
       DOS:  cpu time    0.00: real time    0.00
    CHARGE:  cpu time    0.05: real time    0.05
    MIXING:  cpu time    0.01: real time    0.01
    --------------------------------------------
      LOOP:  cpu time    0.78: real time    0.79

 eigenvalue-minimisations  :   192
 total energy-change (2. order) :-0.1644224E-02  (-0.9151516E-05)
 number of electron     109.9999490 magnetization       0.0011428
 augmentation part       52.9028852 magnetization       0.0010108

 Broyden mixing:
  rms(total) = 0.45803E-03    rms(broyden)= 0.45799E-03
  rms(prec ) = 0.74378E-03
  weight for this iteration     100.00

 eigenvalues of (default mixing * dielectric matrix)
  average eigenvalue GAMMA=   1.8170
  6.5109  4.5528  2.9885  2.2582  2.2582  1.5574  1.0377  1.0377  0.8623  0.8623
  0.7641  0.6912  0.6455  0.6142  0.6142

 Free energy of the ion-electron system (eV)
  ---------------------------------------------------
  alpha Z        PSCENC =        11.46708901
  Ewald energy   TEWEN  =      8056.60891741
  -Hartree energ DENC   =    -17988.76330847
  -exchange      EXHF   =         0.00000000
  -V(xc)+E(xc)   XCENC  =      -115.63044934
  PAW double counting   =     10686.79550959   -10240.41322117
  entropy T*S    EENTRO =         0.00000000
  eigenvalues    EBANDS =      -799.77506922
  atomic energy  EATOM  =     10371.98630086
  ---------------------------------------------------
  free energy    TOTEN  =       -17.72423133 eV

  energy without entropy =      -17.72423133  energy(sigma->0) =      -17.72423133


--------------------------------------------------------------------------------------------------------




----------------------------------------- Iteration    1(  21)  ---------------------------------------


    POTLOK:  cpu time    0.22: real time    0.22
    SETDIJ:  cpu time    0.01: real time    0.01
     EDDAV:  cpu time    0.52: real time    0.52
       DOS:  cpu time    0.00: real time    0.00
    CHARGE:  cpu time    0.04: real time    0.05
    MIXING:  cpu time    0.01: real time    0.01
    --------------------------------------------
      LOOP:  cpu time    0.81: real time    0.81

 eigenvalue-minimisations  :   208
 total energy-change (2. order) :-0.1054907E-02  (-0.2293012E-05)
 number of electron     109.9999490 magnetization       0.0007473
 augmentation part       52.9030846 magnetization       0.0006646

 Broyden mixing:
  rms(total) = 0.27066E-03    rms(broyden)= 0.27062E-03
  rms(prec ) = 0.48027E-03
  weight for this iteration     100.00

 eigenvalues of (default mixing * dielectric matrix)
  average eigenvalue GAMMA=   1.8712
  6.4702  5.4687  3.2463  2.4238  2.4238  1.6003  1.3499  1.0675  0.9228  0.8467
  0.8467  0.7397  0.6639  0.6441  0.6159  0.6095

 Free energy of the ion-electron system (eV)
  ---------------------------------------------------
  alpha Z        PSCENC =        11.46708901
  Ewald energy   TEWEN  =      8056.60891741
  -Hartree energ DENC   =    -17988.53518859
  -exchange      EXHF   =         0.00000000
  -V(xc)+E(xc)   XCENC  =      -115.63354325
  PAW double counting   =     10686.85999520   -10240.47744159
  entropy T*S    EENTRO =         0.00000000
  eigenvalues    EBANDS =      -800.00141530
  atomic energy  EATOM  =     10371.98630086
  ---------------------------------------------------
  free energy    TOTEN  =       -17.72528624 eV

  energy without entropy =      -17.72528624  energy(sigma->0) =      -17.72528624


--------------------------------------------------------------------------------------------------------




----------------------------------------- Iteration    1(  22)  ---------------------------------------


    POTLOK:  cpu time    0.22: real time    0.22
    SETDIJ:  cpu time    0.01: real time    0.01
     EDDAV:  cpu time    0.53: real time    0.53
       DOS:  cpu time    0.00: real time    0.00
    CHARGE:  cpu time    0.05: real time    0.05
    MIXING:  cpu time    0.01: real time    0.01
    --------------------------------------------
      LOOP:  cpu time    0.82: real time    0.83

 eigenvalue-minimisations  :   216
 total energy-change (2. order) :-0.3224753E-03  (-0.1462482E-05)
 number of electron     109.9999490 magnetization       0.0002108
 augmentation part       52.9031602 magnetization       0.0001901

 Broyden mixing:
  rms(total) = 0.16913E-03    rms(broyden)= 0.16908E-03
  rms(prec ) = 0.31096E-03
  weight for this iteration     100.00

 eigenvalues of (default mixing * dielectric matrix)
  average eigenvalue GAMMA=   1.9137
  6.3772  6.3772  3.4523  2.5251  2.5251  1.8568  1.4911  1.1631  0.9512  0.9049
  0.9049  0.7533  0.7399  0.6119  0.6119  0.6434  0.6434

 Free energy of the ion-electron system (eV)
  ---------------------------------------------------
  alpha Z        PSCENC =        11.46708901
  Ewald energy   TEWEN  =      8056.60891741
  -Hartree energ DENC   =    -17988.38814680
  -exchange      EXHF   =         0.00000000
  -V(xc)+E(xc)   XCENC  =      -115.63512600
  PAW double counting   =     10687.00691077   -10240.62515343
  entropy T*S    EENTRO =         0.00000000
  eigenvalues    EBANDS =      -800.14640053
  atomic energy  EATOM  =     10371.98630086
  ---------------------------------------------------
  free energy    TOTEN  =       -17.72560871 eV

  energy without entropy =      -17.72560871  energy(sigma->0) =      -17.72560871


--------------------------------------------------------------------------------------------------------




----------------------------------------- Iteration    1(  23)  ---------------------------------------


    POTLOK:  cpu time    0.22: real time    0.22
    SETDIJ:  cpu time    0.01: real time    0.01
     EDDAV:  cpu time    0.53: real time    0.53
       DOS:  cpu time    0.00: real time    0.00
    --------------------------------------------
      LOOP:  cpu time    0.76: real time    0.77

 eigenvalue-minimisations  :   216
 total energy-change (2. order) : 0.1966247E-04  (-0.5217928E-06)
 number of electron     109.9999490 magnetization       0.0002108
 augmentation part       52.9031602 magnetization       0.0001901

 Free energy of the ion-electron system (eV)
  ---------------------------------------------------
  alpha Z        PSCENC =        11.46708901
  Ewald energy   TEWEN  =      8056.60891741
  -Hartree energ DENC   =    -17988.31025362
  -exchange      EXHF   =         0.00000000
  -V(xc)+E(xc)   XCENC  =      -115.63568424
  PAW double counting   =     10687.09332802   -10240.71181270
  entropy T*S    EENTRO =         0.00000000
  eigenvalues    EBANDS =      -800.22347379
  atomic energy  EATOM  =     10371.98630086
  ---------------------------------------------------
  free energy    TOTEN  =       -17.72558905 eV

  energy without entropy =      -17.72558905  energy(sigma->0) =      -17.72558905


--------------------------------------------------------------------------------------------------------




 average (electrostatic) potential at core
  the test charge radii are     1.1249
  (the norm of the test charge is              1.0000)
       1 -82.1178       2 -82.1241       3 -82.5024       4 -82.2756       5 -82.1263
       6 -82.4992       7 -82.1215       8 -82.2706       9 -82.1236      10 -82.1166
 
 
 
 E-fermi :  -4.4219     XC(G=0):  -0.6494     alpha+bet : -0.3094


 spin component 1

 k-point     1 :       0.0000    0.0000    0.0000
  band No.  band energies     occupation 
      1      -9.0659      1.00000
      2      -8.9789      1.00000
      3      -8.9693      1.00000
      4      -8.9375      1.00000
      5      -8.5925      1.00000
      6      -8.4185      1.00000
      7      -8.3480      1.00000
      8      -8.2153      1.00000
      9      -8.1949      1.00000
     10      -8.1673      1.00000
     11      -8.1417      1.00000
     12      -8.0380      1.00000
     13      -7.9951      1.00000
     14      -7.9543      1.00000
     15      -7.8749      1.00000
     16      -7.7912      1.00000
     17      -7.7683      1.00000
     18      -7.7290      1.00000
     19      -7.6398      1.00000
     20      -7.6258      1.00000
     21      -7.5854      1.00000
     22      -7.5656      1.00000
     23      -7.5066      1.00000
     24      -7.3474      1.00000
     25      -7.2812      1.00000
     26      -7.2771      1.00000
     27      -7.2514      1.00000
     28      -7.0913      1.00000
     29      -7.0814      1.00000
     30      -7.0272      1.00000
     31      -7.0242      1.00000
     32      -6.9889      1.00000
     33      -6.9781      1.00000
     34      -6.9628      1.00000
     35      -6.9558      1.00000
     36      -6.9175      1.00000
     37      -6.8962      1.00000
     38      -6.8870      1.00000
     39      -6.8501      1.00000
     40      -6.8260      1.00000
     41      -6.8113      1.00000
     42      -6.7928      1.00000
     43      -6.7705      1.00000
     44      -6.7396      1.00000
     45      -6.7266      1.00000
     46      -6.7237      1.00000
     47      -6.6479      1.00000
     48      -6.5035      1.00000
     49      -6.4270      1.00000
     50      -6.3649      1.00000
     51      -6.3407      1.00000
     52      -6.0447      1.00000
     53      -5.4564      1.00000
     54      -4.5872      1.00000
     55      -4.4272      1.00000
     56      -3.1118      0.00000
     57      -2.8335      0.00000
     58      -2.6054      0.00000
     59      -2.1343      0.00000
     60      -1.9676      0.00000
     61      -1.2348      0.00000
     62      -1.1573      0.00000
     63      -1.1141      0.00000
     64      -1.0969      0.00000
     65      -0.8011      0.00000
     66      -0.6008      0.00000
     67      -0.0593      0.00000
     68       0.0067      0.00000
     69       0.0904      0.00000
     70       0.2062      0.00000
     71       0.4043      0.00000
     72       0.5320      0.00000

 spin component 2

 k-point     1 :       0.0000    0.0000    0.0000
  band No.  band energies     occupation 
      1      -9.0659      1.00000
      2      -8.9789      1.00000
      3      -8.9693      1.00000
      4      -8.9375      1.00000
      5      -8.5925      1.00000
      6      -8.4185      1.00000
      7      -8.3480      1.00000
      8      -8.2153      1.00000
      9      -8.1949      1.00000
     10      -8.1673      1.00000
     11      -8.1417      1.00000
     12      -8.0380      1.00000
     13      -7.9951      1.00000
     14      -7.9543      1.00000
     15      -7.8749      1.00000
     16      -7.7912      1.00000
     17      -7.7683      1.00000
     18      -7.7290      1.00000
     19      -7.6398      1.00000
     20      -7.6258      1.00000
     21      -7.5854      1.00000
     22      -7.5656      1.00000
     23      -7.5066      1.00000
     24      -7.3474      1.00000
     25      -7.2812      1.00000
     26      -7.2771      1.00000
     27      -7.2514      1.00000
     28      -7.0913      1.00000
     29      -7.0814      1.00000
     30      -7.0272      1.00000
     31      -7.0242      1.00000
     32      -6.9889      1.00000
     33      -6.9781      1.00000
     34      -6.9628      1.00000
     35      -6.9558      1.00000
     36      -6.9175      1.00000
     37      -6.8962      1.00000
     38      -6.8871      1.00000
     39      -6.8501      1.00000
     40      -6.8260      1.00000
     41      -6.8113      1.00000
     42      -6.7928      1.00000
     43      -6.7705      1.00000
     44      -6.7396      1.00000
     45      -6.7266      1.00000
     46      -6.7237      1.00000
     47      -6.6479      1.00000
     48      -6.5035      1.00000
     49      -6.4270      1.00000
     50      -6.3649      1.00000
     51      -6.3407      1.00000
     52      -6.0447      1.00000
     53      -5.4564      1.00000
     54      -4.5872      1.00000
     55      -4.4272      1.00000
     56      -3.1117      0.00000
     57      -2.8334      0.00000
     58      -2.6054      0.00000
     59      -2.1346      0.00000
     60      -1.9675      0.00000
     61      -1.2348      0.00000
     62      -1.1565      0.00000
     63      -1.1138      0.00000
     64      -1.0968      0.00000
     65      -0.8010      0.00000
     66      -0.6004      0.00000
     67      -0.0578      0.00000
     68       0.0073      0.00000
     69       0.0910      0.00000
     70       0.1967      0.00000
     71       0.4056      0.00000
     72       0.5392      0.00000


--------------------------------------------------------------------------------------------------------


 soft charge-density along one line, spin component           1
         0         1         2         3         4         5         6         7         8         9
 total charge-density along one line
 
 soft charge-density along one line, spin component           2
         0         1         2         3         4         5         6         7         8         9
 total charge-density along one line
 
 pseudopotential strength for first ion, spin component:           1
-10.275   0.006  -0.007   0.011   0.002 -10.251   0.006  -0.007
  0.006 -10.280   0.009   0.005  -0.016   0.006 -10.257   0.009
 -0.007   0.009 -10.276   0.002   0.000  -0.007   0.009 -10.252
  0.011   0.005   0.002 -10.274   0.007   0.011   0.005   0.002
  0.002  -0.016   0.000   0.007 -10.276   0.002  -0.015   0.000
-10.251   0.006  -0.007   0.011   0.002 -10.204   0.006  -0.006
  0.006 -10.257   0.009   0.005  -0.015   0.006 -10.209   0.009
 -0.007   0.009 -10.252   0.002   0.000  -0.006   0.009 -10.205
  0.011   0.005   0.002 -10.251   0.007   0.010   0.004   0.002
  0.002  -0.015   0.000   0.007 -10.252   0.002  -0.015   0.000
 -0.005  -0.007  -0.001  -0.005   0.001  -0.005  -0.007  -0.001
 -0.008  -0.011  -0.001  -0.008   0.001  -0.007  -0.011  -0.001
  0.002  -0.023  -0.014   0.000  -0.024   0.002  -0.022  -0.013
  0.000   0.023  -0.027   0.002  -0.000   0.000   0.022  -0.026
  0.024   0.000  -0.001  -0.023   0.002   0.023   0.000  -0.001
  0.003  -0.028  -0.017   0.000  -0.029   0.003  -0.027  -0.016
  0.000   0.028  -0.033   0.002  -0.000   0.000   0.027  -0.032
  0.029   0.000  -0.002  -0.029   0.002   0.028   0.000  -0.002
 pseudopotential strength for first ion, spin component:           2
-10.275   0.006  -0.007   0.011   0.002 -10.251   0.006  -0.007
  0.006 -10.280   0.009   0.005  -0.016   0.006 -10.257   0.009
 -0.007   0.009 -10.276   0.002   0.000  -0.007   0.009 -10.252
  0.011   0.005   0.002 -10.274   0.007   0.011   0.005   0.002
  0.002  -0.016   0.000   0.007 -10.276   0.002  -0.015   0.000
-10.251   0.006  -0.007   0.011   0.002 -10.204   0.006  -0.006
  0.006 -10.257   0.009   0.005  -0.015   0.006 -10.209   0.009
 -0.007   0.009 -10.252   0.002   0.000  -0.006   0.009 -10.205
  0.011   0.005   0.002 -10.251   0.007   0.010   0.004   0.002
  0.002  -0.015   0.000   0.007 -10.252   0.002  -0.015   0.000
 -0.005  -0.007  -0.001  -0.005   0.001  -0.005  -0.007  -0.001
 -0.008  -0.011  -0.001  -0.008   0.001  -0.007  -0.011  -0.001
  0.002  -0.023  -0.014   0.000  -0.024   0.002  -0.022  -0.013
  0.000   0.023  -0.027   0.002  -0.000   0.000   0.022  -0.026
  0.024   0.000  -0.001  -0.023   0.002   0.023   0.000  -0.001
  0.003  -0.028  -0.017   0.000  -0.029   0.003  -0.027  -0.016
  0.000   0.028  -0.033   0.002  -0.000   0.000   0.027  -0.032
  0.029   0.000  -0.002  -0.029   0.002   0.028   0.000  -0.002
 total augmentation occupancy for first ion, spin component:           1
  2.547   0.070   0.142  -0.165   0.090  -0.573  -0.029  -0.190   0.174  -0.061   0.434  -0.058  -0.074  -0.010   0.114   0.006
  0.070   2.452  -0.003   0.041   0.029  -0.029  -0.494   0.048  -0.011  -0.099   0.532  -0.114  -0.079   0.073   0.006  -0.007
  0.142  -0.003   2.421  -0.137   0.054  -0.190   0.048  -0.417   0.135  -0.021   0.083   0.002  -0.033  -0.044   0.070  -0.007
 -0.165   0.041  -0.137   2.589  -0.123   0.174  -0.011   0.135  -0.604   0.173   0.448  -0.064   0.019   0.075  -0.129   0.000
  0.090   0.029   0.054  -0.123   2.393  -0.061  -0.099  -0.020   0.173  -0.420  -0.117  -0.002  -0.040  -0.014   0.057  -0.011
 -0.573  -0.029  -0.190   0.174  -0.061   0.579  -0.004   0.232  -0.183   0.037  -0.383   0.054   0.073   0.009  -0.132  -0.005
 -0.029  -0.494   0.048  -0.011  -0.099  -0.004   0.512  -0.087  -0.014   0.159  -0.445   0.086   0.105  -0.100  -0.005  -0.008
 -0.190   0.048  -0.417   0.135  -0.020   0.232  -0.087   0.395  -0.134  -0.007  -0.078   0.003   0.041   0.067  -0.068  -0.002
  0.174  -0.011   0.135  -0.604   0.173  -0.183  -0.014  -0.134   0.601  -0.215  -0.392   0.058  -0.016  -0.078   0.147  -0.000
 -0.061  -0.099  -0.021   0.173  -0.420   0.037   0.159  -0.007  -0.215   0.424   0.113  -0.005   0.061   0.011  -0.058  -0.004
  0.434   0.532   0.083   0.448  -0.117  -0.383  -0.445  -0.078  -0.392   0.113   1.765  -0.201  -0.162   0.165  -0.013   0.014
 -0.058  -0.114   0.002  -0.064  -0.002   0.054   0.086   0.003   0.058  -0.005  -0.201   0.034   0.028  -0.029   0.002  -0.002
 -0.074  -0.079  -0.033   0.019  -0.040   0.073   0.105   0.041  -0.016   0.061  -0.162   0.028   0.044  -0.014  -0.023  -0.003
 -0.010   0.073  -0.044   0.075  -0.014   0.009  -0.100   0.067  -0.078   0.011   0.165  -0.029  -0.014   0.042  -0.022   0.002
  0.114   0.006   0.070  -0.129   0.057  -0.132  -0.005  -0.068   0.147  -0.058  -0.013   0.002  -0.023  -0.022   0.067   0.001
  0.006  -0.007  -0.007   0.000  -0.011  -0.005  -0.008  -0.002  -0.000  -0.004   0.014  -0.002  -0.003   0.002   0.001   0.000
 -0.000   0.007  -0.013  -0.004   0.000   0.000   0.008  -0.004   0.005  -0.000  -0.014   0.002   0.002  -0.003   0.001  -0.000
  0.008  -0.000  -0.004  -0.007  -0.002   0.007   0.000   0.004  -0.008   0.003   0.001  -0.000   0.001   0.001  -0.004  -0.000
 total augmentation occupancy for first ion, spin component:           2
 -0.000  -0.000  -0.000   0.000  -0.000   0.000   0.000   0.000  -0.000   0.000  -0.000   0.000   0.000  -0.000  -0.000   0.000
 -0.000  -0.000   0.000  -0.000  -0.000   0.000   0.000   0.000   0.000   0.000  -0.000   0.000   0.000  -0.000  -0.000  -0.000
 -0.000   0.000   0.000   0.000   0.000   0.000  -0.000   0.000  -0.000   0.000  -0.000  -0.000   0.000  -0.000  -0.000   0.000
  0.000  -0.000   0.000  -0.000   0.000  -0.000   0.000  -0.000   0.000  -0.000  -0.000   0.000  -0.000  -0.000   0.000  -0.000
 -0.000  -0.000   0.000   0.000   0.000   0.000   0.000   0.000  -0.000   0.000   0.000  -0.000  -0.000   0.000  -0.000   0.000
  0.000   0.000   0.000  -0.000   0.000  -0.000  -0.000  -0.000   0.000  -0.000   0.000  -0.000  -0.000   0.000   0.000   0.000
  0.000   0.000  -0.000   0.000   0.000  -0.000  -0.000   0.000  -0.000  -0.000   0.000  -0.000  -0.000   0.000   0.000   0.000
  0.000   0.000   0.000  -0.000   0.000  -0.000   0.000  -0.000   0.000  -0.000   0.000  -0.000  -0.000  -0.000   0.000   0.000
 -0.000   0.000  -0.000   0.000  -0.000   0.000  -0.000   0.000  -0.000   0.000   0.000  -0.000   0.000   0.000  -0.000   0.000
  0.000   0.000   0.000  -0.000   0.000  -0.000  -0.000  -0.000   0.000  -0.000  -0.000   0.000  -0.000  -0.000   0.000   0.000
 -0.000  -0.000  -0.000  -0.000   0.000   0.000   0.000   0.000   0.000  -0.000  -0.000   0.000   0.000  -0.000   0.000  -0.000
  0.000   0.000  -0.000   0.000  -0.000  -0.000  -0.000  -0.000  -0.000   0.000   0.000  -0.000  -0.000   0.000  -0.000   0.000
  0.000   0.000   0.000  -0.000  -0.000  -0.000  -0.000  -0.000   0.000  -0.000   0.000  -0.000  -0.000   0.000   0.000   0.000
 -0.000  -0.000  -0.000  -0.000   0.000   0.000   0.000  -0.000   0.000  -0.000  -0.000   0.000   0.000  -0.000   0.000   0.000
 -0.000  -0.000  -0.000   0.000  -0.000   0.000   0.000   0.000  -0.000   0.000   0.000  -0.000   0.000   0.000  -0.000  -0.000
  0.000  -0.000   0.000  -0.000   0.000   0.000   0.000   0.000   0.000   0.000  -0.000   0.000   0.000   0.000  -0.000  -0.000
  0.000   0.000   0.000   0.000   0.000  -0.000  -0.000   0.000  -0.000   0.000   0.000  -0.000   0.000   0.000  -0.000  -0.000
  0.000  -0.000  -0.000  -0.000   0.000  -0.000   0.000   0.000   0.000  -0.000  -0.000   0.000  -0.000  -0.000   0.000   0.000


------------------------ aborting loop because EDIFF is reached ----------------------------------------


    CHARGE:  cpu time    0.04: real time    0.04
    FORLOC:  cpu time    0.01: real time    0.01
    FORNL :  cpu time    0.24: real time    0.24
    STRESS:  cpu time    0.29: real time    0.29
    FORCOR:  cpu time    0.22: real time    0.22
    FORHAR:  cpu time    0.03: real time    0.03
    MIXING:  cpu time    0.02: real time    0.01
    OFIELD:  cpu time    0.00: real time    0.00

  FORCE on cell =-STRESS in cart. coord.  units (eV):
  Direction    XX          YY          ZZ          XY          YZ          ZX
  --------------------------------------------------------------------------------------
  Alpha Z    11.46709    11.46709    11.46709
  Ewald    1954.30384  1815.49987  4286.79923 -3064.11645 -3793.37236 -2161.82932
  Hartree  5288.55441  5288.10360  7411.60376 -2503.52641 -3193.57134 -1757.98073
  E(xc)    -579.58813  -580.09873  -579.03249    -1.81325    -1.86342    -1.30621
  Local   -8853.75611 -8721.44338-13307.96296  5551.62203  6973.22306  3908.01541
  n-local  -113.02409  -111.50870  -111.81081     1.66989     0.38647     1.20001
  augment   917.11176   918.71401   916.09226     4.64237     4.46988     3.40036
  Kinetic  1371.43170  1375.71503  1369.47412    11.55728    10.67034     8.39753
  Fock        0.00000     0.00000     0.00000     0.00000     0.00000     0.00000
  -------------------------------------------------------------------------------------
  Total      -3.49953    -3.55122    -3.36982     0.03545    -0.05737    -0.10293
  in kB      -0.75589    -0.76706    -0.72787     0.00766    -0.01239    -0.02223
  external pressure =       -0.75 kB  Pullay stress =        0.00 kB


 VOLUME and BASIS-vectors are now :
 -----------------------------------------------------------------------------
  energy-cutoff  :      249.84
  volume of cell :     7417.56
      direct lattice vectors                 reciprocal lattice vectors
    19.502352374  0.000000000  0.000000000     0.051275866  0.000000000  0.000000000
     0.000000000 19.502352374  0.000000000     0.000000000  0.051275866  0.000000000
     0.000000000  0.000000000 19.502352374     0.000000000  0.000000000  0.051275866

  length of vectors
    19.502352374 19.502352374 19.502352374     0.051275866  0.051275866  0.051275866


 FORCES acting on ions
    electron-ion (+dipol)            ewald-force                    non-local-force                 convergence-correction
 -----------------------------------------------------------------------------------------------
   -.243E+02 -.489E+03 0.519E+03   0.240E+02 0.485E+03 -.515E+03   0.344E+00 0.418E+01 -.419E+01   0.275E-03 0.200E-02 -.130E-02
   0.525E+03 -.468E+03 0.146E+03   -.521E+03 0.465E+03 -.146E+03   -.490E+01 0.370E+01 -.737E+00   -.128E-02 0.116E-02 0.222E-03
   0.304E+02 -.716E+02 0.153E+03   -.302E+02 0.714E+02 -.152E+03   -.169E+00 0.201E+00 -.539E+00   0.651E-04 0.298E-03 -.189E-03
   -.499E+03 0.299E+03 0.248E+03   0.495E+03 -.297E+03 -.246E+03   0.413E+01 -.238E+01 -.194E+01   0.155E-02 -.834E-03 -.583E-03
   -.515E+03 -.499E+02 0.497E+03   0.511E+03 0.500E+02 -.493E+03   0.482E+01 -.251E-01 -.386E+01   0.166E-02 -.111E-03 -.681E-03
   0.447E+02 0.159E+03 -.919E+02   -.444E+02 -.158E+03 0.917E+02   -.313E+00 -.682E+00 0.151E+00   0.168E-03 -.301E-03 0.404E-03
   -.482E+03 0.520E+03 -.105E+03   0.478E+03 -.516E+03 0.105E+03   0.442E+01 -.425E+01 0.255E+00   0.129E-02 -.863E-03 -.289E-03
   0.543E+03 -.247E+03 -.210E+03   -.539E+03 0.245E+03 0.208E+03   -.427E+01 0.213E+01 0.179E+01   -.146E-02 0.106E-02 0.954E-03
   0.443E+03 -.353E+02 -.560E+03   -.439E+03 0.343E+02 0.555E+03   -.403E+01 0.977E+00 0.455E+01   -.981E-03 0.103E-02 0.104E-02
   -.662E+02 0.382E+03 -.597E+03   0.654E+02 -.379E+03 0.592E+03   0.734E+00 -.294E+01 0.510E+01   0.514E-03 -.732E-03 0.174E-02
 -----------------------------------------------------------------------------------------------
   -.775E+00 -.905E+00 -.621E+00   0.568E-13 -.114E-12 -.227E-12   0.764E+00 0.908E+00 0.575E+00   0.181E-02 0.271E-02 0.131E-02
 
 
 POSITION                                       TOTAL-FORCE (eV/Angst)
 -----------------------------------------------------------------------------------
      9.75514     12.42725      6.60842         0.005522     -0.002797     -0.031730
      7.62348     12.34837      8.31900        -0.016110      0.002911      0.026524
      9.65464     10.54736      8.58493        -0.025986      0.003321      0.008269
     11.62378      8.65684      8.84231         0.052754     -0.031518      0.019672
     11.74602     10.55643      6.84267        -0.004440     -0.002834     -0.034060
      9.69921      8.77057     10.79268         0.019874      0.049674      0.007971
     11.74748      6.96727     11.03819        -0.047479      0.033569     -0.009594
      7.71715     10.67766     10.52929         0.024310      0.000061     -0.015533
      7.94953      9.18405     12.84349         0.000107     -0.013968      0.009707
      9.99534      7.37596     13.11078        -0.008551     -0.038419      0.018773
 -----------------------------------------------------------------------------------
    total drift:                               -0.008904      0.005566     -0.044365


--------------------------------------------------------------------------------------------------------



  FREE ENERGIE OF THE ION-ELECTRON SYSTEM (eV)
  ---------------------------------------------------
  free  energy   TOTEN  =       -17.72558905 eV

  energy  without entropy=      -17.72558905  energy(sigma->0) =      -17.72558905
 


--------------------------------------------------------------------------------------------------------


    POTLOK:  cpu time    0.23: real time    0.23


--------------------------------------------------------------------------------------------------------




--------------------------------------------------------------------------------------------------------


    WAVPRE:  cpu time    0.02: real time    0.02
 FEWALD executed in parallel
    FEWALD:  cpu time    0.00: real time    0.00
    ORTHCH:  cpu time    0.03: real time    0.03
     LOOP+:  cpu time   21.87: real time   24.28


----------------------------------------- Iteration    2(   1)  ---------------------------------------


    POTLOK:  cpu time    0.22: real time    0.22
    SETDIJ:  cpu time    0.01: real time    0.01
     EDDAV:  cpu time    0.66: real time    0.66
       DOS:  cpu time    0.00: real time    0.00
    CHARGE:  cpu time    0.05: real time    0.05
    MIXING:  cpu time    0.01: real time    0.01
    --------------------------------------------
      LOOP:  cpu time    0.94: real time    0.95

 eigenvalue-minimisations  :   296
 total energy-change (2. order) :-0.2107390E-03  (-0.1141663E-02)
[...]
      4      -8.9386      1.00000
      5      -8.5909      1.00000
      6      -8.4187      1.00000
      7      -8.3463      1.00000
      8      -8.2150      1.00000
      9      -8.1948      1.00000
     10      -8.1671      1.00000
     11      -8.1413      1.00000
     12      -8.0372      1.00000
     13      -7.9957      1.00000
     14      -7.9546      1.00000
     15      -7.8738      1.00000
     16      -7.7913      1.00000
     17      -7.7678      1.00000
     18      -7.7286      1.00000
     19      -7.6397      1.00000
     20      -7.6257      1.00000
     21      -7.5857      1.00000
     22      -7.5655      1.00000
     23      -7.5070      1.00000
     24      -7.3476      1.00000
     25      -7.2808      1.00000
     26      -7.2771      1.00000
     27      -7.2515      1.00000
     28      -7.0914      1.00000
     29      -7.0816      1.00000
     30      -7.0278      1.00000
     31      -7.0238      1.00000
     32      -6.9895      1.00000
     33      -6.9783      1.00000
     34      -6.9631      1.00000
     35      -6.9563      1.00000
     36      -6.9178      1.00000
     37      -6.8964      1.00000
     38      -6.8872      1.00000
     39      -6.8506      1.00000
     40      -6.8262      1.00000
     41      -6.8116      1.00000
     42      -6.7932      1.00000
     43      -6.7706      1.00000
     44      -6.7399      1.00000
     45      -6.7267      1.00000
     46      -6.7239      1.00000
     47      -6.6481      1.00000
     48      -6.5043      1.00000
     49      -6.4279      1.00000
     50      -6.3650      1.00000
     51      -6.3411      1.00000
     52      -6.0445      1.00000
     53      -5.4568      1.00000
     54      -4.5878      1.00000
     55      -4.4270      1.00000
     56      -3.1120      0.00000
     57      -2.8345      0.00000
     58      -2.6056      0.00000
     59      -2.1343      0.00000
     60      -1.9674      0.00000
     61      -1.2345      0.00000
     62      -1.1566      0.00000
     63      -1.1153      0.00000
     64      -1.0974      0.00000
     65      -0.8010      0.00000
     66      -0.6006      0.00000
     67      -0.0587      0.00000
     68       0.0065      0.00000
     69       0.0904      0.00000
     70       0.2010      0.00000
     71       0.4016      0.00000
     72       0.5280      0.00000

 spin component 2

 k-point     1 :       0.0000    0.0000    0.0000
  band No.  band energies     occupation 
      1      -9.0652      1.00000
      2      -8.9788      1.00000
      3      -8.9683      1.00000
      4      -8.9386      1.00000
      5      -8.5909      1.00000
      6      -8.4187      1.00000
      7      -8.3463      1.00000
      8      -8.2150      1.00000
      9      -8.1948      1.00000
     10      -8.1671      1.00000
     11      -8.1413      1.00000
     12      -8.0372      1.00000
     13      -7.9957      1.00000
     14      -7.9546      1.00000
     15      -7.8738      1.00000
     16      -7.7913      1.00000
     17      -7.7678      1.00000
     18      -7.7286      1.00000
     19      -7.6397      1.00000
     20      -7.6257      1.00000
     21      -7.5857      1.00000
     22      -7.5655      1.00000
     23      -7.5070      1.00000
     24      -7.3476      1.00000
     25      -7.2808      1.00000
     26      -7.2771      1.00000
     27      -7.2515      1.00000
     28      -7.0914      1.00000
     29      -7.0816      1.00000
     30      -7.0278      1.00000
     31      -7.0238      1.00000
     32      -6.9895      1.00000
     33      -6.9783      1.00000
     34      -6.9631      1.00000
     35      -6.9563      1.00000
     36      -6.9178      1.00000
     37      -6.8964      1.00000
     38      -6.8872      1.00000
     39      -6.8506      1.00000
     40      -6.8262      1.00000
     41      -6.8116      1.00000
     42      -6.7932      1.00000
     43      -6.7706      1.00000
     44      -6.7399      1.00000
     45      -6.7267      1.00000
     46      -6.7239      1.00000
     47      -6.6481      1.00000
     48      -6.5043      1.00000
     49      -6.4279      1.00000
     50      -6.3650      1.00000
     51      -6.3411      1.00000
     52      -6.0445      1.00000
     53      -5.4568      1.00000
     54      -4.5877      1.00000
     55      -4.4270      1.00000
     56      -3.1119      0.00000
     57      -2.8345      0.00000
     58      -2.6056      0.00000
     59      -2.1342      0.00000
     60      -1.9672      0.00000
     61      -1.2342      0.00000
     62      -1.1562      0.00000
     63      -1.1150      0.00000
     64      -1.0973      0.00000
     65      -0.8004      0.00000
     66      -0.6000      0.00000
     67      -0.0570      0.00000
     68       0.0075      0.00000
     69       0.0916      0.00000
     70       0.1973      0.00000
     71       0.4034      0.00000
     72       0.5343      0.00000


--------------------------------------------------------------------------------------------------------


 soft charge-density along one line, spin component           1
         0         1         2         3         4         5         6         7         8         9
 total charge-density along one line
 
 soft charge-density along one line, spin component           2
         0         1         2         3         4         5         6         7         8         9
 total charge-density along one line
 
 pseudopotential strength for first ion, spin component:           1
-10.275   0.006  -0.007   0.011   0.002 -10.251   0.006  -0.007
  0.006 -10.280   0.009   0.005  -0.016   0.006 -10.257   0.009
 -0.007   0.009 -10.276   0.002   0.000  -0.007   0.009 -10.252
  0.011   0.005   0.002 -10.274   0.007   0.011   0.005   0.002
  0.002  -0.016   0.000   0.007 -10.275   0.002  -0.015   0.000
-10.251   0.006  -0.007   0.011   0.002 -10.204   0.006  -0.006
  0.006 -10.257   0.009   0.005  -0.015   0.006 -10.209   0.009
 -0.007   0.009 -10.252   0.002   0.000  -0.006   0.009 -10.205
  0.011   0.005   0.002 -10.251   0.007   0.010   0.004   0.002
  0.002  -0.015   0.000   0.007 -10.252   0.002  -0.015   0.000
 -0.005  -0.007  -0.001  -0.005   0.001  -0.005  -0.007  -0.001
 -0.008  -0.011  -0.001  -0.008   0.001  -0.007  -0.011  -0.001
  0.002  -0.023  -0.014   0.000  -0.024   0.002  -0.022  -0.013
  0.000   0.023  -0.027   0.001  -0.000   0.000   0.022  -0.026
  0.024   0.000  -0.001  -0.023   0.002   0.023   0.000  -0.001
  0.003  -0.028  -0.017   0.000  -0.029   0.003  -0.027  -0.016
  0.000   0.028  -0.033   0.002  -0.000   0.000   0.027  -0.032
  0.029   0.000  -0.002  -0.028   0.002   0.028   0.000  -0.002
 pseudopotential strength for first ion, spin component:           2
-10.275   0.006  -0.007   0.011   0.002 -10.251   0.006  -0.007
  0.006 -10.280   0.009   0.005  -0.016   0.006 -10.257   0.009
 -0.007   0.009 -10.276   0.002   0.000  -0.007   0.009 -10.252
  0.011   0.005   0.002 -10.274   0.007   0.011   0.005   0.002
  0.002  -0.016   0.000   0.007 -10.275   0.002  -0.015   0.000
-10.251   0.006  -0.007   0.011   0.002 -10.204   0.006  -0.006
  0.006 -10.257   0.009   0.005  -0.015   0.006 -10.209   0.009
 -0.007   0.009 -10.252   0.002   0.000  -0.006   0.009 -10.205
  0.011   0.005   0.002 -10.251   0.007   0.010   0.004   0.002
  0.002  -0.015   0.000   0.007 -10.252   0.002  -0.015   0.000
 -0.005  -0.007  -0.001  -0.005   0.001  -0.005  -0.007  -0.001
 -0.008  -0.011  -0.001  -0.008   0.001  -0.007  -0.011  -0.001
  0.002  -0.023  -0.014   0.000  -0.024   0.002  -0.022  -0.013
  0.000   0.023  -0.027   0.001  -0.000   0.000   0.022  -0.026
  0.024   0.000  -0.001  -0.023   0.002   0.023   0.000  -0.001
  0.003  -0.028  -0.017   0.000  -0.029   0.003  -0.027  -0.016
  0.000   0.028  -0.033   0.002  -0.000   0.000   0.027  -0.032
  0.029   0.000  -0.002  -0.028   0.002   0.028   0.000  -0.002
 total augmentation occupancy for first ion, spin component:           1
  2.546   0.070   0.142  -0.165   0.090  -0.572  -0.030  -0.190   0.174  -0.061   0.434  -0.058  -0.074  -0.010   0.114   0.006
  0.070   2.451  -0.003   0.041   0.028  -0.030  -0.492   0.048  -0.011  -0.098   0.531  -0.114  -0.078   0.073   0.006  -0.007
  0.142  -0.003   2.421  -0.137   0.054  -0.191   0.048  -0.416   0.135  -0.021   0.083   0.002  -0.033  -0.043   0.070  -0.007
 -0.165   0.041  -0.137   2.588  -0.122   0.174  -0.011   0.135  -0.602   0.172   0.447  -0.064   0.019   0.075  -0.128   0.000
  0.090   0.028   0.054  -0.122   2.392  -0.061  -0.098  -0.021   0.172  -0.419  -0.116  -0.003  -0.040  -0.014   0.056  -0.011
 -0.572  -0.030  -0.191   0.174  -0.061   0.578  -0.004   0.233  -0.183   0.037  -0.384   0.054   0.073   0.009  -0.132  -0.005
 -0.030  -0.492   0.048  -0.011  -0.098  -0.004   0.511  -0.087  -0.014   0.158  -0.444   0.086   0.104  -0.099  -0.005  -0.008
 -0.190   0.048  -0.416   0.135  -0.021   0.233  -0.087   0.394  -0.134  -0.007  -0.079   0.003   0.041   0.066  -0.068  -0.002
  0.174  -0.011   0.135  -0.602   0.172  -0.183  -0.014  -0.134   0.598  -0.214  -0.391   0.057  -0.016  -0.077   0.146  -0.000
 -0.061  -0.098  -0.021   0.172  -0.419   0.037   0.158  -0.007  -0.214   0.423   0.112  -0.005   0.060   0.011  -0.058  -0.004
  0.434   0.531   0.083   0.447  -0.116  -0.384  -0.444  -0.079  -0.391   0.112   1.764  -0.200  -0.162   0.165  -0.012   0.014
 -0.058  -0.114   0.002  -0.064  -0.003   0.054   0.086   0.003   0.057  -0.005  -0.200   0.034   0.028  -0.029   0.002  -0.002
 -0.074  -0.078  -0.033   0.019  -0.040   0.073   0.104   0.041  -0.016   0.060  -0.162   0.028   0.044  -0.014  -0.023  -0.003
 -0.010   0.073  -0.043   0.075  -0.014   0.009  -0.099   0.066  -0.077   0.011   0.165  -0.029  -0.014   0.042  -0.022   0.002
  0.114   0.006   0.070  -0.128   0.056  -0.132  -0.005  -0.068   0.146  -0.058  -0.012   0.002  -0.023  -0.022   0.067   0.001
  0.006  -0.007  -0.007   0.000  -0.011  -0.005  -0.008  -0.002  -0.000  -0.004   0.014  -0.002  -0.003   0.002   0.001   0.000
 -0.000   0.007  -0.013  -0.004   0.000   0.000   0.008  -0.004   0.005  -0.000  -0.014   0.002   0.002  -0.003   0.001  -0.000
  0.008  -0.000  -0.004  -0.008  -0.002   0.007   0.000   0.004  -0.008   0.003   0.001  -0.000   0.001   0.001  -0.004  -0.000
 total augmentation occupancy for first ion, spin component:           2
 -0.000  -0.000  -0.000   0.000  -0.000   0.000   0.000   0.000  -0.000   0.000  -0.000   0.000   0.000   0.000  -0.000   0.000
 -0.000  -0.000  -0.000   0.000  -0.000   0.000   0.000   0.000  -0.000   0.000  -0.000   0.000  -0.000   0.000  -0.000   0.000
 -0.000  -0.000   0.000   0.000   0.000   0.000   0.000  -0.000  -0.000  -0.000  -0.000   0.000   0.000  -0.000  -0.000  -0.000
  0.000   0.000   0.000  -0.000   0.000  -0.000  -0.000  -0.000   0.000  -0.000  -0.000   0.000  -0.000  -0.000   0.000  -0.000
 -0.000  -0.000   0.000   0.000   0.000   0.000   0.000  -0.000  -0.000  -0.000   0.000  -0.000  -0.000   0.000  -0.000  -0.000
  0.000   0.000   0.000  -0.000   0.000  -0.000  -0.000  -0.000   0.000  -0.000   0.000  -0.000  -0.000  -0.000   0.000  -0.000
  0.000   0.000   0.000  -0.000   0.000  -0.000  -0.000  -0.000   0.000  -0.000   0.000  -0.000  -0.000   0.000   0.000  -0.000
  0.000   0.000  -0.000  -0.000  -0.000  -0.000  -0.000  -0.000   0.000  -0.000   0.000  -0.000  -0.000  -0.000   0.000   0.000
 -0.000  -0.000  -0.000   0.000  -0.000   0.000   0.000   0.000  -0.000   0.000   0.000  -0.000   0.000   0.000  -0.000   0.000
  0.000   0.000  -0.000  -0.000  -0.000  -0.000  -0.000  -0.000   0.000  -0.000  -0.000   0.000   0.000  -0.000   0.000   0.000
 -0.000  -0.000  -0.000  -0.000   0.000   0.000   0.000   0.000   0.000  -0.000  -0.000   0.000   0.000  -0.000  -0.000   0.000
  0.000   0.000   0.000   0.000  -0.000  -0.000  -0.000  -0.000  -0.000   0.000   0.000  -0.000   0.000   0.000  -0.000  -0.000
  0.000  -0.000   0.000  -0.000  -0.000  -0.000  -0.000  -0.000   0.000   0.000   0.000   0.000   0.000  -0.000   0.000  -0.000
  0.000   0.000  -0.000  -0.000   0.000  -0.000   0.000  -0.000   0.000  -0.000  -0.000   0.000  -0.000  -0.000   0.000   0.000
 -0.000  -0.000  -0.000   0.000  -0.000   0.000   0.000   0.000  -0.000   0.000  -0.000  -0.000   0.000   0.000  -0.000   0.000
  0.000   0.000  -0.000  -0.000  -0.000  -0.000  -0.000   0.000   0.000   0.000   0.000  -0.000  -0.000   0.000   0.000   0.000
 -0.000  -0.000  -0.000   0.000  -0.000   0.000   0.000   0.000  -0.000   0.000  -0.000  -0.000   0.000   0.000  -0.000  -0.000
  0.000   0.000   0.000  -0.000   0.000  -0.000  -0.000  -0.000   0.000  -0.000   0.000  -0.000  -0.000  -0.000   0.000   0.000


------------------------ aborting loop because EDIFF is reached ----------------------------------------


    CHARGE:  cpu time    0.04: real time    0.05
    FORLOC:  cpu time    0.01: real time    0.01
    FORNL :  cpu time    0.24: real time    0.24
    STRESS:  cpu time    0.29: real time    0.29
    FORCOR:  cpu time    0.22: real time    0.22
    FORHAR:  cpu time    0.03: real time    0.03
    MIXING:  cpu time    0.01: real time    0.01
    OFIELD:  cpu time    0.00: real time    0.00

  FORCE on cell =-STRESS in cart. coord.  units (eV):
  Direction    XX          YY          ZZ          XY          YZ          ZX
  --------------------------------------------------------------------------------------
  Alpha Z    11.46709    11.46709    11.46709
  Ewald    1952.77652  1814.70927  4287.94350 -3064.06231 -3793.54374 -2162.09899
  Hartree  5287.31661  5287.28513  7412.52241 -2503.49722 -3193.74354 -1758.26126
  E(xc)    -579.58678  -580.09627  -579.02934    -1.81326    -1.86389    -1.30643
  Local   -8850.99261 -8719.81628-13310.01311  5551.53848  6973.56894  3908.56754
  n-local  -113.05091  -111.53699  -111.84289     1.66872     0.39229     1.20600
  augment   917.11553   918.71467   916.09331     4.64312     4.46865     3.39920
  Kinetic  1371.43651  1375.71195  1369.46744    11.55708    10.67280     8.39997
  Fock        0.00000     0.00000     0.00000     0.00000     0.00000     0.00000
  -------------------------------------------------------------------------------------
  Total      -3.51805    -3.56144    -3.39159     0.03461    -0.04850    -0.09396
  in kB      -0.75989    -0.76926    -0.73258     0.00748    -0.01048    -0.02030
  external pressure =       -0.75 kB  Pullay stress =        0.00 kB


 VOLUME and BASIS-vectors are now :
 -----------------------------------------------------------------------------
  energy-cutoff  :      249.84
  volume of cell :     7417.56
      direct lattice vectors                 reciprocal lattice vectors
    19.502352374  0.000000000  0.000000000     0.051275866  0.000000000  0.000000000
     0.000000000 19.502352374  0.000000000     0.000000000  0.051275866  0.000000000
     0.000000000  0.000000000 19.502352374     0.000000000  0.000000000  0.051275866

  length of vectors
    19.502352374 19.502352374 19.502352374     0.051275866  0.051275866  0.051275866


 FORCES acting on ions
    electron-ion (+dipol)            ewald-force                    non-local-force                 convergence-correction
 -----------------------------------------------------------------------------------------------
   -.240E+02 -.489E+03 0.519E+03   0.237E+02 0.484E+03 -.515E+03   0.330E+00 0.419E+01 -.417E+01   0.604E-03 -.357E-04 -.276E-01
   0.525E+03 -.469E+03 0.147E+03   -.520E+03 0.465E+03 -.146E+03   -.488E+01 0.370E+01 -.758E+00   -.116E-01 0.391E-02 0.231E-01
   0.298E+02 -.714E+02 0.153E+03   -.297E+02 0.712E+02 -.153E+03   -.135E+00 0.192E+00 -.557E+00   -.276E-01 0.715E-03 0.927E-02
   -.499E+03 0.299E+03 0.249E+03   0.495E+03 -.296E+03 -.247E+03   0.410E+01 -.234E+01 -.196E+01   0.451E-01 -.247E-01 0.192E-01
   -.515E+03 -.495E+02 0.496E+03   0.510E+03 0.496E+02 -.493E+03   0.481E+01 -.334E-01 -.384E+01   -.373E-02 -.541E-02 -.309E-01
   0.442E+02 0.158E+03 -.925E+02   -.439E+02 -.158E+03 0.924E+02   -.317E+00 -.713E+00 0.157E+00   0.244E-01 0.524E-01 0.128E-01
   -.482E+03 0.521E+03 -.105E+03   0.478E+03 -.516E+03 0.105E+03   0.444E+01 -.427E+01 0.266E+00   -.403E-01 0.248E-01 -.772E-02
   0.543E+03 -.247E+03 -.210E+03   -.539E+03 0.245E+03 0.209E+03   -.429E+01 0.213E+01 0.180E+01   0.198E-01 0.709E-03 -.129E-01
   0.443E+03 -.352E+02 -.560E+03   -.439E+03 0.342E+02 0.555E+03   -.403E+01 0.982E+00 0.455E+01   -.136E-02 -.137E-01 0.875E-02
   -.659E+02 0.382E+03 -.597E+03   0.651E+02 -.379E+03 0.592E+03   0.732E+00 -.293E+01 0.509E+01   -.114E-01 -.334E-01 0.131E-01
 -----------------------------------------------------------------------------------------------
   -.760E+00 -.901E+00 -.623E+00   0.114E-12 0.171E-12 0.341E-12   0.758E+00 0.900E+00 0.573E+00   -.618E-02 0.528E-02 0.716E-02
 
 
 POSITION                                       TOTAL-FORCE (eV/Angst)
 -----------------------------------------------------------------------------------
      9.75535     12.42714      6.60720        -0.000435     -0.004885     -0.019823
      7.62285     12.34848      8.32003        -0.009664      0.005396      0.015348
      9.65363     10.54749      8.58525        -0.005508     -0.000572     -0.003798
     11.62582      8.65562      8.84306         0.035846     -0.011633      0.008060
     11.74585     10.55632      6.84136        -0.008191     -0.006642     -0.019818
      9.69998      8.77249     10.79299         0.016878      0.036559      0.012022
     11.74564      6.96857     11.03782        -0.034462      0.020690     -0.004034
      7.71809     10.67766     10.52869         0.013552      0.000084     -0.004463
      7.94954      9.18351     12.84386         0.001442     -0.011052      0.005029
      9.99501      7.37448     13.11150        -0.009458     -0.027944      0.011475
 -----------------------------------------------------------------------------------
    total drift:                               -0.008785      0.004889     -0.043143


--------------------------------------------------------------------------------------------------------



  FREE ENERGIE OF THE ION-ELECTRON SYSTEM (eV)
  ---------------------------------------------------
  free  energy   TOTEN  =       -17.72635674 eV

  energy  without entropy=      -17.72635674  energy(sigma->0) =      -17.72635674
 
 d Force = 0.3866628E-03[ 0.320E-03, 0.453E-03]  d Energy = 0.4888879E-03-0.102E-03
 d Force = 0.8800927E+00[ 0.880E+00, 0.880E+00]  d Ewald  = 0.8800923E+00 0.339E-06


--------------------------------------------------------------------------------------------------------


    POTLOK:  cpu time    0.23: real time    0.23


--------------------------------------------------------------------------------------------------------




--------------------------------------------------------------------------------------------------------


  
 reached required accuracy - stopping structural energy minimisation
     LOOP+:  cpu time    2.93: real time    2.98
    4ORBIT:  cpu time    0.00: real time    0.00

 total amount of memory used by VASP on root node    53920. kBytes
========================================================================

   base      :      30000. kBytes
   nonl-proj :       1264. kBytes
   fftplans  :       5768. kBytes
   grid      :      14451. kBytes
   one-center:         31. kBytes
   wavefun   :       2406. kBytes
 
  
  
 General timing and accounting informations for this job:
 ========================================================
  
                  Total CPU time used (sec):       28.698
                            User time (sec):       28.086
                          System time (sec):        0.612
                         Elapsed time (sec):       31.587
  
                   Maximum memory used (kb):       60684.
                   Average memory used (kb):           0.
  
                          Minor page faults:        90769
                          Major page faults:            0
                 Voluntary context switches:         2465
