unknown system                          
           1
    19.615955    0.000000    0.000000
     0.000000   19.615955    0.000000
     0.000000    0.000000   19.615955
   Ag
  12
Direct configuration=     1
   0.57972589  0.58107550  0.49629828
   0.59140459  0.37306517  0.59276262
   0.50463807  0.59800537  0.62203363
   0.55398369  0.45162410  0.47784286
   0.47518578  0.68626473  0.52105137
   0.47483743  0.46703400  0.59301768
   0.41550808  0.41973476  0.43712294
   0.49358535  0.50698693  0.36016633
   0.47886827  0.34008195  0.52932166
   0.49569411  0.63948616  0.39704978
   0.61655355  0.50694458  0.60564303
   0.44242695  0.54858255  0.49283599
Direct configuration=     2
   0.57989254  0.58161692  0.49627983
   0.59150100  0.37302733  0.59296633
   0.50467450  0.59796317  0.62196971
   0.55406079  0.45116862  0.47768587
   0.47526101  0.68641765  0.52115284
   0.47486798  0.46666886  0.59345070
   0.41559622  0.41973041  0.43722478
   0.49359170  0.50708229  0.36028050
   0.47871348  0.33987615  0.52916626
   0.49564155  0.63951519  0.39678612
   0.61646766  0.50695190  0.60561953
   0.44214332  0.54886731  0.49256369
Direct configuration=     3
   0.58039249  0.58324118  0.49622446
   0.59179024  0.37291384  0.59357748
   0.50478381  0.59783655  0.62177795
   0.55429208  0.44980217  0.47721490
   0.47548671  0.68687640  0.52145725
   0.47495961  0.46557344  0.59474973
   0.41586063  0.41971739  0.43753033
   0.49361076  0.50736835  0.36062300
   0.47824913  0.33925875  0.52870006
   0.49548389  0.63960226  0.39599514
   0.61620999  0.50697389  0.60554906
   0.44129242  0.54972159  0.49174680
Direct configuration=     4
   0.58139238  0.58648970  0.49611374
   0.59236873  0.37268685  0.59479978
   0.50500242  0.59758332  0.62139444
   0.55475467  0.44706927  0.47627295
   0.47593812  0.68779390  0.52206607
   0.47514287  0.46338261  0.59734781
   0.41638945  0.41969133  0.43814141
   0.49364889  0.50794047  0.36130799
   0.47732041  0.33802394  0.52776767
   0.49516856  0.63977640  0.39441317
   0.61569464  0.50701786  0.60540812
   0.43959062  0.55143015  0.49011300
Direct configuration=     5
   0.58339217  0.59298674  0.49589229
   0.59352569  0.37223287  0.59724437
   0.50543965  0.59707686  0.62062742
   0.55567984  0.44160346  0.47438906
   0.47684094  0.68962891  0.52328371
   0.47550939  0.45900094  0.60254396
   0.41744708  0.41963923  0.43936359
   0.49372514  0.50908470  0.36267798
   0.47546299  0.33555432  0.52590288
   0.49453791  0.64012469  0.39124925
   0.61466394  0.50710581  0.60512622
   0.43618702  0.55484727  0.48684541
Direct configuration=     6
   0.58251851  0.59014834  0.49598904
   0.59302024  0.37243121  0.59617639
   0.50524863  0.59729812  0.62096251
   0.55527565  0.44399134  0.47521209
   0.47644652  0.68882724  0.52275175
   0.47534927  0.46091518  0.60027389
   0.41698503  0.41966199  0.43882965
   0.49369183  0.50858481  0.36207947
   0.47627445  0.33663324  0.52671756
   0.49481343  0.63997253  0.39263149
   0.61511422  0.50706739  0.60524937
   0.43767397  0.55335442  0.48827294
Direct configuration=     7
   0.58227681  0.58936307  0.49601580
   0.59288041  0.37248608  0.59588092
   0.50519579  0.59735934  0.62105522
   0.55516383  0.44465197  0.47543979
   0.47633740  0.68860545  0.52260458
   0.47530497  0.46144478  0.59964585
   0.41685720  0.41966829  0.43868193
   0.49368261  0.50844651  0.36191388
   0.47649895  0.33693173  0.52694295
   0.49488965  0.63993044  0.39301390
   0.61523880  0.50705676  0.60528345
   0.43808535  0.55294140  0.48866788
Direct configuration=     8
   0.58213296  0.58972289  0.49606205
   0.59253400  0.37219504  0.59621265
   0.50520877  0.59679081  0.62058608
   0.55527548  0.44457699  0.47562527
   0.47670311  0.68887417  0.52236975
   0.47555115  0.46114380  0.59975238
   0.41704138  0.42003316  0.43886945
   0.49377655  0.50839610  0.36235998
   0.47672787  0.33624517  0.52702144
   0.49466884  0.64061669  0.39271661
   0.61472196  0.50725410  0.60475176
   0.43806968  0.55303689  0.48881873
Direct configuration=     9
   0.58170143  0.59080234  0.49620081
   0.59149477  0.37132191  0.59720783
   0.50524773  0.59508522  0.61917865
   0.55561041  0.44435206  0.47618173
   0.47780023  0.68968034  0.52166527
   0.47628969  0.46024087  0.60007199
   0.41759394  0.42112777  0.43943201
   0.49405836  0.50824485  0.36369826
   0.47741464  0.33418551  0.52725692
   0.49400642  0.64267545  0.39182472
   0.61317144  0.50784612  0.60315671
   0.43802270  0.55332336  0.48927126
Direct configuration=    10
   0.58083836  0.59296126  0.49647833
   0.58941631  0.36957567  0.59919820
   0.50532565  0.59167404  0.61636378
   0.55628028  0.44390220  0.47729464
   0.47999447  0.69129267  0.52025631
   0.47776677  0.45843501  0.60071120
   0.41869907  0.42331699  0.44055714
   0.49462198  0.50794234  0.36637482
   0.47878817  0.33006618  0.52772787
   0.49268158  0.64679298  0.39004095
   0.61007040  0.50903016  0.59996660
   0.43792872  0.55389631  0.49017633
Direct configuration=    11
   0.58125352  0.59192275  0.49634484
   0.59041612  0.37041567  0.59824077
   0.50528817  0.59331493  0.61771783
   0.55595805  0.44411860  0.47675929
   0.47893897  0.69051709  0.52093407
   0.47705624  0.45930369  0.60040372
   0.41816747  0.42226390  0.44001591
   0.49435086  0.50808786  0.36508730
   0.47812745  0.33204772  0.52750132
   0.49331888  0.64481231  0.39089901
   0.61156211  0.50846060  0.60150115
   0.43797393  0.55362070  0.48974096
Direct configuration=    12
   0.58097326  0.59244238  0.49586241
   0.58997758  0.37011044  0.59886740
   0.50474600  0.59307017  0.61712096
   0.55612203  0.44408602  0.47721476
   0.47953584  0.69088358  0.52071231
   0.47704845  0.45857146  0.60029628
   0.41844385  0.42234402  0.44078755
   0.49472983  0.50860482  0.36569420
   0.47834913  0.33129963  0.52731164
   0.49290346  0.64541468  0.39051699
   0.61142400  0.50814180  0.60072286
   0.43815833  0.55391679  0.49003880
Direct configuration=    13
   0.58013248  0.59400129  0.49441513
   0.58866198  0.36919474  0.60074732
   0.50311950  0.59233589  0.61533038
   0.55661395  0.44398829  0.47858116
   0.48132646  0.69198307  0.52004705
   0.47702506  0.45637480  0.59997395
   0.41927302  0.42258439  0.44310247
   0.49586674  0.51015572  0.36751489
   0.47901417  0.32905536  0.52674258
   0.49165720  0.64722180  0.38937092
   0.61100969  0.50718541  0.59838800
   0.43871151  0.55480505  0.49093232
Direct configuration=    14
   0.57845091  0.59711911  0.49152058
   0.58603076  0.36736333  0.60450715
   0.49986648  0.59086733  0.61174920
   0.55759781  0.44379283  0.48131396
   0.48490769  0.69418205  0.51871653
   0.47697828  0.45198146  0.59932930
   0.42093135  0.42306511  0.44773230
   0.49814057  0.51325753  0.37115628
   0.48034424  0.32456682  0.52560447
   0.48916469  0.65083605  0.38707880
   0.61018107  0.50527262  0.59371827
   0.43981789  0.55658157  0.49271935
Direct configuration=    15
   0.57888725  0.59681897  0.48918735
   0.58584061  0.36621345  0.60661545
   0.49846592  0.59044549  0.61184027
   0.55788916  0.44333324  0.48116609
   0.48599833  0.69630970  0.51870029
   0.47493715  0.45091959  0.59869242
   0.42193864  0.42308966  0.45047739
   0.49955607  0.51509780  0.37312953
   0.48092415  0.32302537  0.52438212
   0.48757270  0.65157871  0.38619999
   0.61097223  0.50498523  0.59236120
   0.43942954  0.55706857  0.49239406
Direct configuration=    16
   0.57924021  0.59657618  0.48729998
   0.58568680  0.36528331  0.60832087
   0.49733299  0.59010426  0.61191395
   0.55812483  0.44296148  0.48104647
   0.48688056  0.69803078  0.51868715
   0.47328607  0.45006064  0.59817724
   0.42275345  0.42310952  0.45269792
   0.50070108  0.51658642  0.37472571
   0.48139325  0.32177848  0.52339335
   0.48628492  0.65217946  0.38548912
   0.61161220  0.50475276  0.59126346
   0.43911539  0.55746251  0.49213093
Direct configuration=    17
   0.57904038  0.59507510  0.48659800
   0.58530660  0.36579107  0.60878876
   0.49777894  0.58997681  0.61224478
   0.55857427  0.44204826  0.48046853
   0.48750246  0.69794610  0.51901161
   0.47252057  0.45065156  0.59714751
   0.42258631  0.42343141  0.45332829
   0.50154977  0.51664108  0.37498788
   0.48253417  0.32158360  0.52320433
   0.48528810  0.65242329  0.38609117
   0.61158413  0.50508676  0.59153164
   0.43814606  0.55823076  0.49174366
Direct configuration=    18
   0.57844086  0.59057186  0.48449206
   0.58416600  0.36731437  0.61019242
   0.49911677  0.58959448  0.61323728
   0.55992260  0.43930861  0.47873469
   0.48936816  0.69769207  0.51998500
   0.47022410  0.45242431  0.59405830
   0.42208489  0.42439707  0.45521938
   0.50409584  0.51680505  0.37577436
   0.48595691  0.32099898  0.52263730
   0.48229763  0.65315477  0.38789732
   0.61149991  0.50608875  0.59233619
   0.43523808  0.56053550  0.49058186
Direct configuration=    19
   0.57724183  0.58156539  0.48028019
   0.58188480  0.37036096  0.61299974
   0.50179243  0.58882982  0.61522229
   0.56261927  0.43382931  0.47526702
   0.49309957  0.69718400  0.52193178
   0.46563115  0.45596980  0.58787989
   0.42108204  0.42632838  0.45900156
   0.50918798  0.51713298  0.37734733
   0.49280240  0.31982972  0.52150322
   0.47631670  0.65461773  0.39150963
   0.61133148  0.50809273  0.59394528
   0.42942212  0.56514498  0.48825824
Direct configuration=    20
   0.57807385  0.58781510  0.48320286
   0.58346775  0.36824689  0.61105170
   0.49993575  0.58936043  0.61384487
   0.56074802  0.43763147  0.47767328
   0.49051030  0.69753656  0.52058089
   0.46881825  0.45350954  0.59216717
   0.42177793  0.42498822  0.45637705
   0.50565448  0.51690542  0.37625583
   0.48805223  0.32064108  0.52229017
   0.48046694  0.65360256  0.38900300
   0.61144836  0.50670214  0.59282871
   0.43345789  0.56194640  0.48987063
Direct configuration=    21
   0.57707866  0.58652942  0.48273843
   0.58303860  0.36959749  0.61170121
   0.50021122  0.58972129  0.61313282
   0.56170090  0.43666759  0.47786212
   0.49158657  0.69674908  0.52141023
   0.46877822  0.45407988  0.59074872
   0.42182411  0.42541034  0.45689735
   0.50616977  0.51703943  0.37662884
   0.48895008  0.32074905  0.52168449
   0.47936724  0.65345628  0.38940638
   0.61103285  0.50605391  0.59294286
   0.43267356  0.56283203  0.48999273
Direct configuration=    22
   0.57593489  0.58505181  0.48220466
   0.58254538  0.37114971  0.61244768
   0.50052781  0.59013602  0.61231448
   0.56279604  0.43555982  0.47807914
   0.49282351  0.69584404  0.52236337
   0.46873220  0.45473537  0.58911851
   0.42187718  0.42589549  0.45749532
   0.50676198  0.51719345  0.37705753
   0.48998197  0.32087315  0.52098839
   0.47810335  0.65328815  0.38986998
   0.61055530  0.50530892  0.59307404
   0.43177215  0.56384986  0.49013307
Direct configuration=    23
   0.57541466  0.58437973  0.48196188
   0.58232104  0.37185573  0.61278721
   0.50067181  0.59032466  0.61194226
   0.56329416  0.43505596  0.47817785
   0.49338612  0.69543239  0.52279690
   0.46871127  0.45503352  0.58837702
   0.42190132  0.42611615  0.45776730
   0.50703134  0.51726350  0.37725252
   0.49045132  0.32092959  0.52067177
   0.47752849  0.65321168  0.39008084
   0.61033810  0.50497006  0.59313371
   0.43136214  0.56431281  0.49019690
Direct configuration=    24
   0.57500288  0.58440499  0.48237562
   0.58201368  0.37185698  0.61346868
   0.50069193  0.59042853  0.61170014
   0.56397959  0.43501151  0.47808247
   0.49417469  0.69555908  0.52287839
   0.46922904  0.45533416  0.58809095
   0.42225874  0.42652101  0.45732234
   0.50661682  0.51679339  0.37754897
   0.49044368  0.32095218  0.52012551
   0.47700342  0.65309383  0.38985852
   0.61030472  0.50486230  0.59313323
   0.43069257  0.56406784  0.49056134
Direct configuration=    25
   0.57395213  0.58446942  0.48343135
   0.58122940  0.37186017  0.61520761
   0.50074328  0.59069358  0.61108231
   0.56572862  0.43489807  0.47783910
   0.49618688  0.69588235  0.52308632
   0.47055023  0.45610132  0.58736099
   0.42317078  0.42755409  0.45618695
   0.50555909  0.51559379  0.37830542
   0.49042419  0.32100983  0.51873161
   0.47566359  0.65279310  0.38929123
   0.61021955  0.50458733  0.59313200
   0.42898402  0.56344276  0.49149128
Direct configuration=    26
   0.57347378  0.58457934  0.48356339
   0.58050097  0.37127545  0.61579664
   0.50064517  0.59097893  0.61141286
   0.56653602  0.43474921  0.47769398
   0.49702077  0.69656053  0.52241416
   0.47112076  0.45598217  0.58707045
   0.42373122  0.42734388  0.45564744
   0.50494655  0.51559352  0.37869850
   0.49052755  0.32153810  0.51814767
   0.47505350  0.65207507  0.38960836
   0.61058548  0.50451239  0.59336691
   0.42826999  0.56369719  0.49172580
Direct configuration=    27
   0.57276407  0.58474242  0.48375930
   0.57942019  0.37040790  0.61667058
   0.50049961  0.59140231  0.61190329
   0.56773396  0.43452836  0.47747868
   0.49825803  0.69756675  0.52141687
   0.47196724  0.45580540  0.58663937
   0.42456274  0.42703199  0.45484696
   0.50403771  0.51559312  0.37928171
   0.49068090  0.32232190  0.51728129
   0.47414831  0.65100973  0.39007889
   0.61112841  0.50440121  0.59371545
   0.42721059  0.56407470  0.49207376
Direct configuration=    28
   0.57273003  0.58429031  0.48386921
   0.57907458  0.37000469  0.61675702
   0.50042409  0.59178097  0.61161249
   0.56826075  0.43482743  0.47740668
   0.49849711  0.69800317  0.52108226
   0.47199297  0.45598803  0.58630077
   0.42449841  0.42677722  0.45479585
   0.50404249  0.51578253  0.37921544
   0.49101684  0.32239951  0.51728346
   0.47380692  0.65083308  0.39040322
   0.61102581  0.50404198  0.59379891
   0.42704173  0.56415687  0.49262085
Direct configuration=    29
   0.57269712  0.58385308  0.48397550
   0.57874034  0.36961475  0.61684062
   0.50035105  0.59214717  0.61133125
   0.56877022  0.43511667  0.47733706
   0.49872832  0.69842523  0.52075866
   0.47201786  0.45616466  0.58597332
   0.42443620  0.42653084  0.45474643
   0.50404712  0.51596571  0.37915135
   0.49134173  0.32247456  0.51728555
   0.47347676  0.65066223  0.39071688
   0.61092659  0.50369457  0.59387961
   0.42687844  0.56423634  0.49314994
Direct configuration=    30
   0.57271541  0.58366407  0.48408224
   0.57864767  0.36948726  0.61694327
   0.50059607  0.59257930  0.61106044
   0.56870346  0.43521651  0.47703937
   0.49894126  0.69856604  0.52067236
   0.47191824  0.45642154  0.58573106
   0.42451098  0.42666229  0.45481212
   0.50405085  0.51589764  0.37916861
   0.49171523  0.32240974  0.51719218
   0.47316316  0.65081598  0.39088443
   0.61059956  0.50326553  0.59431292
   0.42684989  0.56389988  0.49324716
Direct configuration=    31
   0.57271946  0.58362218  0.48410589
   0.57862714  0.36945901  0.61696602
   0.50065036  0.59267507  0.61100043
   0.56868867  0.43523864  0.47697340
   0.49898845  0.69859725  0.52065324
   0.47189616  0.45647847  0.58567737
   0.42452755  0.42669143  0.45482668
   0.50405167  0.51588255  0.37917244
   0.49179800  0.32239538  0.51717149
   0.47309366  0.65085005  0.39092157
   0.61052709  0.50317045  0.59440894
   0.42684356  0.56382532  0.49326871
Direct configuration=    32
   0.57276402  0.58364781  0.48414009
   0.57858793  0.36944431  0.61704661
   0.50088697  0.59280338  0.61104960
   0.56857969  0.43512373  0.47692079
   0.49908230  0.69862545  0.52063259
   0.47189861  0.45651613  0.58579692
   0.42449734  0.42657529  0.45485565
   0.50404599  0.51605669  0.37908357
   0.49193508  0.32237964  0.51697995
   0.47295837  0.65081554  0.39096584
   0.61030793  0.50308697  0.59463860
   0.42686755  0.56381085  0.49303594
Direct configuration=    33
   0.57276578  0.58364882  0.48414144
   0.57858638  0.36944373  0.61704980
   0.50089635  0.59280847  0.61105155
   0.56857537  0.43511918  0.47691871
   0.49908602  0.69862657  0.52063178
   0.47189871  0.45651763  0.58580166
   0.42449614  0.42657069  0.45485680
   0.50404576  0.51606359  0.37908005
   0.49194051  0.32237901  0.51697236
   0.47295301  0.65081417  0.39096759
   0.61029924  0.50308366  0.59464770
   0.42686850  0.56381028  0.49302672
