 vasp.5.3.5 31Mar14 (build Feb 01 2018 12:10:03) gamma-only                     
  
 executed on             LinuxIFC date 2019.03.21  22:26:04
 running on   32 total cores
 distrk:  each k-point on   32 cores,    1 groups
 distr:  one band on NCORES_PER_BAND=   8 cores,    4 groups


--------------------------------------------------------------------------------------------------------


 INCAR:
 POTCAR:    PAW_PBE Ag 02Apr2005                  
 POTCAR:    PAW_PBE Ag 02Apr2005                  
   VRHFIN =Ag : s1 d10                                                          
   LEXCH  = PE                                                                  
   EATOM  =  1037.2675 eV,   76.2370 Ry                                         
                                                                                
   TITEL  = PAW_PBE Ag 02Apr2005                                                
   LULTRA =        F    use ultrasoft PP ?                                      
   IUNSCR =        1    unscreen: 0-lin 1-nonlin 2-no                           
   RPACOR =    2.000    partial core radius                                     
   POMASS =  107.868; ZVAL   =   11.000    mass and valenz                      
   RCORE  =    2.500    outmost cutoff radius                                   
   RWIGS  =    2.840; RWIGS  =    1.503    wigner-seitz radius (au A)           
   ENMAX  =  249.844; ENMIN  =  187.383 eV                                      
   ICORE  =        3    local potential                                         
   LCOR   =        T    correct aug charges                                     
   LPAW   =        T    paw PP                                                  
   EAUG   =  412.496                                                            
   DEXC   =    0.000                                                            
   RMAX   =    2.560    core radius for proj-oper                               
   RAUG   =    1.300    factor for augmentation sphere                          
   RDEP   =    2.576    radius for radial grids                                 
   RDEPT  =    2.072    core radius for aug-charge                              
                                                                                
   Atomic configuration                                                         
   12 entries                                                                   
     n  l   j            E        occ.                                          
     1  0  0.50    -25324.9161   2.0000                                         
     2  0  0.50     -3728.5341   2.0000                                         
     2  1  1.50     -3344.0404   6.0000                                         
     3  0  0.50      -683.5581   2.0000                                         
     3  1  1.50      -557.3225   6.0000                                         
     3  2  2.50      -358.3853  10.0000                                         
     4  0  0.50       -95.0341   2.0000                                         
     4  1  1.50       -58.5511   6.0000                                         
     4  2  2.50        -7.4440  10.0000                                         
     5  0  0.50        -4.4045   1.0000                                         
     5  1  0.50        -1.3606   0.0000                                         
     4  3  2.50        -1.3606   0.0000                                         
   Description                                                                  
     l       E           TYP  RCUT    TYP  RCUT                                 
     2     -7.4439781     23  2.400                                             
     2     -8.8045607     23  2.400                                             
     0     -4.4044681     23  2.400                                             
     0      1.9520038     23  2.400                                             
     1     -1.3605826     23  2.500                                             
     1     27.2116520     23  2.500                                             
     3     -4.0817478     23  2.400                                             
  local pseudopotential read in
  partial core-charges read in
  partial kinetic energy density read in
  atomic valenz-charges read in
  non local Contribution for L=           2  read in
    real space projection operators read in
  non local Contribution for L=           2  read in
    real space projection operators read in
  non local Contribution for L=           0  read in
    real space projection operators read in
  non local Contribution for L=           0  read in
    real space projection operators read in
  non local Contribution for L=           1  read in
    real space projection operators read in
  non local Contribution for L=           1  read in
    real space projection operators read in
    PAW grid and wavefunctions read in
 
   number of l-projection  operators is LMAX  =           6
   number of lm-projection operators is LMMAX =          18
 

 ----------------------------------------------------------------------------- 
|                                                                             |
|  ADVICE TO THIS USER RUNNING 'VASP/VAMP'   (HEAR YOUR MASTER'S VOICE ...):  |
|                                                                             |
|      You have a (more or less) 'large supercell' and for larger cells       |
|      it might be more efficient to use real space projection opertators     |
|      So try LREAL= Auto  in the INCAR   file.                               |
|      Mind: At the moment your POTCAR file does not contain real space       |
|       projectors, and has to be modified,  BUT if you                       |
|      want to do an extremely  accurate calculation you might also keep the  |
|      reciprocal projection scheme          (i.e. LREAL=.FALSE.)             |
|                                                                             |
 ----------------------------------------------------------------------------- 

  PAW_PBE Ag 02Apr2005                  :
 energy of atom  1       EATOM=-1037.2675
 kinetic energy error for atom=    0.0689 (will be added to EATOM!!)
 
 
 POSCAR: Ti23, -147.87602242 <s> Ag </s>         
  positions in direct lattice
  No initial velocities read in
 exchange correlation table for  LEXCH =        8
   RHO(1)=    0.500       N(1)  =     2000
   RHO(2)=  100.500       N(2)  =     4000
 


--------------------------------------------------------------------------------------------------------


 ion  position               nearest neighbor table
   1  0.651  0.587  0.511-   7 2.59   5 2.64   4 2.70   3 2.72   2 2.74   9 2.75
   2  0.608  0.516  0.410-   6 2.69   1 2.74  18 2.75   5 2.83  13 2.83   3 2.88   9 2.88  15 3.31

   3  0.554  0.639  0.440-   1 2.72   8 2.73  15 2.74   6 2.79  10 2.86   2 2.88   4 2.92   9 3.45

   4  0.550  0.629  0.579-   1 2.70   8 2.72  11 2.77   9 2.78   7 2.79   3 2.92  14 2.94  15 3.37

   5  0.671  0.463  0.517-  13 2.56   1 2.64   9 2.65   7 2.77   2 2.83  16 3.06
   6  0.505  0.559  0.346-  10 2.51  18 2.56   2 2.69  15 2.72  17 2.77   3 2.79
   7  0.636  0.536  0.622-  11 2.58   1 2.59   9 2.62   5 2.77   4 2.79  16 3.19
   8  0.449  0.671  0.509-  10 2.63  14 2.66  12 2.67   4 2.72   3 2.73  15 2.75
   9  0.552  0.504  0.535-  15 2.46  16 2.50   7 2.62   5 2.65   1 2.75  11 2.77   4 2.78  13 2.80
                             2 2.88  19 2.99  21 3.04  14 3.43   3 3.45  18 3.53
  10  0.428  0.640  0.390-   6 2.51   8 2.63  12 2.65  15 2.66  17 2.82   3 2.86
  11  0.519  0.528  0.660-  19 2.52   7 2.58  14 2.74   9 2.77   4 2.77  16 3.08
  12  0.350  0.596  0.480-  20 2.57  15 2.62  10 2.65   8 2.67  14 2.78  17 2.81
  13  0.584  0.394  0.464-   5 2.56  21 2.59  18 2.59   9 2.80   2 2.83  16 2.84  22 2.95
  14  0.419  0.579  0.592-   8 2.66  19 2.70  11 2.74  12 2.78  15 2.83  20 2.90   4 2.94   9 3.43

  15  0.465  0.547  0.469-   9 2.46  17 2.57  12 2.62  10 2.66   6 2.72  20 2.73   3 2.74   8 2.75
                            14 2.83  18 2.90   2 3.31   4 3.37  21 3.39  19 3.55
  16  0.565  0.403  0.598-   9 2.50  22 2.76  23 2.76  19 2.82  21 2.83  13 2.84   5 3.06  11 3.08
                             7 3.19
  17  0.386  0.512  0.382-  15 2.57   6 2.77  18 2.80  12 2.81  10 2.82  20 2.90
  18  0.501  0.443  0.385-   6 2.56  13 2.59   2 2.75  17 2.80  21 2.83  15 2.90   9 3.53
  19  0.440  0.453  0.608-  11 2.52  20 2.59  21 2.59  14 2.70  16 2.82  23 2.93   9 2.99  15 3.55

  20  0.363  0.479  0.514-  12 2.57  19 2.59  15 2.73  21 2.88  17 2.90  14 2.90
  21  0.467  0.390  0.505-  19 2.59  13 2.59  22 2.76  23 2.77  16 2.83  18 2.83  20 2.88   9 3.04
                            15 3.39
  22  0.540  0.286  0.543-  23 2.23  16 2.76  21 2.76  13 2.95
  23  0.467  0.316  0.615-  22 2.23  16 2.76  21 2.77  19 2.93
 
  LATTYP: Found a simple cubic cell.
 ALAT       =    20.9269962297
  
  Lattice vectors:
  
 A1 = (  20.9269962297,   0.0000000000,   0.0000000000)
 A2 = (   0.0000000000,  20.9269962297,   0.0000000000)
 A3 = (   0.0000000000,   0.0000000000,  20.9269962297)


Analysis of symmetry for initial positions (statically):
=====================================================================
 Subroutine PRICEL returns:
 Original cell was already a primitive cell.
 

 Routine SETGRP: Setting up the symmetry group for a 
 simple cubic supercell.


 Subroutine GETGRP returns: Found  1 space group operations
 (whereof  1 operations were pure point group operations)
 out of a pool of 48 trial point group operations.


The static configuration has the point symmetry C_1 .


Analysis of symmetry for dynamics (positions and initial velocities):
=====================================================================
 Subroutine PRICEL returns:
 Original cell was already a primitive cell.
 

 Routine SETGRP: Setting up the symmetry group for a 
 simple cubic supercell.


 Subroutine GETGRP returns: Found  1 space group operations
 (whereof  1 operations were pure point group operations)
 out of a pool of 48 trial point group operations.


The dynamic configuration has the point symmetry C_1 .


Analysis of magnetic symmetry:
=====================================================================
 Subroutine PRICEL returns:
 Original cell was already a primitive cell.
 

 Subroutine MAGSYM returns: Found  1 space group operations
 (whereof  1 operations were pure point group operations)
 out of a pool of  1 trial space group operations
 (whereof  1 operations were pure point group operations)
 and found also     1 'primitive' translations


The magnetic configuration has the point symmetry C_1 .
 
 
 KPOINTS: Gamma-point only                        
  k-points in reciprocal lattice
Space group operators:
 irot       det(A)        alpha          n_x          n_y          n_z        tau_x        tau_y        tau_z
    1     1.000000     0.000001     1.000000     0.000000     0.000000     0.000000     0.000000     0.000000


--------------------------------------------------------------------------------------------------------




 Dimension of arrays:
   k-points           NKPTS =      1   k-points in BZ     NKDIM =      1   number of bands    NBANDS=    164
   number of dos      NEDOS =    301   number of ions     NIONS =     23
   non local maximal  LDIM  =      6   non local SUM 2l+1 LMDIM =     18
   total plane-waves  NPLWV = 592704
   max r-space proj   IRMAX =      1   max aug-charges    IRDMAX=   3379
   dimension x,y,z NGX =    84 NGY =   84 NGZ =   84
   dimension x,y,z NGXF=   168 NGYF=  168 NGZF=  168
   support grid    NGXF=   168 NGYF=  168 NGZF=  168
   ions per type =              23
 NGX,Y,Z   is equivalent  to a cutoff of   6.67,  6.67,  6.67 a.u.
 NGXF,Y,Z  is equivalent  to a cutoff of  13.35, 13.35, 13.35 a.u.


 I would recommend the setting:
   dimension x,y,z NGX =    81 NGY =   81 NGZ =   81
 SYSTEM =  unknown system                          
 POSCAR =  Ti23, -147.87602242 <s> Ag </s>         

 Startparameter for this run:
   NWRITE =      2    write-flag & timer
   PREC   = normal    normal or accurate (medium, high low for compatibility)
   ISTART =      0    job   : 0-new  1-cont  2-samecut
   ICHARG =      2    charge: 1-file 2-atom 10-const
   ISPIN  =      2    spin polarized calculation?
   LNONCOLLINEAR =      F non collinear calculations
   LSORBIT =      F    spin-orbit coupling
   INIWAV =      1    electr: 0-lowe 1-rand  2-diag
   LASPH  =      F    aspherical Exc in radial PAW
   METAGGA=      F    non-selfconsistent MetaGGA calc.

 Electronic Relaxation 1
   ENCUT  =  249.8 eV  18.36 Ry    4.29 a.u.  26.97 26.97 26.97*2*pi/ulx,y,z
   ENINI  =  249.8     initial cutoff
   ENAUG  =  412.5 eV  augmentation charge cutoff
   NELM   =     60;   NELMIN=  2; NELMDL= -5     # of ELM steps 
   EDIFF  = 0.1E-03   stopping-criterion for ELM
   LREAL  =      F    real-space projection
   NLSPLINE    = F    spline interpolate recip. space projectors
   LCOMPAT=      F    compatible to vasp.4.4
   GGA_COMPAT  = T    GGA compatible to vasp.4.4-vasp.4.6
   LMAXPAW     = -100 max onsite density
   LMAXMIX     =    2 max onsite mixed and CHGCAR
   VOSKOWN=      0    Vosko Wilk Nusair interpolation
   ROPT   =    0.00000
 Ionic relaxation
   EDIFFG = 0.1E-02   stopping-criterion for IOM
   NSW    =   1000    number of steps for IOM
   NBLOCK =      1;   KBLOCK =   1000    inner block; outer block 
   IBRION =      2    ionic relax: 0-MD 1-quasi-New 2-CG
   NFREE  =      1    steps in history (QN), initial steepest desc. (CG)
   ISIF   =      2    stress and relaxation
   IWAVPR =     11    prediction:  0-non 1-charg 2-wave 3-comb
   ISYM   =      2    0-nonsym 1-usesym 2-fastsym
   LCORR  =      T    Harris-Foulkes like correction to forces

   POTIM  = 0.1000    time-step for ionic-motion
   TEIN   =    0.0    initial temperature
   TEBEG  =    0.0;   TEEND  =   0.0 temperature during run
   SMASS  =  -3.00    Nose mass-parameter (am)
   estimated Nose-frequenzy (Omega)   =  0.10E-29 period in steps =****** mass=  -0.100E-25a.u.
   SCALEE = 1.0000    scale energy and forces
   NPACO  =    256;   APACO  = 16.0  distance and # of slots for P.C.
   PSTRESS=    0.0 pullay stress

  Mass of Ions in am
   POMASS = 107.87
  Ionic Valenz
   ZVAL   =  11.00
  Atomic Wigner-Seitz radii
   RWIGS  =  -1.00
  virtual crystal weights 
   VCA    =   1.00
   NELECT =     253.0000    total number of electrons
   NUPDOWN=      -1.0000    fix difference up-down

 DOS related values:
   EMIN   =  10.00;   EMAX   =-10.00  energy-range for DOS
   EFERMI =   0.00
   ISMEAR =     0;   SIGMA  =   0.00  broadening in eV -4-tet -1-fermi 0-gaus

 Electronic relaxation 2 (details)
   IALGO  =     38    algorithm
   LDIAG  =      T    sub-space diagonalisation (order eigenvalues)
   LSUBROT=      F    optimize rotation matrix (better conditioning)
   TURBO    =      0    0=normal 1=particle mesh
   IRESTART =      0    0=no restart 2=restart with 2 vectors
   NREBOOT  =      0    no. of reboots
   NMIN     =      0    reboot dimension
   EREF     =   0.00    reference energy to select bands
   IMIX   =      4    mixing-type and parameters
     AMIX     =   0.40;   BMIX     =  1.00
     AMIX_MAG =   1.60;   BMIX_MAG =  1.00
     AMIN     =   0.10
     WC   =   100.;   INIMIX=   1;  MIXPRE=   1;  MAXMIX= -45

 Intra band minimization:
   WEIMIN = 0.0010     energy-eigenvalue tresh-hold
   EBREAK =  0.15E-06  absolut break condition
   DEPER  =   0.30     relativ break condition  

   TIME   =   0.40     timestep for ELM

  volume/ion in A,a.u.               =     398.47      2688.99
  Fermi-wavevector in a.u.,A,eV,Ry     =   0.494775  0.934990  3.330743  0.244803
  Thomas-Fermi vector in A             =   1.499885
 
 Write flags
   LWAVE  =      F    write WAVECAR
   LCHARG =      F    write CHGCAR
   LVTOT  =      F    write LOCPOT, total local potential
   LVHAR  =      F    write LOCPOT, Hartree potential only
   LELF   =      F    write electronic localiz. function (ELF)
   LORBIT =      0    0 simple, 1 ext, 2 COOP (PROOUT)


 Dipole corrections
   LMONO  =      F    monopole corrections only (constant potential shift)
   LDIPOL =      F    correct potential (dipole corrections)
   IDIPOL =      0    1-x, 2-y, 3-z, 4-all directions 
   EPSILON=  1.0000000 bulk dielectric constant

 Exchange correlation treatment:
   GGA     =    PE    GGA type
   LEXCH   =     8    internal setting for exchange type
   VOSKOWN=      0    Vosko Wilk Nusair interpolation
   LHFCALC =     F    Hartree Fock is set to
   LHFONE  =     F    Hartree Fock one center treatment
   AEXX    =    0.0000 exact exchange contribution

 Linear response parameters
   LEPSILON=     F    determine dielectric tensor
   LRPA    =     F    only Hartree local field effects (RPA)
   LNABLA  =     F    use nabla operator in PAW spheres
   LVEL    =     F    velocity operator in full k-point grid
   LINTERFAST=   F  fast interpolation
   KINTER  =     0    interpolate to denser k-point grid
   CSHIFT  =0.1000    complex shift for real part using Kramers Kronig
   OMEGAMAX=  -1.0    maximum frequency
   DEG_THRESHOLD= 0.2000000E-02 threshold for treating states as degnerate
   RTIME   =    0.100 relaxation time in fs

 Orbital magnetization related:
   ORBITALMAG=     F  switch on orbital magnetization
   LCHIMAG   =     F  perturbation theory with respect to B field
   DQ        =  0.001000  dq finite difference perturbation B field



--------------------------------------------------------------------------------------------------------


 conjugate gradient relaxation of ions
 charge density and potential will be updated during run
 spin polarized calculation
 Variant of blocked Davidson
 Davidson routine will perform the subspace rotation
 perform sub-space diagonalisation
    after iterative eigenvector-optimisation
 modified Broyden-mixing scheme, WC =      100.0
 initial mixing is a Kerker type mixing with AMIX =  0.4000 and BMIX =      1.0000
 Hartree-type preconditioning will be used
 using additional bands           37
 reciprocal scheme for non local part
 use partial core corrections
 calculate Harris-corrections to forces 
   (improved forces if not selfconsistent)
 use gradient corrections 
 use of overlap-Matrix (Vanderbilt PP)
 Gauss-broadening in eV      SIGMA  =   0.00


--------------------------------------------------------------------------------------------------------


  energy-cutoff  :      249.84
  volume of cell :     9164.75
      direct lattice vectors                 reciprocal lattice vectors
    20.926996230  0.000000000  0.000000000     0.047785167  0.000000000  0.000000000
     0.000000000 20.926996230  0.000000000     0.000000000  0.047785167  0.000000000
     0.000000000  0.000000000 20.926996230     0.000000000  0.000000000  0.047785167

  length of vectors
    20.926996230 20.926996230 20.926996230     0.047785167  0.047785167  0.047785167


 
 k-points in units of 2pi/SCALE and weight: Gamma-point only                        
   0.00000000  0.00000000  0.00000000       1.000
 
 k-points in reciprocal lattice and weights: Gamma-point only                        
   0.00000000  0.00000000  0.00000000       1.000
 
 position of ions in fractional coordinates (direct lattice) 
   0.65071026  0.58731144  0.51056392
   0.60803183  0.51612723  0.40952318
   0.55432060  0.63882032  0.44040003
   0.54963611  0.62856535  0.57931750
   0.67071795  0.46292976  0.51682327
   0.50481882  0.55904443  0.34559759
   0.63564417  0.53572892  0.62185674
   0.44853272  0.67131036  0.50937822
   0.55221698  0.50361208  0.53453607
   0.42754536  0.63961625  0.38957330
   0.51856416  0.52831677  0.65999197
   0.34993964  0.59619108  0.47987259
   0.58416930  0.39439955  0.46377715
   0.41889370  0.57930971  0.59205335
   0.46498398  0.54746304  0.46893623
   0.56489688  0.40295055  0.59805127
   0.38638617  0.51174653  0.38184657
   0.50146362  0.44334762  0.38542861
   0.44042842  0.45326670  0.60761032
   0.36348451  0.47899536  0.51433528
   0.46744882  0.38951202  0.50496248
   0.53990800  0.28607288  0.54262776
   0.46732361  0.31593045  0.61483044
 
 position of ions in cartesian coordinates  (Angst):
  13.61741110 12.29066438 10.68456916
  12.72427980 10.80099265  8.57009001
  11.60026501 13.36859035  9.21624978
  11.50223280 13.15398474 12.12337513
  14.03611195  9.68772928 10.81555869
  10.56434164 11.69912061  7.23231944
  13.30212322 11.21119704 13.01359361
   9.38644260 14.04850940 10.65975617
  11.55624262 10.53908808 11.18623428
   8.94724017 13.38524691  8.15259900
  10.85199019 11.05608305 13.81164937
   7.32318551 12.47648845 10.04229184
  12.22490877  8.25359797  9.70546276
   8.76618680 12.12321221 12.38989820
   9.73071809 11.45675693  9.81342661
  11.82159490  8.43254465 12.51541664
   8.08590182 10.70931772  7.99090169
  10.49412738  9.27793402  8.06586309
   9.21684382  9.48551055 12.71545886
   7.60663895 10.02393401 10.76349251
   9.78229968  8.15131648 10.56734797
  11.29865270  5.98664605 11.35556917
   9.77967943  6.61147542 12.86655439
 


--------------------------------------------------------------------------------------------------------


 use parallel FFT for wavefunctions z direction half grid
 k-point  1 :   0.0000 0.0000 0.0000  plane waves:   41029

 maximum and minimum number of plane-waves per node :      5137     5120

 maximum number of plane-waves:     41029
 maximum index in each direction: 
   IXMAX=   26   IYMAX=   26   IZMAX=   26
   IXMIN=  -26   IYMIN=  -26   IZMIN=    0

 WARNING: aliasing errors must be expected set NGX to 106 to avoid them
 WARNING: aliasing errors must be expected set NGY to 106 to avoid them
 WARNING: aliasing errors must be expected set NGZ to 106 to avoid them
 aliasing errors are usually negligible using standard VASP settings
 and one can safely disregard these warnings

 parallel 3D FFT for wavefunctions:
    minimum data exchange during FFTs selected (reduces bandwidth)
 parallel 3D FFT for charge:
    minimum data exchange during FFTs selected (reduces bandwidth)


 total amount of memory used by VASP on root node    65244. kBytes
========================================================================

   base      :      30000. kBytes
   nonl-proj :       2631. kBytes
   fftplans  :       7243. kBytes
   grid      :      18544. kBytes
   one-center:         46. kBytes
   wavefun   :       6780. kBytes
 
     INWAV:  cpu time    0.00: real time    0.00
 Broyden mixing: mesh for mixing (old mesh)
   NGX = 53   NGY = 53   NGZ = 53
  (NGX  =168   NGY  =168   NGZ  =168)
  gives a total of 148877 points

 initial charge density was supplied:
 charge density of overlapping atoms calculated
 number of electron     253.0000000 magnetization      23.0000000
 keeping initial charge density in first step


--------------------------------------------------------------------------------------------------------


 Maximum index for augmentation-charges          254 (set IRDMAX)


--------------------------------------------------------------------------------------------------------


 First call to EWALD:  gamma=   0.085
 Maximum number of real-space cells 3x 3x 3
 Maximum number of reciprocal cells 3x 3x 3

 FEWALD executed in parallel
    FEWALD:  cpu time    0.00: real time    0.00


----------------------------------------- Iteration    1(   1)  ---------------------------------------


    POTLOK:  cpu time    0.29: real time    0.29
    SETDIJ:  cpu time    0.00: real time    0.01
     EDDAV:  cpu time    2.52: real time    2.53
       DOS:  cpu time    0.00: real time    0.00
    --------------------------------------------
      LOOP:  cpu time    2.82: real time    2.84

 eigenvalue-minimisations  :   672
 total energy-change (2. order) : 0.2262983E+04  (-0.4563264E+04)
 number of electron     253.0000000 magnetization      23.0000000
 augmentation part      253.0000000 magnetization      23.0000000

 Free energy of the ion-electron system (eV)
  ---------------------------------------------------
  alpha Z        PSCENC =        49.09634529
  Ewald energy   TEWEN  =     48184.01534593
  -Hartree energ DENC   =    -70981.58640362
  -exchange      EXHF   =         0.00000000
  -V(xc)+E(xc)   XCENC  =      -247.25826722
  PAW double counting   =     23077.56009560   -22017.08600421
  entropy T*S    EENTRO =        -0.00000000
  eigenvalues    EBANDS =       342.67374425
  atomic energy  EATOM  =     23855.56849199
  ---------------------------------------------------
  free energy    TOTEN  =      2262.98334802 eV

  energy without entropy =     2262.98334802  energy(sigma->0) =     2262.98334802


--------------------------------------------------------------------------------------------------------




----------------------------------------- Iteration    1(   2)  ---------------------------------------


     EDDAV:  cpu time    3.88: real time    3.89
       DOS:  cpu time    0.00: real time    0.00
    --------------------------------------------
      LOOP:  cpu time    3.89: real time    5.36

 eigenvalue-minimisations  :  1136
 total energy-change (2. order) :-0.1718013E+04  (-0.1534195E+04)
 number of electron     253.0000000 magnetization      23.0000000
 augmentation part      253.0000000 magnetization      23.0000000

 Free energy of the ion-electron system (eV)
  ---------------------------------------------------
  alpha Z        PSCENC =        49.09634529
  Ewald energy   TEWEN  =     48184.01534593
  -Hartree energ DENC   =    -70981.58640362
  -exchange      EXHF   =         0.00000000
  -V(xc)+E(xc)   XCENC  =      -247.25826722
  PAW double counting   =     23077.56009560   -22017.08600421
  entropy T*S    EENTRO =         0.00000000
  eigenvalues    EBANDS =     -1375.33952518
  atomic energy  EATOM  =     23855.56849199
  ---------------------------------------------------
  free energy    TOTEN  =       544.97007859 eV

  energy without entropy =      544.97007859  energy(sigma->0) =      544.97007859


--------------------------------------------------------------------------------------------------------




----------------------------------------- Iteration    1(   3)  ---------------------------------------


     EDDAV:  cpu time    3.15: real time    3.16
       DOS:  cpu time    0.00: real time    0.00
    --------------------------------------------
      LOOP:  cpu time    3.16: real time    3.17

 eigenvalue-minimisations  :   880
 total energy-change (2. order) :-0.5539031E+03  (-0.5160625E+03)
 number of electron     253.0000000 magnetization      23.0000000
 augmentation part      253.0000000 magnetization      23.0000000

 Free energy of the ion-electron system (eV)
  ---------------------------------------------------
  alpha Z        PSCENC =        49.09634529
  Ewald energy   TEWEN  =     48184.01534593
  -Hartree energ DENC   =    -70981.58640362
  -exchange      EXHF   =         0.00000000
  -V(xc)+E(xc)   XCENC  =      -247.25826722
  PAW double counting   =     23077.56009560   -22017.08600421
  entropy T*S    EENTRO =        -0.00000000
  eigenvalues    EBANDS =     -1929.24260042
  atomic energy  EATOM  =     23855.56849199
  ---------------------------------------------------
  free energy    TOTEN  =        -8.93299665 eV

  energy without entropy =       -8.93299665  energy(sigma->0) =       -8.93299665


--------------------------------------------------------------------------------------------------------




----------------------------------------- Iteration    1(   4)  ---------------------------------------


     EDDAV:  cpu time    2.71: real time    2.72
       DOS:  cpu time    0.00: real time    0.00
    --------------------------------------------
      LOOP:  cpu time    2.72: real time    2.72

 eigenvalue-minimisations  :   728
 total energy-change (2. order) :-0.3369686E+02  (-0.3304144E+02)
 number of electron     253.0000000 magnetization      23.0000000
 augmentation part      253.0000000 magnetization      23.0000000

 Free energy of the ion-electron system (eV)
  ---------------------------------------------------
  alpha Z        PSCENC =        49.09634529
  Ewald energy   TEWEN  =     48184.01534593
  -Hartree energ DENC   =    -70981.58640362
  -exchange      EXHF   =         0.00000000
  -V(xc)+E(xc)   XCENC  =      -247.25826722
  PAW double counting   =     23077.56009560   -22017.08600421
  entropy T*S    EENTRO =        -0.00000000
  eigenvalues    EBANDS =     -1962.93946064
  atomic energy  EATOM  =     23855.56849199
  ---------------------------------------------------
  free energy    TOTEN  =       -42.62985687 eV

  energy without entropy =      -42.62985687  energy(sigma->0) =      -42.62985687


--------------------------------------------------------------------------------------------------------




----------------------------------------- Iteration    1(   5)  ---------------------------------------


     EDDAV:  cpu time    2.74: real time    2.74
       DOS:  cpu time    0.00: real time    0.00
    CHARGE:  cpu time    0.12: real time    0.12
    MIXING:  cpu time    0.00: real time    0.01
    --------------------------------------------
      LOOP:  cpu time    2.86: real time    2.87

 eigenvalue-minimisations  :   736
 total energy-change (2. order) :-0.5281122E+00  (-0.5273753E+00)
 number of electron     252.9999871 magnetization      20.3538692
 augmentation part      118.5468109 magnetization      17.9359850

 Broyden mixing:
  rms(total) = 0.33028E+01    rms(broyden)= 0.33024E+01
  rms(prec ) = 0.33470E+01
  weight for this iteration     100.00

 Free energy of the ion-electron system (eV)
  ---------------------------------------------------
  alpha Z        PSCENC =        49.09634529
  Ewald energy   TEWEN  =     48184.01534593
  -Hartree energ DENC   =    -70981.58640362
  -exchange      EXHF   =         0.00000000
  -V(xc)+E(xc)   XCENC  =      -247.25826722
  PAW double counting   =     23077.56009560   -22017.08600421
  entropy T*S    EENTRO =        -0.00000000
  eigenvalues    EBANDS =     -1963.46757288
  atomic energy  EATOM  =     23855.56849199
  ---------------------------------------------------
  free energy    TOTEN  =       -43.15796911 eV

  energy without entropy =      -43.15796911  energy(sigma->0) =      -43.15796911


--------------------------------------------------------------------------------------------------------




----------------------------------------- Iteration    1(   6)  ---------------------------------------


    POTLOK:  cpu time    0.28: real time    0.29
    SETDIJ:  cpu time    0.01: real time    0.01
     EDDAV:  cpu time    2.52: real time    2.52
       DOS:  cpu time    0.00: real time    0.00
    CHARGE:  cpu time    0.11: real time    0.11
    MIXING:  cpu time    0.01: real time    0.01
    --------------------------------------------
      LOOP:  cpu time    2.93: real time    2.93

 eigenvalue-minimisations  :   656
 total energy-change (2. order) : 0.2747210E+02  (-0.8105741E+01)
 number of electron     252.9999869 magnetization      18.4664644
 augmentation part      121.2335307 magnetization       9.8443066

 Broyden mixing:
  rms(total) = 0.18072E+01    rms(broyden)= 0.18071E+01
  rms(prec ) = 0.18225E+01
  weight for this iteration     100.00

 eigenvalues of (default mixing * dielectric matrix)
  average eigenvalue GAMMA=   0.8985
  0.8985

 Free energy of the ion-electron system (eV)
  ---------------------------------------------------
  alpha Z        PSCENC =        49.09634529
  Ewald energy   TEWEN  =     48184.01534593
  -Hartree energ DENC   =    -70883.49794672
  -exchange      EXHF   =         0.00000000
  -V(xc)+E(xc)   XCENC  =      -235.49931878
  PAW double counting   =     24240.28671141   -23201.95674358
  entropy T*S    EENTRO =         0.00000000
  eigenvalues    EBANDS =     -2023.69875183
  atomic energy  EATOM  =     23855.56849199
  ---------------------------------------------------
  free energy    TOTEN  =       -15.68586628 eV

  energy without entropy =      -15.68586628  energy(sigma->0) =      -15.68586628


--------------------------------------------------------------------------------------------------------




----------------------------------------- Iteration    1(   7)  ---------------------------------------


    POTLOK:  cpu time    0.28: real time    0.29
    SETDIJ:  cpu time    0.01: real time    0.01
     EDDAV:  cpu time    2.63: real time    2.63
       DOS:  cpu time    0.00: real time    0.00
    CHARGE:  cpu time    0.11: real time    0.11
    MIXING:  cpu time    0.01: real time    0.01
    --------------------------------------------
      LOOP:  cpu time    3.05: real time    3.11

 eigenvalue-minimisations  :   696
 total energy-change (2. order) : 0.5758591E+01  (-0.6159102E+00)
 number of electron     252.9999868 magnetization      15.5092434
 augmentation part      121.2400110 magnetization       9.0353672

 Broyden mixing:
  rms(total) = 0.10434E+01    rms(broyden)= 0.10433E+01
  rms(prec ) = 0.10537E+01
  weight for this iteration     100.00

 eigenvalues of (default mixing * dielectric matrix)
  average eigenvalue GAMMA=   1.1390
  0.7475  1.5305

 Free energy of the ion-electron system (eV)
  ---------------------------------------------------
  alpha Z        PSCENC =        49.09634529
  Ewald energy   TEWEN  =     48184.01534593
  -Hartree energ DENC   =    -70929.52977304
  -exchange      EXHF   =         0.00000000
  -V(xc)+E(xc)   XCENC  =      -230.75802172
  PAW double counting   =     24989.61703484   -23966.53180971
  entropy T*S    EENTRO =         0.00000000
  eigenvalues    EBANDS =     -1961.40488877
  atomic energy  EATOM  =     23855.56849199
  ---------------------------------------------------
  free energy    TOTEN  =        -9.92727518 eV

  energy without entropy =       -9.92727518  energy(sigma->0) =       -9.92727518


--------------------------------------------------------------------------------------------------------




----------------------------------------- Iteration    1(   8)  ---------------------------------------


    POTLOK:  cpu time    0.29: real time    0.29
    SETDIJ:  cpu time    0.01: real time    0.01
     EDDAV:  cpu time    2.67: real time    2.67
       DOS:  cpu time    0.00: real time    0.00
    CHARGE:  cpu time    0.11: real time    0.11
    MIXING:  cpu time    0.01: real time    0.01
    --------------------------------------------
      LOOP:  cpu time    3.08: real time    3.09

 eigenvalue-minimisations  :   708
 total energy-change (2. order) : 0.4263278E+01  (-0.1973082E+00)
 number of electron     252.9999868 magnetization      13.8548899
 augmentation part      121.1547279 magnetization       7.4852411

 Broyden mixing:
  rms(total) = 0.45084E+00    rms(broyden)= 0.45082E+00
  rms(prec ) = 0.45467E+00
  weight for this iteration     100.00

 eigenvalues of (default mixing * dielectric matrix)
  average eigenvalue GAMMA=   1.2499
  2.2352  0.8901  0.6244

 Free energy of the ion-electron system (eV)
  ---------------------------------------------------
  alpha Z        PSCENC =        49.09634529
  Ewald energy   TEWEN  =     48184.01534593
  -Hartree energ DENC   =    -70989.72177936
  -exchange      EXHF   =         0.00000000
  -V(xc)+E(xc)   XCENC  =      -226.93087216
  PAW double counting   =     25767.84757925   -24759.38517788
  entropy T*S    EENTRO =         0.00000000
  eigenvalues    EBANDS =     -1886.15393004
  atomic energy  EATOM  =     23855.56849199
  ---------------------------------------------------
  free energy    TOTEN  =        -5.66399698 eV

  energy without entropy =       -5.66399698  energy(sigma->0) =       -5.66399698


--------------------------------------------------------------------------------------------------------




----------------------------------------- Iteration    1(   9)  ---------------------------------------


    POTLOK:  cpu time    0.28: real time    0.29
    SETDIJ:  cpu time    0.01: real time    0.01
     EDDAV:  cpu time    2.71: real time    2.71
       DOS:  cpu time    0.00: real time    0.00
    CHARGE:  cpu time    0.11: real time    0.11
    MIXING:  cpu time    0.01: real time    0.01
    --------------------------------------------
      LOOP:  cpu time    3.12: real time    3.13

 eigenvalue-minimisations  :   720
 total energy-change (2. order) :-0.5558558E+01  (-0.1245744E+00)
 number of electron     252.9999868 magnetization      12.2050102
 augmentation part      121.0587318 magnetization       5.9884959

 Broyden mixing:
  rms(total) = 0.27657E+00    rms(broyden)= 0.27657E+00
  rms(prec ) = 0.28071E+00
  weight for this iteration     100.00

 eigenvalues of (default mixing * dielectric matrix)
  average eigenvalue GAMMA=   1.2347
  2.1709  0.6269  0.7995  1.3415

 Free energy of the ion-electron system (eV)
  ---------------------------------------------------
  alpha Z        PSCENC =        49.09634529
  Ewald energy   TEWEN  =     48184.01534593
  -Hartree energ DENC   =    -71007.08579835
  -exchange      EXHF   =         0.00000000
  -V(xc)+E(xc)   XCENC  =      -231.05174107
  PAW double counting   =     25955.72152360   -24950.62619735
  entropy T*S    EENTRO =         0.00000000
  eigenvalues    EBANDS =     -1866.86052525
  atomic energy  EATOM  =     23855.56849199
  ---------------------------------------------------
  free energy    TOTEN  =       -11.22255520 eV

  energy without entropy =      -11.22255520  energy(sigma->0) =      -11.22255520


--------------------------------------------------------------------------------------------------------




----------------------------------------- Iteration    1(  10)  ---------------------------------------


    POTLOK:  cpu time    0.28: real time    0.29
    SETDIJ:  cpu time    0.01: real time    0.01
     EDDAV:  cpu time    2.58: real time    2.58
       DOS:  cpu time    0.00: real time    0.00
    CHARGE:  cpu time    0.12: real time    0.12
    MIXING:  cpu time    0.01: real time    0.01
    --------------------------------------------
      LOOP:  cpu time    3.00: real time    3.01

 eigenvalue-minimisations  :   676
 total energy-change (2. order) :-0.8585088E+01  (-0.2667764E+00)
 number of electron     252.9999868 magnetization       9.5778495
 augmentation part      121.0259292 magnetization       3.6685085

 Broyden mixing:
  rms(total) = 0.20589E+00    rms(broyden)= 0.20588E+00
  rms(prec ) = 0.20859E+00
  weight for this iteration     100.00

 eigenvalues of (default mixing * dielectric matrix)
  average eigenvalue GAMMA=   1.3847
  2.3317  2.3317  0.8111  0.8111  0.6379

 Free energy of the ion-electron system (eV)
  ---------------------------------------------------
  alpha Z        PSCENC =        49.09634529
  Ewald energy   TEWEN  =     48184.01534593
  -Hartree energ DENC   =    -71004.89142268
  -exchange      EXHF   =         0.00000000
  -V(xc)+E(xc)   XCENC  =      -237.68124117
  PAW double counting   =     25950.22461161   -24944.94487508
  entropy T*S    EENTRO =         0.00000000
  eigenvalues    EBANDS =     -1871.19489869
  atomic energy  EATOM  =     23855.56849199
  ---------------------------------------------------
  free energy    TOTEN  =       -19.80764278 eV

  energy without entropy =      -19.80764278  energy(sigma->0) =      -19.80764278


--------------------------------------------------------------------------------------------------------




----------------------------------------- Iteration    1(  11)  ---------------------------------------


    POTLOK:  cpu time    0.28: real time    0.29
    SETDIJ:  cpu time    0.01: real time    0.01
     EDDAV:  cpu time    2.61: real time    2.61
       DOS:  cpu time    0.00: real time    0.00
    CHARGE:  cpu time    0.12: real time    0.12
    MIXING:  cpu time    0.01: real time    0.01
    --------------------------------------------
      LOOP:  cpu time    3.02: real time    3.03

 eigenvalue-minimisations  :   684
 total energy-change (2. order) :-0.1033655E+02  (-0.5155697E+00)
 number of electron     252.9999868 magnetization       8.9954216
 augmentation part      121.0624887 magnetization       5.3989491

 Broyden mixing:
  rms(total) = 0.23821E+00    rms(broyden)= 0.23802E+00
  rms(prec ) = 0.25017E+00
  weight for this iteration     100.00

 eigenvalues of (default mixing * dielectric matrix)
  average eigenvalue GAMMA=   1.2443
  2.5778  2.2959  0.6423  0.8275  0.8275  0.2946

 Free energy of the ion-electron system (eV)
  ---------------------------------------------------
  alpha Z        PSCENC =        49.09634529
  Ewald energy   TEWEN  =     48184.01534593
  -Hartree energ DENC   =    -70997.62332828
  -exchange      EXHF   =         0.00000000
  -V(xc)+E(xc)   XCENC  =      -245.59478377
  PAW double counting   =     25937.44207805   -24932.27884089
  entropy T*S    EENTRO =         0.00000000
  eigenvalues    EBANDS =     -1880.76950606
  atomic energy  EATOM  =     23855.56849199
  ---------------------------------------------------
  free energy    TOTEN  =       -30.14419773 eV

  energy without entropy =      -30.14419773  energy(sigma->0) =      -30.14419773


--------------------------------------------------------------------------------------------------------




----------------------------------------- Iteration    1(  12)  ---------------------------------------


    POTLOK:  cpu time    0.29: real time    0.29
    SETDIJ:  cpu time    0.00: real time    0.01
     EDDAV:  cpu time    2.92: real time    2.92
       DOS:  cpu time    0.00: real time    0.00
    CHARGE:  cpu time    0.11: real time    0.11
    MIXING:  cpu time    0.01: real time    0.01
    --------------------------------------------
      LOOP:  cpu time    3.34: real time    8.01

 eigenvalue-minimisations  :   792
 total energy-change (2. order) :-0.9844550E+00  (-0.2338508E-01)
 number of electron     252.9999869 magnetization       8.1130567
 augmentation part      121.0345099 magnetization       4.6079194

 Broyden mixing:
  rms(total) = 0.19271E+00    rms(broyden)= 0.19270E+00
  rms(prec ) = 0.20355E+00
  weight for this iteration     100.00

 eigenvalues of (default mixing * dielectric matrix)
  average eigenvalue GAMMA=   1.2092
  2.8161  2.3447  0.7962  0.7828  0.6435  0.5405  0.5405

 Free energy of the ion-electron system (eV)
  ---------------------------------------------------
  alpha Z        PSCENC =        49.09634529
  Ewald energy   TEWEN  =     48184.01534593
  -Hartree energ DENC   =    -70997.80858993
  -exchange      EXHF   =         0.00000000
  -V(xc)+E(xc)   XCENC  =      -246.30254371
  PAW double counting   =     25940.85726820   -24935.87008069
  entropy T*S    EENTRO =         0.00000000
  eigenvalues    EBANDS =     -1880.68488982
  atomic energy  EATOM  =     23855.56849199
  ---------------------------------------------------
  free energy    TOTEN  =       -31.12865273 eV

  energy without entropy =      -31.12865273  energy(sigma->0) =      -31.12865273


--------------------------------------------------------------------------------------------------------




----------------------------------------- Iteration    1(  13)  ---------------------------------------


    POTLOK:  cpu time    0.29: real time    0.29
    SETDIJ:  cpu time    0.00: real time    0.01
     EDDAV:  cpu time    2.58: real time    2.58
       DOS:  cpu time    0.00: real time    0.00
    CHARGE:  cpu time    0.12: real time    0.11
    MIXING:  cpu time    0.01: real time    0.01
    --------------------------------------------
      LOOP:  cpu time    3.00: real time    3.02

 eigenvalue-minimisations  :   672
 total energy-change (2. order) :-0.2030593E+01  (-0.4260938E-01)
 number of electron     252.9999869 magnetization       5.9939364
 augmentation part      121.0409974 magnetization       2.5878508

 Broyden mixing:
  rms(total) = 0.15571E+00    rms(broyden)= 0.15571E+00
  rms(prec ) = 0.16289E+00
  weight for this iteration     100.00

 eigenvalues of (default mixing * dielectric matrix)
  average eigenvalue GAMMA=   1.3708
  4.0085  2.1436  1.0214  1.0214  0.8126  0.8126  0.6524  0.4943

 Free energy of the ion-electron system (eV)
  ---------------------------------------------------
  alpha Z        PSCENC =        49.09634529
  Ewald energy   TEWEN  =     48184.01534593
  -Hartree energ DENC   =    -70993.38287770
  -exchange      EXHF   =         0.00000000
  -V(xc)+E(xc)   XCENC  =      -247.91187470
  PAW double counting   =     25908.62413614   -24903.49380937
  entropy T*S    EENTRO =         0.00000000
  eigenvalues    EBANDS =     -1885.67500313
  atomic energy  EATOM  =     23855.56849199
  ---------------------------------------------------
  free energy    TOTEN  =       -33.15924554 eV

  energy without entropy =      -33.15924554  energy(sigma->0) =      -33.15924554


--------------------------------------------------------------------------------------------------------




----------------------------------------- Iteration    1(  14)  ---------------------------------------


    POTLOK:  cpu time    0.28: real time    0.29
    SETDIJ:  cpu time    0.01: real time    0.01
     EDDAV:  cpu time    2.58: real time    2.58
       DOS:  cpu time    0.00: real time    0.00
    CHARGE:  cpu time    0.11: real time    0.11
    MIXING:  cpu time    0.01: real time    0.01
    --------------------------------------------
      LOOP:  cpu time    3.00: real time    3.02

 eigenvalue-minimisations  :   672
 total energy-change (2. order) :-0.4220743E+01  (-0.1616010E+00)
 number of electron     252.9999869 magnetization       4.7426520
 augmentation part      121.0387893 magnetization       1.5127283

 Broyden mixing:
  rms(total) = 0.80262E-01    rms(broyden)= 0.80248E-01
  rms(prec ) = 0.84502E-01
  weight for this iteration     100.00

 eigenvalues of (default mixing * dielectric matrix)
  average eigenvalue GAMMA=   1.4771
  4.8794  1.9106  1.9106  1.1583  0.7596  0.7596  0.7046  0.7046  0.5064

 Free energy of the ion-electron system (eV)
  ---------------------------------------------------
  alpha Z        PSCENC =        49.09634529
  Ewald energy   TEWEN  =     48184.01534593
  -Hartree energ DENC   =    -70982.34416257
  -exchange      EXHF   =         0.00000000
  -V(xc)+E(xc)   XCENC  =      -251.52152526
  PAW double counting   =     25857.47512606   -24852.37079791
  entropy T*S    EENTRO =         0.00000000
  eigenvalues    EBANDS =     -1897.29881186
  atomic energy  EATOM  =     23855.56849199
  ---------------------------------------------------
  free energy    TOTEN  =       -37.37998833 eV

  energy without entropy =      -37.37998833  energy(sigma->0) =      -37.37998833


--------------------------------------------------------------------------------------------------------




----------------------------------------- Iteration    1(  15)  ---------------------------------------


    POTLOK:  cpu time    0.28: real time    0.29
    SETDIJ:  cpu time    0.01: real time    0.01
     EDDAV:  cpu time    2.62: real time    2.63
       DOS:  cpu time    0.00: real time    0.00
    CHARGE:  cpu time    0.12: real time    0.12
    MIXING:  cpu time    0.01: real time    0.01
    --------------------------------------------
      LOOP:  cpu time    3.05: real time    3.05

 eigenvalue-minimisations  :   688
 total energy-change (2. order) :-0.2087866E+01  (-0.4998008E-01)
 number of electron     252.9999871 magnetization       4.6127956
 augmentation part      121.0523313 magnetization       3.4109656

 Broyden mixing:
  rms(total) = 0.16602E+00    rms(broyden)= 0.16585E+00
  rms(prec ) = 0.18279E+00
  weight for this iteration     100.00

 eigenvalues of (default mixing * dielectric matrix)
  average eigenvalue GAMMA=   1.3439
  4.9594  1.9273  1.9273  1.1343  0.7622  0.7622  0.6980  0.6980  0.5122  0.0579

 Free energy of the ion-electron system (eV)
  ---------------------------------------------------
  alpha Z        PSCENC =        49.09634529
  Ewald energy   TEWEN  =     48184.01534593
  -Hartree energ DENC   =    -70970.12166698
  -exchange      EXHF   =         0.00000000
  -V(xc)+E(xc)   XCENC  =      -253.43505497
  PAW double counting   =     25820.86019737   -24815.46488871
  entropy T*S    EENTRO =         0.00000000
  eigenvalues    EBANDS =     -1909.98662434
  atomic energy  EATOM  =     23855.56849199
  ---------------------------------------------------
  free energy    TOTEN  =       -39.46785443 eV

  energy without entropy =      -39.46785443  energy(sigma->0) =      -39.46785443


--------------------------------------------------------------------------------------------------------




----------------------------------------- Iteration    1(  16)  ---------------------------------------


    POTLOK:  cpu time    0.29: real time    0.29
    SETDIJ:  cpu time    0.01: real time    0.01
     EDDAV:  cpu time    2.74: real time    2.75
       DOS:  cpu time    0.00: real time    0.00
    CHARGE:  cpu time    0.12: real time    0.11
    MIXING:  cpu time    0.01: real time    0.01
    --------------------------------------------
      LOOP:  cpu time    3.17: real time    3.19

 eigenvalue-minimisations  :   728
 total energy-change (2. order) :-0.1901114E-01  (-0.1171822E-02)
 number of electron     252.9999871 magnetization       4.4353357
 augmentation part      121.0512170 magnetization       3.2461990

 Broyden mixing:
  rms(total) = 0.15726E+00    rms(broyden)= 0.15726E+00
  rms(prec ) = 0.17371E+00
  weight for this iteration     100.00

 eigenvalues of (default mixing * dielectric matrix)
  average eigenvalue GAMMA=   1.2900
  5.1539  1.8380  1.8380  1.2617  0.7311  0.7311  0.7868  0.6676  0.4954  0.3433
  0.3433

 Free energy of the ion-electron system (eV)
  ---------------------------------------------------
  alpha Z        PSCENC =        49.09634529
  Ewald energy   TEWEN  =     48184.01534593
  -Hartree energ DENC   =    -70969.31000228
  -exchange      EXHF   =         0.00000000
  -V(xc)+E(xc)   XCENC  =      -253.46454476
  PAW double counting   =     25818.64545702   -24813.23406220
  entropy T*S    EENTRO =         0.00000000
  eigenvalues    EBANDS =     -1910.80389655
  atomic energy  EATOM  =     23855.56849199
  ---------------------------------------------------
  free energy    TOTEN  =       -39.48686557 eV

  energy without entropy =      -39.48686557  energy(sigma->0) =      -39.48686557


--------------------------------------------------------------------------------------------------------




----------------------------------------- Iteration    1(  17)  ---------------------------------------


    POTLOK:  cpu time    0.29: real time    0.29
    SETDIJ:  cpu time    0.00: real time    0.01
     EDDAV:  cpu time    2.63: real time    2.63
       DOS:  cpu time    0.00: real time    0.00
    CHARGE:  cpu time    0.12: real time    0.11
    MIXING:  cpu time    0.01: real time    0.01
    --------------------------------------------
      LOOP:  cpu time    3.05: real time    3.06

 eigenvalue-minimisations  :   688
 total energy-change (2. order) :-0.7713275E-01  (-0.4077780E-03)
 number of electron     252.9999871 magnetization       3.2964293
 augmentation part      121.0568577 magnetization       2.1189126

 Broyden mixing:
  rms(total) = 0.14846E+00    rms(broyden)= 0.14846E+00
  rms(prec ) = 0.16360E+00
  weight for this iteration     100.00

 eigenvalues of (default mixing * dielectric matrix)
  average eigenvalue GAMMA=   1.3629
  5.5813  1.9934  1.5372  1.5372  0.9174  0.9174  0.8069  0.7310  0.7310  0.6650
  0.5555  0.3821

 Free energy of the ion-electron system (eV)
  ---------------------------------------------------
  alpha Z        PSCENC =        49.09634529
  Ewald energy   TEWEN  =     48184.01534593
  -Hartree energ DENC   =    -70967.86842737
  -exchange      EXHF   =         0.00000000
  -V(xc)+E(xc)   XCENC  =      -253.55491202
  PAW double counting   =     25817.37336770   -24811.90221995
  entropy T*S    EENTRO =         0.00000000
  eigenvalues    EBANDS =     -1912.29198988
  atomic energy  EATOM  =     23855.56849199
  ---------------------------------------------------
  free energy    TOTEN  =       -39.56399831 eV

  energy without entropy =      -39.56399831  energy(sigma->0) =      -39.56399831


--------------------------------------------------------------------------------------------------------




----------------------------------------- Iteration    1(  18)  ---------------------------------------


    POTLOK:  cpu time    0.29: real time    0.29
    SETDIJ:  cpu time    0.00: real time    0.01
     EDDAV:  cpu time    2.56: real time    2.56
       DOS:  cpu time    0.00: real time    0.00
    CHARGE:  cpu time    0.12: real time    0.11
    MIXING:  cpu time    0.01: real time    0.01
    --------------------------------------------
      LOOP:  cpu time    2.99: real time    2.99

 eigenvalue-minimisations  :   664
 total energy-change (2. order) :-0.6217921E+00  (-0.1274641E-01)
 number of electron     252.9999871 magnetization       1.8809372
 augmentation part      121.0488023 magnetization       0.7569735

 Broyden mixing:
  rms(total) = 0.81323E-01    rms(broyden)= 0.81316E-01
  rms(prec ) = 0.88827E-01
  weight for this iteration     100.00

 eigenvalues of (default mixing * dielectric matrix)
  average eigenvalue GAMMA=   1.5600
  7.7879  2.1342  1.5153  1.5153  1.3599  1.3599  0.7503  0.7503  0.7660  0.6572
  0.6296  0.6296  0.4245

 Free energy of the ion-electron system (eV)
  ---------------------------------------------------
  alpha Z        PSCENC =        49.09634529
  Ewald energy   TEWEN  =     48184.01534593
  -Hartree energ DENC   =    -70960.88584960
  -exchange      EXHF   =         0.00000000
  -V(xc)+E(xc)   XCENC  =      -254.20067174
  PAW double counting   =     25827.15279043   -24821.55804283
  entropy T*S    EENTRO =        -0.00000000
  eigenvalues    EBANDS =     -1919.37419987
  atomic energy  EATOM  =     23855.56849199
  ---------------------------------------------------
  free energy    TOTEN  =       -40.18579040 eV

  energy without entropy =      -40.18579040  energy(sigma->0) =      -40.18579040


--------------------------------------------------------------------------------------------------------




----------------------------------------- Iteration    1(  19)  ---------------------------------------


    POTLOK:  cpu time    0.29: real time    0.29
    SETDIJ:  cpu time    0.01: real time    0.01
     EDDAV:  cpu time    2.60: real time    2.61
       DOS:  cpu time    0.00: real time    0.00
    CHARGE:  cpu time    0.11: real time    0.11
    MIXING:  cpu time    0.01: real time    0.01
    --------------------------------------------
      LOOP:  cpu time    3.03: real time    3.12

 eigenvalue-minimisations  :   680
 total energy-change (2. order) :-0.1025260E+01  (-0.1846166E-01)
 number of electron     252.9999871 magnetization       1.5113628
 augmentation part      121.0686877 magnetization       0.4584122

 Broyden mixing:
  rms(total) = 0.33115E-01    rms(broyden)= 0.33089E-01
  rms(prec ) = 0.36770E-01
  weight for this iteration     100.00

 eigenvalues of (default mixing * dielectric matrix)
  average eigenvalue GAMMA=   1.5818
  8.3555  2.0677  2.0677  1.7047  1.1624  1.1624  1.0537  0.7328  0.7328  0.7499
  0.7499  0.6122  0.5743  0.4200

 Free energy of the ion-electron system (eV)
  ---------------------------------------------------
  alpha Z        PSCENC =        49.09634529
  Ewald energy   TEWEN  =     48184.01534593
  -Hartree energ DENC   =    -70948.17993693
  -exchange      EXHF   =         0.00000000
  -V(xc)+E(xc)   XCENC  =      -255.31616773
  PAW double counting   =     25811.55603509   -24805.62368222
  entropy T*S    EENTRO =         0.00000000
  eigenvalues    EBANDS =     -1932.32748202
  atomic energy  EATOM  =     23855.56849199
  ---------------------------------------------------
  free energy    TOTEN  =       -41.21105060 eV

  energy without entropy =      -41.21105060  energy(sigma->0) =      -41.21105060


--------------------------------------------------------------------------------------------------------




----------------------------------------- Iteration    1(  20)  ---------------------------------------


    POTLOK:  cpu time    0.29: real time    0.29
    SETDIJ:  cpu time    0.01: real time    0.01
     EDDAV:  cpu time    2.65: real time    2.66
       DOS:  cpu time    0.00: real time    0.00
    CHARGE:  cpu time    0.12: real time    0.12
    MIXING:  cpu time    0.01: real time    0.01
    --------------------------------------------
      LOOP:  cpu time    3.08: real time    3.08

 eigenvalue-minimisations  :   696
 total energy-change (2. order) :-0.3904367E+00  (-0.2121058E-02)
 number of electron     252.9999871 magnetization       1.1794026
 augmentation part      121.0578109 magnetization       0.1364014

 Broyden mixing:
  rms(total) = 0.21874E-01    rms(broyden)= 0.21868E-01
  rms(prec ) = 0.24833E-01
  weight for this iteration     100.00

 eigenvalues of (default mixing * dielectric matrix)
  average eigenvalue GAMMA=   1.6491
  9.3103  2.2858  2.1392  2.1392  1.1821  1.1821  0.9648  0.9648  0.9158  0.7061
  0.7061  0.6349  0.5930  0.5930  0.4201

 Free energy of the ion-electron system (eV)
  ---------------------------------------------------
  alpha Z        PSCENC =        49.09634529
  Ewald energy   TEWEN  =     48184.01534593
  -Hartree energ DENC   =    -70943.56789675
  -exchange      EXHF   =         0.00000000
  -V(xc)+E(xc)   XCENC  =      -255.71491647
  PAW double counting   =     25819.26442006   -24813.32452331
  entropy T*S    EENTRO =         0.00000000
  eigenvalues    EBANDS =     -1936.93875402
  atomic energy  EATOM  =     23855.56849199
  ---------------------------------------------------
  free energy    TOTEN  =       -41.60148728 eV

  energy without entropy =      -41.60148728  energy(sigma->0) =      -41.60148728


--------------------------------------------------------------------------------------------------------




----------------------------------------- Iteration    1(  21)  ---------------------------------------


    POTLOK:  cpu time    0.29: real time    0.29
    SETDIJ:  cpu time    0.01: real time    0.01
     EDDAV:  cpu time    2.63: real time    2.64
       DOS:  cpu time    0.00: real time    0.00
    CHARGE:  cpu time    0.12: real time    0.12
    MIXING:  cpu time    0.01: real time    0.01
    --------------------------------------------
      LOOP:  cpu time    3.06: real time    3.06

 eigenvalue-minimisations  :   688
 total energy-change (2. order) :-0.2437984E+00  (-0.7779647E-03)
 number of electron     252.9999871 magnetization       1.1232111
 augmentation part      121.0662733 magnetization       0.0934887

 Broyden mixing:
  rms(total) = 0.17236E-01    rms(broyden)= 0.17234E-01
  rms(prec ) = 0.19905E-01
  weight for this iteration     100.00

 eigenvalues of (default mixing * dielectric matrix)
  average eigenvalue GAMMA=   1.6874
  9.7315  2.6796  2.2017  2.2017  1.4026  1.4026  1.0238  1.0238  0.8974  0.7411
  0.7411  0.6756  0.6756  0.6113  0.5687  0.4203

 Free energy of the ion-electron system (eV)
  ---------------------------------------------------
  alpha Z        PSCENC =        49.09634529
  Ewald energy   TEWEN  =     48184.01534593
  -Hartree energ DENC   =    -70937.75448194
  -exchange      EXHF   =         0.00000000
  -V(xc)+E(xc)   XCENC  =      -256.00190706
  PAW double counting   =     25813.98723131   -24807.91135579
  entropy T*S    EENTRO =         0.00000000
  eigenvalues    EBANDS =     -1942.84495544
  atomic energy  EATOM  =     23855.56849199
  ---------------------------------------------------
  free energy    TOTEN  =       -41.84528570 eV

  energy without entropy =      -41.84528570  energy(sigma->0) =      -41.84528570


--------------------------------------------------------------------------------------------------------




----------------------------------------- Iteration    1(  22)  ---------------------------------------


    POTLOK:  cpu time    0.29: real time    0.29
    SETDIJ:  cpu time    0.00: real time    0.01
     EDDAV:  cpu time    2.62: real time    2.62
       DOS:  cpu time    0.00: real time    0.00
    CHARGE:  cpu time    0.12: real time    0.12
    MIXING:  cpu time    0.01: real time    0.01
    --------------------------------------------
      LOOP:  cpu time    3.05: real time    3.16

 eigenvalue-minimisations  :   684
 total energy-change (2. order) :-0.1662848E+00  (-0.5361625E-03)
 number of electron     252.9999871 magnetization       1.0568344
 augmentation part      121.0568863 magnetization       0.0193403

 Broyden mixing:
  rms(total) = 0.98419E-02    rms(broyden)= 0.98404E-02
  rms(prec ) = 0.12241E-01
  weight for this iteration     100.00

 eigenvalues of (default mixing * dielectric matrix)
  average eigenvalue GAMMA=   1.6804
  9.9022  3.0893  2.2022  2.2022  1.2664  1.2664  1.2833  1.2833  0.8285  0.8285
  0.7470  0.7470  0.7070  0.6104  0.6104  0.5727  0.4201

 Free energy of the ion-electron system (eV)
  ---------------------------------------------------
  alpha Z        PSCENC =        49.09634529
  Ewald energy   TEWEN  =     48184.01534593
  -Hartree energ DENC   =    -70933.01931781
  -exchange      EXHF   =         0.00000000
  -V(xc)+E(xc)   XCENC  =      -256.17770104
  PAW double counting   =     25819.97355097   -24813.89768204
  entropy T*S    EENTRO =         0.00000000
  eigenvalues    EBANDS =     -1947.57060377
  atomic energy  EATOM  =     23855.56849199
  ---------------------------------------------------
  free energy    TOTEN  =       -42.01157049 eV

  energy without entropy =      -42.01157049  energy(sigma->0) =      -42.01157049


--------------------------------------------------------------------------------------------------------




----------------------------------------- Iteration    1(  23)  ---------------------------------------


    POTLOK:  cpu time    0.29: real time    0.29
    SETDIJ:  cpu time    0.00: real time    0.01
     EDDAV:  cpu time    2.48: real time    2.48
       DOS:  cpu time    0.00: real time    0.00
    CHARGE:  cpu time    0.11: real time    0.12
    MIXING:  cpu time    0.01: real time    0.01
    --------------------------------------------
      LOOP:  cpu time    2.90: real time    2.91

 eigenvalue-minimisations  :   632
 total energy-change (2. order) :-0.4795912E-01  (-0.2060987E-03)
 number of electron     252.9999871 magnetization       1.0469342
 augmentation part      121.0622016 magnetization       0.0102362

 Broyden mixing:
  rms(total) = 0.60355E-02    rms(broyden)= 0.60347E-02
  rms(prec ) = 0.79068E-02
  weight for this iteration     100.00

 eigenvalues of (default mixing * dielectric matrix)
  average eigenvalue GAMMA=   1.6845
  9.9413  3.6689  2.1943  2.0202  2.0202  1.1990  1.1990  1.0251  1.0251  0.7278
  0.7278  0.8575  0.8575  0.4202  0.6521  0.6121  0.6121  0.5600

 Free energy of the ion-electron system (eV)
  ---------------------------------------------------
  alpha Z        PSCENC =        49.09634529
  Ewald energy   TEWEN  =     48184.01534593
  -Hartree energ DENC   =    -70929.06168735
  -exchange      EXHF   =         0.00000000
  -V(xc)+E(xc)   XCENC  =      -256.25418797
  PAW double counting   =     25818.56088398   -24812.47171885
  entropy T*S    EENTRO =         0.00000000
  eigenvalues    EBANDS =     -1951.51300264
  atomic energy  EATOM  =     23855.56849199
  ---------------------------------------------------
  free energy    TOTEN  =       -42.05952961 eV

  energy without entropy =      -42.05952961  energy(sigma->0) =      -42.05952961


--------------------------------------------------------------------------------------------------------




----------------------------------------- Iteration    1(  24)  ---------------------------------------


    POTLOK:  cpu time    0.29: real time    0.29
    SETDIJ:  cpu time    0.00: real time    0.01
     EDDAV:  cpu time    2.07: real time    2.08
       DOS:  cpu time    0.00: real time    0.00
    CHARGE:  cpu time    0.12: real time    0.12
    MIXING:  cpu time    0.02: real time    0.02
    --------------------------------------------
      LOOP:  cpu time    2.50: real time    2.52

 eigenvalue-minimisations  :   488
 total energy-change (2. order) :-0.1868157E-01  (-0.6630808E-04)
 number of electron     252.9999871 magnetization       1.0447045
 augmentation part      121.0627838 magnetization       0.0058995

 Broyden mixing:
  rms(total) = 0.40383E-02    rms(broyden)= 0.40379E-02
  rms(prec ) = 0.54163E-02
  weight for this iteration     100.00

 eigenvalues of (default mixing * dielectric matrix)
  average eigenvalue GAMMA=   1.7123
  9.9182  4.1203  2.3717  2.2526  2.2526  1.3371  1.3371  1.0040  1.0040  0.9508
  0.9508  0.7313  0.7313  0.4201  0.7147  0.6595  0.6121  0.6121  0.5538

 Free energy of the ion-electron system (eV)
  ---------------------------------------------------
  alpha Z        PSCENC =        49.09634529
  Ewald energy   TEWEN  =     48184.01534593
  -Hartree energ DENC   =    -70926.21849071
  -exchange      EXHF   =         0.00000000
  -V(xc)+E(xc)   XCENC  =      -256.28843168
  PAW double counting   =     25820.28945675   -24814.22919437
  entropy T*S    EENTRO =         0.00000000
  eigenvalues    EBANDS =     -1954.31173439
  atomic energy  EATOM  =     23855.56849199
  ---------------------------------------------------
  free energy    TOTEN  =       -42.07821118 eV

  energy without entropy =      -42.07821118  energy(sigma->0) =      -42.07821118


--------------------------------------------------------------------------------------------------------




----------------------------------------- Iteration    1(  25)  ---------------------------------------


    POTLOK:  cpu time    0.29: real time    0.29
    SETDIJ:  cpu time    0.01: real time    0.01
     EDDAV:  cpu time    2.18: real time    2.19
       DOS:  cpu time    0.00: real time    0.00
    CHARGE:  cpu time    0.12: real time    0.12
    MIXING:  cpu time    0.02: real time    0.02
    --------------------------------------------
      LOOP:  cpu time    2.62: real time    2.63

 eigenvalue-minimisations  :   528
 total energy-change (2. order) :-0.5478139E-02  (-0.8721305E-04)
 number of electron     252.9999871 magnetization       1.0284042
 augmentation part      121.0652422 magnetization      -0.0123949

 Broyden mixing:
  rms(total) = 0.21579E-02    rms(broyden)= 0.21569E-02
  rms(prec ) = 0.30249E-02
  weight for this iteration     100.00

 eigenvalues of (default mixing * dielectric matrix)
  average eigenvalue GAMMA=   1.7171
  9.8748  4.5576  2.3435  2.3435  2.3823  1.3115  1.3115  1.4485  1.0093  1.0093
  0.7334  0.7334  0.8702  0.8702  0.4201  0.7045  0.6240  0.6240  0.6168  0.5534

 Free energy of the ion-electron system (eV)
  ---------------------------------------------------
  alpha Z        PSCENC =        49.09634529
  Ewald energy   TEWEN  =     48184.01534593
  -Hartree energ DENC   =    -70923.15757217
  -exchange      EXHF   =         0.00000000
  -V(xc)+E(xc)   XCENC  =      -256.31133417
  PAW double counting   =     25820.40616937   -24814.36447773
  entropy T*S    EENTRO =         0.00000000
  eigenvalues    EBANDS =     -1957.33665783
  atomic energy  EATOM  =     23855.56849199
  ---------------------------------------------------
  free energy    TOTEN  =       -42.08368932 eV

  energy without entropy =      -42.08368932  energy(sigma->0) =      -42.08368932


--------------------------------------------------------------------------------------------------------




----------------------------------------- Iteration    1(  26)  ---------------------------------------


    POTLOK:  cpu time    0.28: real time    0.29
    SETDIJ:  cpu time    0.01: real time    0.01
     EDDAV:  cpu time    2.08: real time    2.07
       DOS:  cpu time    0.00: real time    0.00
    CHARGE:  cpu time    0.12: real time    0.12
    MIXING:  cpu time    0.02: real time    0.02
    --------------------------------------------
      LOOP:  cpu time    2.50: real time    2.51

 eigenvalue-minimisations  :   488
 total energy-change (2. order) :-0.2054572E-02  (-0.2756709E-04)
 number of electron     252.9999871 magnetization       1.0152062
 augmentation part      121.0658021 magnetization      -0.0252356

 Broyden mixing:
  rms(total) = 0.15754E-02    rms(broyden)= 0.15751E-02
  rms(prec ) = 0.20516E-02
  weight for this iteration     100.00

 eigenvalues of (default mixing * dielectric matrix)
  average eigenvalue GAMMA=   1.7360
  9.8512  5.1468  2.7774  2.2968  2.2968  1.9501  1.3030  1.3030  0.9996  0.9996
  0.7329  0.7329  0.8767  0.8767  0.7970  0.4201  0.7127  0.6054  0.6054  0.6219
  0.5508

 Free energy of the ion-electron system (eV)
  ---------------------------------------------------
  alpha Z        PSCENC =        49.09634529
  Ewald energy   TEWEN  =     48184.01534593
  -Hartree energ DENC   =    -70921.41469898
  -exchange      EXHF   =         0.00000000
  -V(xc)+E(xc)   XCENC  =      -256.32214890
  PAW double counting   =     25821.20538428   -24815.16631001
  entropy T*S    EENTRO =        -0.00000000
  eigenvalues    EBANDS =     -1959.06815350
  atomic energy  EATOM  =     23855.56849199
  ---------------------------------------------------
  free energy    TOTEN  =       -42.08574389 eV

  energy without entropy =      -42.08574389  energy(sigma->0) =      -42.08574389


--------------------------------------------------------------------------------------------------------




----------------------------------------- Iteration    1(  27)  ---------------------------------------


    POTLOK:  cpu time    0.29: real time    0.29
    SETDIJ:  cpu time    0.01: real time    0.01
     EDDAV:  cpu time    2.03: real time    2.03
       DOS:  cpu time    0.00: real time    0.00
    CHARGE:  cpu time    0.12: real time    0.12
    MIXING:  cpu time    0.02: real time    0.02
    --------------------------------------------
      LOOP:  cpu time    2.46: real time    2.46

 eigenvalue-minimisations  :   472
 total energy-change (2. order) :-0.1641950E-02  (-0.8663617E-05)
 number of electron     252.9999871 magnetization       1.0106289
 augmentation part      121.0665115 magnetization      -0.0292191

 Broyden mixing:
  rms(total) = 0.11119E-02    rms(broyden)= 0.11118E-02
  rms(prec ) = 0.14517E-02
  weight for this iteration     100.00

 eigenvalues of (default mixing * dielectric matrix)
  average eigenvalue GAMMA=   1.7470
  9.8073  5.7137  2.9958  2.3172  2.3172  2.0262  1.3234  1.3234  1.0885  1.0885
  0.9681  0.8933  0.8933  0.7325  0.7325  0.4201  0.7472  0.6288  0.6288  0.6314
  0.6038  0.5525

 Free energy of the ion-electron system (eV)
  ---------------------------------------------------
  alpha Z        PSCENC =        49.09634529
  Ewald energy   TEWEN  =     48184.01534593
  -Hartree energ DENC   =    -70920.46544204
  -exchange      EXHF   =         0.00000000
  -V(xc)+E(xc)   XCENC  =      -256.32873744
  PAW double counting   =     25821.72321206   -24815.68756593
  entropy T*S    EENTRO =         0.00000000
  eigenvalues    EBANDS =     -1960.00903570
  atomic energy  EATOM  =     23855.56849199
  ---------------------------------------------------
  free energy    TOTEN  =       -42.08738584 eV

  energy without entropy =      -42.08738584  energy(sigma->0) =      -42.08738584


--------------------------------------------------------------------------------------------------------




----------------------------------------- Iteration    1(  28)  ---------------------------------------


    POTLOK:  cpu time    0.28: real time    0.29
    SETDIJ:  cpu time    0.01: real time    0.01
     EDDAV:  cpu time    2.00: real time    2.01
       DOS:  cpu time    0.00: real time    0.00
    CHARGE:  cpu time    0.11: real time    0.11
    MIXING:  cpu time    0.02: real time    0.02
    --------------------------------------------
      LOOP:  cpu time    2.44: real time    2.46

 eigenvalue-minimisations  :   464
 total energy-change (2. order) :-0.1640376E-02  (-0.3836566E-05)
 number of electron     252.9999871 magnetization       1.0036650
 augmentation part      121.0660591 magnetization      -0.0362120

 Broyden mixing:
  rms(total) = 0.85585E-03    rms(broyden)= 0.85581E-03
  rms(prec ) = 0.10653E-02
  weight for this iteration     100.00

 eigenvalues of (default mixing * dielectric matrix)
  average eigenvalue GAMMA=   1.7705
  9.7889  6.1534  3.4057  2.2914  2.2914  2.3991  1.3029  1.3029  1.3787  1.1089
  0.9687  0.9687  0.7317  0.7317  0.8520  0.8520  0.4201  0.7041  0.5514  0.6779
  0.6081  0.6081  0.6239

 Free energy of the ion-electron system (eV)
  ---------------------------------------------------
  alpha Z        PSCENC =        49.09634529
  Ewald energy   TEWEN  =     48184.01534593
  -Hartree energ DENC   =    -70919.91886343
  -exchange      EXHF   =         0.00000000
  -V(xc)+E(xc)   XCENC  =      -256.33166401
  PAW double counting   =     25822.07376561   -24816.03690483
  entropy T*S    EENTRO =         0.00000000
  eigenvalues    EBANDS =     -1960.55554277
  atomic energy  EATOM  =     23855.56849199
  ---------------------------------------------------
  free energy    TOTEN  =       -42.08902622 eV

  energy without entropy =      -42.08902622  energy(sigma->0) =      -42.08902622


--------------------------------------------------------------------------------------------------------




----------------------------------------- Iteration    1(  29)  ---------------------------------------


    POTLOK:  cpu time    0.29: real time    0.29
    SETDIJ:  cpu time    0.01: real time    0.01
     EDDAV:  cpu time    1.94: real time    1.94
       DOS:  cpu time    0.00: real time    0.00
    CHARGE:  cpu time    0.12: real time    0.12
    MIXING:  cpu time    0.02: real time    0.02
    --------------------------------------------
      LOOP:  cpu time    2.36: real time    2.91

 eigenvalue-minimisations  :   440
 total energy-change (2. order) :-0.1044733E-02  (-0.2402791E-05)
 number of electron     252.9999871 magnetization       1.0013614
 augmentation part      121.0664077 magnetization      -0.0380776

 Broyden mixing:
  rms(total) = 0.60184E-03    rms(broyden)= 0.60180E-03
  rms(prec ) = 0.73655E-03
  weight for this iteration     100.00

 eigenvalues of (default mixing * dielectric matrix)
  average eigenvalue GAMMA=   1.8035
  9.7283  6.7296  3.9836  2.3649  2.3649  2.3985  1.4831  1.4831  1.2927  1.2927
  0.9763  0.9763  0.7318  0.7318  0.9073  0.9073  0.7957  0.4201  0.6669  0.6669
  0.6064  0.6064  0.6192  0.5499

 Free energy of the ion-electron system (eV)
  ---------------------------------------------------
  alpha Z        PSCENC =        49.09634529
  Ewald energy   TEWEN  =     48184.01534593
  -Hartree energ DENC   =    -70919.48925218
  -exchange      EXHF   =         0.00000000
  -V(xc)+E(xc)   XCENC  =      -256.33451667
  PAW double counting   =     25821.92058648   -24815.87954529
  entropy T*S    EENTRO =         0.00000000
  eigenvalues    EBANDS =     -1960.98752651
  atomic energy  EATOM  =     23855.56849199
  ---------------------------------------------------
  free energy    TOTEN  =       -42.09007095 eV

  energy without entropy =      -42.09007095  energy(sigma->0) =      -42.09007095


--------------------------------------------------------------------------------------------------------




----------------------------------------- Iteration    1(  30)  ---------------------------------------


    POTLOK:  cpu time    0.28: real time    0.29
    SETDIJ:  cpu time    0.01: real time    0.01
     EDDAV:  cpu time    1.97: real time    1.97
       DOS:  cpu time    0.00: real time    0.00
    CHARGE:  cpu time    0.12: real time    0.12
    MIXING:  cpu time    0.02: real time    0.02
    --------------------------------------------
      LOOP:  cpu time    2.40: real time    2.41

 eigenvalue-minimisations  :   452
 total energy-change (2. order) :-0.2481432E-03  (-0.1214076E-05)
 number of electron     252.9999871 magnetization       0.9986682
 augmentation part      121.0661871 magnetization      -0.0406192

 Broyden mixing:
  rms(total) = 0.26221E-03    rms(broyden)= 0.26214E-03
  rms(prec ) = 0.36171E-03
  weight for this iteration     100.00

 eigenvalues of (default mixing * dielectric matrix)
  average eigenvalue GAMMA=   1.8202
  9.7058  7.2469  4.3754  2.3458  2.3458  2.2627  2.1332  1.2988  1.2988  1.3824
  0.9849  0.9849  0.9457  0.9457  0.7319  0.7319  0.8501  0.8188  0.4201  0.6614
  0.6614  0.5498  0.6068  0.6068  0.6096

 Free energy of the ion-electron system (eV)
  ---------------------------------------------------
  alpha Z        PSCENC =        49.09634529
  Ewald energy   TEWEN  =     48184.01534593
  -Hartree energ DENC   =    -70919.33056701
  -exchange      EXHF   =         0.00000000
  -V(xc)+E(xc)   XCENC  =      -256.33452176
  PAW double counting   =     25822.10840796   -24816.06893619
  entropy T*S    EENTRO =         0.00000000
  eigenvalues    EBANDS =     -1961.14488530
  atomic energy  EATOM  =     23855.56849199
  ---------------------------------------------------
  free energy    TOTEN  =       -42.09031909 eV

  energy without entropy =      -42.09031909  energy(sigma->0) =      -42.09031909


--------------------------------------------------------------------------------------------------------




----------------------------------------- Iteration    1(  31)  ---------------------------------------


    POTLOK:  cpu time    0.29: real time    0.29
    SETDIJ:  cpu time    0.01: real time    0.01
     EDDAV:  cpu time    1.96: real time    1.96
       DOS:  cpu time    0.00: real time    0.00
    --------------------------------------------
      LOOP:  cpu time    2.26: real time    2.26

 eigenvalue-minimisations  :   448
 total energy-change (2. order) :-0.2308394E-04  (-0.4074647E-06)
 number of electron     252.9999871 magnetization       0.9986682
 augmentation part      121.0661871 magnetization      -0.0406192

 Free energy of the ion-electron system (eV)
  ---------------------------------------------------
  alpha Z        PSCENC =        49.09634529
  Ewald energy   TEWEN  =     48184.01534593
  -Hartree energ DENC   =    -70919.21972019
  -exchange      EXHF   =         0.00000000
  -V(xc)+E(xc)   XCENC  =      -256.33477636
  PAW double counting   =     25822.11379664   -24816.07445565
  entropy T*S    EENTRO =         0.00000000
  eigenvalues    EBANDS =     -1961.25536984
  atomic energy  EATOM  =     23855.56849199
  ---------------------------------------------------
  free energy    TOTEN  =       -42.09034218 eV

  energy without entropy =      -42.09034218  energy(sigma->0) =      -42.09034218


--------------------------------------------------------------------------------------------------------




 average (electrostatic) potential at core
  the test charge radii are     1.1249
  (the norm of the test charge is              1.0000)
       1 -82.7185       2 -82.5199       3 -82.6404       4 -82.6251       5 -82.7150
       6 -82.7386       7 -82.7536       8 -82.6026       9 -83.0413      10 -82.6708
      11 -82.6762      12 -82.7782      13 -82.6173      14 -82.5032      15 -83.0591
      16 -82.6962      17 -82.7195      18 -82.4508      19 -82.5477      20 -82.5108
      21 -82.4709      22 -82.3131      23 -82.3436
 
 
 
 E-fermi :  -3.3346     XC(G=0):  -0.9330     alpha+bet : -0.5760


 spin component 1

 k-point     1 :       0.0000    0.0000    0.0000
  band No.  band energies     occupation 
      1     -10.5672      1.00000
[...]
    102      -6.6430      1.00000
    103      -6.6215      1.00000
    104      -6.6130      1.00000
    105      -6.5882      1.00000
    106      -6.5824      1.00000
    107      -6.5700      1.00000
    108      -6.5531      1.00000
    109      -6.5371      1.00000
    110      -6.5147      1.00000
    111      -6.4905      1.00000
    112      -6.4814      1.00000
    113      -6.4405      1.00000
    114      -6.4291      1.00000
    115      -6.3894      1.00000
    116      -6.3425      1.00000
    117      -6.2854      1.00000
    118      -6.2630      1.00000
    119      -6.1330      1.00000
    120      -5.6251      1.00000
    121      -5.1370      1.00000
    122      -5.0245      1.00000
    123      -4.5813      1.00000
    124      -4.3148      1.00000
    125      -3.9878      1.00000
    126      -3.6073      1.00000
    127      -3.4142      0.00000
    128      -3.0913      0.00000
    129      -3.0039      0.00000
    130      -2.9432      0.00000
    131      -2.5537      0.00000
    132      -2.3598      0.00000
    133      -2.2783      0.00000
    134      -2.0056      0.00000
    135      -1.9111      0.00000
    136      -1.7819      0.00000
    137      -1.6196      0.00000
    138      -1.3445      0.00000
    139      -1.1620      0.00000
    140      -1.0598      0.00000
    141      -0.9986      0.00000
    142      -0.9888      0.00000
    143      -0.8264      0.00000
    144      -0.6762      0.00000
    145      -0.5800      0.00000
    146      -0.4490      0.00000
    147      -0.2281      0.00000
    148      -0.0626      0.00000
    149       0.1570      0.00000
    150       0.1854      0.00000
    151       0.3026      0.00000
    152       0.3687      0.00000
    153       0.5142      0.00000
    154       0.5920      0.00000
    155       0.6325      0.00000
    156       0.7029      0.00000
    157       0.7083      0.00000
    158       0.7575      0.00000
    159       0.7728      0.00000
    160       0.7912      0.00000
    161       0.8229      0.00000
    162       0.8937      0.00000
    163       0.9469      0.00000
    164       0.9682      0.00000


--------------------------------------------------------------------------------------------------------


 soft charge-density along one line, spin component           1
         0         1         2         3         4         5         6         7         8         9
 total charge-density along one line
 
 soft charge-density along one line, spin component           2
         0         1         2         3         4         5         6         7         8         9
 total charge-density along one line
 
 pseudopotential strength for first ion, spin component:           1
-10.313  -0.009  -0.007   0.005   0.001 -10.287  -0.008  -0.006
 -0.009 -10.322   0.005   0.005  -0.006  -0.008 -10.296   0.004
 -0.007   0.005 -10.314  -0.003  -0.006  -0.006   0.004 -10.289
  0.005   0.005  -0.003 -10.311  -0.002   0.005   0.005  -0.003
  0.001  -0.006  -0.006  -0.002 -10.312   0.001  -0.005  -0.006
-10.287  -0.008  -0.006   0.005   0.001 -10.237  -0.008  -0.006
 -0.008 -10.296   0.004   0.005  -0.005  -0.008 -10.246   0.004
 -0.006   0.004 -10.289  -0.003  -0.006  -0.006   0.004 -10.239
  0.005   0.005  -0.003 -10.286  -0.002   0.005   0.005  -0.003
  0.001  -0.005  -0.006  -0.002 -10.286   0.001  -0.005  -0.006
 -0.004  -0.002   0.002   0.003  -0.003  -0.004  -0.002   0.002
 -0.006  -0.004   0.003   0.004  -0.005  -0.006  -0.004   0.003
  0.018  -0.001  -0.007  -0.000  -0.012   0.017  -0.001  -0.007
 -0.000   0.012  -0.000   0.018   0.000  -0.000   0.012  -0.000
  0.013  -0.000  -0.011  -0.001   0.018   0.012  -0.000  -0.010
  0.021  -0.001  -0.009   0.000  -0.015   0.020  -0.001  -0.009
  0.000   0.015  -0.001   0.021  -0.000   0.000   0.014  -0.000
  0.016   0.000  -0.013  -0.001   0.022   0.015   0.000  -0.012
 pseudopotential strength for first ion, spin component:           2
-10.313  -0.009  -0.007   0.005   0.001 -10.287  -0.008  -0.007
 -0.009 -10.322   0.004   0.005  -0.006  -0.008 -10.296   0.004
 -0.007   0.004 -10.314  -0.003  -0.006  -0.007   0.004 -10.289
  0.005   0.005  -0.003 -10.311  -0.002   0.005   0.005  -0.003
  0.001  -0.006  -0.006  -0.002 -10.311   0.001  -0.006  -0.006
-10.287  -0.008  -0.007   0.005   0.001 -10.237  -0.008  -0.006
 -0.008 -10.296   0.004   0.005  -0.006  -0.008 -10.246   0.004
 -0.007   0.004 -10.289  -0.003  -0.006  -0.006   0.004 -10.239
  0.005   0.005  -0.003 -10.286  -0.002   0.005   0.004  -0.003
  0.001  -0.006  -0.006  -0.002 -10.286   0.001  -0.006  -0.006
 -0.004  -0.002   0.002   0.002  -0.003  -0.004  -0.002   0.002
 -0.006  -0.004   0.003   0.004  -0.005  -0.006  -0.004   0.003
  0.018  -0.001  -0.007  -0.000  -0.012   0.017  -0.001  -0.007
 -0.000   0.012  -0.000   0.018   0.000  -0.000   0.011  -0.000
  0.013  -0.000  -0.011  -0.000   0.018   0.012  -0.000  -0.010
  0.022  -0.001  -0.009  -0.000  -0.015   0.021  -0.001  -0.009
 -0.000   0.015  -0.000   0.022   0.000  -0.000   0.014  -0.000
  0.015  -0.000  -0.013  -0.001   0.022   0.015  -0.000  -0.012
 total augmentation occupancy for first ion, spin component:           1
  2.607  -0.015  -0.064   0.011  -0.109  -0.597  -0.046   0.023  -0.003   0.120   0.189   0.003   0.098   0.006  -0.010   0.005
 -0.015   2.559  -0.038   0.184  -0.006  -0.047  -0.615   0.060  -0.155  -0.014   0.148  -0.038  -0.005   0.102  -0.010   0.001
 -0.064  -0.038   2.618  -0.090  -0.001   0.023   0.060  -0.609   0.075  -0.022  -0.148  -0.005  -0.022  -0.045  -0.026  -0.003
  0.011   0.184  -0.090   2.785   0.002  -0.003  -0.155   0.075  -0.788   0.019  -0.145   0.016   0.010   0.180   0.014  -0.000
 -0.109  -0.006  -0.001   0.002   2.851   0.120  -0.014  -0.022   0.019  -0.810   0.174  -0.011  -0.143   0.003   0.108   0.001
 -0.597  -0.047   0.023  -0.003   0.120   0.560   0.098   0.009  -0.003  -0.129  -0.152  -0.008  -0.118  -0.007   0.005   0.007
 -0.046  -0.615   0.060  -0.155  -0.014   0.098   0.633  -0.079   0.133   0.031  -0.124   0.028  -0.003  -0.114   0.005  -0.000
  0.023   0.060  -0.609   0.075  -0.022   0.009  -0.079   0.571  -0.062   0.041   0.128   0.003   0.026   0.050   0.031  -0.001
 -0.003  -0.155   0.075  -0.788   0.019  -0.003   0.133  -0.062   0.763  -0.036   0.123  -0.009  -0.010  -0.201  -0.012   0.000
  0.120  -0.014  -0.022   0.019  -0.810  -0.129   0.031   0.041  -0.036   0.747  -0.143   0.005   0.158   0.001  -0.121  -0.010
  0.189   0.148  -0.148  -0.145   0.174  -0.152  -0.124   0.128   0.123  -0.143   1.850  -0.240  -0.106   0.014  -0.169   0.010
  0.003  -0.038  -0.005   0.016  -0.011  -0.008   0.028   0.003  -0.009   0.005  -0.240   0.050   0.025  -0.006   0.041  -0.002
  0.098  -0.005  -0.022   0.010  -0.143  -0.118  -0.003   0.026  -0.010   0.158  -0.106   0.025   0.075  -0.003  -0.011  -0.005
  0.006   0.102  -0.045   0.180   0.003  -0.007  -0.114   0.050  -0.201   0.001   0.014  -0.006  -0.003   0.087   0.004   0.000
 -0.010  -0.010  -0.026   0.014   0.108   0.005   0.005   0.031  -0.012  -0.121  -0.169   0.041  -0.011   0.004   0.063   0.000
  0.005   0.001  -0.003  -0.000   0.001   0.007  -0.000  -0.001   0.000  -0.010   0.010  -0.002  -0.005   0.000   0.000   0.000
 -0.000   0.001   0.003   0.001  -0.001   0.000   0.007  -0.003   0.012   0.000  -0.002   0.000   0.000  -0.005  -0.000  -0.000
  0.007   0.000  -0.005  -0.001   0.005  -0.001  -0.000  -0.001   0.001   0.007   0.017  -0.003   0.000  -0.000  -0.004   0.000
 total augmentation occupancy for first ion, spin component:           2
 -0.001   0.004  -0.003  -0.005  -0.005  -0.000  -0.004   0.002   0.004   0.003   0.004  -0.000   0.003  -0.003  -0.001  -0.000
  0.004   0.002  -0.005  -0.009  -0.011  -0.004  -0.003   0.004   0.008   0.008   0.008   0.001   0.005  -0.005  -0.002  -0.000
 -0.003  -0.005   0.000   0.004   0.003   0.002   0.004  -0.001  -0.003  -0.002  -0.002  -0.000  -0.003   0.002   0.001   0.000
 -0.005  -0.009   0.004   0.004   0.009   0.004   0.008  -0.003  -0.003  -0.007  -0.005   0.000  -0.005   0.002   0.002   0.000
 -0.005  -0.011   0.003   0.009   0.007   0.003   0.008  -0.002  -0.007  -0.006  -0.003  -0.001  -0.006   0.004   0.002   0.000
 -0.000  -0.004   0.002   0.004   0.003   0.001   0.003  -0.002  -0.004  -0.002  -0.003   0.000  -0.002   0.002   0.001   0.000
 -0.004  -0.003   0.004   0.008   0.008   0.003   0.004  -0.004  -0.006  -0.005  -0.008  -0.000  -0.004   0.004   0.002   0.000
  0.002   0.004  -0.001  -0.003  -0.002  -0.002  -0.004   0.001   0.003   0.002   0.001   0.000   0.002  -0.002  -0.001  -0.000
  0.004   0.008  -0.003  -0.003  -0.007  -0.004  -0.006   0.003   0.003   0.005   0.004  -0.000   0.004  -0.002  -0.002  -0.000
  0.003   0.008  -0.002  -0.007  -0.006  -0.002  -0.005   0.002   0.005   0.005   0.002   0.001   0.004  -0.003  -0.001  -0.000
  0.004   0.008  -0.002  -0.005  -0.003  -0.003  -0.008   0.001   0.004   0.002   0.001  -0.001   0.003  -0.002  -0.002  -0.000
 -0.000   0.001  -0.000   0.000  -0.001   0.000  -0.000   0.000  -0.000   0.001  -0.001   0.000   0.000  -0.000  -0.000  -0.000
  0.003   0.005  -0.003  -0.005  -0.006  -0.002  -0.004   0.002   0.004   0.004   0.003   0.000   0.003  -0.003  -0.001  -0.000
 -0.003  -0.005   0.002   0.002   0.004   0.002   0.004  -0.002  -0.002  -0.003  -0.002  -0.000  -0.003   0.001   0.001   0.000
 -0.001  -0.002   0.001   0.002   0.002   0.001   0.002  -0.001  -0.002  -0.001  -0.002  -0.000  -0.001   0.001   0.000   0.000
 -0.000  -0.000   0.000   0.000   0.000   0.000   0.000  -0.000  -0.000  -0.000  -0.000  -0.000  -0.000   0.000   0.000   0.000
  0.000   0.000  -0.000  -0.000  -0.000  -0.000  -0.000   0.000   0.000   0.000   0.000   0.000   0.000  -0.000  -0.000  -0.000
  0.000   0.000  -0.000  -0.000  -0.000  -0.000  -0.000   0.000   0.000   0.000   0.000  -0.000   0.000  -0.000  -0.000  -0.000


------------------------ aborting loop because EDIFF is reached ----------------------------------------


    CHARGE:  cpu time    0.11: real time    0.12
    FORLOC:  cpu time    0.01: real time    0.01
    FORNL :  cpu time    1.51: real time    1.51
    STRESS:  cpu time    1.90: real time    1.90
    FORCOR:  cpu time    0.29: real time    0.29
    FORHAR:  cpu time    0.04: real time    0.04
    MIXING:  cpu time    0.01: real time    0.01
    OFIELD:  cpu time    0.00: real time    0.00

  FORCE on cell =-STRESS in cart. coord.  units (eV):
  Direction    XX          YY          ZZ          XY          YZ          ZX
  --------------------------------------------------------------------------------------
  Alpha Z    49.09635    49.09635    49.09635
  Ewald   11386.07384 19785.93232 12197.44784 -2135.21618 -4134.47471  1469.16271
  Hartree 19191.65010 27087.03717 19927.88476 -1917.62009 -3724.07132  1315.51605
  E(xc)   -1333.77093 -1332.96195 -1333.48228    -0.48722    -0.87882     0.29735
  Local  -34315.85468-50613.57286-35863.29361  4048.85948  7851.50723 -2777.59409
  n-local  -250.28938  -248.03867  -250.09569    -0.17654    -0.41132    -0.78010
  augment  2113.26204  2112.69814  2113.12266     1.36481     2.49001    -1.87641
  Kinetic  3151.55199  3151.18840  3151.21245     3.15123     5.69225    -4.74335
  Fock        0.00000     0.00000     0.00000     0.00000     0.00000     0.00000
  -------------------------------------------------------------------------------------
  Total      -8.28067    -8.62110    -8.10751    -0.12450    -0.14669    -0.01785
  in kB      -1.44762    -1.50714    -1.41735    -0.02177    -0.02564    -0.00312
  external pressure =       -1.46 kB  Pullay stress =        0.00 kB


 VOLUME and BASIS-vectors are now :
 -----------------------------------------------------------------------------
  energy-cutoff  :      249.84
  volume of cell :     9164.75
      direct lattice vectors                 reciprocal lattice vectors
    20.926996230  0.000000000  0.000000000     0.047785167  0.000000000  0.000000000
     0.000000000 20.926996230  0.000000000     0.000000000  0.047785167  0.000000000
     0.000000000  0.000000000 20.926996230     0.000000000  0.000000000  0.047785167

  length of vectors
    20.926996230 20.926996230 20.926996230     0.047785167  0.047785167  0.047785167


 FORCES acting on ions
    electron-ion (+dipol)            ewald-force                    non-local-force                 convergence-correction
 -----------------------------------------------------------------------------------------------
   -.118E+04 -.645E+03 0.639E+02   0.118E+04 0.643E+03 -.638E+02   0.314E+01 0.205E+01 -.519E-01   0.152E-02 0.175E-02 0.406E-02
   -.892E+03 0.767E+02 0.873E+03   0.891E+03 -.770E+02 -.873E+03   0.777E+00 0.266E+00 -.608E+00   -.860E-02 0.294E-02 -.224E-02
   -.639E+03 -.105E+04 0.542E+03   0.637E+03 0.105E+04 -.541E+03   0.200E+01 0.314E+01 -.129E+01   -.432E-02 -.533E-02 0.836E-03
   -.334E+03 -.103E+04 -.643E+03   0.334E+03 0.103E+04 0.642E+03   0.451E+00 0.217E+01 0.828E+00   0.495E-02 -.192E-02 0.271E-02
   -.129E+04 0.356E+03 -.620E+02   0.129E+04 -.355E+03 0.617E+02   0.465E+01 -.144E+01 0.249E+00   -.118E-02 0.572E-03 -.734E-02
   -.213E+03 -.148E+03 0.135E+04   0.212E+03 0.147E+03 -.135E+04   0.873E+00 0.597E+00 -.496E+01   -.212E-02 -.188E-02 0.597E-02
   -.929E+03 -.256E+03 -.962E+03   0.926E+03 0.256E+03 0.959E+03   0.322E+01 -.908E+00 0.348E+01   -.599E-02 -.110E-01 -.254E-02
   0.382E+03 -.128E+04 -.269E+03   -.381E+03 0.127E+04 0.267E+03   -.604E+00 0.408E+01 0.230E+01   -.759E-04 -.275E-02 -.188E-02
   -.181E+03 0.141E+03 -.314E+03   0.181E+03 -.141E+03 0.314E+03   0.984E-01 0.447E+00 0.310E-01   0.111E-01 -.226E-01 0.129E-01
   0.433E+03 -.959E+03 0.859E+03   -.430E+03 0.957E+03 -.856E+03   -.253E+01 0.190E+01 -.318E+01   0.907E-02 -.711E-02 0.107E-01
   0.407E+02 -.266E+03 -.134E+04   -.416E+02 0.267E+03 0.133E+04   0.801E+00 -.688E+00 0.472E+01   -.314E-02 0.814E-02 0.658E-02
   0.129E+04 -.489E+03 0.297E+02   -.129E+04 0.487E+03 -.290E+02   -.449E+01 0.213E+01 -.709E+00   0.141E-02 0.194E-02 -.125E-02
   -.649E+03 0.876E+03 0.687E+03   0.647E+03 -.875E+03 -.686E+03   0.241E+01 -.126E+01 -.139E+01   -.176E-02 0.172E-02 -.601E-02
   0.869E+03 -.478E+03 -.854E+03   -.868E+03 0.476E+03 0.853E+03   -.127E+01 0.147E+01 0.934E+00   -.468E-02 0.557E-02 0.511E-02
   0.209E+03 -.337E+03 0.278E+03   -.208E+03 0.336E+03 -.277E+03   -.939E+00 0.103E+01 -.125E+01   -.787E-02 0.308E-01 -.427E-01
   -.660E+03 0.634E+03 -.801E+03   0.659E+03 -.634E+03 0.798E+03   0.131E+01 -.378E+00 0.254E+01   0.684E-02 0.421E-02 -.907E-02
   0.955E+03 0.164E+03 0.995E+03   -.952E+03 -.163E+03 -.991E+03   -.355E+01 -.813E+00 -.397E+01   0.269E-02 -.298E-02 0.462E-02
   0.221E+03 0.728E+03 0.100E+04   -.220E+03 -.727E+03 -.100E+04   -.665E+00 -.402E+00 -.231E+01   0.128E-02 -.160E-02 -.502E-02
   0.750E+03 0.402E+03 -.964E+03   -.749E+03 -.401E+03 0.961E+03   -.135E+01 -.706E+00 0.285E+01   -.314E-02 0.217E-02 0.325E-02
   0.119E+04 0.487E+03 0.276E+02   -.119E+04 -.486E+03 -.274E+02   -.307E+01 -.386E+00 -.202E+00   -.710E-02 -.429E-02 -.136E-02
   0.609E+03 0.992E+03 0.214E+03   -.609E+03 -.990E+03 -.215E+03   -.390E+00 -.270E+01 0.847E+00   0.261E-02 0.309E-02 0.558E-02
   -.318E+03 0.118E+04 0.509E+02   0.317E+03 -.117E+04 -.498E+02   0.154E+01 -.537E+01 -.111E+01   0.140E-02 0.422E-03 -.836E-03
   0.340E+03 0.901E+03 -.778E+03   -.337E+03 -.897E+03 0.774E+03   -.263E+01 -.335E+01 0.369E+01   0.929E-02 0.105E-01 0.215E-03
 -----------------------------------------------------------------------------------------------
   0.235E+00 -.899E+00 -.151E+01   0.284E-12 0.568E-12 0.114E-12   -.216E+00 0.867E+00 0.144E+01   0.216E-02 0.123E-01 -.177E-01
 
 
 POSITION                                       TOTAL-FORCE (eV/Angst)
 -----------------------------------------------------------------------------------
     13.80489     12.46356     10.52441         0.008960      0.000579      0.014874
     12.54976     10.71114      8.77959        -0.019166      0.006998      0.006039
     11.79998     13.69587      8.97761         0.006321      0.003133      0.001065
     11.35612     13.09797     11.87735         0.008507     -0.015300     -0.001395
     13.85819      9.63535     10.98485         0.004049      0.001701     -0.022167
     10.70887     11.76058      7.00313        -0.002915     -0.000171     -0.001612
     13.17286     11.36963     13.04164        -0.015637     -0.035665     -0.003485
      9.25990     14.48962     10.62312         0.001283     -0.004701      0.001466
     11.08158     10.23948     11.39313        -0.008731     -0.006819     -0.008255
      9.10674     13.97616      7.89104         0.007885      0.007205     -0.003096
     10.61286     11.34086     14.09703        -0.014322      0.022707      0.019413
      7.18715     12.62969     10.00784         0.000030      0.003866     -0.005503
     12.25792      7.84616      9.53987        -0.008843      0.000654     -0.014821
      8.69937     11.96619     12.28040        -0.002059      0.008070      0.000629
      9.86483     11.95018      9.65203        -0.006000     -0.012885      0.000230
     12.12770      8.00452     12.54176         0.029592     -0.011959     -0.010784
      8.03142     11.08339      7.78971        -0.011736     -0.016501      0.001285
     10.13414      9.30220      8.52872        -0.001904     -0.001426     -0.003088
      9.08396      9.14300     13.06472        -0.016032      0.009328      0.010397
      8.13664      9.86903     10.46908        -0.004951      0.001697     -0.003195
      9.72319      7.58819     10.73031         0.004039      0.008623      0.015589
     11.69065      5.62954     11.19032         0.007799      0.000614      0.000642
      9.97069      6.43761     13.27000         0.033830      0.030251      0.005771
 -----------------------------------------------------------------------------------
    total drift:                                0.020792     -0.020016     -0.083815


--------------------------------------------------------------------------------------------------------



  FREE ENERGIE OF THE ION-ELECTRON SYSTEM (eV)
  ---------------------------------------------------
  free  energy   TOTEN  =       -46.12240212 eV

  energy  without entropy=      -46.12240212  energy(sigma->0) =      -46.12240212
 
 d Force = 0.3913231E-03[ 0.161E-03, 0.622E-03]  d Energy = 0.5490295E-03-0.158E-03
 d Force =-0.1935936E+01[-0.195E+01,-0.193E+01]  d Ewald  =-0.1935940E+01 0.439E-05


--------------------------------------------------------------------------------------------------------


    POTLOK:  cpu time    0.30: real time    0.30


--------------------------------------------------------------------------------------------------------




--------------------------------------------------------------------------------------------------------


  
 reached required accuracy - stopping structural energy minimisation
     LOOP+:  cpu time   12.58: real time   12.89
    4ORBIT:  cpu time    0.00: real time    0.00

 total amount of memory used by VASP on root node    65244. kBytes
========================================================================

   base      :      30000. kBytes
   nonl-proj :       2631. kBytes
   fftplans  :       7243. kBytes
   grid      :      18544. kBytes
   one-center:         46. kBytes
   wavefun   :       6780. kBytes
 
  
  
 General timing and accounting informations for this job:
 ========================================================
  
                  Total CPU time used (sec):     1167.341
                            User time (sec):     1157.968
                          System time (sec):        9.373
                         Elapsed time (sec):     1227.510
  
                   Maximum memory used (kb):       81196.
                   Average memory used (kb):           0.
  
                          Minor page faults:      1605769
                          Major page faults:            0
                 Voluntary context switches:        10296
