    6    6 1000    2
  0.1091389E+04  0.1870870E-08  0.1870870E-08  0.1870870E-08  0.1000000E-15
  1.000000000000000E-004
  CAR 
 unknown system                          
     66      1     44
 
  0.0000000E+00  0.0000000E+00  0.0000000E+00  0.1000000E+01
    1       -8.842654     -8.842654
    2       -8.775782     -8.775782
    3       -8.761958     -8.761958
    4       -8.424500     -8.424500
    5       -8.125273     -8.125273
    6       -8.105428     -8.105428
    7       -8.071378     -8.071378
    8       -8.051371     -8.051371
    9       -7.905960     -7.905960
   10       -7.654318     -7.654318
   11       -7.584852     -7.584852
   12       -7.369815     -7.369815
   13       -7.363153     -7.363153
   14       -7.357503     -7.357502
   15       -7.326462     -7.326462
   16       -7.306631     -7.306631
   17       -7.304596     -7.304596
   18       -7.199374     -7.199374
   19       -7.176994     -7.176994
   20       -7.040959     -7.040959
   21       -7.026705     -7.026705
   22       -6.891444     -6.891444
   23       -6.878094     -6.878094
   24       -6.834855     -6.834854
   25       -6.763858     -6.763858
   26       -6.758468     -6.758468
   27       -6.752085     -6.752085
   28       -6.603795     -6.603795
   29       -6.453962     -6.453962
   30       -6.438270     -6.438270
   31       -6.436394     -6.436394
   32       -4.958021     -4.958021
   33       -4.950654     -4.950654
   34       -2.759161     -2.759161
   35       -2.520063     -2.520063
   36       -2.490697     -2.490698
   37       -1.847396     -1.847397
   38       -0.871139     -0.871140
   39       -0.849638     -0.849637
   40       -0.504901     -0.504901
   41       -0.502544     -0.502545
   42       -0.220750     -0.220749
   43       -0.153088     -0.153089
   44        0.073784      0.073779
