<?xml version="1.0" encoding="ISO-8859-1"?>
<modeling>
 <generator>
  <i name="program" type="string">vasp </i>
  <i name="version" type="string">5.3.5  </i>
  <i name="subversion" type="string">31Mar14 (build Feb 01 2018 12:10:03) gamma-only                       parallel </i>
  <i name="platform" type="string">LinuxIFC </i>
  <i name="date" type="string">2019 03 24 </i>
  <i name="time" type="string">05:39:13 </i>
 </generator>
 <incar>
  <i type="string" name="PREC">normal</i>
  <i type="int" name="ISPIN">     2</i>
  <i type="int" name="IBRION">     2</i>
  <i type="int" name="NSW">  1000</i>
  <i type="int" name="ISIF">     2</i>
  <i name="POTIM">      0.10000000</i>
  <i type="logical" name="LPLANE"> T  </i>
  <i type="int" name="ISMEAR">     0</i>
  <i name="SIGMA">      0.00010000</i>
  <i type="logical" name="LWAVE"> F  </i>
  <i type="logical" name="LCHARG"> F  </i>
  <i type="logical" name="LVTOT"> F  </i>
  <i type="string" name="GGA"> PE</i>
 </incar>
 <kpoints>
  <varray name="kpointlist" >
   <v>       0.00000000       0.00000000       0.00000000 </v>
  </varray>
  <varray name="weights" >
   <v>       1.00000000 </v>
  </varray>
 </kpoints>
 <parameters>
  <separator name="general" >
   <i type="string" name="SYSTEM">unknown system</i>
   <i type="logical" name="LCOMPAT"> F  </i>
  </separator>
  <separator name="electronic" >
   <i type="string" name="PREC">normal</i>
   <i name="ENMAX">    249.84400000</i>
   <i name="ENAUG">    412.49600000</i>
   <i name="EDIFF">      0.00010000</i>
   <i type="int" name="IALGO">    38</i>
   <i type="int" name="IWAVPR">    11</i>
   <i type="int" name="NBANDS">   336</i>
   <i name="NELECT">    517.00000000</i>
   <i type="int" name="TURBO">     0</i>
   <i type="int" name="IRESTART">     0</i>
   <i type="int" name="NREBOOT">     0</i>
   <i type="int" name="NMIN">     0</i>
   <i name="EREF">      0.00000000</i>
   <separator name="electronic smearing" >
    <i type="int" name="ISMEAR">     0</i>
    <i name="SIGMA">      0.00010000</i>
    <i name="KSPACING">      0.50000000</i>
    <i type="logical" name="KGAMMA"> T  </i>
   </separator>
   <separator name="electronic projectors" >
    <i type="logical" name="LREAL"> F  </i>
    <v name="ROPT">      0.00000000</v>
    <i type="int" name="LMAXPAW">  -100</i>
    <i type="int" name="LMAXMIX">     2</i>
    <i type="logical" name="NLSPLINE"> F  </i>
   </separator>
   <separator name="electronic startup" >
    <i type="int" name="ISTART">     0</i>
    <i type="int" name="ICHARG">     2</i>
    <i type="int" name="INIWAV">     1</i>
   </separator>
   <separator name="electronic spin" >
    <i type="int" name="ISPIN">     2</i>
    <i type="logical" name="LNONCOLLINEAR"> F  </i>
    <v name="MAGMOM">      1.00000000      1.00000000      1.00000000      1.00000000      1.00000000      1.00000000      1.00000000      1.00000000      1.00000000      1.00000000      1.00000000      1.00000000      1.00000000      1.00000000      1.00000000      1.00000000      1.00000000      1.00000000      1.00000000      1.00000000
      1.00000000      1.00000000      1.00000000      1.00000000      1.00000000      1.00000000      1.00000000      1.00000000      1.00000000      1.00000000      1.00000000      1.00000000      1.00000000      1.00000000      1.00000000      1.00000000      1.00000000      1.00000000      1.00000000      1.00000000
      1.00000000      1.00000000      1.00000000      1.00000000      1.00000000      1.00000000      1.00000000</v>
    <i name="NUPDOWN">     -1.00000000</i>
    <i type="logical" name="LSORBIT"> F  </i>
    <v name="SAXIS">      0.00000000      0.00000000      1.00000000</v>
    <i type="logical" name="LSPIRAL"> F  </i>
    <v name="QSPIRAL">      0.00000000      0.00000000      0.00000000</v>
    <i type="logical" name="LZEROZ"> F  </i>
   </separator>
   <separator name="electronic exchange-correlation" >
    <i type="logical" name="LASPH"> F  </i>
    <i type="logical" name="LMETAGGA"> F  </i>
   </separator>
   <separator name="electronic convergence" >
    <i type="int" name="NELM">    60</i>
    <i type="int" name="NELMDL">    -5</i>
    <i type="int" name="NELMIN">     2</i>
    <i name="ENINI">    249.84400000</i>
    <separator name="electronic convergence detail" >
     <i type="logical" name="LDIAG"> T  </i>
     <i type="logical" name="LSUBROT"> F  </i>
     <i name="WEIMIN">      0.00100000</i>
     <i name="EBREAK">      0.00000007</i>
     <i name="DEPER">      0.30000000</i>
     <i type="int" name="NRMM">     4</i>
     <i name="TIME">      0.40000000</i>
    </separator>
   </separator>
   <separator name="electronic mixer" >
    <i name="AMIX">      0.40000000</i>
    <i name="BMIX">      1.00000000</i>
    <i name="AMIN">      0.10000000</i>
    <i name="AMIX_MAG">      1.60000000</i>
    <i name="BMIX_MAG">      1.00000000</i>
    <separator name="electronic mixer details" >
     <i type="int" name="IMIX">     4</i>
     <i type="int" name="MAXMIX">   -45</i>
     <i name="WC">    100.00000000</i>
     <i type="int" name="INIMIX">     1</i>
     <i type="int" name="MIXPRE">     1</i>
     <i type="int" name="MREMOVE">     5</i>
    </separator>
   </separator>
   <separator name="electronic dipolcorrection" >
    <i type="logical" name="LDIPOL"> F  </i>
    <i type="logical" name="LMONO"> F  </i>
    <i type="int" name="IDIPOL">     0</i>
    <i name="EPSILON">      1.00000000</i>
    <v name="DIPOL">   -100.00000000   -100.00000000   -100.00000000</v>
    <i name="EFIELD">      0.00000000</i>
   </separator>
  </separator>
  <separator name="grids" >
   <i type="int" name="NGX">    96</i>
   <i type="int" name="NGY">    96</i>
   <i type="int" name="NGZ">    96</i>
   <i type="int" name="NGXF">   192</i>
   <i type="int" name="NGYF">   192</i>
   <i type="int" name="NGZF">   192</i>
   <i type="logical" name="ADDGRID"> F  </i>
  </separator>
  <separator name="ionic" >
   <i type="int" name="NSW">  1000</i>
   <i type="int" name="IBRION">     2</i>
   <i type="int" name="ISIF">     2</i>
   <i name="PSTRESS">      0.00000000</i>
   <i name="EDIFFG">      0.00100000</i>
   <i type="int" name="NFREE">     1</i>
   <i name="POTIM">      0.10000000</i>
   <i name="SMASS">     -3.00000000</i>
   <i name="SCALEE">      1.00000000</i>
  </separator>
  <separator name="ionic md" >
   <i name="TEBEG">      0.00010000</i>
   <i name="TEEND">      0.00010000</i>
   <i type="int" name="NBLOCK">     1</i>
   <i type="int" name="KBLOCK">  1000</i>
   <i type="int" name="NPACO">   256</i>
   <i name="APACO">     16.00000000</i>
  </separator>
  <separator name="symmetry" >
   <i type="int" name="ISYM">     2</i>
   <i name="SYMPREC">      0.00001000</i>
  </separator>
  <separator name="dos" >
   <i type="logical" name="LORBIT"> F  </i>
   <v name="RWIGS">     -1.00000000</v>
   <i type="int" name="NEDOS">   301</i>
   <i name="EMIN">     10.00000000</i>
   <i name="EMAX">    -10.00000000</i>
   <i name="EFERMI">      0.00000000</i>
  </separator>
  <separator name="writing" >
   <i type="int" name="NWRITE">     2</i>
   <i type="logical" name="LWAVE"> F  </i>
   <i type="logical" name="LCHARG"> F  </i>
   <i type="logical" name="LPARD"> F  </i>
   <i type="logical" name="LVTOT"> F  </i>
   <i type="logical" name="LVHAR"> F  </i>
   <i type="logical" name="LELF"> F  </i>
   <i type="logical" name="LOPTICS"> F  </i>
   <v name="STM">      0.00000000      0.00000000      0.00000000      0.00000000      0.00000000      0.00000000      0.00000000</v>
  </separator>
  <separator name="performance" >
   <i type="int" name="NPAR">     4</i>
   <i type="int" name="NSIM">     4</i>
   <i type="int" name="NBLK">    -1</i>
   <i type="logical" name="LPLANE"> T  </i>
   <i type="logical" name="LSCALAPACK"> T  </i>
   <i type="logical" name="LSCAAWARE"> F  </i>
   <i type="logical" name="LSCALU"> F  </i>
   <i type="logical" name="LASYNC"> F  </i>
   <i type="logical" name="LORBITALREAL"> F  </i>
  </separator>
  <separator name="miscellaneous" >
   <i type="int" name="IDIOT">     3</i>
   <i type="logical" name="LMUSIC"> F  </i>
   <v name="POMASS">    107.86800000</v>
   <v name="DARWINR">      0.00000000</v>
   <v name="DARWINV">      1.00000000</v>
   <i type="logical" name="LCORR"> T  </i>
  </separator>
  <i type="logical" name="GGA_COMPAT"> T  </i>
  <i type="logical" name="LBERRY"> F  </i>
  <i type="int" name="ICORELEVEL">     0</i>
  <i type="logical" name="LDAU"> F  </i>
  <i type="int" name="I_CONSTRAINED_M">     0</i>
  <separator name="electronic exchange-correlation" >
   <i type="string" name="GGA">PE</i>
   <i type="int" name="VOSKOWN">     0</i>
   <i type="logical" name="LHFCALC"> F  </i>
   <i type="string" name="PRECFOCK"></i>
   <i type="logical" name="LSYMGRAD"> F  </i>
   <i type="logical" name="LHFONE"> F  </i>
   <i type="logical" name="LRHFCALC"> F  </i>
   <i type="logical" name="LTHOMAS"> F  </i>
   <i type="logical" name="LMODELHF"> F  </i>
   <i name="ENCUT4O">     -1.00000000</i>
   <i type="int" name="EXXOEP">     0</i>
   <i type="int" name="FOURORBIT">     0</i>
   <i name="AEXX">      0.00000000</i>
   <i name="HFALPHA">      0.00000000</i>
   <i name="MCALPHA">      0.00000000</i>
   <i name="ALDAX">      1.00000000</i>
   <i name="AGGAX">      1.00000000</i>
   <i name="ALDAC">      1.00000000</i>
   <i name="AGGAC">      1.00000000</i>
   <i type="int" name="NKREDX">     1</i>
   <i type="int" name="NKREDY">     1</i>
   <i type="int" name="NKREDZ">     1</i>
   <i type="logical" name="SHIFTRED"> F  </i>
   <i type="logical" name="ODDONLY"> F  </i>
   <i type="logical" name="EVENONLY"> F  </i>
   <i type="int" name="LMAXFOCK">     0</i>
   <i type="int" name="NMAXFOCKAE">     0</i>
   <i type="logical" name="LFOCKAEDFT"> F  </i>
   <i name="HFSCREEN">      0.00000000</i>
   <i name="HFSCREENC">      0.00000000</i>
   <i type="int" name="NBANDSGWLOW">     0</i>
  </separator>
  <separator name="vdW DFT" >
   <i type="logical" name="LUSE_VDW"> F  </i>
   <i name="Zab_VDW">     -0.84910000</i>
   <i name="PARAM1">      0.12340000</i>
   <i name="PARAM2">      1.00000000</i>
   <i name="PARAM3">      0.00000000</i>
  </separator>
  <separator name="model GW" >
   <i type="int" name="MODEL_GW">     0</i>
   <i name="MODEL_EPS0">    166.94354713</i>
   <i name="MODEL_ALPHA">      1.00000000</i>
  </separator>
  <separator name="linear response parameters" >
   <i type="logical" name="LEPSILON"> F  </i>
   <i type="logical" name="LRPA"> F  </i>
   <i type="logical" name="LNABLA"> F  </i>
   <i type="logical" name="LVEL"> F  </i>
   <i type="int" name="KINTER">     0</i>
   <i name="CSHIFT">      0.10000000</i>
   <i name="OMEGAMAX">     -1.00000000</i>
   <i name="DEG_THRESHOLD">      0.00200000</i>
  </separator>
  <separator name="orbital magnetization" >
   <i type="logical" name="NUCIND"> F  </i>
   <v name="MAGPOS">      0.00000000      0.00000000      0.00000000</v>
   <i type="logical" name="LNICSALL"> T  </i>
   <i type="logical" name="ORBITALMAG"> F  </i>
   <i type="logical" name="LMAGBLOCH"> F  </i>
   <i type="logical" name="LCHIMAG"> F  </i>
   <i type="logical" name="LGAUGE"> T  </i>
   <i type="int" name="MAGATOM">     0</i>
   <v name="MAGDIPOL">      0.00000000      0.00000000      0.00000000</v>
   <v name="AVECCONST">      0.00000000      0.00000000      0.00000000</v>
  </separator>
  <separator name="response functions" >
   <i type="logical" name="LADDER"> F  </i>
   <i type="logical" name="LFXC"> F  </i>
   <i type="logical" name="LHARTREE"> T  </i>
   <i type="int" name="IBSE">     0</i>
   <i type="logical" name="LTCTE"> F  </i>
   <i type="logical" name="LTETE"> F  </i>
   <i type="logical" name="LTRIPLET"> F  </i>
   <i type="logical" name="LFXCEPS"> F  </i>
   <i type="logical" name="LFXHEG"> F  </i>
   <i type="logical" name="L2ORDER"> F  </i>
   <i type="logical" name="LUSEW"> F  </i>
   <i name="ENCUTGW">     -2.00000000</i>
   <i name="ENCUTGWSOFT">     -2.00000000</i>
   <i name="ENCUTLF">     -1.00000000</i>
   <i type="int" name="LMAXMP2">    -1</i>
   <i name="SCISSOR">      0.00000000</i>
   <i type="int" name="NOMEGA">     0</i>
   <i type="int" name="NOMEGAR">     0</i>
   <i type="int" name="NBANDSGW">    -1</i>
   <i type="int" name="NBANDSO">    -1</i>
   <i type="int" name="NBANDSV">    -1</i>
   <i type="int" name="NELM">     1</i>
   <i type="int" name="DIM">     3</i>
   <i type="int" name="ANTIRES">     0</i>
   <i name="OMEGAMAX">    -30.00000000</i>
   <i name="OMEGAMIN">    -30.00000000</i>
   <i name="OMEGATL">   -200.00000000</i>
   <i type="int" name="OMEGAGRID">     0</i>
   <i name="CSHIFT">     -0.10000000</i>
   <i type="logical" name="SELFENERGY"> F  </i>
   <i type="logical" name="LSPECTRAL"> F  </i>
   <i type="logical" name="ODDONLYGW"> F  </i>
   <i type="logical" name="EVENONLYGW"> F  </i>
   <i type="int" name="NKREDLFX">     1</i>
   <i type="int" name="NKREDLFY">     1</i>
   <i type="int" name="NKREDLFZ">     1</i>
   <i type="int" name="MAXMEM">  1800</i>
   <i type="int" name="TELESCOPE">     0</i>
   <i type="int" name="TAUPAR">     1</i>
  </separator>
  <separator name="External order field" >
   <i name="OFIELD_KAPPA">      0.00000000</i>
   <v name="OFIELD_K">      0.00000000      0.00000000      0.00000000</v>
   <i name="OFIELD_Q6_NEAR">      0.00000000</i>
   <i name="OFIELD_Q6_FAR">      0.00000000</i>
   <i name="OFIELD_A">      0.00000000</i>
  </separator>
 </parameters>
 <atominfo>
  <atoms>      47 </atoms>
  <types>       1 </types>
  <array name="atoms" >
   <dimension dim="1">ion</dimension>
   <field type="string">element</field>
   <field type="int">atomtype</field>
   <set>
    <rc><c>Ag</c><c>   1</c></rc>
    <rc><c>Ag</c><c>   1</c></rc>
    <rc><c>Ag</c><c>   1</c></rc>
    <rc><c>Ag</c><c>   1</c></rc>
    <rc><c>Ag</c><c>   1</c></rc>
    <rc><c>Ag</c><c>   1</c></rc>
    <rc><c>Ag</c><c>   1</c></rc>
    <rc><c>Ag</c><c>   1</c></rc>
    <rc><c>Ag</c><c>   1</c></rc>
    <rc><c>Ag</c><c>   1</c></rc>
    <rc><c>Ag</c><c>   1</c></rc>
    <rc><c>Ag</c><c>   1</c></rc>
    <rc><c>Ag</c><c>   1</c></rc>
    <rc><c>Ag</c><c>   1</c></rc>
    <rc><c>Ag</c><c>   1</c></rc>
    <rc><c>Ag</c><c>   1</c></rc>
    <rc><c>Ag</c><c>   1</c></rc>
    <rc><c>Ag</c><c>   1</c></rc>
    <rc><c>Ag</c><c>   1</c></rc>
    <rc><c>Ag</c><c>   1</c></rc>
    <rc><c>Ag</c><c>   1</c></rc>
    <rc><c>Ag</c><c>   1</c></rc>
    <rc><c>Ag</c><c>   1</c></rc>
    <rc><c>Ag</c><c>   1</c></rc>
    <rc><c>Ag</c><c>   1</c></rc>
    <rc><c>Ag</c><c>   1</c></rc>
    <rc><c>Ag</c><c>   1</c></rc>
    <rc><c>Ag</c><c>   1</c></rc>
    <rc><c>Ag</c><c>   1</c></rc>
    <rc><c>Ag</c><c>   1</c></rc>
    <rc><c>Ag</c><c>   1</c></rc>
    <rc><c>Ag</c><c>   1</c></rc>
    <rc><c>Ag</c><c>   1</c></rc>
    <rc><c>Ag</c><c>   1</c></rc>
    <rc><c>Ag</c><c>   1</c></rc>
    <rc><c>Ag</c><c>   1</c></rc>
    <rc><c>Ag</c><c>   1</c></rc>
    <rc><c>Ag</c><c>   1</c></rc>
    <rc><c>Ag</c><c>   1</c></rc>
    <rc><c>Ag</c><c>   1</c></rc>
    <rc><c>Ag</c><c>   1</c></rc>
    <rc><c>Ag</c><c>   1</c></rc>
    <rc><c>Ag</c><c>   1</c></rc>
    <rc><c>Ag</c><c>   1</c></rc>
    <rc><c>Ag</c><c>   1</c></rc>
    <rc><c>Ag</c><c>   1</c></rc>
    <rc><c>Ag</c><c>   1</c></rc>
   </set>
  </array>
  <array name="atomtypes" >
   <dimension dim="1">type</dimension>
   <field type="int">atomspertype</field>
   <field type="string">element</field>
   <field>mass</field>
   <field>valence</field>
   <field type="string">pseudopotential</field>
   <set>
    <rc><c>  47</c><c>Ag</c><c>    107.86800000</c><c>     11.00000000</c><c>  PAW_PBE Ag 02Apr2005                  </c></rc>
   </set>
  </array>
 </atominfo>
 <structure name="initialpos" >
  <crystal>
   <varray name="basis" >
    <v>      23.55982615       0.00000000       0.00000000 </v>
    <v>       0.00000000      23.55982615       0.00000000 </v>
    <v>       0.00000000       0.00000000      23.55982615 </v>
   </varray>
   <i name="volume">  13077.24452482 </i>
   <varray name="rec_basis" >
    <v>       0.04244513       0.00000000       0.00000000 </v>
    <v>       0.00000000       0.04244513       0.00000000 </v>
    <v>       0.00000000       0.00000000       0.04244513 </v>
   </varray>
  </crystal>
  <varray name="positions" >
   <v>       0.64010134       0.58569329       0.68395095 </v>
   <v>       0.54382966       0.52145145       0.72239814 </v>
   <v>       0.62647980       0.67737590       0.61296425 </v>
   <v>       0.43625323       0.54976982       0.67907350 </v>
   <v>       0.62550276       0.47337563       0.64825630 </v>
   <v>       0.53901965       0.58958552       0.61294033 </v>
   <v>       0.55467166       0.39821714       0.70608576 </v>
   <v>       0.43040467       0.64522788       0.62042616 </v>
   <v>       0.73066327       0.51820793       0.63245776 </v>
   <v>       0.52262169       0.71017063       0.58776989 </v>
   <v>       0.44654856       0.43890397       0.72381568 </v>
   <v>       0.33822817       0.56158566       0.60326227 </v>
   <v>       0.55797022       0.49761296       0.51985196 </v>
   <v>       0.50635570       0.46987690       0.61957542 </v>
   <v>       0.65397660       0.57643334       0.56450792 </v>
   <v>       0.38849664       0.45926850       0.61932244 </v>
   <v>       0.67793154       0.46383936       0.53927062 </v>
   <v>       0.58218421       0.38150741       0.59025793 </v>
   <v>       0.45928845       0.35729131       0.62618302 </v>
   <v>       0.44468463       0.54523842       0.54987271 </v>
   <v>       0.58619420       0.65149956       0.49699452 </v>
   <v>       0.35115441       0.66001553       0.53193385 </v>
   <v>       0.41833720       0.74760627       0.56278259 </v>
   <v>       0.46544133       0.65621315       0.50137212 </v>
   <v>       0.38102213       0.37504918       0.53654766 </v>
   <v>       0.27061110       0.58128669       0.50106378 </v>
   <v>       0.64035345       0.55439160       0.45378581 </v>
   <v>       0.49512237       0.38576370       0.51308026 </v>
   <v>       0.60760349       0.38351503       0.48012195 </v>
   <v>       0.51316715       0.58048503       0.43203314 </v>
   <v>       0.38293625       0.58460137       0.44643440 </v>
   <v>       0.34171359       0.48597895       0.50789707 </v>
   <v>       0.68739187       0.45109441       0.42116134 </v>
   <v>       0.45439036       0.47930552       0.45310253 </v>
   <v>       0.56714747       0.47078108       0.40226733 </v>
   <v>       0.60205714       0.63917141       0.37933047 </v>
   <v>       0.29915216       0.38671519       0.44992459 </v>
   <v>       0.41340586       0.36923309       0.42189201 </v>
   <v>       0.64790400       0.53656217       0.33890887 </v>
   <v>       0.52292013       0.35252882       0.40159145 </v>
   <v>       0.62720941       0.36436597       0.36509560 </v>
   <v>       0.42742299       0.55239343       0.34936654 </v>
   <v>       0.53578587       0.55906333       0.31476435 </v>
   <v>       0.35494477       0.46856773       0.38641992 </v>
   <v>       0.69162569       0.43467488       0.30097133 </v>
   <v>       0.46496092       0.43818881       0.33533806 </v>
   <v>       0.57289529       0.44850319       0.28760483 </v>
  </varray>
 </structure>
 <calculation>
  <scstep>
   <time name="dav">    5.85    5.85</time>
   <time name="total">    6.10    6.13</time>
   <energy>
    <i name="alphaZ">    143.67911763 </i>
    <i name="ewald"> 136884.59969396 </i>
    <i name="hartreedc">-183741.89291276 </i>
    <i name="XCdc">   -512.23376319 </i>
    <i name="pawpsdc">  47158.49236927 </i>
    <i name="pawaedc"> -44991.43661731 </i>
    <i name="eentropy">     -0.00000249 </i>
    <i name="bandstr">    628.35981381 </i>
    <i name="atom">  48748.33561406 </i>
    <i name="e_fr_energy">   4317.90331298 </i>
    <i name="e_wo_entrp">   4317.90331547 </i>
    <i name="e_0_energy">   4317.90331422 </i>
   </energy>
  </scstep>
  <scstep>
   <time name="dav">    8.56    8.56</time>
   <time name="total">    8.56    8.57</time>
   <energy>
    <i name="e_fr_energy">    716.72304577 </i>
    <i name="e_wo_entrp">    716.72304577 </i>
    <i name="e_0_energy">    716.72304577 </i>
   </energy>
  </scstep>
  <scstep>
   <time name="dav">    6.82    6.82</time>
   <time name="total">    6.82    6.83</time>
   <energy>
    <i name="e_fr_energy">    -70.68539821 </i>
    <i name="e_wo_entrp">    -70.68539821 </i>
    <i name="e_0_energy">    -70.68539821 </i>
   </energy>
  </scstep>
  <scstep>
   <time name="dav">    6.13    6.13</time>
   <time name="total">    6.13    6.80</time>
   <energy>
    <i name="e_fr_energy">   -101.40176860 </i>
    <i name="e_wo_entrp">   -101.40176860 </i>
    <i name="e_0_energy">   -101.40176860 </i>
   </energy>
  </scstep>
  <scstep>
   <time name="dav">    6.30    6.31</time>
   <time name="total">    6.46    6.47</time>
   <energy>
    <i name="e_fr_energy">   -101.85687250 </i>
    <i name="e_wo_entrp">   -101.85687250 </i>
    <i name="e_0_energy">   -101.85687250 </i>
   </energy>
  </scstep>
  <scstep>
   <time name="dav">    5.79    5.80</time>
   <time name="total">    6.18    6.22</time>
   <energy>
    <i name="e_fr_energy">    -45.98078102 </i>
    <i name="e_wo_entrp">    -45.98078102 </i>
    <i name="e_0_energy">    -45.98078102 </i>
   </energy>
  </scstep>
  <scstep>
   <time name="dav">    5.97    5.97</time>
   <time name="total">    6.36    6.38</time>
   <energy>
    <i name="e_fr_energy">    -36.85358987 </i>
    <i name="e_wo_entrp">    -36.85358987 </i>
    <i name="e_0_energy">    -36.85358987 </i>
   </energy>
  </scstep>
  <scstep>
   <time name="dav">    6.12    6.12</time>
   <time name="total">    6.51    6.51</time>
   <energy>
    <i name="e_fr_energy">    -34.29711507 </i>
    <i name="e_wo_entrp">    -34.29711507 </i>
    <i name="e_0_energy">    -34.29711507 </i>
   </energy>
  </scstep>
  <scstep>
   <time name="dav">    6.11    6.12</time>
   <time name="total">    6.50    6.53</time>
   <energy>
    <i name="e_fr_energy">    -37.63118926 </i>
    <i name="e_wo_entrp">    -37.63118926 </i>
    <i name="e_0_energy">    -37.63118926 </i>
   </energy>
  </scstep>
  <scstep>
   <time name="dav">    5.94    5.94</time>
   <time name="total">    6.33    6.34</time>
   <energy>
    <i name="e_fr_energy">    -49.12684867 </i>
    <i name="e_wo_entrp">    -49.12684867 </i>
    <i name="e_0_energy">    -49.12684867 </i>
   </energy>
  </scstep>
  <scstep>
   <time name="dav">    6.05    6.05</time>
   <time name="total">    6.44    6.49</time>
   <energy>
    <i name="e_fr_energy">    -59.45587059 </i>
    <i name="e_wo_entrp">    -59.45587059 </i>
    <i name="e_0_energy">    -59.45587059 </i>
   </energy>
  </scstep>
  <scstep>
   <time name="dav">    6.00    6.01</time>
   <time name="total">    6.40    6.44</time>
   <energy>
    <i name="e_fr_energy">    -68.46368745 </i>
    <i name="e_wo_entrp">    -68.46368745 </i>
    <i name="e_0_energy">    -68.46368745 </i>
   </energy>
  </scstep>
  <scstep>
   <time name="dav">    5.80    5.81</time>
   <time name="total">    6.19    6.20</time>
   <energy>
    <i name="e_fr_energy">    -80.58485780 </i>
    <i name="e_wo_entrp">    -80.58485780 </i>
    <i name="e_0_energy">    -80.58485780 </i>
   </energy>
  </scstep>
  <scstep>
   <time name="dav">    6.34    6.34</time>
   <time name="total">    6.73    6.74</time>
   <energy>
    <i name="e_fr_energy">    -82.59470218 </i>
    <i name="e_wo_entrp">    -82.59470218 </i>
    <i name="e_0_energy">    -82.59470218 </i>
   </energy>
  </scstep>
  <scstep>
   <time name="dav">    5.84    5.84</time>
   <time name="total">    6.24    6.26</time>
   <energy>
    <i name="e_fr_energy">    -88.14330495 </i>
    <i name="e_wo_entrp">    -88.14330495 </i>
    <i name="e_0_energy">    -88.14330495 </i>
   </energy>
  </scstep>
  <scstep>
   <time name="dav">    6.02    6.02</time>
   <time name="total">    6.42    6.45</time>
   <energy>
    <i name="e_fr_energy">    -90.08885908 </i>
    <i name="e_wo_entrp">    -90.08885908 </i>
    <i name="e_0_energy">    -90.08885908 </i>
   </energy>
  </scstep>
  <scstep>
   <time name="dav">    5.89    5.89</time>
   <time name="total">    6.29    6.30</time>
   <energy>
    <i name="e_fr_energy">    -93.48881425 </i>
    <i name="e_wo_entrp">    -93.48881425 </i>
    <i name="e_0_energy">    -93.48881425 </i>
   </energy>
  </scstep>
  <scstep>
   <time name="dav">    5.89    5.89</time>
   <time name="total">    6.28    6.34</time>
   <energy>
    <i name="e_fr_energy">    -96.39959459 </i>
    <i name="e_wo_entrp">    -96.39959459 </i>
    <i name="e_0_energy">    -96.39959459 </i>
   </energy>
  </scstep>
  <scstep>
   <time name="dav">    5.99    6.00</time>
   <time name="total">    6.39    6.40</time>
   <energy>
    <i name="e_fr_energy">    -97.92612853 </i>
    <i name="e_wo_entrp">    -97.92612853 </i>
    <i name="e_0_energy">    -97.92612853 </i>
   </energy>
  </scstep>
  <scstep>
   <time name="dav">    5.94    5.95</time>
   <time name="total">    6.34    6.36</time>
   <energy>
    <i name="e_fr_energy">    -99.39088710 </i>
    <i name="e_wo_entrp">    -99.39088710 </i>
    <i name="e_0_energy">    -99.39088710 </i>
   </energy>
  </scstep>
  <scstep>
   <time name="dav">    6.04    6.05</time>
   <time name="total">    6.44    6.45</time>
   <energy>
    <i name="e_fr_energy">    -99.88356446 </i>
    <i name="e_wo_entrp">    -99.88356446 </i>
    <i name="e_0_energy">    -99.88356446 </i>
   </energy>
  </scstep>
  <scstep>
   <time name="dav">    5.84    5.84</time>
   <time name="total">    6.24    6.25</time>
   <energy>
    <i name="e_fr_energy">   -100.01165868 </i>
    <i name="e_wo_entrp">   -100.01165868 </i>
    <i name="e_0_energy">   -100.01165868 </i>
   </energy>
  </scstep>
  <scstep>
   <time name="dav">    5.19    5.19</time>
   <time name="total">    5.59    5.62</time>
   <energy>
    <i name="e_fr_energy">   -100.12060781 </i>
    <i name="e_wo_entrp">   -100.12060781 </i>
    <i name="e_0_energy">   -100.12060781 </i>
   </energy>
  </scstep>
  <scstep>
   <time name="dav">    4.66    4.67</time>
   <time name="total">    5.06    5.10</time>
   <energy>
    <i name="e_fr_energy">   -100.14767126 </i>
    <i name="e_wo_entrp">   -100.14767126 </i>
    <i name="e_0_energy">   -100.14767126 </i>
   </energy>
  </scstep>
  <scstep>
   <time name="dav">    4.57    4.58</time>
   <time name="total">    4.98    5.02</time>
   <energy>
    <i name="e_fr_energy">   -100.16790668 </i>
    <i name="e_wo_entrp">   -100.16790668 </i>
    <i name="e_0_energy">   -100.16790668 </i>
   </energy>
  </scstep>
  <scstep>
   <time name="dav">    4.57    4.57</time>
   <time name="total">    4.97    5.02</time>
   <energy>
    <i name="e_fr_energy">   -100.17646407 </i>
    <i name="e_wo_entrp">   -100.17646407 </i>
    <i name="e_0_energy">   -100.17646407 </i>
   </energy>
  </scstep>
  <scstep>
   <time name="dav">    4.56    4.57</time>
   <time name="total">    4.96    5.71</time>
   <energy>
    <i name="e_fr_energy">   -100.18405246 </i>
    <i name="e_wo_entrp">   -100.18405246 </i>
    <i name="e_0_energy">   -100.18405246 </i>
   </energy>
  </scstep>
  <scstep>
   <time name="dav">    4.56    4.57</time>
   <time name="total">    4.96    5.02</time>
   <energy>
    <i name="e_fr_energy">   -100.18758587 </i>
    <i name="e_wo_entrp">   -100.18758587 </i>
    <i name="e_0_energy">   -100.18758587 </i>
   </energy>
  </scstep>
  <scstep>
   <time name="dav">    4.37    4.38</time>
   <time name="total">    4.78    4.79</time>
   <energy>
    <i name="e_fr_energy">   -100.19052308 </i>
    <i name="e_wo_entrp">   -100.19052308 </i>
    <i name="e_0_energy">   -100.19052308 </i>
   </energy>
  </scstep>
  <scstep>
   <time name="dav">    4.40    4.40</time>
   <time name="total">    4.81    4.81</time>
   <energy>
    <i name="e_fr_energy">   -100.19147528 </i>
    <i name="e_wo_entrp">   -100.19147528 </i>
    <i name="e_0_energy">   -100.19147528 </i>
   </energy>
  </scstep>
  <scstep>
   <time name="dav">    4.25    4.26</time>
   <time name="total">    4.65    4.72</time>
   <energy>
    <i name="e_fr_energy">   -100.19174647 </i>
    <i name="e_wo_entrp">   -100.19174647 </i>
    <i name="e_0_energy">   -100.19174647 </i>
   </energy>
  </scstep>
  <scstep>
   <time name="dav">    4.28    4.29</time>
   <time name="total">    4.53    4.57</time>
   <energy>
    <i name="alphaZ">    143.67911763 </i>
    <i name="ewald"> 136884.59969396 </i>
    <i name="hartreedc">-183663.58076605 </i>
    <i name="XCdc">   -531.00785247 </i>
    <i name="pawpsdc">  51029.38172057 </i>
    <i name="pawaedc"> -48952.53676486 </i>
    <i name="eentropy">      0.00000000 </i>
    <i name="bandstr">  -3759.06259787 </i>
    <i name="atom">  48748.33561406 </i>
    <i name="e_fr_energy">   -100.19183502 </i>
    <i name="e_wo_entrp">   -100.19183502 </i>
    <i name="e_0_energy">   -100.19183502 </i>
   </energy>
  </scstep>
  <structure>
   <crystal>
    <varray name="basis" >
     <v>      23.55982615       0.00000000       0.00000000 </v>
     <v>       0.00000000      23.55982615       0.00000000 </v>
     <v>       0.00000000       0.00000000      23.55982615 </v>
    </varray>
    <i name="volume">  13077.24452482 </i>
    <varray name="rec_basis" >
     <v>       0.04244513       0.00000000       0.00000000 </v>
     <v>       0.00000000       0.04244513       0.00000000 </v>
     <v>       0.00000000       0.00000000       0.04244513 </v>
    </varray>
   </crystal>
   <varray name="positions" >
    <v>       0.64010134       0.58569329       0.68395095 </v>
    <v>       0.54382966       0.52145145       0.72239814 </v>
    <v>       0.62647980       0.67737590       0.61296425 </v>
    <v>       0.43625323       0.54976982       0.67907350 </v>
    <v>       0.62550276       0.47337563       0.64825630 </v>
    <v>       0.53901965       0.58958552       0.61294033 </v>
    <v>       0.55467166       0.39821714       0.70608576 </v>
    <v>       0.43040467       0.64522788       0.62042616 </v>
    <v>       0.73066327       0.51820793       0.63245776 </v>
    <v>       0.52262169       0.71017063       0.58776989 </v>
    <v>       0.44654856       0.43890397       0.72381568 </v>
    <v>       0.33822817       0.56158566       0.60326227 </v>
    <v>       0.55797022       0.49761296       0.51985196 </v>
    <v>       0.50635570       0.46987690       0.61957542 </v>
    <v>       0.65397660       0.57643334       0.56450792 </v>
    <v>       0.38849664       0.45926850       0.61932244 </v>
    <v>       0.67793154       0.46383936       0.53927062 </v>
    <v>       0.58218421       0.38150741       0.59025793 </v>
    <v>       0.45928845       0.35729131       0.62618302 </v>
    <v>       0.44468463       0.54523842       0.54987271 </v>
    <v>       0.58619420       0.65149956       0.49699452 </v>
    <v>       0.35115441       0.66001553       0.53193385 </v>
    <v>       0.41833720       0.74760627       0.56278259 </v>
    <v>       0.46544133       0.65621315       0.50137212 </v>
    <v>       0.38102213       0.37504918       0.53654766 </v>
    <v>       0.27061110       0.58128669       0.50106378 </v>
    <v>       0.64035345       0.55439160       0.45378581 </v>
    <v>       0.49512237       0.38576370       0.51308026 </v>
    <v>       0.60760349       0.38351503       0.48012195 </v>
    <v>       0.51316715       0.58048503       0.43203314 </v>
    <v>       0.38293625       0.58460137       0.44643440 </v>
    <v>       0.34171359       0.48597895       0.50789707 </v>
    <v>       0.68739187       0.45109441       0.42116134 </v>
    <v>       0.45439036       0.47930552       0.45310253 </v>
    <v>       0.56714747       0.47078108       0.40226733 </v>
    <v>       0.60205714       0.63917141       0.37933047 </v>
    <v>       0.29915216       0.38671519       0.44992459 </v>
    <v>       0.41340586       0.36923309       0.42189201 </v>
    <v>       0.64790400       0.53656217       0.33890887 </v>
    <v>       0.52292013       0.35252882       0.40159145 </v>
    <v>       0.62720941       0.36436597       0.36509560 </v>
    <v>       0.42742299       0.55239343       0.34936654 </v>
    <v>       0.53578587       0.55906333       0.31476435 </v>
    <v>       0.35494477       0.46856773       0.38641992 </v>
    <v>       0.69162569       0.43467488       0.30097133 </v>
    <v>       0.46496092       0.43818881       0.33533806 </v>
    <v>       0.57289529       0.44850319       0.28760483 </v>
   </varray>
  </structure>
  <varray name="forces" >
   <v>       0.01570506      -0.21399167      -0.00502966 </v>
   <v>       0.00089774      -0.10388804      -0.14615465 </v>
   <v>       0.26261035       0.07125208      -0.01404939 </v>
   <v>      -0.07570249      -0.19862899       0.12564338 </v>
   <v>       0.06348462       0.18981983      -0.05391873 </v>
   <v>       0.09663190       0.04642734       0.08275799 </v>
   <v>      -0.02919927      -0.18198887      -0.16523906 </v>
   <v>      -0.25808207       0.23864848      -0.13847895 </v>
   <v>       0.07412459       0.06855622      -0.00834885 </v>
   <v>       0.14953474       0.13803700      -0.07309261 </v>
   <v>      -0.02571214       0.18666186      -0.06313185 </v>
   <v>      -0.10972254       0.43799529      -0.06581939 </v>
   <v>       0.04874535       0.00852307      -0.09858657 </v>
   <v>       0.13279238      -0.28941918       0.37430313 </v>
   <v>       0.08203361      -0.10549466       0.43831697 </v>
   <v>      -0.16765311      -0.45991228      -0.08523046 </v>
   <v>      -0.09793083      -0.14639884      -0.04726872 </v>
   <v>       0.03680929      -0.09907288       0.47288246 </v>
   <v>       0.20413243       0.18166803       0.05502234 </v>
   <v>       0.02909698       0.15289761      -0.05496075 </v>
   <v>      -0.08934450       0.15483844       0.41677769 </v>
   <v>      -0.29348409      -0.08074528       0.09276982 </v>
   <v>      -0.23609901       0.40014645      -0.08370033 </v>
   <v>      -0.16530745       0.28788232       0.04248912 </v>
   <v>      -0.13825479      -0.07430219       0.01750902 </v>
   <v>       0.30442540      -0.13322010      -0.09291212 </v>
   <v>       0.03625526      -0.00026243      -0.17933127 </v>
   <v>      -0.27582109      -0.02615222       0.19389829 </v>
   <v>       0.30430788       0.14994769      -0.26837957 </v>
   <v>       0.09922321      -0.24404228      -0.02540841 </v>
   <v>      -0.28366566      -0.18819567       0.52529415 </v>
   <v>      -0.14138692      -0.11290640      -0.07484756 </v>
   <v>       0.21972819       0.04195406      -0.15019273 </v>
   <v>       0.06334411       0.00728048      -0.27505674 </v>
   <v>      -0.34354045      -0.18800192       0.06643303 </v>
   <v>       0.08045632      -0.06769084      -0.03647165 </v>
   <v>       0.03829017       0.07998083       0.09271505 </v>
   <v>      -0.50325583      -0.05994265       0.16697313 </v>
   <v>       0.23661029      -0.02255003      -0.33083921 </v>
   <v>      -0.10775553       0.11178305      -0.06400998 </v>
   <v>       0.26413982      -0.00408178      -0.27459418 </v>
   <v>       0.03842355      -0.27899858      -0.41602524 </v>
   <v>       0.15121969      -0.16752347      -0.00982884 </v>
   <v>      -0.23641949       0.17914044       0.14916417 </v>
   <v>       0.24623944       0.09918158      -0.13153823 </v>
   <v>       0.07619893       0.26667994       0.15004044 </v>
   <v>       0.22287598      -0.05189084      -0.03054454 </v>
  </varray>
  <varray name="stress" >
   <v>      -0.83654173      -0.13731278      -0.36824989 </v>
   <v>      -0.13731277      -1.74851266       0.08163419 </v>
   <v>      -0.36824990       0.08163420      -1.70717812 </v>
  </varray>
  <energy>
   <i name="e_fr_energy">   -100.19183502 </i>
   <i name="e_wo_entrp">   -100.19183502 </i>
   <i name="e_0_energy">      0.00000000 </i>
  </energy>
  <time name="totalsc">  202.98  205.18</time>
 </calculation>
 <calculation>
  <scstep>
   <time name="dav">    5.94    5.94</time>
   <time name="total">    6.33    6.35</time>
   <energy>
    <i name="alphaZ">    143.67911763 </i>
    <i name="ewald"> 136837.26951397 </i>
    <i name="hartreedc">-183616.50399440 </i>
    <i name="XCdc">   -531.04198952 </i>
    <i name="pawpsdc">  51029.40682880 </i>
    <i name="pawaedc"> -48952.56228462 </i>
    <i name="eentropy">      0.00000000 </i>
    <i name="bandstr">  -3758.82101381 </i>
    <i name="atom">  48748.33561406 </i>
    <i name="e_fr_energy">   -100.23820789 </i>
    <i name="e_wo_entrp">   -100.23820789 </i>
    <i name="e_0_energy">   -100.23820789 </i>
   </energy>
  </scstep>
  <scstep>
   <time name="dav">    6.03    6.04</time>
   <time name="total">    6.43    6.44</time>
   <energy>
    <i name="e_fr_energy">   -100.23968148 </i>
    <i name="e_wo_entrp">   -100.23968148 </i>
    <i name="e_0_energy">   -100.23968148 </i>
   </energy>
  </scstep>
  <scstep>
   <time name="dav">    4.22    4.23</time>
   <time name="total">    4.46    4.47</time>
   <energy>
    <i name="alphaZ">    143.67911763 </i>
    <i name="ewald"> 136837.26951397 </i>
    <i name="hartreedc">-183616.78911956 </i>
    <i name="XCdc">   -531.03835706 </i>
    <i name="pawpsdc">  51026.44189345 </i>
    <i name="pawaedc"> -48949.54471873 </i>
    <i name="eentropy">      0.00000000 </i>
    <i name="bandstr">  -3758.59360632 </i>
    <i name="atom">  48748.33561406 </i>
    <i name="e_fr_energy">   -100.23966256 </i>
    <i name="e_wo_entrp">   -100.23966256 </i>
    <i name="e_0_energy">   -100.23966256 </i>
   </energy>
  </scstep>
  <structure>
   <crystal>
    <varray name="basis" >
     <v>      23.55982615       0.00000000       0.00000000 </v>
     <v>       0.00000000      23.55982615       0.00000000 </v>
     <v>       0.00000000       0.00000000      23.55982615 </v>
    </varray>
    <i name="volume">  13077.24452482 </i>
    <varray name="rec_basis" >
     <v>       0.04244513       0.00000000       0.00000000 </v>
     <v>       0.00000000       0.04244513       0.00000000 </v>
     <v>       0.00000000       0.00000000       0.04244513 </v>
    </varray>
   </crystal>
   <varray name="positions" >
    <v>       0.64010777       0.58560565       0.68394889 </v>
    <v>       0.54383003       0.52140891       0.72233829 </v>
    <v>       0.62658735       0.67740508       0.61295849 </v>
    <v>       0.43622222       0.54968848       0.67912496 </v>
    <v>       0.62552876       0.47345336       0.64823421 </v>
    <v>       0.53905923       0.58960453       0.61297422 </v>
    <v>       0.55465970       0.39814261       0.70601809 </v>
    <v>       0.43029897       0.64532561       0.62036945 </v>
    <v>       0.73069363       0.51823600       0.63245434 </v>
    <v>       0.52268293       0.71022716       0.58773995 </v>
    <v>       0.44653803       0.43898042       0.72378983 </v>
    <v>       0.33818324       0.56176504       0.60323531 </v>
    <v>       0.55799018       0.49761645       0.51981159 </v>
    <v>       0.50641008       0.46975837       0.61972871 </v>
    <v>       0.65401020       0.57639014       0.56468742 </v>
    <v>       0.38842798       0.45908015       0.61928753 </v>
    <v>       0.67789143       0.46377941       0.53925126 </v>
    <v>       0.58219929       0.38146683       0.59045159 </v>
    <v>       0.45937205       0.35736571       0.62620555 </v>
    <v>       0.44469655       0.54530103       0.54985020 </v>
    <v>       0.58615761       0.65156297       0.49716520 </v>
    <v>       0.35103421       0.65998246       0.53197184 </v>
    <v>       0.41824051       0.74777015       0.56274831 </v>
    <v>       0.46537363       0.65633105       0.50138952 </v>
    <v>       0.38096551       0.37501875       0.53655483 </v>
    <v>       0.27073578       0.58123213       0.50102573 </v>
    <v>       0.64036830       0.55439150       0.45371237 </v>
    <v>       0.49500941       0.38575299       0.51315966 </v>
    <v>       0.60772811       0.38357644       0.48001204 </v>
    <v>       0.51320778       0.58038509       0.43202273 </v>
    <v>       0.38282008       0.58452430       0.44664952 </v>
    <v>       0.34165569       0.48593271       0.50786642 </v>
    <v>       0.68748186       0.45111159       0.42109983 </v>
    <v>       0.45441630       0.47930851       0.45298989 </v>
    <v>       0.56700678       0.47070409       0.40229453 </v>
    <v>       0.60209009       0.63914369       0.37931553 </v>
    <v>       0.29916784       0.38674794       0.44996256 </v>
    <v>       0.41319976       0.36920855       0.42196039 </v>
    <v>       0.64800090       0.53655293       0.33877338 </v>
    <v>       0.52287600       0.35257460       0.40156523 </v>
    <v>       0.62731759       0.36436429       0.36498315 </v>
    <v>       0.42743873       0.55227917       0.34919616 </v>
    <v>       0.53584780       0.55899472       0.31476033 </v>
    <v>       0.35484795       0.46864110       0.38648101 </v>
    <v>       0.69172654       0.43471550       0.30091746 </v>
    <v>       0.46499213       0.43829802       0.33539951 </v>
    <v>       0.57298657       0.44848194       0.28759232 </v>
   </varray>
  </structure>
  <varray name="forces" >
   <v>       0.01606324      -0.19591613       0.00348177 </v>
   <v>       0.00198808      -0.09776019      -0.13447505 </v>
   <v>       0.25252598       0.06993447      -0.00895852 </v>
   <v>      -0.08020988      -0.17357722       0.09764428 </v>
   <v>       0.06038884       0.17526998      -0.05397282 </v>
   <v>       0.08305351       0.04551210       0.07896797 </v>
   <v>      -0.02675542      -0.17724093      -0.14667283 </v>
   <v>      -0.23915242       0.21735883      -0.12504474 </v>
   <v>       0.07969195       0.06187625      -0.00645270 </v>
   <v>       0.13041486       0.13574843      -0.06978531 </v>
   <v>      -0.02464349       0.17417562      -0.05386148 </v>
   <v>      -0.09015896       0.39537593      -0.05828642 </v>
   <v>       0.04026682       0.00517622      -0.07992584 </v>
   <v>       0.12012067      -0.25839411       0.33553763 </v>
   <v>       0.07196647      -0.10720724       0.39206804 </v>
   <v>      -0.16337212      -0.40839876      -0.08559272 </v>
   <v>      -0.09338627      -0.13766095      -0.04595782 </v>
   <v>       0.04066706      -0.10035900       0.41189923 </v>
   <v>       0.19296362       0.16648964       0.05519243 </v>
   <v>       0.03268904       0.13508910      -0.04288695 </v>
   <v>      -0.08472971       0.13391170       0.39152412 </v>
   <v>      -0.27579876      -0.05357533       0.09338695 </v>
   <v>      -0.22200117       0.37491993      -0.08045952 </v>
   <v>      -0.15720283       0.26700905       0.02985910 </v>
   <v>      -0.13731927      -0.07960995       0.02203438 </v>
   <v>       0.27816120      -0.13201816      -0.09383163 </v>
   <v>       0.03279240       0.00460712      -0.15570974 </v>
   <v>      -0.23955971      -0.02138253       0.18027346 </v>
   <v>       0.27001903       0.14155765      -0.22979141 </v>
   <v>       0.09006672      -0.21572680      -0.01144807 </v>
   <v>      -0.24808575      -0.19494296       0.46465034 </v>
   <v>      -0.13161272      -0.11350060      -0.06017160 </v>
   <v>       0.20852394       0.04461902      -0.14852030 </v>
   <v>       0.05390793       0.00438227      -0.25590011 </v>
   <v>      -0.31222554      -0.17928445       0.05652229 </v>
   <v>       0.07572248      -0.06734673      -0.02771158 </v>
   <v>       0.02176317       0.07467766       0.09052264 </v>
   <v>      -0.46174090      -0.05603595       0.15292527 </v>
   <v>       0.22381738      -0.02179676      -0.31081067 </v>
   <v>      -0.10347262       0.11493004      -0.05865698 </v>
   <v>       0.24048770      -0.00368213      -0.25970246 </v>
   <v>       0.01982449      -0.25057451      -0.36601304 </v>
   <v>       0.14798231      -0.16187344      -0.00876542 </v>
   <v>      -0.22792691       0.17676377       0.14072777 </v>
   <v>       0.24526356       0.09369147      -0.13242767 </v>
   <v>       0.07310571       0.24713813       0.14180163 </v>
   <v>       0.21511631      -0.05234954      -0.02722590 </v>
  </varray>
  <varray name="stress" >
   <v>      -0.87764949      -0.13247941      -0.35900670 </v>
   <v>      -0.13247941      -1.76425166       0.07965075 </v>
   <v>      -0.35900670       0.07965075      -1.74521525 </v>
  </varray>
  <energy>
   <i name="e_fr_energy">   -100.23966256 </i>
   <i name="e_wo_entrp">   -100.23966256 </i>
   <i name="e_0_energy">      0.00000000 </i>
  </energy>
  <time name="totalsc">   28.54   28.78</time>
 </calculation>
 <calculation>
  <scstep>
   <time name="dav">    5.82    5.82</time>
   <time name="total">    6.21    6.23</time>
   <energy>
    <i name="alphaZ">    143.67911763 </i>
    <i name="ewald"> 136696.00456656 </i>
    <i name="hartreedc">-183476.28464982 </i>
    <i name="XCdc">   -531.13169315 </i>
    <i name="pawpsdc">  51023.93129101 </i>
    <i name="pawaedc"> -48947.00041300 </i>
    <i name="eentropy">      0.00000000 </i>
    <i name="bandstr">  -3757.88531881 </i>
    <i name="atom">  48748.33561406 </i>
    <i name="e_fr_energy">   -100.35148552 </i>
    <i name="e_wo_entrp">   -100.35148552 </i>
    <i name="e_0_energy">   -100.35148552 </i>
   </energy>
  </scstep>
  <scstep>
   <time name="dav">    6.04    6.04</time>
   <time name="total">    6.43    6.44</time>
   <energy>
    <i name="e_fr_energy">   -100.36445528 </i>
    <i name="e_wo_entrp">   -100.36445528 </i>
    <i name="e_0_energy">   -100.36445528 </i>
   </energy>
  </scstep>
  <scstep>
   <time name="dav">    6.04    6.05</time>
   <time name="total">    6.44    6.46</time>
   <energy>
    <i name="e_fr_energy">   -100.36415987 </i>
    <i name="e_wo_entrp">   -100.36415987 </i>
    <i name="e_0_energy">   -100.36415987 </i>
   </energy>
  </scstep>
  <scstep>
   <time name="dav">    6.02    6.03</time>
   <time name="total">    6.42    6.43</time>
   <energy>
    <i name="e_fr_energy">   -100.36393655 </i>
    <i name="e_wo_entrp">   -100.36393655 </i>
    <i name="e_0_energy">   -100.36393655 </i>
   </energy>
  </scstep>
  <scstep>
   <time name="dav">    4.26    4.26</time>
   <time name="total">    4.50    4.50</time>
   <energy>
    <i name="alphaZ">    143.67911763 </i>
    <i name="ewald"> 136696.00456656 </i>
    <i name="hartreedc">-183477.41361300 </i>
    <i name="XCdc">   -531.11623128 </i>
    <i name="pawpsdc">  51006.96731463 </i>
    <i name="pawaedc"> -48929.76770949 </i>
    <i name="eentropy">      0.00000000 </i>
    <i name="bandstr">  -3757.05301279 </i>
    <i name="atom">  48748.33561406 </i>
    <i name="e_fr_energy">   -100.36395367 </i>
    <i name="e_wo_entrp">   -100.36395367 </i>
    <i name="e_0_energy">   -100.36395367 </i>
   </energy>
  </scstep>
  <structure>
   <crystal>
    <varray name="basis" >
     <v>      23.55982615       0.00000000       0.00000000 </v>
     <v>       0.00000000      23.55982615       0.00000000 </v>
     <v>       0.00000000       0.00000000      23.55982615 </v>
    </varray>
    <i name="volume">  13077.24452482 </i>
    <varray name="rec_basis" >
     <v>       0.04244513       0.00000000       0.00000000 </v>
     <v>       0.00000000       0.04244513       0.00000000 </v>
     <v>       0.00000000       0.00000000       0.04244513 </v>
    </varray>
   </crystal>
   <varray name="positions" >
    <v>       0.64012707       0.58534274       0.68394271 </v>
    <v>       0.54383113       0.52128127       0.72215872 </v>
    <v>       0.62690999       0.67749262       0.61294123 </v>
    <v>       0.43612922       0.54944444       0.67927932 </v>
    <v>       0.62560676       0.47368658       0.64816797 </v>
    <v>       0.53917795       0.58966157       0.61307590 </v>
    <v>       0.55462383       0.39791902       0.70581508 </v>
    <v>       0.42998190       0.64561882       0.62019931 </v>
    <v>       0.73078470       0.51832023       0.63244408 </v>
    <v>       0.52286665       0.71039675       0.58765015 </v>
    <v>       0.44650645       0.43920975       0.72371227 </v>
    <v>       0.33804843       0.56230316       0.60315445 </v>
    <v>       0.55805007       0.49762692       0.51969046 </v>
    <v>       0.50657323       0.46940279       0.62018858 </v>
    <v>       0.65411098       0.57626053       0.56522594 </v>
    <v>       0.38822201       0.45851511       0.61918282 </v>
    <v>       0.67777112       0.46359954       0.53919318 </v>
    <v>       0.58224451       0.38134511       0.59103257 </v>
    <v>       0.45962285       0.35758891       0.62627315 </v>
    <v>       0.44473230       0.54548888       0.54978268 </v>
    <v>       0.58604784       0.65175320       0.49767726 </v>
    <v>       0.35067364       0.65988326       0.53208582 </v>
    <v>       0.41795043       0.74826177       0.56264547 </v>
    <v>       0.46517054       0.65668474       0.50144172 </v>
    <v>       0.38079565       0.37492747       0.53657634 </v>
    <v>       0.27110979       0.58106845       0.50091158 </v>
    <v>       0.64041284       0.55439117       0.45349204 </v>
    <v>       0.49467054       0.38572086       0.51339789 </v>
    <v>       0.60810198       0.38376067       0.47968231 </v>
    <v>       0.51332969       0.58008526       0.43199152 </v>
    <v>       0.38247157       0.58429308       0.44729490 </v>
    <v>       0.34148198       0.48579399       0.50777446 </v>
    <v>       0.68775182       0.45116313       0.42091530 </v>
    <v>       0.45449413       0.47931745       0.45265195 </v>
    <v>       0.56658470       0.47047311       0.40237615 </v>
    <v>       0.60218894       0.63906052       0.37927072 </v>
    <v>       0.29921489       0.38684621       0.45007646 </v>
    <v>       0.41258146       0.36913490       0.42216553 </v>
    <v>       0.64829160       0.53652523       0.33836692 </v>
    <v>       0.52274361       0.35271193       0.40148659 </v>
    <v>       0.62764211       0.36435928       0.36464578 </v>
    <v>       0.42748593       0.55193639       0.34868504 </v>
    <v>       0.53603359       0.55878890       0.31474825 </v>
    <v>       0.35455748       0.46886119       0.38666427 </v>
    <v>       0.69202907       0.43483735       0.30075586 </v>
    <v>       0.46508575       0.43862567       0.33558385 </v>
    <v>       0.57326039       0.44841819       0.28755480 </v>
   </varray>
  </structure>
  <varray name="forces" >
   <v>       0.01824232      -0.15868938       0.02802568 </v>
   <v>       0.00516212      -0.08638117      -0.11084493 </v>
   <v>       0.24176171       0.07182669       0.00312057 </v>
   <v>      -0.09843759      -0.11654084       0.02980316 </v>
   <v>       0.05487539       0.14650148      -0.05862293 </v>
   <v>       0.05390538       0.04564043       0.07307959 </v>
   <v>      -0.02231940      -0.17752799      -0.10390851 </v>
   <v>      -0.20394028       0.17276723      -0.09614445 </v>
   <v>       0.10096604       0.04816537      -0.00033507 </v>
   <v>       0.08752550       0.13805481      -0.06634165 </v>
   <v>      -0.02428962       0.15122413      -0.03149593 </v>
   <v>      -0.04498423       0.30619377      -0.04058966 </v>
   <v>       0.02097207      -0.00250487      -0.03598687 </v>
   <v>       0.09262452      -0.18806616       0.25093402 </v>
   <v>       0.04895755      -0.11737987       0.29270962 </v>
   <v>      -0.16057167      -0.29683643      -0.09031986 </v>
   <v>      -0.08738828      -0.12390783      -0.04534219 </v>
   <v>       0.05352610      -0.11196525       0.27652302 </v>
   <v>       0.17572806       0.13460433       0.06006050 </v>
   <v>       0.04417581       0.09929355      -0.01510431 </v>
   <v>      -0.07854985       0.08762664       0.35077120 </v>
   <v>      -0.24557618       0.01868805       0.10193082 </v>
   <v>      -0.19661772       0.32724639      -0.07551204 </v>
   <v>      -0.14627114       0.22810116      -0.00034946 </v>
   <v>      -0.14425530      -0.09824691       0.03470183 </v>
   <v>       0.22243587      -0.13699068      -0.10236332 </v>
   <v>       0.02549320       0.01686460      -0.10363283 </v>
   <v>      -0.16047165      -0.00970192       0.15481442 </v>
   <v>       0.19875474       0.12715240      -0.14241281 </v>
   <v>       0.07370331      -0.15356845       0.02563828 </v>
   <v>      -0.17097262      -0.22264285       0.33346375 </v>
   <v>      -0.11509713      -0.12349995      -0.02546690 </v>
   <v>       0.19219050       0.05465132      -0.15443398 </v>
   <v>       0.03174220      -0.00313733      -0.22063646 </v>
   <v>      -0.25212283      -0.16856456       0.03412327 </v>
   <v>       0.06819096      -0.07171430      -0.00778745 </v>
   <v>      -0.02319927       0.06415156       0.09042152 </v>
   <v>      -0.37757198      -0.04996868       0.12530498 </v>
   <v>       0.20485202      -0.02099367      -0.27809407 </v>
   <v>      -0.09823170       0.13123380      -0.04896810 </v>
   <v>       0.19305089      -0.00190342      -0.23566867 </v>
   <v>      -0.02689103      -0.19394556      -0.26175315 </v>
   <v>       0.14942486      -0.15853032      -0.00659683 </v>
   <v>      -0.21882169       0.18309410       0.12735548 </v>
   <v>       0.25736817       0.08455132      -0.14226338 </v>
   <v>       0.07078617       0.21186728       0.12760096 </v>
   <v>       0.21016573      -0.05629203      -0.01940684 </v>
  </varray>
  <varray name="stress" >
   <v>      -0.97207968      -0.12060953      -0.33465271 </v>
   <v>      -0.12060954      -1.79766266       0.07899417 </v>
   <v>      -0.33465271       0.07899417      -1.82363413 </v>
  </varray>
  <energy>
   <i name="e_fr_energy">   -100.36395367 </i>
   <i name="e_wo_entrp">   -100.36395367 </i>
   <i name="e_0_energy">      0.00000000 </i>
  </energy>
  <time name="totalsc">   41.31   41.41</time>
 </calculation>
 <calculation>
  <scstep>
   <time name="dav">    5.81    5.81</time>
   <time name="total">    6.21    6.23</time>
   <energy>
    <i name="alphaZ">    143.67911763 </i>
    <i name="ewald"> 136416.70976288 </i>
    <i name="hartreedc">-183199.12293350 </i>
    <i name="XCdc">   -531.26761085 </i>
    <i name="pawpsdc">  51006.96621316 </i>
    <i name="pawaedc"> -48929.76722979 </i>
    <i name="eentropy">      0.00000000 </i>
    <i name="bandstr">  -3756.01343988 </i>
    <i name="atom">  48748.33561406 </i>
    <i name="e_fr_energy">   -100.48050628 </i>
    <i name="e_wo_entrp">   -100.48050628 </i>
    <i name="e_0_energy">   -100.48050628 </i>
   </energy>
  </scstep>
  <scstep>
   <time name="dav">    6.02    6.03</time>
   <time name="total">    6.42    6.42</time>
   <energy>
    <i name="e_fr_energy">   -100.53268606 </i>
    <i name="e_wo_entrp">   -100.53268606 </i>
    <i name="e_0_energy">   -100.53268606 </i>
   </energy>
  </scstep>
  <scstep>
   <time name="dav">    5.99    6.00</time>
   <time name="total">    6.38    6.39</time>
   <energy>
    <i name="e_fr_energy">   -100.53162607 </i>
    <i name="e_wo_entrp">   -100.53162607 </i>
    <i name="e_0_energy">   -100.53162607 </i>
   </energy>
  </scstep>
  <scstep>
   <time name="dav">    6.01    6.01</time>
   <time name="total">    6.40    6.41</time>
   <energy>
    <i name="e_fr_energy">   -100.53057722 </i>
    <i name="e_wo_entrp">   -100.53057722 </i>
    <i name="e_0_energy">   -100.53057722 </i>
   </energy>
  </scstep>
  <scstep>
   <time name="dav">    4.48    4.48</time>
   <time name="total">    4.72    4.75</time>
   <energy>
    <i name="alphaZ">    143.67911763 </i>
    <i name="ewald"> 136416.70976288 </i>
    <i name="hartreedc">-183201.15514847 </i>
    <i name="XCdc">   -531.24166227 </i>
    <i name="pawpsdc">  50983.87095355 </i>
    <i name="pawaedc"> -48906.26413823 </i>
    <i name="eentropy">      0.00000000 </i>
    <i name="bandstr">  -3754.46512572 </i>
    <i name="atom">  48748.33561406 </i>
    <i name="e_fr_energy">   -100.53062657 </i>
    <i name="e_wo_entrp">   -100.53062657 </i>
    <i name="e_0_energy">   -100.53062657 </i>
   </energy>
  </scstep>
  <structure>
   <crystal>
    <varray name="basis" >
     <v>      23.55982615       0.00000000       0.00000000 </v>
     <v>       0.00000000      23.55982615       0.00000000 </v>
     <v>       0.00000000       0.00000000      23.55982615 </v>
    </varray>
    <i name="volume">  13077.24452482 </i>
    <varray name="rec_basis" >
     <v>       0.04244513       0.00000000       0.00000000 </v>
     <v>       0.00000000       0.04244513       0.00000000 </v>
     <v>       0.00000000       0.00000000       0.04244513 </v>
    </varray>
   </crystal>
   <varray name="positions" >
    <v>       0.64016566       0.58481692       0.68393036 </v>
    <v>       0.54383334       0.52102600       0.72179959 </v>
    <v>       0.62755528       0.67766770       0.61290671 </v>
    <v>       0.43594320       0.54895637       0.67958805 </v>
    <v>       0.62576275       0.47415300       0.64803548 </v>
    <v>       0.53941539       0.58977565       0.61327925 </v>
    <v>       0.55455208       0.39747184       0.70540905 </v>
    <v>       0.42934774       0.64620522       0.61985904 </v>
    <v>       0.73096683       0.51848869       0.63242357 </v>
    <v>       0.52323408       0.71073593       0.58747055 </v>
    <v>       0.44644327       0.43966842       0.72355714 </v>
    <v>       0.33777882       0.56337940       0.60299271 </v>
    <v>       0.55816985       0.49764786       0.51944822 </v>
    <v>       0.50689953       0.46869163       0.62110831 </v>
    <v>       0.65431256       0.57600131       0.56630297 </v>
    <v>       0.38781005       0.45738501       0.61897339 </v>
    <v>       0.67753048       0.46323981       0.53907704 </v>
    <v>       0.58233496       0.38110167       0.59219454 </v>
    <v>       0.46012444       0.35803530       0.62640835 </v>
    <v>       0.44480380       0.54586458       0.54964763 </v>
    <v>       0.58582831       0.65213367       0.49870136 </v>
    <v>       0.34995249       0.65968485       0.53231377 </v>
    <v>       0.41737029       0.74924501       0.56243981 </v>
    <v>       0.46476434       0.65739213       0.50154613 </v>
    <v>       0.38045593       0.37474489       0.53661937 </v>
    <v>       0.27185783       0.58074111       0.50068327 </v>
    <v>       0.64050193       0.55439053       0.45305139 </v>
    <v>       0.49399279       0.38565659       0.51387433 </v>
    <v>       0.60884973       0.38412912       0.47902284 </v>
    <v>       0.51357350       0.57948560       0.43192908 </v>
    <v>       0.38177455       0.58383064       0.44858565 </v>
    <v>       0.34113457       0.48551656       0.50759055 </v>
    <v>       0.68829173       0.45126622       0.42054625 </v>
    <v>       0.45464978       0.47933534       0.45197608 </v>
    <v>       0.56574056       0.47001115       0.40253939 </v>
    <v>       0.60238663       0.63889419       0.37918111 </v>
    <v>       0.29930897       0.38704274       0.45030428 </v>
    <v>       0.41134486       0.36898761       0.42257582 </v>
    <v>       0.64887300       0.53646982       0.33755398 </v>
    <v>       0.52247883       0.35298661       0.40132931 </v>
    <v>       0.62829115       0.36434925       0.36397105 </v>
    <v>       0.42758035       0.55125083       0.34766278 </v>
    <v>       0.53640516       0.55837727       0.31472410 </v>
    <v>       0.35397655       0.46930137       0.38703079 </v>
    <v>       0.69263413       0.43508106       0.30043264 </v>
    <v>       0.46527298       0.43928095       0.33595253 </v>
    <v>       0.57380804       0.44829068       0.28747974 </v>
   </varray>
  </structure>
  <varray name="forces" >
   <v>       0.02234300      -0.07073923       0.08680535 </v>
   <v>       0.01271336      -0.05745316      -0.05279547 </v>
   <v>       0.21337711       0.07338218       0.02862338 </v>
   <v>      -0.13203662       0.00140984      -0.10478626 </v>
   <v>       0.04247874       0.07596801      -0.06811733 </v>
   <v>      -0.00714455       0.04488528       0.05778106 </v>
   <v>      -0.01140440      -0.17314558       0.00567856 </v>
   <v>      -0.12406115       0.08684886      -0.03880597 </v>
   <v>       0.14592547       0.01517800       0.01432011 </v>
   <v>       0.00143268       0.13907741      -0.05179615 </v>
   <v>      -0.02511089       0.09286182       0.02077422 </v>
   <v>       0.03916262       0.12096738       0.00298417 </v>
   <v>      -0.01570501      -0.01777503       0.05173391 </v>
   <v>       0.03224339      -0.03299951       0.06317353 </v>
   <v>       0.00042255      -0.12900409       0.08089057 </v>
   <v>      -0.14479911      -0.07253818      -0.08793118 </v>
   <v>      -0.07050170      -0.09160078      -0.04127278 </v>
   <v>       0.08218554      -0.13152341       0.00251294 </v>
   <v>       0.13055861       0.05510762       0.06917484 </v>
   <v>       0.06661704       0.02654997       0.04043594 </v>
   <v>      -0.06208596      -0.00995033       0.25038974 </v>
   <v>      -0.17744161       0.17480049       0.11163600 </v>
   <v>      -0.14129037       0.22261395      -0.06376919 </v>
   <v>      -0.12143468       0.14787774      -0.05682410 </v>
   <v>      -0.15438024      -0.13715193       0.05985013 </v>
   <v>       0.08584069      -0.14409115      -0.11431623 </v>
   <v>       0.01087331       0.03539967      -0.00436498 </v>
   <v>      -0.00417968       0.01609952       0.09424365 </v>
   <v>       0.05743893       0.08773110       0.01546460 </v>
   <v>       0.04145689      -0.02178583       0.09338746 </v>
   <v>      -0.01064963      -0.25323677       0.07346104 </v>
   <v>      -0.07642953      -0.14476104       0.05035229 </v>
   <v>       0.15439120       0.07424286      -0.16094481 </v>
   <v>      -0.02400859      -0.01980005      -0.13343071 </v>
   <v>      -0.11764270      -0.14222253      -0.01292826 </v>
   <v>       0.04972891      -0.07820276       0.02993749 </v>
   <v>      -0.12500324       0.04019914       0.08810710 </v>
   <v>      -0.18657021      -0.03612578       0.05961736 </v>
   <v>       0.16133813      -0.01426634      -0.19910599 </v>
   <v>      -0.08496457       0.15218754      -0.02585931 </v>
   <v>       0.09584848       0.00241100      -0.18000679 </v>
   <v>      -0.11076546      -0.07464567      -0.07163662 </v>
   <v>       0.14738519      -0.14371296      -0.00121894 </v>
   <v>      -0.18997537       0.18915638       0.09238329 </v>
   <v>       0.26928613       0.06137154      -0.15764643 </v>
   <v>       0.06300424       0.12290423       0.08592986 </v>
   <v>       0.19153301      -0.06249945      -0.00209108 </v>
  </varray>
  <varray name="stress" >
   <v>      -1.13355644      -0.10145761      -0.29302267 </v>
   <v>      -0.10145760      -1.83555049       0.07820500 </v>
   <v>      -0.29302267       0.07820500      -1.94602496 </v>
  </varray>
  <energy>
   <i name="e_fr_energy">   -100.53062657 </i>
   <i name="e_wo_entrp">   -100.53062657 </i>
   <i name="e_0_energy">      0.00000000 </i>
  </energy>
  <time name="totalsc">   41.45   41.70</time>
 </calculation>
 <calculation>
  <scstep>
   <time name="dav">    5.82    5.82</time>
   <time name="total">    6.21    6.23</time>
   <energy>
    <i name="alphaZ">    143.67911763 </i>
    <i name="ewald"> 135870.82281723 </i>
    <i name="hartreedc">-182656.17298630 </i>
    <i name="XCdc">   -531.39596262 </i>
    <i name="pawpsdc">  50983.68401313 </i>
    <i name="pawaedc"> -48906.07658011 </i>
    <i name="eentropy">      0.00000000 </i>
    <i name="bandstr">  -3753.22709497 </i>
    <i name="atom">  48748.33561406 </i>
    <i name="e_fr_energy">   -100.35106194 </i>
    <i name="e_wo_entrp">   -100.35106194 </i>
    <i name="e_0_energy">   -100.35106194 </i>
   </energy>
  </scstep>
  <scstep>
   <time name="dav">    5.97    5.97</time>
   <time name="total">    6.36    6.37</time>
   <energy>
    <i name="e_fr_energy">   -100.56490545 </i>
    <i name="e_wo_entrp">   -100.56490545 </i>
    <i name="e_0_energy">   -100.56490545 </i>
   </energy>
  </scstep>
  <scstep>
   <time name="dav">    6.06    6.06</time>
   <time name="total">    6.45    6.48</time>
   <energy>
    <i name="e_fr_energy">   -100.56113522 </i>
    <i name="e_wo_entrp">   -100.56113522 </i>
    <i name="e_0_energy">   -100.56113522 </i>
   </energy>
  </scstep>
  <scstep>
   <time name="dav">    5.97    5.97</time>
   <time name="total">    6.36    7.07</time>
   <energy>
    <i name="e_fr_energy">   -100.55690505 </i>
    <i name="e_wo_entrp">   -100.55690505 </i>
    <i name="e_0_energy">   -100.55690505 </i>
   </energy>
  </scstep>
  <scstep>
   <time name="dav">    6.15    6.15</time>
   <time name="total">    6.54    6.57</time>
   <energy>
    <i name="e_fr_energy">   -100.55706250 </i>
    <i name="e_wo_entrp">   -100.55706250 </i>
    <i name="e_0_energy">   -100.55706250 </i>
   </energy>
  </scstep>
  <scstep>
   <time name="dav">    4.58    4.58</time>
   <time name="total">    4.97    4.98</time>
   <energy>
    <i name="e_fr_energy">   -100.55695405 </i>
    <i name="e_wo_entrp">   -100.55695405 </i>
    <i name="e_0_energy">   -100.55695405 </i>
   </energy>
  </scstep>
  <scstep>
   <time name="dav">    4.32    4.33</time>
   <time name="total">    4.56    4.59</time>
   <energy>
    <i name="alphaZ">    143.67911763 </i>
    <i name="ewald"> 135870.82281723 </i>
    <i name="hartreedc">-182659.17839303 </i>
    <i name="XCdc">   -531.36090937 </i>
    <i name="pawpsdc">  50971.87813879 </i>
    <i name="pawaedc"> -48893.88099691 </i>
    <i name="eentropy">      0.00000000 </i>
    <i name="bandstr">  -3750.85237142 </i>
    <i name="atom">  48748.33561406 </i>
    <i name="e_fr_energy">   -100.55698301 </i>
    <i name="e_wo_entrp">   -100.55698301 </i>
    <i name="e_0_energy">   -100.55698301 </i>
   </energy>
  </scstep>
  <structure>
   <crystal>
    <varray name="basis" >
     <v>      23.55982615       0.00000000       0.00000000 </v>
     <v>       0.00000000      23.55982615       0.00000000 </v>
     <v>       0.00000000       0.00000000      23.55982615 </v>
    </varray>
    <i name="volume">  13077.24452482 </i>
    <varray name="rec_basis" >
     <v>       0.04244513       0.00000000       0.00000000 </v>
     <v>       0.00000000       0.04244513       0.00000000 </v>
     <v>       0.00000000       0.00000000       0.04244513 </v>
    </varray>
   </crystal>
   <varray name="positions" >
    <v>       0.64024284       0.58376528       0.68390564 </v>
    <v>       0.54383775       0.52051545       0.72108133 </v>
    <v>       0.62884585       0.67801786       0.61283767 </v>
    <v>       0.43557117       0.54798023       0.68020551 </v>
    <v>       0.62607474       0.47508585       0.64777050 </v>
    <v>       0.53989028       0.59000381       0.61368596 </v>
    <v>       0.55440858       0.39657747       0.70459700 </v>
    <v>       0.42807942       0.64737804       0.61917850 </v>
    <v>       0.73133111       0.51882560       0.63238254 </v>
    <v>       0.52396896       0.71141430       0.58711134 </v>
    <v>       0.44631691       0.44058575       0.72324688 </v>
    <v>       0.33723960       0.56553188       0.60266925 </v>
    <v>       0.55840940       0.49768975       0.51896372 </v>
    <v>       0.50755212       0.46726931       0.62294779 </v>
    <v>       0.65471570       0.57548286       0.56845703 </v>
    <v>       0.38698613       0.45512482       0.61855453 </v>
    <v>       0.67704921       0.46252035       0.53884474 </v>
    <v>       0.58251585       0.38061479       0.59451847 </v>
    <v>       0.46112763       0.35892809       0.62667875 </v>
    <v>       0.44494679       0.54661598       0.54937753 </v>
    <v>       0.58538923       0.65289461       0.50074957 </v>
    <v>       0.34851019       0.65928804       0.53276968 </v>
    <v>       0.41621001       0.75121149       0.56202847 </v>
    <v>       0.46395196       0.65880689       0.50175493 </v>
    <v>       0.37977649       0.37437974       0.53670541 </v>
    <v>       0.27335389       0.58008641       0.50022667 </v>
    <v>       0.64068010       0.55438924       0.45217008 </v>
    <v>       0.49263729       0.38552807       0.51482723 </v>
    <v>       0.61034522       0.38486602       0.47770392 </v>
    <v>       0.51406112       0.57828628       0.43180422 </v>
    <v>       0.38038050       0.58290578       0.45116715 </v>
    <v>       0.34043974       0.48496169       0.50722271 </v>
    <v>       0.68937156       0.45147240       0.41980814 </v>
    <v>       0.45496108       0.47937112       0.45062434 </v>
    <v>       0.56405226       0.46908723       0.40286587 </v>
    <v>       0.60278203       0.63856153       0.37900187 </v>
    <v>       0.29949715       0.38743580       0.45075992 </v>
    <v>       0.40887166       0.36869303       0.42339639 </v>
    <v>       0.65003580       0.53635900       0.33592810 </v>
    <v>       0.52194928       0.35353595       0.40101474 </v>
    <v>       0.62958924       0.36432919       0.36262158 </v>
    <v>       0.42776918       0.54987972       0.34561826 </v>
    <v>       0.53714832       0.55755399       0.31467580 </v>
    <v>       0.35281469       0.47018174       0.38776385 </v>
    <v>       0.69384425       0.43556848       0.29978621 </v>
    <v>       0.46564745       0.44059152       0.33668989 </v>
    <v>       0.57490334       0.44803567       0.28732964 </v>
   </varray>
  </structure>
  <varray name="forces" >
   <v>       0.03063932       0.12984585       0.23692586 </v>
   <v>       0.03237019       0.01118498       0.08097565 </v>
   <v>       0.16128121       0.07631324       0.08045665 </v>
   <v>      -0.19633027       0.23062455      -0.34812639 </v>
   <v>       0.01804350      -0.08989561      -0.09543171 </v>
   <v>      -0.11898986       0.04394767       0.02518717 </v>
   <v>       0.01170376      -0.16992468       0.30083076 </v>
   <v>       0.03389829      -0.04070251       0.05833757 </v>
   <v>       0.24974861      -0.06106563       0.05414307 </v>
   <v>      -0.15365207       0.14352215      -0.00583560 </v>
   <v>      -0.03770461      -0.04676397       0.14117293 </v>
   <v>       0.16817554      -0.20483668       0.11104384 </v>
   <v>      -0.07411036      -0.04427983       0.21026835 </v>
   <v>      -0.08286801       0.28431718      -0.30853198 </v>
   <v>      -0.09507841      -0.13009993      -0.34092019 </v>
   <v>      -0.10295493       0.29808142      -0.05503413 </v>
   <v>      -0.03102344      -0.01547694      -0.02599667 </v>
   <v>       0.16112606      -0.17617010      -0.51272366 </v>
   <v>       0.02409999      -0.13894198       0.09344245 </v>
   <v>       0.11161579      -0.09795280       0.14061396 </v>
   <v>      -0.02465934      -0.19292629       0.03380553 </v>
   <v>      -0.03674213       0.51661230       0.11440282 </v>
   <v>      -0.04432992       0.02564908      -0.03921742 </v>
   <v>      -0.07871049       0.01541421      -0.14370064 </v>
   <v>      -0.17923245      -0.22528849       0.10569342 </v>
   <v>      -0.25467775      -0.16541202      -0.12387881 </v>
   <v>      -0.01343261       0.05058972       0.15473113 </v>
   <v>       0.25565113       0.07106530      -0.03184027 </v>
   <v>      -0.18375414      -0.00517843       0.23960676 </v>
   <v>      -0.00365359       0.23611489       0.20153876 </v>
   <v>       0.30568529      -0.25965347      -0.35464239 </v>
   <v>      -0.00010051      -0.20332566       0.21133230 </v>
   <v>       0.09203442       0.11063710      -0.17200832 </v>
   <v>      -0.16703310      -0.05536271       0.05757426 </v>
   <v>       0.16186692      -0.09277013      -0.09864419 </v>
   <v>       0.01094258      -0.08553377       0.08823816 </v>
   <v>      -0.36991523      -0.00852110       0.08724918 </v>
   <v>       0.20300272      -0.01314587      -0.07982751 </v>
   <v>       0.08845500       0.01415034      -0.06094136 </v>
   <v>      -0.06343156       0.16573059       0.01974165 </v>
   <v>      -0.06480934       0.01047885      -0.08403430 </v>
   <v>      -0.24529773       0.14685625       0.19575174 </v>
   <v>       0.14262042      -0.10849344       0.00950774 </v>
   <v>      -0.12766049       0.20280804       0.01476319 </v>
   <v>       0.28455811       0.01028467      -0.18789985 </v>
   <v>       0.04657568      -0.08911431      -0.03195528 </v>
   <v>       0.15605784      -0.07339201       0.03385577 </v>
  </varray>
  <varray name="stress" >
   <v>      -1.29519389      -0.08166501      -0.24268851 </v>
   <v>      -0.08166501      -1.76860505       0.08509972 </v>
   <v>      -0.24268850       0.08509972      -2.00493473 </v>
  </varray>
  <energy>
   <i name="e_fr_energy">   -100.55698301 </i>
   <i name="e_wo_entrp">   -100.55698301 </i>
   <i name="e_0_energy">      0.00000000 </i>
  </energy>
  <time name="totalsc">   52.79   53.96</time>
 </calculation>
 <calculation>
  <scstep>
   <time name="dav">    5.79    5.79</time>
   <time name="total">    6.18    6.36</time>
   <energy>
    <i name="alphaZ">    143.67911763 </i>
    <i name="ewald"> 136101.51670589 </i>
    <i name="hartreedc">-182890.14767481 </i>
    <i name="XCdc">   -531.30446560 </i>
    <i name="pawpsdc">  50971.02366274 </i>
    <i name="pawaedc"> -48893.02435409 </i>
    <i name="eentropy">      0.00000000 </i>
    <i name="bandstr">  -3750.63610392 </i>
    <i name="atom">  48748.33561406 </i>
    <i name="e_fr_energy">   -100.55749810 </i>
    <i name="e_wo_entrp">   -100.55749810 </i>
    <i name="e_0_energy">   -100.55749810 </i>
   </energy>
  </scstep>
  <scstep>
   <time name="dav">    5.96    5.97</time>
   <time name="total">    6.36    6.38</time>
   <energy>
    <i name="e_fr_energy">   -100.59558693 </i>
    <i name="e_wo_entrp">   -100.59558693 </i>
    <i name="e_0_energy">   -100.59558693 </i>
   </energy>
  </scstep>
  <scstep>
   <time name="dav">    6.11    6.12</time>
   <time name="total">    6.50    6.52</time>
   <energy>
    <i name="e_fr_energy">   -100.59488308 </i>
    <i name="e_wo_entrp">   -100.59488308 </i>
    <i name="e_0_energy">   -100.59488308 </i>
   </energy>
  </scstep>
  <scstep>
   <time name="dav">    5.98    5.98</time>
   <time name="total">    6.37    6.38</time>
   <energy>
    <i name="e_fr_energy">   -100.59416897 </i>
    <i name="e_wo_entrp">   -100.59416897 </i>
    <i name="e_0_energy">   -100.59416897 </i>
   </energy>
  </scstep>
  <scstep>
   <time name="dav">    4.37    4.38</time>
   <time name="total">    4.62    4.64</time>
   <energy>
    <i name="alphaZ">    143.67911763 </i>
    <i name="ewald"> 136101.51670589 </i>
    <i name="hartreedc">-182888.92133909 </i>
    <i name="XCdc">   -531.32891300 </i>
    <i name="pawpsdc">  50970.38875519 </i>
    <i name="pawaedc"> -48892.48549136 </i>
    <i name="eentropy">      0.00000000 </i>
    <i name="bandstr">  -3751.77868835 </i>
    <i name="atom">  48748.33561406 </i>
    <i name="e_fr_energy">   -100.59423904 </i>
    <i name="e_wo_entrp">   -100.59423904 </i>
    <i name="e_0_energy">   -100.59423904 </i>
   </energy>
  </scstep>
  <structure>
   <crystal>
    <varray name="basis" >
     <v>      23.55982615       0.00000000       0.00000000 </v>
     <v>       0.00000000      23.55982615       0.00000000 </v>
     <v>       0.00000000       0.00000000      23.55982615 </v>
    </varray>
    <i name="volume">  13077.24452482 </i>
    <varray name="rec_basis" >
     <v>       0.04244513       0.00000000       0.00000000 </v>
     <v>       0.00000000       0.04244513       0.00000000 </v>
     <v>       0.00000000       0.00000000       0.04244513 </v>
    </varray>
   </crystal>
   <varray name="positions" >
    <v>       0.64020993       0.58421366       0.68391618 </v>
    <v>       0.54383587       0.52073312       0.72138757 </v>
    <v>       0.62829561       0.67786857       0.61286710 </v>
    <v>       0.43572979       0.54839641       0.67994225 </v>
    <v>       0.62594172       0.47468813       0.64788348 </v>
    <v>       0.53968781       0.58990653       0.61351255 </v>
    <v>       0.55446976       0.39695879       0.70494322 </v>
    <v>       0.42862017       0.64687800       0.61946865 </v>
    <v>       0.73117580       0.51868195       0.63240003 </v>
    <v>       0.52365564       0.71112507       0.58726449 </v>
    <v>       0.44637078       0.44019464       0.72337916 </v>
    <v>       0.33746950       0.56461416       0.60280716 </v>
    <v>       0.55830727       0.49767189       0.51917029 </v>
    <v>       0.50727389       0.46787573       0.62216352 </v>
    <v>       0.65454382       0.57570390       0.56753864 </v>
    <v>       0.38733742       0.45608846       0.61873311 </v>
    <v>       0.67725440       0.46282710       0.53894378 </v>
    <v>       0.58243873       0.38082237       0.59352765 </v>
    <v>       0.46069992       0.35854745       0.62656346 </v>
    <v>       0.44488582       0.54629562       0.54949269 </v>
    <v>       0.58557643       0.65257018       0.49987631 </v>
    <v>       0.34912513       0.65945722       0.53257530 </v>
    <v>       0.41670470       0.75037307       0.56220384 </v>
    <v>       0.46429832       0.65820370       0.50166591 </v>
    <v>       0.38006617       0.37453543       0.53666873 </v>
    <v>       0.27271604       0.58036554       0.50042135 </v>
    <v>       0.64060414       0.55438979       0.45254583 </v>
    <v>       0.49321522       0.38558287       0.51442096 </v>
    <v>       0.60970761       0.38455184       0.47826625 </v>
    <v>       0.51385322       0.57879762       0.43185745 </v>
    <v>       0.38097486       0.58330010       0.45006651 </v>
    <v>       0.34073598       0.48519826       0.50737954 </v>
    <v>       0.68891117       0.45138450       0.42012284 </v>
    <v>       0.45482835       0.47935587       0.45120067 </v>
    <v>       0.56477208       0.46948115       0.40272667 </v>
    <v>       0.60261345       0.63870337       0.37907829 </v>
    <v>       0.29941692       0.38726821       0.45056566 </v>
    <v>       0.40992613       0.36881862       0.42304653 </v>
    <v>       0.64954003       0.53640625       0.33662130 </v>
    <v>       0.52217506       0.35330174       0.40114886 </v>
    <v>       0.62903579       0.36433774       0.36319694 </v>
    <v>       0.42768867       0.55046431       0.34648996 </v>
    <v>       0.53683147       0.55790500       0.31469639 </v>
    <v>       0.35331006       0.46980639       0.38745131 </v>
    <v>       0.69332830       0.43536066       0.30006182 </v>
    <v>       0.46548779       0.44003275       0.33637551 </v>
    <v>       0.57443635       0.44814439       0.28739363 </v>
   </varray>
  </structure>
  <varray name="forces" >
   <v>       0.02698751       0.04183372       0.16880121 </v>
   <v>       0.02321403      -0.01922342       0.02296289 </v>
   <v>       0.17917792       0.07409581       0.05894244 </v>
   <v>      -0.16860407       0.13463655      -0.25019463 </v>
   <v>       0.02896402      -0.01661505      -0.08172643 </v>
   <v>      -0.07411279       0.04459985       0.03907281 </v>
   <v>       0.00199585      -0.16849109       0.16390928 </v>
   <v>      -0.02969328       0.00544167       0.01835032 </v>
   <v>       0.20295851      -0.02804483       0.03528884 </v>
   <v>      -0.09117270       0.13987790      -0.02707472 </v>
   <v>      -0.03028093       0.01503749       0.08785107 </v>
   <v>       0.12094124      -0.07546251       0.06254947 </v>
   <v>      -0.05181598      -0.03393909       0.14637288 </v>
   <v>      -0.03617903       0.15028058      -0.15132535 </v>
[...]
       <r>     0.8160     0.0000   308.0000 </r>
       <r>     0.8573     0.0000   308.0000 </r>
       <r>     0.8985     0.0000   310.0000 </r>
       <r>     0.9397     0.0000   312.0000 </r>
       <r>     0.9809     0.0000   313.0000 </r>
       <r>     1.0221     0.0000   315.0000 </r>
       <r>     1.0634     0.0000   317.0000 </r>
       <r>     1.1046     0.0000   319.0000 </r>
       <r>     1.1458     0.0000   320.0000 </r>
       <r>     1.1870     0.0000   323.0000 </r>
       <r>     1.2282     0.0000   324.0000 </r>
       <r>     1.2695     0.0000   324.0000 </r>
       <r>     1.3107     0.0000   327.0000 </r>
       <r>     1.3519     0.0000   329.0000 </r>
       <r>     1.3931     0.0000   332.0000 </r>
       <r>     1.4343     0.0000   334.0000 </r>
       <r>     1.4756     0.0000   336.0000 </r>
       <r>     1.5168     0.0000   336.0000 </r>
       <r>     1.5580     0.0000   336.0000 </r>
       <r>     1.5992     0.0000   336.0000 </r>
       <r>     1.6404     0.0000   336.0000 </r>
       <r>     1.6817     0.0000   336.0000 </r>
       <r>     1.7229     0.0000   336.0000 </r>
       <r>     1.7641     0.0000   336.0000 </r>
       <r>     1.8053     0.0000   336.0000 </r>
       <r>     1.8465     0.0000   336.0000 </r>
       <r>     1.8877     0.0000   336.0000 </r>
       <r>     1.9290     0.0000   336.0000 </r>
       <r>     1.9702     0.0000   336.0000 </r>
       <r>     2.0114     0.0000   336.0000 </r>
       <r>     2.0526     0.0000   336.0000 </r>
      </set>
      <set comment="spin 2">
       <r>   -10.3132     0.0000     0.0000 </r>
       <r>   -10.2719     0.0000     0.0000 </r>
       <r>   -10.2307     0.0000     0.0000 </r>
       <r>   -10.1895     0.0000     0.0000 </r>
       <r>   -10.1483     0.0000     0.0000 </r>
       <r>   -10.1071     0.0000     0.0000 </r>
       <r>   -10.0658     0.0000     0.0000 </r>
       <r>   -10.0246     0.0000     0.0000 </r>
       <r>    -9.9834     0.0000     0.0000 </r>
       <r>    -9.9422     0.0000     0.0000 </r>
       <r>    -9.9010     0.0000     0.0000 </r>
       <r>    -9.8597     0.0000     0.0000 </r>
       <r>    -9.8185     0.0000     0.0000 </r>
       <r>    -9.7773     0.0000     0.0000 </r>
       <r>    -9.7361     0.0000     0.0000 </r>
       <r>    -9.6949     0.0000     1.0000 </r>
       <r>    -9.6536     0.0000     1.0000 </r>
       <r>    -9.6124     0.0000     1.0000 </r>
       <r>    -9.5712     0.0000     1.0000 </r>
       <r>    -9.5300     0.0000     1.0000 </r>
       <r>    -9.4888     0.0000     1.0000 </r>
       <r>    -9.4476     0.0000     1.0000 </r>
       <r>    -9.4063     0.0000     1.0000 </r>
       <r>    -9.3651     0.0000     1.0000 </r>
       <r>    -9.3239     0.0000     1.0000 </r>
       <r>    -9.2827     0.0000     1.0000 </r>
       <r>    -9.2415     0.0000     2.0000 </r>
       <r>    -9.2002     0.0000     2.0000 </r>
       <r>    -9.1590     0.0000     3.0000 </r>
       <r>    -9.1178     0.0000     3.0000 </r>
       <r>    -9.0766     0.0000     4.0000 </r>
       <r>    -9.0354     0.0000     5.0000 </r>
       <r>    -8.9941     0.0000     9.0000 </r>
       <r>    -8.9529     0.0000    11.0000 </r>
       <r>    -8.9117     0.0000    13.0000 </r>
       <r>    -8.8705     0.0000    14.0000 </r>
       <r>    -8.8293     0.0000    16.0000 </r>
       <r>    -8.7880     0.0000    17.0000 </r>
       <r>    -8.7468     0.0000    19.0000 </r>
       <r>    -8.7056     0.0000    22.0000 </r>
       <r>    -8.6644     0.0000    25.0000 </r>
       <r>    -8.6232     0.0000    26.0000 </r>
       <r>    -8.5819     0.0000    28.0000 </r>
       <r>    -8.5407     0.0000    32.0000 </r>
       <r>    -8.4995     0.0000    33.0000 </r>
       <r>    -8.4583     0.0000    35.0000 </r>
       <r>    -8.4171     0.0000    37.0000 </r>
       <r>    -8.3759     0.0000    41.0000 </r>
       <r>    -8.3346     0.0000    44.0000 </r>
       <r>    -8.2934     0.0000    47.0000 </r>
       <r>    -8.2522     0.0000    50.0000 </r>
       <r>    -8.2110    24.2584    51.9999 </r>
       <r>    -8.1698     0.0000    54.0000 </r>
       <r>    -8.1285     0.0000    56.0000 </r>
       <r>    -8.0873     0.0000    60.0000 </r>
       <r>    -8.0461     0.0000    63.0000 </r>
       <r>    -8.0049     0.0000    66.0000 </r>
       <r>    -7.9637     0.0000    69.0000 </r>
       <r>    -7.9224     0.0000    71.0000 </r>
       <r>    -7.8812     0.0000    74.0000 </r>
       <r>    -7.8400     0.0000    77.0000 </r>
       <r>    -7.7988     0.0000    81.0000 </r>
       <r>    -7.7576     0.0000    85.0000 </r>
       <r>    -7.7163    24.2605    88.0000 </r>
       <r>    -7.6751     0.0000    92.0000 </r>
       <r>    -7.6339     0.0000    95.0000 </r>
       <r>    -7.5927     0.0000    98.0000 </r>
       <r>    -7.5515     0.0000   101.0000 </r>
       <r>    -7.5102     0.0000   103.0000 </r>
       <r>    -7.4690     0.0000   107.0000 </r>
       <r>    -7.4278     0.0000   110.0000 </r>
       <r>    -7.3866     0.0000   113.0000 </r>
       <r>    -7.3454     0.0000   117.0000 </r>
       <r>    -7.3042     0.0000   119.0000 </r>
       <r>    -7.2629     0.0000   122.0000 </r>
       <r>    -7.2217     0.0000   126.0000 </r>
       <r>    -7.1805     0.0000   128.0000 </r>
       <r>    -7.1393     0.0000   131.0000 </r>
       <r>    -7.0981     0.0000   134.0000 </r>
       <r>    -7.0568     0.0000   137.0000 </r>
       <r>    -7.0156     0.0000   141.0000 </r>
       <r>    -6.9744     0.0000   144.0000 </r>
       <r>    -6.9332     0.0000   149.0000 </r>
       <r>    -6.8920     0.0000   153.0000 </r>
       <r>    -6.8507     0.0000   157.0000 </r>
       <r>    -6.8095     0.0000   163.0000 </r>
       <r>    -6.7683     0.0000   168.0000 </r>
       <r>    -6.7271     0.0000   171.0000 </r>
       <r>    -6.6859     0.0000   176.0000 </r>
       <r>    -6.6446     0.7046   181.0290 </r>
       <r>    -6.6034     0.0000   187.0000 </r>
       <r>    -6.5622     0.0000   193.0000 </r>
       <r>    -6.5210     0.0000   197.0000 </r>
       <r>    -6.4798     0.0000   202.0000 </r>
       <r>    -6.4385     0.0000   207.0000 </r>
       <r>    -6.3973    24.2605   212.0000 </r>
       <r>    -6.3561     0.0000   217.0000 </r>
       <r>    -6.3149     0.0000   219.0000 </r>
       <r>    -6.2737     0.0000   223.0000 </r>
       <r>    -6.2324     0.0000   227.0000 </r>
       <r>    -6.1912     0.0000   230.0000 </r>
       <r>    -6.1500     0.0000   233.0000 </r>
       <r>    -6.1088     0.0000   236.0000 </r>
       <r>    -6.0676     0.0000   239.0000 </r>
       <r>    -6.0264     0.0000   240.0000 </r>
       <r>    -5.9851     0.0000   241.0000 </r>
       <r>    -5.9439     0.0000   242.0000 </r>
       <r>    -5.9027     0.0000   242.0000 </r>
       <r>    -5.8615     0.0000   243.0000 </r>
       <r>    -5.8203     0.0000   244.0000 </r>
       <r>    -5.7790     0.0000   244.0000 </r>
       <r>    -5.7378     0.0000   244.0000 </r>
       <r>    -5.6966     0.0000   244.0000 </r>
       <r>    -5.6554     0.0000   244.0000 </r>
       <r>    -5.6142     0.0000   244.0000 </r>
       <r>    -5.5729     0.0000   244.0000 </r>
       <r>    -5.5317     0.0000   244.0000 </r>
       <r>    -5.4905     0.0000   245.0000 </r>
       <r>    -5.4493     0.0000   245.0000 </r>
       <r>    -5.4081     0.0000   245.0000 </r>
       <r>    -5.3668     0.0000   245.0000 </r>
       <r>    -5.3256     0.0000   245.0000 </r>
       <r>    -5.2844     0.0000   245.0000 </r>
       <r>    -5.2432     0.0000   245.0000 </r>
       <r>    -5.2020     0.0000   245.0000 </r>
       <r>    -5.1607     0.0000   245.0000 </r>
       <r>    -5.1195     0.0000   246.0000 </r>
       <r>    -5.0783     0.0000   246.0000 </r>
       <r>    -5.0371     0.0000   246.0000 </r>
       <r>    -4.9959     0.0000   247.0000 </r>
       <r>    -4.9547     0.0000   247.0000 </r>
       <r>    -4.9134     0.0000   247.0000 </r>
       <r>    -4.8722     0.0000   247.0000 </r>
       <r>    -4.8310     0.0000   248.0000 </r>
       <r>    -4.7898     0.0000   248.0000 </r>
       <r>    -4.7486     0.0000   249.0000 </r>
       <r>    -4.7073     0.0000   249.0000 </r>
       <r>    -4.6661     0.0000   249.0000 </r>
       <r>    -4.6249     0.0000   250.0000 </r>
       <r>    -4.5837     0.0000   250.0000 </r>
       <r>    -4.5425     0.0000   250.0000 </r>
       <r>    -4.5012     0.0000   250.0000 </r>
       <r>    -4.4600     0.0000   250.0000 </r>
       <r>    -4.4188     0.0000   251.0000 </r>
       <r>    -4.3776     0.0000   251.0000 </r>
       <r>    -4.3364     0.0000   251.0000 </r>
       <r>    -4.2951     0.0000   252.0000 </r>
       <r>    -4.2539     0.0000   252.0000 </r>
       <r>    -4.2127     0.0000   252.0000 </r>
       <r>    -4.1715     0.0000   252.0000 </r>
       <r>    -4.1303     0.0000   253.0000 </r>
       <r>    -4.0890     0.0000   253.0000 </r>
       <r>    -4.0478     0.0000   253.0000 </r>
       <r>    -4.0066     0.0000   253.0000 </r>
       <r>    -3.9654     0.0000   253.0000 </r>
       <r>    -3.9242     0.0000   254.0000 </r>
       <r>    -3.8830     0.0000   254.0000 </r>
       <r>    -3.8417     0.0000   254.0000 </r>
       <r>    -3.8005     0.0000   255.0000 </r>
       <r>    -3.7593     0.0000   255.0000 </r>
       <r>    -3.7181     0.0000   255.0000 </r>
       <r>    -3.6769     0.0000   255.0000 </r>
       <r>    -3.6356     0.0000   255.0000 </r>
       <r>    -3.5944     0.0000   255.0000 </r>
       <r>    -3.5532     0.0000   256.0000 </r>
       <r>    -3.5120     0.0000   256.0000 </r>
       <r>    -3.4708     0.0000   256.0000 </r>
       <r>    -3.4295     0.0000   258.0000 </r>
       <r>    -3.3883     0.0000   258.0000 </r>
       <r>    -3.3471     0.0000   258.0000 </r>
       <r>    -3.3059     0.0000   258.0000 </r>
       <r>    -3.2647     0.0000   258.0000 </r>
       <r>    -3.2234     0.0000   258.0000 </r>
       <r>    -3.1822     0.0000   259.0000 </r>
       <r>    -3.1410     0.0000   259.0000 </r>
       <r>    -3.0998     0.0000   259.0000 </r>
       <r>    -3.0586     0.0000   259.0000 </r>
       <r>    -3.0173     0.0000   260.0000 </r>
       <r>    -2.9761     0.0000   260.0000 </r>
       <r>    -2.9349     0.0000   261.0000 </r>
       <r>    -2.8937     0.0000   261.0000 </r>
       <r>    -2.8525     0.0000   261.0000 </r>
       <r>    -2.8112     0.0000   262.0000 </r>
       <r>    -2.7700     0.0000   263.0000 </r>
       <r>    -2.7288     0.0000   263.0000 </r>
       <r>    -2.6876     0.0000   264.0000 </r>
       <r>    -2.6464     0.0000   264.0000 </r>
       <r>    -2.6052     0.0000   264.0000 </r>
       <r>    -2.5639     0.0000   265.0000 </r>
       <r>    -2.5227     0.0000   265.0000 </r>
       <r>    -2.4815     0.0000   265.0000 </r>
       <r>    -2.4403     0.0000   265.0000 </r>
       <r>    -2.3991     0.0000   266.0000 </r>
       <r>    -2.3578     0.0000   267.0000 </r>
       <r>    -2.3166     0.0000   267.0000 </r>
       <r>    -2.2754     0.0000   267.0000 </r>
       <r>    -2.2342     0.0000   267.0000 </r>
       <r>    -2.1930     0.0000   268.0000 </r>
       <r>    -2.1517     0.0000   268.0000 </r>
       <r>    -2.1105     0.0000   268.0000 </r>
       <r>    -2.0693     0.0000   269.0000 </r>
       <r>    -2.0281     0.0000   269.0000 </r>
       <r>    -1.9869     0.0000   269.0000 </r>
       <r>    -1.9456     0.0000   269.0000 </r>
       <r>    -1.9044     0.0000   269.0000 </r>
       <r>    -1.8632     0.0000   270.0000 </r>
       <r>    -1.8220     0.0000   271.0000 </r>
       <r>    -1.7808     0.0000   272.0000 </r>
       <r>    -1.7395     0.0000   273.0000 </r>
       <r>    -1.6983     0.0000   273.0000 </r>
       <r>    -1.6571     0.0000   273.0000 </r>
       <r>    -1.6159     0.0000   274.0000 </r>
       <r>    -1.5747     0.0000   275.0000 </r>
       <r>    -1.5335     0.0000   275.0000 </r>
       <r>    -1.4922     0.0000   275.0000 </r>
       <r>    -1.4510     0.0000   275.0000 </r>
       <r>    -1.4098    24.2605   277.0000 </r>
       <r>    -1.3686     0.0000   277.0000 </r>
       <r>    -1.3274     0.0000   277.0000 </r>
       <r>    -1.2861     0.0000   278.0000 </r>
       <r>    -1.2449     0.0000   279.0000 </r>
       <r>    -1.2037     0.0000   280.0000 </r>
       <r>    -1.1625     0.0000   280.0000 </r>
       <r>    -1.1213     0.0000   280.0000 </r>
       <r>    -1.0800     0.0000   281.0000 </r>
       <r>    -1.0388     0.0000   282.0000 </r>
       <r>    -0.9976     0.0000   283.0000 </r>
       <r>    -0.9564     0.0000   283.0000 </r>
       <r>    -0.9152     0.0000   283.0000 </r>
       <r>    -0.8739     0.0000   283.0000 </r>
       <r>    -0.8327     0.0000   284.0000 </r>
       <r>    -0.7915     0.0000   285.0000 </r>
       <r>    -0.7503     0.0000   285.0000 </r>
       <r>    -0.7091     0.0000   286.0000 </r>
       <r>    -0.6678     0.0000   286.0000 </r>
       <r>    -0.6266     0.0000   287.0000 </r>
       <r>    -0.5854     0.0000   288.0000 </r>
       <r>    -0.5442     0.0000   288.0000 </r>
       <r>    -0.5030     0.0000   289.0000 </r>
       <r>    -0.4618     0.0000   289.0000 </r>
       <r>    -0.4205     0.0000   289.0000 </r>
       <r>    -0.3793     0.0000   289.0000 </r>
       <r>    -0.3381     0.0000   290.0000 </r>
       <r>    -0.2969     0.0000   290.0000 </r>
       <r>    -0.2557     0.0000   291.0000 </r>
       <r>    -0.2144     0.0000   292.0000 </r>
       <r>    -0.1732     0.0000   294.0000 </r>
       <r>    -0.1320     0.0000   294.0000 </r>
       <r>    -0.0908     0.0000   294.0000 </r>
       <r>    -0.0496     0.0000   294.0000 </r>
       <r>    -0.0083     0.0000   295.0000 </r>
       <r>     0.0329     0.0000   296.0000 </r>
       <r>     0.0741     0.0000   296.0000 </r>
       <r>     0.1153     0.0000   296.0000 </r>
       <r>     0.1565     0.0000   298.0000 </r>
       <r>     0.1978     0.0000   299.0000 </r>
       <r>     0.2390     0.0000   299.0000 </r>
       <r>     0.2802     0.0825   299.0034 </r>
       <r>     0.3214     0.0000   300.0000 </r>
       <r>     0.3626     0.0000   300.0000 </r>
       <r>     0.4039     0.0000   300.0000 </r>
       <r>     0.4451     0.0000   301.0000 </r>
       <r>     0.4863     0.0000   302.0000 </r>
       <r>     0.5275     0.0000   302.0000 </r>
       <r>     0.5687     0.0000   303.0000 </r>
       <r>     0.6100     0.0000   304.0000 </r>
       <r>     0.6512     0.0000   304.0000 </r>
       <r>     0.6924     0.0000   304.0000 </r>
       <r>     0.7336     0.0000   306.0000 </r>
       <r>     0.7748     0.0000   307.0000 </r>
       <r>     0.8160     0.0000   308.0000 </r>
       <r>     0.8573     0.0000   308.0000 </r>
       <r>     0.8985     0.0000   309.0000 </r>
       <r>     0.9397     0.0000   312.0000 </r>
       <r>     0.9809     0.0000   312.0000 </r>
       <r>     1.0221     0.0000   315.0000 </r>
       <r>     1.0634     0.0000   316.0000 </r>
       <r>     1.1046     0.0000   318.0000 </r>
       <r>     1.1458     0.0000   320.0000 </r>
       <r>     1.1870     0.0000   322.0000 </r>
       <r>     1.2282     0.0000   323.0000 </r>
       <r>     1.2695     0.0000   324.0000 </r>
       <r>     1.3107     0.0000   326.0000 </r>
       <r>     1.3519     0.0000   328.0000 </r>
       <r>     1.3931     0.0000   331.0000 </r>
       <r>     1.4343     0.0000   334.0000 </r>
       <r>     1.4756     0.0000   335.0000 </r>
       <r>     1.5168     0.0000   336.0000 </r>
       <r>     1.5580     0.0000   336.0000 </r>
       <r>     1.5992     0.0000   336.0000 </r>
       <r>     1.6404     0.0000   336.0000 </r>
       <r>     1.6817     0.0000   336.0000 </r>
       <r>     1.7229     0.0000   336.0000 </r>
       <r>     1.7641     0.0000   336.0000 </r>
       <r>     1.8053     0.0000   336.0000 </r>
       <r>     1.8465     0.0000   336.0000 </r>
       <r>     1.8877     0.0000   336.0000 </r>
       <r>     1.9290     0.0000   336.0000 </r>
       <r>     1.9702     0.0000   336.0000 </r>
       <r>     2.0114     0.0000   336.0000 </r>
       <r>     2.0526     0.0000   336.0000 </r>
      </set>
     </set>
    </array>
   </total>
  </dos>
 </calculation>
 <structure name="finalpos" >
  <crystal>
   <varray name="basis" >
    <v>      23.55982615       0.00000000       0.00000000 </v>
    <v>       0.00000000      23.55982615       0.00000000 </v>
    <v>       0.00000000       0.00000000      23.55982615 </v>
   </varray>
   <i name="volume">  13077.24452482 </i>
   <varray name="rec_basis" >
    <v>       0.04244513       0.00000000       0.00000000 </v>
    <v>       0.00000000       0.04244513       0.00000000 </v>
    <v>       0.00000000       0.00000000       0.04244513 </v>
   </varray>
  </crystal>
  <varray name="positions" >
   <v>       0.64476946       0.58235043       0.68682287 </v>
   <v>       0.54588934       0.52105371       0.72166471 </v>
   <v>       0.62990569       0.67736341       0.61547743 </v>
   <v>       0.43606537       0.55135422       0.67170616 </v>
   <v>       0.62968852       0.47150593       0.64806931 </v>
   <v>       0.53919036       0.59704684       0.62173203 </v>
   <v>       0.55529503       0.39482754       0.70545139 </v>
   <v>       0.42521135       0.65009067       0.61193371 </v>
   <v>       0.73597738       0.51527794       0.63172766 </v>
   <v>       0.52138027       0.71638943       0.58658826 </v>
   <v>       0.44857787       0.44629864       0.72566435 </v>
   <v>       0.34600472       0.56171860       0.58694280 </v>
   <v>       0.56241035       0.49409654       0.51960887 </v>
   <v>       0.51109593       0.46857723       0.62340407 </v>
   <v>       0.65287424       0.57042661       0.57100960 </v>
   <v>       0.39207509       0.45236511       0.61766837 </v>
   <v>       0.67888701       0.45858127       0.53766531 </v>
   <v>       0.58280582       0.37861269       0.59052608 </v>
   <v>       0.46416214       0.35590031       0.63276359 </v>
   <v>       0.45751095       0.54549489       0.54738951 </v>
   <v>       0.58136665       0.64471037       0.50960311 </v>
   <v>       0.34049223       0.66394504       0.52586144 </v>
   <v>       0.41021106       0.75500577       0.55955415 </v>
   <v>       0.45998551       0.66718200       0.49794724 </v>
   <v>       0.37457015       0.35732432       0.54541321 </v>
   <v>       0.27958795       0.56152097       0.48138378 </v>
   <v>       0.64442255       0.55232793       0.45496820 </v>
   <v>       0.48364729       0.39644409       0.52221023 </v>
   <v>       0.60651677       0.38515031       0.47700416 </v>
   <v>       0.51243167       0.58106932       0.43726008 </v>
   <v>       0.38900924       0.58123276       0.45524849 </v>
   <v>       0.35038296       0.46950878       0.51112519 </v>
   <v>       0.69010838       0.44872066       0.41587484 </v>
   <v>       0.45745506       0.47927214       0.44209310 </v>
   <v>       0.57071649       0.47097520       0.39980633 </v>
   <v>       0.60248948       0.63585952       0.38579991 </v>
   <v>       0.28568529       0.38837726       0.45713808 </v>
   <v>       0.39691609       0.38046410       0.42821820 </v>
   <v>       0.65376332       0.53654675       0.33500509 </v>
   <v>       0.51176236       0.36546959       0.40815403 </v>
   <v>       0.62099306       0.36688568       0.35860270 </v>
   <v>       0.42106623       0.54990181       0.34745946 </v>
   <v>       0.53603195       0.55469570       0.32089825 </v>
   <v>       0.33271686       0.48554402       0.39761449 </v>
   <v>       0.69939802       0.43220975       0.29619270 </v>
   <v>       0.47276284       0.44559336       0.32856440 </v>
   <v>       0.58381673       0.45291890       0.28121240 </v>
  </varray>
 </structure>
</modeling>
