17
Energy = -44.98141559 eV
Cu 11.446439396463887 12.248287422172929 11.9141538230755
Cu 9.00139660353611 12.248287422172929 11.9141538230755
Cu 8.197655359056952 12.251257464258899 9.577507093765144
Cu 10.223918 12.243129440345937 8.08572464456171
Cu 12.250180640943055 12.251257464258899 9.577507093765144
Cu 10.223918 13.392919324195297 10.188072182123653
Cu 10.223918 10.223918 12.425916064849769
Cu 8.169675902426203 10.223918 10.896055390086412
Cu 8.986121272318416 10.223918 8.537170789271462
Cu 11.461714727681581 10.223918 8.537170789271462
Cu 12.278160097573798 10.223918 10.896055390086412
Cu 9.00139660353611 8.19954857782707 11.9141538230755
Cu 8.197655359056952 8.196578535741102 9.577507093765144
Cu 10.223918 8.20470655965406 8.08572464456171
Cu 12.250180640943055 8.196578535741102 9.577507093765144
Cu 11.446439396463887 8.19954857782707 11.9141538230755
Cu 10.223918 7.0549166758047 10.188072182123653
