16
Energy = -41.85434795 eV
Cu 9.596135008901534 9.598586855332425 9.843381051674603
Cu 8.32601129939362 10.404935034168572 11.693439109582087
Cu 9.521082000592052 8.106044233604212 11.699481130855439
Cu 10.933980992578434 10.28956901300688 11.690910589489105
Cu 9.638195519163395 11.994618358407534 10.294494215905308
Cu 7.535722365085606 10.851438175683622 9.369183382507142
Cu 7.496949018747753 8.442716955023908 10.297969178014654
Cu 9.539933869856464 7.191540605428122 9.376644079885079
Cu 11.645870032617715 8.353632421099022 10.300027462422234
Cu 11.709043168038985 10.74352648570503 9.36986888514587
Cu 9.664861854333008 11.067558316288315 7.927151839958631
Cu 8.290418558341518 8.922285777173949 7.928288876832638
Cu 10.833852456793135 8.798470387202943 7.928855108252125
Cu 11.052183172305755 12.92213272572091 8.600085036719639
Cu 11.762633175448782 6.6737659986698405 8.60636239173486
Cu 5.981775107802806 9.167826256653589 8.602505260189341
