10
Energy = -24.56030954 eV
Cu 8.646165599999902 9.500672399999956 10.770019799999975
Cu 8.646121600000082 9.500565400000008 8.233072799999967
Cu 8.002069600000032 11.429673400000093 9.50148879999997
Cu 10.358703599999934 8.234400399999975 9.501683800000096
Cu 10.35542359999995 10.770726399999974 9.501283800000014
Cu 6.50000560000005 9.497661399999947 9.501512799999993
Cu 8.007731599999962 7.569505400000091 9.501595800000054
Cu 10.99802559999995 9.503832399999958 11.43195380000008
Cu 10.998127600000052 9.503499399999964 7.5711448000000034
Cu 12.503100600000078 9.504938400000025 9.501718799999974
