13
Energy = -31.92719521 eV
Cu 11.371768929913877 8.82633904721737 10.538194377063057
Cu 10.618194550028276 9.72972418300514 8.433460186423277
Cu 9.93905730359643 7.540769317178514 9.188976822939942
Cu 10.29849911106035 10.178462198714664 6.112132830898383
Cu 8.942974600784112 9.493820258034734 10.194626494536461
Cu 9.657310050440753 7.99853014605396 6.813721413632963
Cu 8.663515838317998 5.996595565353258 7.995686908166912
Cu 8.390699717924232 10.106296617723403 7.71245302437247
Cu 7.6482783264624175 7.232001571590773 10.011299694800414
Cu 7.046266343620934 8.850915222263188 11.652924990138521
Cu 7.368729229468741 7.920957374204877 7.701988459344107
Cu 6.708007052051771 9.526055522071069 9.385208425787706
Cu 5.952032569807252 9.692339828481778 7.098937484728192
