18
Energy = -46.48300018 eV
Cu 12.171633 10.831185688404855 13.194934004459608
Cu 14.193321919950606 12.171633 13.261597198075757
Cu 13.418984767667567 10.986397249407629 15.308680167307418
Cu 13.418984767667567 13.356868750592373 15.308680167307418
Cu 12.171633 10.811078575887942 9.167417903139627
Cu 12.171633 13.512080311595149 13.194934004459608
Cu 10.14994408004939 12.171633 13.261597198075757
Cu 10.924281232332442 13.356868750592373 15.308680167307418
Cu 12.171633 13.53218742411206 9.167417903139627
Cu 14.10381358132932 12.171633 8.892514568557162
Cu 10.239452418670687 12.171633 8.892514568557162
Cu 10.924281232332442 10.986397249407629 15.308680167307418
Cu 12.171633 12.171633 16.9940697174751
Cu 12.171633 12.171633 7.242169141671713
Cu 10.845110531279088 10.995766672184148 11.14637678078997
Cu 13.498155468720913 10.995766672184148 11.14637678078997
Cu 13.498155468720913 13.347499327815841 11.14637678078997
Cu 10.845110531279088 13.347499327815841 11.14637678078997
