18
Energy = -48.81776881 eV
Cu 10.37689 13.27502296850212 10.83876842761703
Cu 8.320366982389361 12.433413017610631 9.913539431056538
Cu 7.4787570314978815 10.37689 10.83876842761703
Cu 8.320366982389361 8.320366982389361 9.913539431056538
Cu 10.37689 7.4787570314978815 10.83876842761703
Cu 12.433413017610631 8.320366982389361 9.913539431056538
Cu 12.138722523300732 10.37689 8.663641445660929
Cu 10.37689 8.615057476699269 8.663641445660929
Cu 8.615057476699269 10.37689 8.663641445660929
Cu 13.27502296850212 10.37689 10.83876842761703
Cu 10.37689 12.138722523300732 8.663641445660929
Cu 12.433413017610631 12.433413017610631 9.913539431056538
Cu 11.625145991847525 11.625145991847525 12.091918254036765
Cu 11.625145991847525 9.128634008152476 12.091918254036765
Cu 9.128634008152476 9.128634008152476 12.091918254036765
Cu 9.128634008152476 11.625145991847525 12.091918254036765
Cu 10.37689 10.37689 7.036984487891598
Cu 10.37689 10.37689 13.715565278623368
