24
Energy = -66.9259253 eV
Cu 8.795687132941183 9.585876414538417 10.554235600794403
Cu 6.988976493215403 11.093160216694027 10.425102273161695
Cu 7.6673187819539965 9.841242574726541 8.328113158722859
Cu 6.643344070377225 8.6297754035906 10.414357196187073
Cu 8.575794875677333 7.577467658401803 9.140334187268456
Cu 7.61273372048473 9.736256441526324 12.65347543438138
Cu 9.452967193624865 10.98111861676974 6.824886795184241
Cu 10.09276307551483 9.486208967081229 8.596392880248372
Cu 9.14990846624084 11.721941237468922 9.255775767081275
Cu 8.999230055436158 11.733539252909756 11.762757472007198
Cu 9.074448310361491 8.486756085759271 6.696856174995482
Cu 8.505151236937893 7.570316591282236 11.761901365687857
Cu 11.398708209015426 9.375760720818485 6.60286308772183
Cu 10.947186015958023 12.769738617149113 10.489348876851235
Cu 11.617270152820561 11.62796409824693 5.904164448093221
Cu 11.15706159485459 11.623166717837973 12.749561273829741
Cu 10.846805391068218 7.284268809798587 8.06660119076233
Cu 9.14218997445127 11.047318808170129 14.10790204644268
Cu 10.685118776359602 7.968722544929837 10.555136758171162
Cu 10.093699871488129 9.391625080171428 12.606522958390157
Cu 11.509553466798181 11.443101748816657 8.326184208665305
Cu 11.21552435645794 10.433041999008042 10.619901445649857
Cu 12.439084993130406 9.024881848169285 8.989557067132711
Cu 12.524833814172686 6.702109575475955 9.703428361910579
