23
Energy = -63.488858 eV
Cu 7.411999528591337 9.806613522217232 5.330057035364546
Cu 9.522064584908277 9.103371328905054 6.241604736773046
Cu 7.690196320622627 7.5105659698950635 6.353727499506035
Cu 8.21540285276355 7.574293227825529 11.302687512000055
Cu 7.101519023785748 9.445072190898284 7.703924632111929
Cu 11.630412138380724 8.580023831457837 8.263338212209275
Cu 8.546017088582103 11.242501190775288 6.991967289720664
Cu 10.925574363035125 10.851285526041055 7.393958178565095
Cu 7.766911516548559 7.4489755049766195 8.948594396697032
Cu 7.516324503074391 9.692815793147268 10.154135292565122
Cu 8.315536805743271 11.702244098054907 11.458271240562553
Cu 9.439526421809258 11.70447714822728 9.24235462812674
Cu 8.04520032069089 9.536011650184488 12.62385805897375
Cu 9.746564396772492 7.065078517921251 7.594616429968191
Cu 9.390854571869774 9.359226633462773 8.63428025086355
Cu 10.155472850584246 7.3163248792592315 9.98256431475271
Cu 9.863508557488956 9.880844825249207 10.975623155863603
Cu 9.951175857301344 10.887241781477641 13.227795493379379
Cu 10.731604833056313 12.207688533590797 11.288930213950078
Cu 11.785071234098154 10.690352616008559 9.634230090725683
Cu 12.136222105996 8.44848176982169 10.628935832539552
Cu 10.391136015815807 8.176449577636577 12.46700514549567
Cu 11.99013213687944 10.279447788513362 12.164016087354463
