27
Energy = -76.18123173 eV
Cu 12.086727497709845 12.412437015995593 10.345687249495079
Cu 11.195125889460874 12.659507814867686 7.85778678850329
Cu 9.95478829895045 13.804564760822876 9.824827661236066
Cu 8.597651019232524 12.459564972019356 7.851399800124239
Cu 7.8653923207723375 12.260057704566858 10.401059136307353
Cu 10.011455571953046 12.307030191945016 11.891494997911416
Cu 9.99262822908 11.491778781989494 9.462504409038244
Cu 12.30624414053336 11.51323367024162 12.76174588081717
Cu 12.167280034963772 10.454738745597314 8.673377634054315
Cu 13.62301144809709 10.208643315245565 10.695473795382568
Cu 13.88361938629573 8.807002923391686 8.620763517836052
Cu 11.28625157408639 10.242762934985473 11.118717098361515
Cu 9.993158332100695 10.361826469924825 7.289745157577672
Cu 10.095359437691068 10.171328713049883 13.259147263904744
Cu 8.844764497196946 10.1660752840433 11.139215266395487
Cu 7.8875083464755615 10.197567628241568 8.781172418892218
Cu 7.7914168021865455 11.373783136704333 12.832142105055835
Cu 6.5134920638241 10.103170078387368 10.961455677980656
Cu 7.873737886794057 8.784556276646086 12.720396853920315
Cu 7.996767616124567 8.0709020354823 10.15947514820827
Cu 10.130584268501773 8.065077310762144 11.676106329602199
Cu 8.839806285321622 8.090061846705275 7.652684258827621
Cu 10.089218462450763 9.049374758337093 9.342564477328684
Cu 12.317529364610458 8.879416121747557 12.694045101566882
Cu 12.219529391291656 8.115962565149934 10.216619951585217
Cu 11.615940493529877 8.210967581082091 7.722639249396029
Cu 10.140101580453823 6.726059976917256 9.49816936812911
