26
Energy = -72.68861146 eV
Cu 11.859183516494108 13.317206357680165 8.977169824962576
Cu 9.091269319122333 7.503252285179498 8.761914142812488
Cu 9.7874531578525 9.842248641646218 14.588240292069006
Cu 12.236171067370062 12.092465123859567 6.946675798717523
Cu 9.222718198247287 9.533556598271336 7.423375373557702
Cu 11.311220307853475 8.554252295606311 8.698041073220914
Cu 9.494100937897345 11.980079143455558 10.721774175907184
Cu 11.98347051613555 9.326560074569636 10.886012737016571
Cu 9.51848058306026 13.368552918415844 8.417495311393882
Cu 8.191180461470331 11.384690747309365 8.61064630013679
Cu 7.231924456619241 10.686093873967755 10.692820241782197
Cu 12.94091079372346 10.444498712332804 8.764454371175786
Cu 9.778579194618764 11.810935708834629 6.5225881150988645
Cu 7.9752427151130645 8.175749258810669 11.25895950890597
Cu 9.499546490180318 9.616964330531873 10.101283412560223
Cu 11.50425035321193 9.85472760194779 6.626559240137038
Cu 10.4780995054231 7.6148955275912 6.635283978977819
Cu 12.04016048086674 11.692873368960889 10.711866036057756
Cu 10.69651931403538 11.21356007799809 8.652934148860645
Cu 10.366637507374254 8.480197356090423 12.716669133700337
Cu 8.116260683198066 8.239466568325664 13.683803282202003
Cu 10.958066111889329 10.827637530969934 12.610029092965444
Cu 8.618693718124437 10.292404693392285 12.531453932402117
Cu 7.278758090762849 9.106008650667288 8.921477285837152
Cu 10.549394599213803 7.2897948533837935 10.676992733920807
Cu 9.21516017844851 6.390804722033797 12.502129186809134
