27
Energy = -76.1827147 eV
Cu 8.615346056040167 5.801036302953264 8.103789987151231
Cu 9.020879032322876 8.088778790361953 7.4560226606970055
Cu 7.325659373599579 9.799328628420556 8.346409848571161
Cu 7.8642376479813825 7.578777398313842 9.536343659279584
Cu 7.920020169361167 12.152897253832217 8.134660032083904
Cu 9.37721607987264 10.42226869922878 7.088566256105851
Cu 11.6622546329336 11.261835316139715 6.872164244169799
Cu 10.240152518217371 7.0970293068483254 9.321072894607978
Cu 9.678562000455756 12.699810464057103 6.522666266644849
Cu 11.39776380041043 8.934282376383187 7.923334911373721
Cu 6.2282286448340205 11.505520811479869 9.78181366482863
Cu 7.3383075308403685 9.529769459053888 10.783171169967453
Cu 13.563514983146984 9.791749663846144 7.200625849283857
Cu 9.534635851987565 9.572643349819726 9.477333554790846
Cu 13.791480343438089 8.77942322579425 9.367500872014366
Cu 6.765432154265625 11.273142397783403 12.223637559592504
Cu 11.63257428134531 8.634717153551371 10.46060433712549
Cu 9.350882144168892 8.154867276360724 11.54401651801657
Cu 7.268672806561835 8.914011515619695 13.106395358210401
Cu 12.448361600417366 10.781731978930143 9.161176878496951
Cu 10.894986582099827 11.027915571571143 11.033850438947452
Cu 10.320576294250113 11.974780894291463 8.802968311983394
Cu 8.545982285837404 11.726006298622334 10.537105815226365
Cu 13.21059393760705 10.0824974045202 11.419415042836409
Cu 9.071638798844454 10.404020828016765 12.564104494434845
Cu 11.27403872807129 9.306993065998727 12.763221733124736
Cu 9.434669477002256 8.322760881417702 13.963594681241037
