22
Energy = -59.54689648 eV
Cu 12.612546543768989 8.608543515686176 11.285188752120238
Cu 9.646668065045422 12.384985958813168 12.584581381511816
Cu 8.793648152932057 10.157511230611684 12.360154074723324
Cu 11.197438707202028 10.433456381956466 12.280346349557732
Cu 8.64743523277855 6.4977779096631325 10.265044648280226
Cu 7.733301525754985 8.555059081593205 10.943303440017921
Cu 10.101401782849125 8.193073226720976 11.533737580521287
Cu 13.1155748867519 10.996006419835204 10.76464276968133
Cu 10.824449980218962 12.158178772365162 10.47466122997763
Cu 11.11839743981887 9.7819843074364 9.943668224819273
Cu 8.41585633626693 11.877469139158245 10.56125518357142
Cu 9.481418018862106 8.315793079418743 9.05418967149082
Cu 7.134600394306198 7.8150316506168895 8.662523161866913
Cu 6.564600838124895 10.553511057747233 11.410302513124122
Cu 13.21014575046726 9.268839808077663 8.88171149681328
Cu 14.605406207639655 11.229034775970021 8.895689896573211
Cu 7.3310062333356285 10.246362216464673 9.100929726426788
Cu 11.035036782663232 9.376384275257099 7.553681987462563
Cu 12.18154279572399 11.445027508664289 8.496310356957892
Cu 9.60516541787371 11.095015385520712 8.563626918370323
Cu 8.491606916441098 9.364644850708622 7.152210205578611
Cu 6.038190725968522 9.372277688199867 7.231456905726566
