25
Energy = -69.21900328 eV
Cu 11.007397095090218 7.772162305882751 12.206563662499233
Cu 12.38890247979344 8.706634606154584 8.574312476024332
Cu 6.373082611405729 12.277954219380991 11.855634268924566
Cu 10.746285895343128 10.208540117289806 11.972710702062832
Cu 11.686683562275965 10.786204518692278 7.281290373248062
Cu 10.262203934389527 12.348291268496753 10.738554018282628
Cu 9.631192476599413 11.698411907527339 8.285055109919497
Cu 9.14546846618954 10.10819921824011 9.989222910903106
Cu 6.835419943327471 10.012332059910738 10.84420551805199
Cu 8.712802293859296 8.621018670932472 11.804188973348182
Cu 10.12350531740387 7.7963103324249685 9.954607500187464
Cu 11.647480354373734 8.528930091683364 6.28691197968876
Cu 11.056785214373813 6.823262415495992 7.949352551665661
Cu 7.800980112128176 8.254048467262676 9.419929341469048
Cu 9.922536481339026 9.141845257189372 7.889905655751516
Cu 7.800503857040918 12.181842442311341 9.92580434418952
Cu 11.581414949385971 12.960570941453673 8.673869101615987
Cu 10.223817219809877 12.51166641140666 13.09910587232963
Cu 13.308326871127015 7.073626858949561 12.255390257707175
Cu 9.340112402882676 14.008825047992412 9.37185313414939
Cu 11.652611542868241 10.71324271061333 9.672418129265672
Cu 8.468531634471239 11.169705644419388 12.218795744798895
Cu 8.455886857549565 13.65916024275871 11.755344878262806
Cu 12.697555182620881 9.023672011313167 11.000340442942504
Cu 12.272663977041553 6.755692964907562 10.11678378540183
