38
Energy = -111.23653867 eV
Cu 9.356814101391668 12.72335808592767 14.094381307696713
Cu 11.618850742668807 11.93445186526633 12.859117709201817
Cu 10.421668107300604 10.52211115943604 14.417170725016936
Cu 12.70360392037741 9.754557805812329 13.677073510403503
Cu 10.191311658386079 13.706600435754092 12.04367425348904
Cu 6.9258811646292004 10.510502687518782 12.203669497233374
Cu 7.724468234850351 13.081909091575023 11.88218563060339
Cu 12.956822002909346 10.538228306183155 11.331886377788754
Cu 10.841924890914903 9.518444203304554 12.170664767287736
Cu 8.678853325520357 9.119196811806106 13.424607558963396
Cu 9.258428323085349 11.355353010068491 12.176254183165373
Cu 11.823947289865036 12.647231803916718 10.471059979475529
Cu 10.907087809543984 8.079662706930275 14.106744332009301
Cu 12.433031161778668 7.828840086260591 11.952869539313559
Cu 9.395342686935273 13.004219579715729 9.880798990423852
Cu 6.5270473037643715 9.073999504734703 10.025675381232459
Cu 8.67412300255482 9.227200655394014 11.02431585463325
Cu 7.612427403983622 11.38689731369328 10.088463247357147
Cu 9.718144410628483 7.249622677134568 12.076418759049258
Cu 6.261848240446583 10.65959026088738 8.246437835071731
Cu 10.454316365187386 10.674564157789137 10.042703131167027
Cu 10.711815674886253 7.966263375999863 10.02545719310582
Cu 8.747649018248506 9.607148826396658 8.469468878735903
Cu 13.09533421267987 8.708391168187283 9.782764116063348
Cu 8.399821440370637 12.028552944052343 7.855461686966022
Cu 8.280788879798669 7.286667724414819 9.70788082626633
Cu 6.986483513085165 8.250984151027023 7.671782931683502
Cu 11.237993859534859 9.452107766442658 8.105832677690339
Cu 12.973248159618109 11.030305545288051 8.923416893210828
Cu 12.17438813777367 7.144774436430644 8.153666092479401
Cu 9.796410462065207 7.312664975566221 7.837949255405972
Cu 10.895352371763785 12.153563954782317 8.105466259211932
Cu 7.481047357934509 10.342711642623039 6.26550965734624
Cu 8.923888608094108 8.465889320664264 5.999706116573386
Cu 13.561752333231297 9.042449162063512 7.415965753035172
Cu 9.907905395647452 10.662658145768258 6.372486527056901
Cu 11.374557490802689 8.40758402452323 6.00748104455068
Cu 12.323229139100292 10.91224871054883 6.481391185713862
