38
Energy = -111.83242266 eV
Cu 13.377148025533536 8.548359623027084 11.379108132140647
Cu 11.371342351458505 12.102305925848874 12.353808364109753
Cu 11.657696289421208 9.662451040667912 12.827894229453829
Cu 11.180012562288931 7.596810375873478 11.566473668808985
Cu 9.646277498124993 10.961047057584128 13.602249231722567
Cu 12.404939020889898 10.677860167626301 10.660567261761035
Cu 12.523441863884159 7.251386355717989 9.417173504452755
Cu 13.754283047277703 9.463015311977584 9.15664571267184
Cu 8.975009294113436 12.557785008129391 11.725543409502361
Cu 9.364881980143327 8.621388096951737 13.03058839248214
Cu 8.995223107093135 6.361563322906414 11.986377888882355
Cu 10.931655042679 9.049341320103965 9.229104018518276
Cu 10.146393347627416 6.372479395096211 9.714058828690389
Cu 9.987197306215188 10.457603470643448 11.092586625556825
Cu 7.720723823458727 10.343536390456094 12.216155809778341
Cu 11.920719094781951 11.056541649335907 8.133495976533549
Cu 12.549197268216716 8.754576060301085 7.269606209879045
Cu 7.000021842115681 7.977329163716885 11.847751648811322
Cu 10.865782204207061 12.461631034026665 9.996786534977629
Cu 9.018645617598585 8.336582397015906 10.680599842973313
Cu 7.6433685886305645 6.419843522855808 9.894314149293198
Cu 10.831028283589871 7.048753710177873 7.504486559081125
Cu 10.65795991200539 13.263028076542609 7.791075865517017
Cu 8.754358106623618 5.847902622504803 7.737843196261176
Cu 6.8599045648368495 12.07459882310124 10.63443445349365
Cu 9.42373124371378 10.936896123167832 8.475216283658886
Cu 8.614898335213779 13.16091233390326 9.275693460821294
Cu 8.660345578195729 8.30592022063513 8.331491174904778
Cu 7.32258859704547 9.851451153373075 9.854690088618025
Cu 5.803106286807711 7.982570634790515 9.683015870965864
Cu 10.285718839019864 9.259821146752122 6.68624143287868
Cu 10.451918235748884 11.564956979401092 6.113272842336761
Cu 6.942533380051684 11.587334866045992 8.215846730218214
Cu 6.552178584835278 6.799897588547165 7.708854050109345
Cu 8.20749930362082 7.86324419161814 6.104207784454375
Cu 8.49397073254321 12.815479156587728 6.816608100480838
Cu 6.476342488458188 9.21604790703715 7.60744702922244
Cu 8.193157742575025 10.413921304818883 6.373382662072822
