36
Energy = -104.6191825 eV
Cu 7.936928991966252 5.7156910891198685 11.375407813085918
Cu 7.2505137036601575 7.920065035643063 10.561264799152998
Cu 7.5840103216727535 7.4707330168888095 12.984480718454927
Cu 9.26157333920807 6.78169571449416 9.638396334030835
Cu 9.82018897160918 7.1068250818380605 12.006646232360998
Cu 8.42034503545792 8.707267538753165 8.44361475501018
Cu 7.239316390774749 10.301327324069286 9.875017563236664
Cu 7.2362529505946735 9.746059050945792 12.285721824607275
Cu 10.610611567001772 7.6563730323890935 7.797450939547681
Cu 9.302049199653807 9.271958029509555 10.895577638131513
Cu 9.407197545289248 9.043710051010653 13.493443206387338
Cu 11.374893328986206 7.979722600703096 10.1577988832484
Cu 9.748158652188772 9.491485019552709 6.464722633307965
Cu 11.925244485056096 8.496103397098485 5.910306837872283
Cu 8.446121432219636 11.093125301610872 7.792536703057416
Cu 7.1141686219469555 12.094665417738405 11.513600894560108
Cu 11.659785953907859 8.659008240505665 12.483441611930592
Cu 7.111502744172454 12.624774952944094 9.131516032419855
Cu 12.695176169197156 8.942563670877709 8.238525370181058
Cu 10.52916035814044 10.03857561199931 8.860502053630109
Cu 8.652040451140623 13.469697946102487 7.480927995179284
Cu 13.464439192688706 10.173924885061462 12.944691174369565
Cu 11.866031098219255 10.750920032545284 6.761321013680474
Cu 11.223851196090642 10.735801009926263 13.790376420350421
Cu 9.13758822715108 11.254623228854658 12.55814018872102
Cu 9.798703866408804 11.88654858011885 5.923707648802742
Cu 13.254174293986116 9.500422627462873 10.59800255212925
Cu 11.239271294784443 10.798381005453091 11.162939750266096
Cu 9.279958412205561 11.981805864145072 10.14476045470548
Cu 12.711309790642233 11.326502292488394 9.028071410375244
Cu 10.721360493385788 12.44700383222125 8.078762615541258
Cu 13.074127981775007 12.421401356084523 13.652616946555257
Cu 10.92379545877805 12.876227655437468 12.546761829759564
Cu 13.504353231356035 11.941161725826117 11.27198686763234
Cu 11.539590961858098 13.179479304883383 10.207946154103984
Cu 12.867056462389703 14.16987219455834 11.974707398051391
