47
Energy = -139.99211142 eV
Cu 6.339192867710572 11.884796941716397 9.29386023257048
Cu 9.891000434574359 14.898246477483669 11.111286815530365
Cu 6.6561394780024985 12.303661491976488 11.851049886393028
Cu 10.638862846608827 11.250958636887393 13.466878920175239
Cu 7.795957870953558 13.242164888586318 7.832641440140044
Cu 7.883775505794661 13.685151312362485 10.228776438499366
Cu 9.138770320971298 12.832547382181543 12.173402244486272
Cu 9.304966046098643 14.957478076499495 8.742191170296667
Cu 8.530084087607648 15.014666004096194 6.451866232035035
Cu 11.542023394798337 13.271673285110074 11.990333944438515
Cu 6.8594159462132165 9.351884620703629 9.17487968877983
Cu 12.197720025707525 9.564603664785135 14.580138978381587
Cu 11.33372946016586 13.796389809588678 9.509011696504233
Cu 6.534152974996766 9.818576214045931 11.553639153687737
Cu 9.920700181002415 8.87742696029163 13.958404279935893
Cu 10.712116177708744 11.157205206609763 11.021595701379486
Cu 7.987066678213091 10.853224725746971 7.633193737736464
Cu 12.976660225771699 11.23785660220064 12.65013722312644
Cu 8.211900441145566 10.761551225927128 13.124812502583628
Cu 7.644810398607768 8.332931680492926 13.193979338221586
Cu 8.258440981460563 11.19079794289798 10.45884493160711
Cu 9.882536984972218 11.97119769013997 8.858360644234759
Cu 10.282186767836958 13.46292543813702 7.044328726462709
Cu 7.713045724780451 7.176940130716134 8.491219554906577
Cu 9.2723044586709 9.223396779699371 11.556595557204759
Cu 11.672923372350988 9.257806870582874 12.264761840177623
Cu 8.817076942226867 8.588271341363 6.865753744811075
Cu 7.5720702078230975 7.62304746082385 10.85142707070856
Cu 10.390995604416066 10.562228418065809 6.946663512855781
Cu 12.909605296395165 12.055010410104934 10.276350374772317
Cu 12.21387091391555 12.1656607200863 7.804053195271027
Cu 11.782460744885022 10.123220963224842 9.076083312672354
Cu 9.369902146414335 9.386268860049162 9.093550689411197
Cu 11.101733214593638 8.065614928538874 10.276487642486572
Cu 9.618620830713109 6.975574615044629 12.345691280740757
Cu 13.610494446239697 9.699892509159369 10.772716408081974
Cu 13.901924852871565 8.73328362517183 13.03149616190386
Cu 11.916483325420643 7.172439780699072 13.379456375391996
Cu 9.470919717410128 6.277681421150696 9.93303245730015
Cu 9.735782226614424 6.266361985265488 7.509574716233842
Cu 13.238977665311424 7.279919022997571 11.135388622159045
Cu 11.140784423687782 8.20153030184999 7.598857555756732
Cu 12.75166544669686 9.884670284770335 6.806917857423609
Cu 14.13055501820138 10.706982453061224 8.609013962096391
Cu 13.340148724988023 8.24008157108117 8.763572006779123
Cu 11.816953579378119 6.210373278852601 8.972692953458406
Cu 11.428064247244707 5.705875134729038 11.364616328744612
