43
Energy = -127.49651415 eV
Cu 13.408860492141411 11.572523765934477 8.3414033051846
Cu 15.173444351671714 12.600694191062516 9.72393584295896
Cu 8.896868079133423 12.997693237004881 9.329751514000769
Cu 13.168840637633487 14.005630262964711 8.983683171701095
Cu 12.73717776497384 16.244326606848446 10.150036786589146
Cu 11.191063394809856 12.436254707462467 9.049891444826535
Cu 11.938291804148395 10.089420099621352 9.67295066375563
Cu 10.53954323067616 14.897309194512479 9.251652823641557
Cu 11.904110823949772 14.21513289175781 11.056700232218066
Cu 16.443130688627708 11.073168219472073 11.151561892535165
Cu 14.380584207156017 10.152155374836624 10.15527694952699
Cu 9.60150364119378 10.675816545393271 10.054982887524993
Cu 12.111789680130098 10.45006805877299 12.245172709363375
Cu 13.028694929654254 12.111621403059143 10.681048959923002
Cu 14.427632089053725 14.577401569536562 11.098882768534668
Cu 10.580814032491363 12.307127989331066 11.607169490401692
Cu 10.587067796559497 8.754361309210655 11.305170138360202
Cu 16.98985678868623 13.670158029861838 10.743650602527332
Cu 7.9881954356684 12.070207783824387 11.37130670210051
Cu 10.646581307433465 16.215682206948102 11.494451949882563
Cu 13.017478323856485 8.31044452584533 11.059860817760583
Cu 9.344962028866112 10.405405696757823 12.598687474723873
Cu 14.516208208365239 10.813714883275967 12.763847813738465
Cu 13.062459615986874 13.008134663352294 12.897023546253674
Cu 9.18073171106815 14.308832822835631 11.352943177674522
Cu 11.04066077316426 9.27706860532778 14.112502333008473
Cu 11.615941522559405 7.204555140161087 12.825046094722811
Cu 15.406846593892652 8.802511033213204 11.831997867953964
Cu 15.591963220942791 12.918221361820379 12.460650786939874
Cu 10.740103235292205 14.358387333164902 13.302342102778173
Cu 12.768129182464712 15.749832423270378 12.69057178234104
Cu 13.461767668482416 8.663670511795976 13.408230077658143
Cu 11.120925943124105 11.859314863703652 14.002936610880846
Cu 8.856244753036988 12.85473141142148 13.503075877487511
Cu 7.14530355712169 11.056477751492695 13.462136022296145
Cu 9.048877548195966 10.933447547436273 14.980161719039293
Cu 10.384114720111686 13.372739102544546 15.627787970637963
Cu 14.57754318732049 12.609818048623678 14.72099207095858
Cu 14.770094051033176 14.828837325644221 13.675121090656988
Cu 13.109182974343417 10.649415060419722 14.770607914969565
Cu 12.612724444835168 14.455898259058445 14.864021481718902
Cu 11.081321884631999 10.77384730614215 16.215072577273478
Cu 12.676024297022359 12.541601496786678 16.27936257448156
