44
Energy = -130.57818986 eV
Cu 12.665500483789232 15.338981774084363 10.107967137571432
Cu 13.777639429081356 13.140758536046956 9.986507777067951
Cu 11.972842938077614 13.778152493350236 8.34097042455417
Cu 12.306027991587968 13.685794082316153 11.820942954258857
Cu 14.201682310632455 12.37910252355659 12.37437348340599
Cu 12.90181351635704 10.078907282296623 6.340039931090273
Cu 10.53002837479206 14.188545471540637 10.340119400776125
Cu 12.032469361954057 12.63974363344759 13.941933372334576
Cu 13.396401602486145 11.49804661720194 8.16229306818132
Cu 11.22613225362201 11.88985681099592 6.926667713602467
Cu 10.022958295754938 13.8239639156078 12.824891320599507
Cu 8.65105359729039 12.80902477754008 10.914686780521796
Cu 13.734361696218363 10.772662986706855 10.557643943981319
Cu 11.585853622626955 11.855458684175732 9.695815205828564
Cu 10.527311357197897 9.727077704976388 5.826864703692047
Cu 9.825794051597411 12.802426258069724 15.100221133569953
Cu 8.95188607703448 10.718933371340405 7.393929200821866
Cu 8.476365070953918 11.882247213087352 13.271678211707265
Cu 12.699029981200688 10.53993095482185 12.790156149401769
Cu 10.673958839542864 11.699407646112059 11.92071049042886
Cu 11.240099432196562 9.824150860730404 8.215845683019403
Cu 9.532274343341186 12.810826678441881 8.53843649539091
Cu 13.478823172242985 8.503797113478795 11.573722357636804
Cu 13.416663732027615 8.962963628522722 8.866173752840146
Cu 10.609219545812676 10.66687830942671 14.253346574490523
Cu 11.47023110233725 9.538474713729507 10.710878284223462
Cu 7.302885633094939 11.666866109018958 9.03632301418572
Cu 11.882432848330058 7.924070883076266 6.7115783541282745
Cu 9.422522615546477 10.641549239574955 9.85209876615808
Cu 13.551907185428055 6.72427326323183 9.961378769677113
Cu 11.34413468986715 8.559963311942765 13.12237810957313
Cu 7.215228132599099 10.921066303897428 11.378932899325093
Cu 11.472248153237729 7.41736918584771 8.986067961508311
Cu 9.301601696460022 9.688307641123172 12.173419585478792
Cu 9.516827506476137 8.241789986894096 7.617548058265811
Cu 8.436843320097495 10.760686395927495 15.432383704896255
Cu 9.25613934553299 8.648183839228714 14.463797181060015
Cu 7.61228031318711 9.190522150870201 8.868946755226274
Cu 11.489392489031268 6.951746950124451 11.33045211359105
Cu 9.439570506393204 8.059837709277035 10.092909019527346
Cu 5.62257916679829 9.929005530726652 9.945138029540347
Cu 7.299447691586433 8.505859425998455 11.242428984545382
Cu 9.259034416313641 7.309829168030486 12.409741926535961
Cu 7.243788480842665 9.684407096087334 13.519062601049471
