45
Energy = -133.59045547 eV
Cu 12.50270431036678 13.035715820851326 7.648110002376388
Cu 12.971295366023568 10.685216635883922 8.048224434585975
Cu 13.818124039714242 8.427670749368525 7.788480073254719
Cu 10.954621701620201 11.237006178957088 6.637710502022473
Cu 11.602206577604425 8.881124654339096 6.897626233202304
Cu 13.144698907711376 12.324123948140414 9.96819149701759
Cu 14.324290894672112 9.714523807021392 9.885453958487966
Cu 11.369227869858554 14.089341036872321 9.581260253208134
Cu 10.133012635053868 13.541277728328557 7.54897334580514
Cu 8.727081170527855 11.61184425028382 7.514071189754623
Cu 8.833356772241402 9.468880045493702 6.296995889528262
Cu 10.931409825694091 11.665511638746413 9.065598445865213
Cu 12.053248017854678 8.852192347278448 9.594891290679762
Cu 14.04372472775303 7.1793618795059215 9.79764083285643
Cu 12.021985999323249 6.773541866035182 8.29516844000909
Cu 9.822612915437304 9.54461705195818 8.431773415367381
Cu 10.976034853853763 12.563267366812617 11.41860052295434
Cu 8.911311281813125 14.017285207432169 11.969738021275553
Cu 6.864391895692157 12.697921785113898 8.556002981104164
Cu 12.58922196831525 10.496007570156705 11.419840490402139
Cu 6.729125398007581 10.267432143495308 7.679776949083959
Cu 13.721557196054023 8.30395246715953 11.886705101894519
Cu 9.027771526360983 13.045099205193825 9.753612584843209
Cu 7.813248477126822 8.130110535665064 8.247359217308562
Cu 12.634754757910649 12.182527522525795 13.258087463816798
Cu 7.9354984049121216 10.755859261701103 9.775246785618576
Cu 11.935044467566494 6.584445931164351 10.828291231669269
Cu 9.824254085857966 7.297016211851618 7.153144666658648
Cu 6.902595734797696 12.790604480954 11.030081696087963
Cu 11.343042663726001 8.403646615335566 12.304870644763982
Cu 5.4902103390482635 11.198482729972326 9.819552322316694
Cu 10.220913012170312 12.918477278821117 13.787456725944251
Cu 12.876273182251419 9.67789934433422 13.793340124570408
Cu 9.980839075494485 7.35549576236726 9.582743120522132
Cu 10.117169537172863 10.024156326405654 10.769031227592112
Cu 5.980196697875746 8.865520845124072 9.685091465916168
Cu 10.766299529047837 10.681638844171008 13.031077764404255
Cu 8.094860268020591 8.381660626067514 10.684695838569093
Cu 8.672705904865465 11.625476323519544 12.17446957801707
Cu 9.595988466910848 6.859804435566395 11.928177428105615
Cu 11.434573002849437 11.223670868346218 15.240532944102238
Cu 6.7029397764632614 10.186265969654393 11.800918627977632
Cu 10.562317274646537 8.938096357048366 14.673035955613496
Cu 8.973110789666897 10.893013255572225 14.604938119018112
Cu 8.836283435803109 9.13386605671578 12.843209696332952
