4
Energy = -6.15002174 eV
Cu 10.383211953132632 9.01356105846436 10.63734810701851
Cu 9.601369366254339 10.492256785396789 8.802215025348625
Cu 9.319552476202611 12.040273850681743 7.31316467627268
Cu 10.165521578605608 7.46278395680791 12.17962023262971
