47
Energy = -140.30165604 eV
Cu 9.016360675556317 8.334039803680342 5.436542268617954
Cu 11.237000013172835 9.120482813788907 4.496432547554336
Cu 6.8278428209834825 8.137984708878575 4.439563345003466
Cu 9.983103838104254 6.014728639636217 6.137471120710272
Cu 10.053258020950146 10.611069381379727 5.93291082791406
Cu 7.595775128635039 10.44162761569749 5.429003951813885
Cu 12.091691194813848 5.978261708482316 7.806343209880406
Cu 5.375151792473032 6.725133562189051 7.394881627116453
Cu 12.434789130612694 10.227885990095077 6.422517623125101
Cu 8.95666441087127 7.431918572969148 7.768669916044208
Cu 11.041773442658414 12.243272762593723 7.63264906683553
Cu 12.990743687919506 8.502420580537692 8.353722360195476
Cu 11.219742281318764 8.044182919862456 6.637279346292852
Cu 8.540720581764617 12.251523252100675 7.030519699121961
Cu 7.466725194882907 6.452416131868029 6.144958771379382
Cu 6.450258979063405 8.728547961434897 6.702392387079857
Cu 6.304792668135145 11.060505936633557 7.664830286465266
Cu 8.418559465382703 9.83835740213819 7.6502528739638915
Cu 9.780623667945827 5.15211949238674 8.457212936454166
Cu 10.863832739165648 9.918686786445646 8.249115685016198
Cu 4.981392293529539 9.291219255691177 8.752256373862748
Cu 10.951194861173041 7.461082521554058 9.146313539705808
Cu 7.206054150685259 5.528694621203861 8.597743136161531
Cu 9.152209030708924 11.541254129993252 9.337549396340625
Cu 11.326004563628493 11.930547948823234 10.150491955290702
Cu 4.769959856794388 6.8870078217346675 9.700316697912257
Cu 6.917783806555402 7.916766995028457 9.080592454206384
Cu 7.140476773284687 12.942514658629726 8.978189617477806
Cu 13.016687603964463 10.95804191928504 8.696938192648085
Cu 9.229588570533284 9.01455539220194 9.761072035039577
Cu 11.8241521866316 9.524352884946948 10.464047971311903
Cu 8.783529260115301 6.66271142386293 10.122812254833617
Cu 7.157989585282969 10.222987429054553 9.962649857313414
Cu 8.49591492874592 4.373644982173345 10.475209229721344
Cu 12.792163573988226 7.109437035720523 10.494415839179721
Cu 10.842056244201522 5.469201525855674 10.705177562425787
Cu 9.478310675810441 13.788418601164445 8.740996837358706
Cu 5.297838857862346 11.581248283113643 9.979900277205743
Cu 5.508499132434567 8.702431357007264 11.097652602263528
Cu 6.618599686820766 6.366369943482379 11.236745161809152
Cu 9.446818203719713 10.503424280369885 11.587579837229951
Cu 10.494398761245023 7.803802776159273 11.608601122640126
Cu 8.045474651613553 8.356285850034103 11.818805505426932
Cu 7.629079656572868 12.241835078821559 11.240140997245572
Cu 8.835099260765034 5.998149379114564 12.388453063885187
Cu 6.770353170870314 10.303198158602942 12.429687211712196
Cu 6.206029530618054 7.872718336138098 13.225460031773038
