46
Energy = -136.75400467 eV
Cu 11.438105697920742 9.650681526576077 8.410594884871825
Cu 9.367032189123465 9.51155845957691 7.174262753435331
Cu 7.769595577150011 7.148589447923855 8.280402352917523
Cu 12.952189321039098 9.727165112225045 10.372911756342475
Cu 10.519084476371107 7.32880749158281 7.976346410758533
Cu 11.128067158747672 5.8915393934293965 6.091277974335128
Cu 7.53404328535669 8.638852352670803 13.071496585753067
Cu 9.464192939984098 11.994990874858434 11.446594510175542
Cu 8.183905995445024 9.849510511962205 11.131658262825487
Cu 11.882067827398778 8.79036330946965 12.46763969978049
Cu 9.493456248573398 6.142366257902566 9.914180157332167
Cu 7.456495958686313 7.375868258417678 10.816934125750421
Cu 5.1100069173951885 10.716240260392787 9.291132527741217
Cu 5.515915763074693 10.281254236127682 6.7723040463047885
Cu 6.863811526957002 11.978039371963973 8.079752143228685
Cu 9.223378603018967 8.570321217632817 9.470868540731283
Cu 9.70990015383582 9.988567032367937 13.125079954232248
Cu 9.076030292508667 9.287916832870218 4.706559997022418
Cu 9.658742717629163 7.808169771881743 11.852632407653882
Cu 11.60288652899232 7.561469247276194 10.209921834069206
Cu 11.27783640553484 8.444256514180262 5.955422084983491
Cu 11.555903019551584 5.38848849503146 8.674841350045732
Cu 6.796947473021942 6.0625665945649985 6.398552750497585
Cu 6.605277683548895 9.723298189096942 4.301750645569354
Cu 11.792415455326298 11.296596261775566 12.244821885109706
Cu 10.154868416463648 7.071675948293343 4.028444798736831
Cu 9.067072371013891 7.212668372111602 6.096542253357163
Cu 5.822831161808656 9.954491383057453 11.676195368881174
Cu 7.634082096810413 7.3968660593372855 4.0420358367286155
Cu 6.237194064257539 5.444412306209512 4.169275123200524
Cu 8.61354082856906 5.192928588542408 4.949863074199853
Cu 9.170452058785433 5.214887040910988 7.531963455223617
Cu 7.557910919938129 11.235662481852673 12.959535048958921
Cu 7.14548266659638 9.638794941445202 8.672134303312106
Cu 12.833797527500776 7.613153478863695 8.013932998872034
Cu 5.367163116262782 7.65484141865973 5.048615152774083
Cu 7.193149404966893 8.648232636733209 6.301189575491505
Cu 9.161884845529547 11.149839421793619 9.047728961856997
Cu 10.623064638814046 9.895072791766585 10.79369834939941
Cu 5.896420962765482 6.120456645220504 9.363667301368126
Cu 7.826135451249247 11.00936155679762 6.064804609431057
Cu 5.483557747508433 7.519994202637351 12.176310911057664
Cu 7.050685865780603 11.829451267346721 10.484858688701655
Cu 5.357282673016289 7.83879112376542 7.596704756044819
Cu 5.316150556910126 8.375153918179192 9.937329071878903
Cu 11.502300056711483 11.818104042168128 9.799547366507667
