42
Energy = -124.13361865 eV
Cu 14.471379225989123 11.065519895917657 9.412351499486824
Cu 12.095687340747446 9.165157469155433 7.108728826439484
Cu 14.16660440142318 9.545845478798382 11.432225324652952
Cu 13.463634325103646 13.242714934109719 9.778084992203627
Cu 12.870535705972133 9.272020151603103 9.32834881179217
Cu 12.380296251906707 11.655330627134212 8.153298090593294
Cu 14.602246918157743 12.019305252256217 11.62505337798892
Cu 12.857559800674498 7.445915635638042 10.922781990519088
Cu 12.18685271769579 9.06597737680145 12.749235894770273
Cu 11.494713309346011 7.389131029140018 8.63840174185772
Cu 10.488880783502967 10.48038618648145 9.097330500187404
Cu 10.50990022185152 10.835561444400634 6.595857244781785
Cu 13.019066976135631 11.2760237261641 13.32466524499834
Cu 10.89974742111807 12.815913786529618 10.332445268416961
Cu 12.026110026687736 15.13027462437745 10.394186885860742
Cu 11.79595267801303 14.151549355050461 8.230210031202015
Cu 12.374712757902621 11.072870939485664 10.952581560546525
Cu 9.948474699085741 12.731347531521653 7.923000775838526
Cu 10.836677844416428 5.976835106323583 10.476981550623005
Cu 11.241978331081036 6.86380711743257 12.711565948439368
Cu 12.711887441398206 13.479426460412606 12.110502255165757
Cu 9.630382658723525 8.6979402492896 7.6037245079875095
Cu 9.583852583239064 14.593882735964678 9.70502336977191
Cu 10.491677123358826 14.646224150522684 12.14842997392227
Cu 8.32904845553242 10.748214912487724 7.676371261986813
Cu 10.601457136235185 8.471659517361774 10.729314001604065
Cu 9.027394807358128 7.0328140102189005 9.265436539763503
Cu 8.946682898243958 6.862354880406566 11.749768334357288
Cu 8.34495149429172 9.418275807409131 9.937484169397097
Cu 10.811155639705595 12.319397890758232 13.065900422698315
Cu 11.014320933391543 10.354493391220485 14.481322516986411
Cu 8.421962055552992 12.224058622961365 9.65389331578123
Cu 9.812414547020435 10.725107424690366 11.42117800556516
Cu 8.774177158424079 12.990713209694114 11.888783587856558
Cu 7.020703040171247 8.582857652846945 8.229726779599813
Cu 6.955091648795546 7.18088356350819 10.454872488326332
Cu 6.4132867649732885 10.941068357560754 9.064738083200725
Cu 9.782778683110502 8.724544635589542 13.225641542953095
Cu 8.697618117092908 10.928843029417106 13.512471537209807
Cu 7.184714935223423 11.140266937015744 11.463209145104695
Cu 5.827057340309417 9.252656358490382 10.596831390809104
Cu 7.5922934899436925 8.868504347484079 12.26003284017413
