40
Energy = -116.97841257 eV
Cu 15.91099214717944 8.648437948685498 9.166637770745279
Cu 9.934925600511365 10.426707387797373 7.261329912647636
Cu 13.985522642144955 10.079246890325756 8.624074029708853
Cu 5.708674734880982 12.815698806422857 11.693301953402312
Cu 8.886880206903129 9.79200232568912 13.58379301020121
Cu 11.493242707709438 7.434609391868264 10.166673573842079
Cu 9.681319199219331 13.947561634109741 10.726014599189963
Cu 11.99568942182008 12.652563127397038 13.492601094476639
Cu 14.144610947523063 13.204312986659055 12.366222863594489
Cu 11.64051587254647 13.55731826177973 9.179828337399067
Cu 12.209184119143409 14.247467776124708 11.375261170993385
Cu 7.732687837073243 6.416776608277244 8.29427343158771
Cu 8.416867242688822 8.585578958382312 7.613716672145276
Cu 7.6406357893426895 12.605956361577746 10.315670755467238
Cu 6.26353649673435 10.596446197395498 10.645312015473326
Cu 14.943339468530333 10.167226702860438 10.837590838111009
Cu 10.36081242683121 14.441811392348429 13.007223079533562
Cu 7.631754700264154 8.839643218269815 11.723089867353726
Cu 7.804004183077355 10.64445337844641 8.760714262762754
Cu 14.042066614012139 7.75207690906183 7.861114565297646
Cu 11.901918660620249 8.829151665849809 8.00446246199255
Cu 10.183625295610634 7.05331811719949 8.13452400964023
Cu 7.275506618641566 11.38231373589021 12.73866716518943
Cu 13.849369696655332 8.03934683333178 10.229164341072792
Cu 8.902327824355142 7.282875073507247 10.200765830928528
Cu 9.691329508540871 12.083068753550256 9.088003368863964
Cu 10.005701051691018 9.389642031873924 9.416597171052933
Cu 6.847768913810134 8.453908019741702 9.455469768835146
Cu 10.146718501274316 8.50901898703639 11.875367235950419
Cu 9.547220541716657 12.175586110188977 13.337441033544938
Cu 13.404247240933723 10.913532486664115 12.481516661145827
Cu 11.177471454568623 12.033335057239194 11.145768212655591
Cu 11.888425618673027 11.280421604291254 8.456282320235402
Cu 12.218092971142596 9.902395712068271 10.497069932588735
Cu 7.91901767845185 13.777087724465371 12.471132434876028
Cu 13.517312248548174 12.12960054954779 10.177076301769683
Cu 9.113575844663602 10.728992570909952 11.22886645518628
Cu 12.618757044212044 8.456095606107263 12.313448400965866
Cu 12.771932605979549 14.927578963064075 13.571023089825049
Cu 11.156257756845653 10.360673569066313 13.046749434818953
