42
Energy = -124.15004208 eV
Cu 13.64862434650576 7.844511752228649 7.1432053073207635
Cu 11.286084426009484 8.453555714972646 7.084380751714366
Cu 8.931743971979573 8.809304046755695 6.823456778485515
Cu 6.4284844437827555 9.278229798460663 6.92557368019026
Cu 10.581065567361408 10.813432361806093 6.950773675186414
Cu 12.989237236867407 10.250972360397633 6.905758853411004
Cu 8.156007344569334 11.002280474151489 7.454034842502422
Cu 15.213760183711988 8.668855389400374 8.771768414510847
Cu 12.112877030284913 6.716642014074604 8.705936314856853
Cu 6.006851994995636 10.871395293441747 8.794863481564406
Cu 9.798148297356038 7.53743877420427 8.811109568982646
Cu 7.6233467074113515 8.722001840691048 8.879929951202948
Cu 5.119564757024862 8.702716676774692 9.019424378663667
Cu 12.801986383608869 9.113594474001 9.034925737248878
Cu 9.782192870017525 12.455784900298976 8.685242452208339
Cu 12.122293757036815 11.665521847604731 8.7924033956288
Cu 10.375521222414534 9.926567733351037 9.25967922618758
Cu 8.20198204157236 10.908748511414256 9.941002735906759
Cu 7.379068847007727 12.934618076320945 8.781486353160004
Cu 14.448060040520142 10.997611402442931 8.790144036266796
Cu 13.770105377375346 7.367227635978039 10.417214660837644
Cu 11.330844227235639 7.88883913731326 10.744268921112315
Cu 4.468903827233787 10.413137913368208 10.703955340623176
Cu 11.19827311694205 12.862473058015206 10.716312545335262
Cu 13.620161639703548 12.130452684505757 10.857594181551415
Cu 8.989807583285543 8.632190853194052 10.917453946969273
Cu 8.664971685225199 13.177159364489215 10.826884671705473
Cu 6.280696563793002 12.059418280861735 10.94753054274618
Cu 14.528104718997453 9.710685033284577 10.861561564295684
Cu 6.568443376018646 9.301045264175023 11.01324515670476
Cu 12.072411566974969 10.309250162224247 11.080701307986804
Cu 9.81731931370359 11.049277393563889 11.69146238387398
Cu 5.778011010478685 10.616258796921045 12.862437294808887
Cu 12.993773424546822 8.534443946793587 12.485288256543246
Cu 10.507087452172756 8.952806087028947 12.832061383324273
Cu 8.065195428230151 9.622635326700467 12.965902919029594
Cu 7.804632346651469 12.02813755048463 12.880129721688395
Cu 9.934695388670768 13.246371735388047 12.898460380608972
Cu 11.994140749957085 12.046675242407932 12.919124078030723
Cu 14.046060568835832 10.785566902679593 12.933291220734256
Cu 9.893826121399657 11.0316546932815 14.09288971752646
Cu 12.136789963801347 10.031666415818115 14.268286790034667
