43
Energy = -127.86354941 eV
Cu 11.460012028163135 5.988849363470656 6.703564580620636
Cu 10.717443938382905 12.009725655784207 9.414461613159297
Cu 6.797676405480009 9.83378450594711 7.1076588180737
Cu 5.969648820487632 6.978432404998099 4.038319244120889
Cu 11.340219625757888 8.106593911863598 10.576685641681237
Cu 4.338595798855578 7.46863722414085 7.8517548591682225
Cu 7.724698457764944 5.6637079441897455 5.047082965460008
Cu 4.30033551493139 7.2708704319912325 10.302005473298717
Cu 11.339400428601643 8.184481661234798 7.88811063975652
Cu 11.852138415691378 6.201165104337502 9.15994690254414
Cu 7.839545479948286 5.3418557355470355 9.9611457744845
Cu 12.362444564824296 10.081259140334705 9.352214537733055
Cu 10.083292213075271 6.281776678272371 4.548349795280954
Cu 10.869201100640558 10.564948305712154 7.189232871648389
Cu 5.230739355469314 8.443168799837776 5.817669969301965
Cu 5.244798606776065 9.268668568869046 9.123439500544293
Cu 4.649217620561058 10.64419616650924 7.00659228866988
Cu 10.888546033100676 10.428620790851998 11.457372511925652
Cu 7.683726236508199 9.394173423135653 9.316562197763679
Cu 6.38892762764865 11.462851788768875 9.0364444040072
Cu 9.012186466395523 8.966594884526751 7.332927717036367
Cu 10.05292405708137 9.747246306875843 9.377199618778223
Cu 7.575678349317652 4.982759383627286 7.528436905946325
Cu 8.69044190210305 10.640315865692148 5.648055869918972
Cu 6.675088801996554 7.579658343849046 10.512952127871607
Cu 8.670543722520739 11.468517405415508 8.050096514195705
Cu 5.806746829251409 5.526305785770711 11.361683051717907
Cu 9.592950050195418 4.399663284907071 6.117832954620369
Cu 5.680187343124263 6.0664163921042755 6.308154326669511
Cu 6.493761448057387 9.98483604242226 11.24113966840897
Cu 7.730912156505168 8.220910848002971 5.27630125509343
Cu 8.011418718216957 6.480370715142923 12.151058327199314
Cu 9.176169863733522 6.6811938382281575 6.73767943990572
Cu 6.731378641683185 12.152539705736217 6.612298854651441
Cu 8.572725851591683 11.271804894926069 10.62080441575306
Cu 8.912397557678933 8.698143459901186 11.37233469926604
Cu 10.096340240152234 5.963812344450869 10.904590310066178
Cu 9.173481091947696 7.347702479985407 9.21179083594648
Cu 9.863324862286818 5.010081794118652 8.51150542939739
Cu 10.42556432005197 8.538566041718767 5.5085628023092434
Cu 6.9944528964795385 7.457165458956211 7.849560412884031
Cu 6.263797812522745 10.420182592927375 4.864156674071753
Cu 5.618616347291378 5.679142127771892 8.903960801903064
