  38  38   0   0
  0.2726836E+03  0.2180122E-08  0.2180122E-08  0.2180122E-08  0.1000000E-15
  1.000000000000000E-004
  CAR 
 unknown system                          
      2.03006023    -10.20319747  301     -3.33218440      1.00000000
    -10.203  0.0000E+00  0.0000E+00  0.0000E+00  0.0000E+00
    -10.162  0.0000E+00  0.0000E+00  0.0000E+00  0.0000E+00
    -10.122  0.0000E+00  0.0000E+00  0.0000E+00  0.0000E+00
    -10.081  0.0000E+00  0.0000E+00  0.0000E+00  0.0000E+00
    -10.040  0.0000E+00  0.0000E+00  0.0000E+00  0.0000E+00
     -9.999  0.0000E+00  0.0000E+00  0.0000E+00  0.0000E+00
     -9.959  0.0000E+00  0.0000E+00  0.0000E+00  0.0000E+00
     -9.918  0.0000E+00  0.0000E+00  0.0000E+00  0.0000E+00
     -9.877  0.0000E+00  0.0000E+00  0.0000E+00  0.0000E+00
     -9.836  0.0000E+00  0.0000E+00  0.0000E+00  0.0000E+00
     -9.795  0.0000E+00  0.0000E+00  0.0000E+00  0.0000E+00
     -9.755  0.0000E+00  0.0000E+00  0.0000E+00  0.0000E+00
     -9.714  0.0000E+00  0.0000E+00  0.0000E+00  0.0000E+00
     -9.673  0.0000E+00  0.0000E+00  0.0000E+00  0.0000E+00
     -9.632  0.0000E+00  0.0000E+00  0.1000E-02  0.1000E-02
     -9.592  0.0000E+00  0.0000E+00  0.1000E-02  0.1000E-02
     -9.551  0.0000E+00  0.0000E+00  0.1000E-02  0.1000E-02
     -9.510  0.0000E+00  0.0000E+00  0.1000E-02  0.1000E-02
     -9.469  0.0000E+00  0.0000E+00  0.1000E-02  0.1000E-02
     -9.428  0.0000E+00  0.0000E+00  0.1000E-02  0.1000E-02
     -9.388  0.0000E+00  0.0000E+00  0.1000E-02  0.1000E-02
     -9.347  0.0000E+00  0.0000E+00  0.1000E-02  0.1000E-02
     -9.306  0.0000E+00  0.0000E+00  0.1000E-02  0.1000E-02
     -9.265  0.0000E+00  0.0000E+00  0.1000E-02  0.1000E-02
     -9.225  0.0000E+00  0.0000E+00  0.1000E-02  0.1000E-02
     -9.184  0.0000E+00  0.0000E+00  0.2000E-02  0.2000E-02
     -9.143  0.0000E+00  0.0000E+00  0.2000E-02  0.2000E-02
     -9.102  0.0000E+00  0.0000E+00  0.2000E-02  0.2000E-02
     -9.061  0.0000E+00  0.0000E+00  0.3000E-02  0.3000E-02
     -9.021  0.0000E+00  0.0000E+00  0.4000E-02  0.4000E-02
     -8.980  0.0000E+00  0.0000E+00  0.5000E-02  0.5000E-02
     -8.939  0.0000E+00  0.0000E+00  0.6000E-02  0.6000E-02
     -8.898  0.0000E+00  0.0000E+00  0.8000E-02  0.8000E-02
     -8.858  0.0000E+00  0.0000E+00  0.9000E-02  0.9000E-02
     -8.817  0.0000E+00  0.0000E+00  0.1100E-01  0.1100E-01
     -8.776  0.0000E+00  0.0000E+00  0.1200E-01  0.1200E-01
     -8.735  0.0000E+00  0.0000E+00  0.1300E-01  0.1300E-01
     -8.694  0.0000E+00  0.0000E+00  0.1500E-01  0.1500E-01
     -8.654  0.0000E+00  0.0000E+00  0.1700E-01  0.1700E-01
     -8.613  0.0000E+00  0.0000E+00  0.2000E-01  0.2000E-01
     -8.572  0.0000E+00  0.0000E+00  0.2300E-01  0.2300E-01
     -8.531  0.0000E+00  0.0000E+00  0.2500E-01  0.2500E-01
     -8.491  0.0000E+00  0.0000E+00  0.2700E-01  0.2700E-01
     -8.450  0.0000E+00  0.0000E+00  0.2900E-01  0.2900E-01
     -8.409  0.0000E+00  0.0000E+00  0.3200E-01  0.3200E-01
     -8.368  0.6827E-07  0.6845E-07  0.3300E-01  0.3300E-01
     -8.327  0.0000E+00  0.0000E+00  0.3700E-01  0.3700E-01
     -8.287  0.0000E+00  0.0000E+00  0.3800E-01  0.3800E-01
     -8.246  0.0000E+00  0.0000E+00  0.4100E-01  0.4100E-01
     -8.205  0.0000E+00  0.0000E+00  0.4300E-01  0.4300E-01
     -8.164  0.0000E+00  0.0000E+00  0.4600E-01  0.4600E-01
     -8.124  0.0000E+00  0.0000E+00  0.4900E-01  0.4900E-01
     -8.083  0.0000E+00  0.0000E+00  0.5100E-01  0.5100E-01
     -8.042  0.0000E+00  0.0000E+00  0.5300E-01  0.5300E-01
     -8.001  0.0000E+00  0.0000E+00  0.5600E-01  0.5600E-01
     -7.960  0.0000E+00  0.0000E+00  0.5800E-01  0.5800E-01
     -7.920  0.0000E+00  0.0000E+00  0.6000E-01  0.6000E-01
     -7.879  0.0000E+00  0.0000E+00  0.6300E-01  0.6300E-01
     -7.838  0.0000E+00  0.0000E+00  0.6500E-01  0.6500E-01
     -7.797  0.0000E+00  0.0000E+00  0.6800E-01  0.6800E-01
     -7.757  0.0000E+00  0.0000E+00  0.7200E-01  0.7200E-01
     -7.716  0.0000E+00  0.0000E+00  0.7500E-01  0.7500E-01
     -7.675  0.0000E+00  0.0000E+00  0.7700E-01  0.7700E-01
     -7.634  0.0000E+00  0.0000E+00  0.8000E-01  0.8000E-01
     -7.593  0.0000E+00  0.0000E+00  0.8100E-01  0.8100E-01
     -7.553  0.0000E+00  0.0000E+00  0.8300E-01  0.8300E-01
     -7.512  0.0000E+00  0.0000E+00  0.8600E-01  0.8600E-01
     -7.471  0.0000E+00  0.0000E+00  0.8900E-01  0.8900E-01
     -7.430  0.0000E+00  0.0000E+00  0.9100E-01  0.9100E-01
     -7.390  0.0000E+00  0.0000E+00  0.9300E-01  0.9300E-01
     -7.349  0.0000E+00  0.0000E+00  0.9500E-01  0.9500E-01
     -7.308  0.0000E+00  0.0000E+00  0.9700E-01  0.9700E-01
     -7.267  0.0000E+00  0.0000E+00  0.1000E+00  0.1000E+00
     -7.226  0.0000E+00  0.0000E+00  0.1030E+00  0.1030E+00
     -7.186  0.0000E+00  0.0000E+00  0.1050E+00  0.1050E+00
     -7.145  0.0000E+00  0.0000E+00  0.1070E+00  0.1070E+00
     -7.104  0.0000E+00  0.0000E+00  0.1090E+00  0.1090E+00
     -7.063  0.0000E+00  0.0000E+00  0.1110E+00  0.1110E+00
     -7.023  0.0000E+00  0.0000E+00  0.1140E+00  0.1140E+00
     -6.982  0.0000E+00  0.0000E+00  0.1170E+00  0.1170E+00
     -6.941  0.0000E+00  0.0000E+00  0.1200E+00  0.1200E+00
     -6.900  0.2332E-01  0.2332E-01  0.1240E+00  0.1240E+00
     -6.859  0.0000E+00  0.0000E+00  0.1260E+00  0.1260E+00
     -6.819  0.0000E+00  0.0000E+00  0.1290E+00  0.1290E+00
     -6.778  0.0000E+00  0.0000E+00  0.1330E+00  0.1330E+00
     -6.737  0.0000E+00  0.0000E+00  0.1360E+00  0.1360E+00
     -6.696  0.0000E+00  0.0000E+00  0.1400E+00  0.1400E+00
     -6.656  0.0000E+00  0.0000E+00  0.1450E+00  0.1450E+00
     -6.615  0.2452E-01  0.2452E-01  0.1510E+00  0.1510E+00
     -6.574  0.0000E+00  0.0000E+00  0.1550E+00  0.1550E+00
     -6.533  0.0000E+00  0.0000E+00  0.1590E+00  0.1590E+00
     -6.492  0.0000E+00  0.0000E+00  0.1620E+00  0.1620E+00
     -6.452  0.0000E+00  0.0000E+00  0.1680E+00  0.1680E+00
     -6.411  0.0000E+00  0.0000E+00  0.1710E+00  0.1710E+00
     -6.370  0.0000E+00  0.0000E+00  0.1730E+00  0.1730E+00
     -6.329  0.6494E-13  0.6535E-13  0.1780E+00  0.1780E+00
     -6.289  0.0000E+00  0.0000E+00  0.1810E+00  0.1810E+00
     -6.248  0.6404E-04  0.6414E-04  0.1840E+00  0.1840E+00
     -6.207  0.0000E+00  0.0000E+00  0.1860E+00  0.1860E+00
     -6.166  0.0000E+00  0.0000E+00  0.1900E+00  0.1900E+00
     -6.125  0.0000E+00  0.0000E+00  0.1920E+00  0.1920E+00
     -6.085  0.0000E+00  0.0000E+00  0.1930E+00  0.1930E+00
     -6.044  0.0000E+00  0.0000E+00  0.1940E+00  0.1940E+00
     -6.003  0.0000E+00  0.0000E+00  0.1950E+00  0.1950E+00
     -5.962  0.0000E+00  0.0000E+00  0.1950E+00  0.1950E+00
     -5.922  0.0000E+00  0.0000E+00  0.1950E+00  0.1950E+00
     -5.881  0.0000E+00  0.0000E+00  0.1950E+00  0.1950E+00
     -5.840  0.0000E+00  0.0000E+00  0.1950E+00  0.1950E+00
     -5.799  0.0000E+00  0.0000E+00  0.1950E+00  0.1950E+00
     -5.758  0.0000E+00  0.0000E+00  0.1950E+00  0.1950E+00
     -5.718  0.0000E+00  0.0000E+00  0.1950E+00  0.1950E+00
     -5.677  0.0000E+00  0.0000E+00  0.1950E+00  0.1950E+00
     -5.636  0.0000E+00  0.0000E+00  0.1970E+00  0.1970E+00
     -5.595  0.3956E-02  0.3956E-02  0.1972E+00  0.1972E+00
     -5.555  0.0000E+00  0.0000E+00  0.1980E+00  0.1980E+00
     -5.514  0.0000E+00  0.0000E+00  0.1980E+00  0.1980E+00
     -5.473  0.0000E+00  0.0000E+00  0.1980E+00  0.1980E+00
     -5.432  0.0000E+00  0.0000E+00  0.1980E+00  0.1980E+00
     -5.391  0.0000E+00  0.0000E+00  0.1990E+00  0.1990E+00
     -5.351  0.0000E+00  0.0000E+00  0.1990E+00  0.1990E+00
     -5.310  0.0000E+00  0.0000E+00  0.1990E+00  0.1990E+00
     -5.269  0.0000E+00  0.0000E+00  0.1990E+00  0.1990E+00
     -5.228  0.0000E+00  0.0000E+00  0.1990E+00  0.1990E+00
     -5.188  0.0000E+00  0.0000E+00  0.1990E+00  0.1990E+00
     -5.147  0.0000E+00  0.0000E+00  0.1990E+00  0.1990E+00
     -5.106  0.0000E+00  0.0000E+00  0.1990E+00  0.1990E+00
     -5.065  0.0000E+00  0.0000E+00  0.1990E+00  0.1990E+00
     -5.024  0.0000E+00  0.0000E+00  0.1990E+00  0.1990E+00
     -4.984  0.0000E+00  0.0000E+00  0.1990E+00  0.1990E+00
     -4.943  0.0000E+00  0.0000E+00  0.2000E+00  0.2000E+00
     -4.902  0.0000E+00  0.0000E+00  0.2010E+00  0.2010E+00
     -4.861  0.0000E+00  0.0000E+00  0.2010E+00  0.2010E+00
     -4.821  0.0000E+00  0.0000E+00  0.2010E+00  0.2010E+00
     -4.780  0.0000E+00  0.0000E+00  0.2010E+00  0.2010E+00
     -4.739  0.0000E+00  0.0000E+00  0.2010E+00  0.2010E+00
     -4.698  0.0000E+00  0.0000E+00  0.2010E+00  0.2010E+00
     -4.657  0.0000E+00  0.0000E+00  0.2010E+00  0.2010E+00
     -4.617  0.0000E+00  0.0000E+00  0.2010E+00  0.2010E+00
     -4.576  0.0000E+00  0.0000E+00  0.2020E+00  0.2020E+00
     -4.535  0.0000E+00  0.0000E+00  0.2020E+00  0.2020E+00
     -4.494  0.0000E+00  0.0000E+00  0.2020E+00  0.2020E+00
     -4.454  0.0000E+00  0.0000E+00  0.2030E+00  0.2030E+00
     -4.413  0.0000E+00  0.0000E+00  0.2030E+00  0.2030E+00
     -4.372  0.0000E+00  0.0000E+00  0.2030E+00  0.2030E+00
     -4.331  0.0000E+00  0.0000E+00  0.2030E+00  0.2030E+00
     -4.290  0.0000E+00  0.0000E+00  0.2030E+00  0.2030E+00
     -4.250  0.0000E+00  0.0000E+00  0.2030E+00  0.2030E+00
     -4.209  0.0000E+00  0.0000E+00  0.2030E+00  0.2030E+00
     -4.168  0.0000E+00  0.0000E+00  0.2030E+00  0.2030E+00
     -4.127  0.0000E+00  0.0000E+00  0.2040E+00  0.2040E+00
     -4.087  0.0000E+00  0.0000E+00  0.2040E+00  0.2040E+00
     -4.046  0.0000E+00  0.0000E+00  0.2050E+00  0.2050E+00
     -4.005  0.0000E+00  0.0000E+00  0.2050E+00  0.2050E+00
     -3.964  0.0000E+00  0.0000E+00  0.2050E+00  0.2050E+00
     -3.923  0.0000E+00  0.0000E+00  0.2060E+00  0.2060E+00
     -3.883  0.0000E+00  0.0000E+00  0.2060E+00  0.2060E+00
     -3.842  0.0000E+00  0.0000E+00  0.2060E+00  0.2060E+00
     -3.801  0.0000E+00  0.0000E+00  0.2060E+00  0.2060E+00
     -3.760  0.0000E+00  0.0000E+00  0.2070E+00  0.2070E+00
     -3.720  0.0000E+00  0.0000E+00  0.2070E+00  0.2070E+00
     -3.679  0.0000E+00  0.0000E+00  0.2070E+00  0.2070E+00
     -3.638  0.0000E+00  0.0000E+00  0.2070E+00  0.2070E+00
     -3.597  0.0000E+00  0.0000E+00  0.2070E+00  0.2070E+00
     -3.556  0.0000E+00  0.0000E+00  0.2070E+00  0.2070E+00
     -3.516  0.0000E+00  0.0000E+00  0.2070E+00  0.2070E+00
     -3.475  0.0000E+00  0.0000E+00  0.2080E+00  0.2080E+00
     -3.434  0.0000E+00  0.0000E+00  0.2080E+00  0.2080E+00
     -3.393  0.0000E+00  0.0000E+00  0.2080E+00  0.2080E+00
     -3.353  0.0000E+00  0.0000E+00  0.2080E+00  0.2080E+00
     -3.312  0.0000E+00  0.0000E+00  0.2090E+00  0.2090E+00
     -3.271  0.0000E+00  0.0000E+00  0.2090E+00  0.2090E+00
     -3.230  0.0000E+00  0.0000E+00  0.2090E+00  0.2090E+00
     -3.189  0.0000E+00  0.0000E+00  0.2090E+00  0.2090E+00
     -3.149  0.0000E+00  0.0000E+00  0.2090E+00  0.2090E+00
     -3.108  0.0000E+00  0.0000E+00  0.2090E+00  0.2090E+00
     -3.067  0.0000E+00  0.0000E+00  0.2100E+00  0.2100E+00
     -3.026  0.0000E+00  0.0000E+00  0.2100E+00  0.2100E+00
     -2.986  0.0000E+00  0.0000E+00  0.2100E+00  0.2100E+00
     -2.945  0.0000E+00  0.0000E+00  0.2100E+00  0.2100E+00
     -2.904  0.0000E+00  0.0000E+00  0.2110E+00  0.2110E+00
     -2.863  0.0000E+00  0.0000E+00  0.2110E+00  0.2110E+00
     -2.822  0.0000E+00  0.0000E+00  0.2120E+00  0.2120E+00
     -2.782  0.0000E+00  0.0000E+00  0.2130E+00  0.2130E+00
     -2.741  0.0000E+00  0.0000E+00  0.2130E+00  0.2130E+00
     -2.700  0.0000E+00  0.0000E+00  0.2130E+00  0.2130E+00
     -2.659  0.0000E+00  0.0000E+00  0.2130E+00  0.2130E+00
     -2.619  0.0000E+00  0.0000E+00  0.2130E+00  0.2130E+00
     -2.578  0.0000E+00  0.0000E+00  0.2140E+00  0.2140E+00
     -2.537  0.0000E+00  0.0000E+00  0.2140E+00  0.2140E+00
     -2.496  0.0000E+00  0.0000E+00  0.2140E+00  0.2140E+00
     -2.455  0.0000E+00  0.0000E+00  0.2140E+00  0.2140E+00
     -2.415  0.0000E+00  0.0000E+00  0.2150E+00  0.2150E+00
     -2.374  0.0000E+00  0.0000E+00  0.2150E+00  0.2150E+00
     -2.333  0.0000E+00  0.0000E+00  0.2150E+00  0.2150E+00
     -2.292  0.0000E+00  0.0000E+00  0.2150E+00  0.2150E+00
     -2.252  0.0000E+00  0.0000E+00  0.2160E+00  0.2160E+00
     -2.211  0.0000E+00  0.0000E+00  0.2160E+00  0.2160E+00
     -2.170  0.0000E+00  0.0000E+00  0.2170E+00  0.2170E+00
     -2.129  0.0000E+00  0.0000E+00  0.2170E+00  0.2170E+00
     -2.088  0.0000E+00  0.0000E+00  0.2170E+00  0.2170E+00
     -2.048  0.0000E+00  0.0000E+00  0.2190E+00  0.2190E+00
     -2.007  0.0000E+00  0.0000E+00  0.2190E+00  0.2190E+00
     -1.966  0.0000E+00  0.0000E+00  0.2200E+00  0.2200E+00
     -1.925  0.0000E+00  0.0000E+00  0.2200E+00  0.2200E+00
     -1.885  0.0000E+00  0.0000E+00  0.2210E+00  0.2210E+00
     -1.844  0.0000E+00  0.0000E+00  0.2210E+00  0.2210E+00
     -1.803  0.0000E+00  0.0000E+00  0.2210E+00  0.2210E+00
     -1.762  0.0000E+00  0.0000E+00  0.2210E+00  0.2210E+00
     -1.721  0.0000E+00  0.0000E+00  0.2210E+00  0.2210E+00
     -1.681  0.0000E+00  0.0000E+00  0.2220E+00  0.2220E+00
     -1.640  0.0000E+00  0.0000E+00  0.2220E+00  0.2220E+00
     -1.599  0.0000E+00  0.0000E+00  0.2220E+00  0.2220E+00
     -1.558  0.0000E+00  0.0000E+00  0.2230E+00  0.2230E+00
     -1.518  0.0000E+00  0.0000E+00  0.2240E+00  0.2240E+00
     -1.477  0.0000E+00  0.0000E+00  0.2240E+00  0.2240E+00
     -1.436  0.0000E+00  0.0000E+00  0.2240E+00  0.2240E+00
     -1.395  0.0000E+00  0.0000E+00  0.2250E+00  0.2250E+00
     -1.354  0.0000E+00  0.0000E+00  0.2250E+00  0.2250E+00
     -1.314  0.0000E+00  0.0000E+00  0.2260E+00  0.2260E+00
     -1.273  0.0000E+00  0.0000E+00  0.2260E+00  0.2260E+00
     -1.232  0.0000E+00  0.0000E+00  0.2270E+00  0.2270E+00
     -1.191  0.0000E+00  0.0000E+00  0.2270E+00  0.2270E+00
     -1.151  0.0000E+00  0.0000E+00  0.2270E+00  0.2270E+00
     -1.110  0.0000E+00  0.0000E+00  0.2280E+00  0.2280E+00
     -1.069  0.0000E+00  0.0000E+00  0.2280E+00  0.2280E+00
     -1.028  0.0000E+00  0.0000E+00  0.2280E+00  0.2280E+00
     -0.987  0.0000E+00  0.0000E+00  0.2280E+00  0.2280E+00
     -0.947  0.0000E+00  0.0000E+00  0.2290E+00  0.2290E+00
     -0.906  0.0000E+00  0.0000E+00  0.2300E+00  0.2300E+00
     -0.865  0.0000E+00  0.0000E+00  0.2300E+00  0.2300E+00
     -0.824  0.0000E+00  0.0000E+00  0.2300E+00  0.2300E+00
     -0.784  0.0000E+00  0.0000E+00  0.2300E+00  0.2300E+00
     -0.743  0.0000E+00  0.0000E+00  0.2310E+00  0.2310E+00
     -0.702  0.0000E+00  0.0000E+00  0.2310E+00  0.2310E+00
     -0.661  0.0000E+00  0.0000E+00  0.2310E+00  0.2310E+00
     -0.620  0.0000E+00  0.0000E+00  0.2310E+00  0.2310E+00
     -0.580  0.0000E+00  0.0000E+00  0.2310E+00  0.2310E+00
     -0.539  0.0000E+00  0.0000E+00  0.2320E+00  0.2320E+00
     -0.498  0.0000E+00  0.0000E+00  0.2320E+00  0.2320E+00
     -0.457  0.0000E+00  0.0000E+00  0.2320E+00  0.2320E+00
     -0.417  0.0000E+00  0.0000E+00  0.2320E+00  0.2320E+00
     -0.376  0.0000E+00  0.0000E+00  0.2330E+00  0.2330E+00
     -0.335  0.0000E+00  0.0000E+00  0.2340E+00  0.2340E+00
     -0.294  0.0000E+00  0.0000E+00  0.2350E+00  0.2350E+00
     -0.253  0.0000E+00  0.0000E+00  0.2350E+00  0.2350E+00
     -0.213  0.0000E+00  0.0000E+00  0.2360E+00  0.2360E+00
     -0.172  0.0000E+00  0.0000E+00  0.2360E+00  0.2360E+00
     -0.131  0.0000E+00  0.0000E+00  0.2360E+00  0.2360E+00
     -0.090  0.0000E+00  0.0000E+00  0.2360E+00  0.2360E+00
     -0.050  0.0000E+00  0.0000E+00  0.2380E+00  0.2380E+00
     -0.009  0.0000E+00  0.0000E+00  0.2380E+00  0.2380E+00
      0.032  0.0000E+00  0.0000E+00  0.2390E+00  0.2390E+00
      0.073  0.0000E+00  0.0000E+00  0.2400E+00  0.2400E+00
      0.114  0.0000E+00  0.0000E+00  0.2400E+00  0.2400E+00
      0.154  0.0000E+00  0.0000E+00  0.2410E+00  0.2410E+00
      0.195  0.0000E+00  0.0000E+00  0.2410E+00  0.2410E+00
      0.236  0.0000E+00  0.0000E+00  0.2410E+00  0.2410E+00
      0.277  0.0000E+00  0.0000E+00  0.2420E+00  0.2420E+00
      0.317  0.0000E+00  0.0000E+00  0.2430E+00  0.2430E+00
      0.358  0.0000E+00  0.0000E+00  0.2430E+00  0.2430E+00
      0.399  0.0000E+00  0.0000E+00  0.2430E+00  0.2430E+00
      0.440  0.0000E+00  0.0000E+00  0.2430E+00  0.2430E+00
      0.481  0.0000E+00  0.0000E+00  0.2440E+00  0.2440E+00
      0.521  0.0000E+00  0.0000E+00  0.2460E+00  0.2460E+00
      0.562  0.0000E+00  0.0000E+00  0.2460E+00  0.2460E+00
      0.603  0.0000E+00  0.0000E+00  0.2470E+00  0.2470E+00
      0.644  0.0000E+00  0.0000E+00  0.2470E+00  0.2470E+00
      0.684  0.0000E+00  0.0000E+00  0.2480E+00  0.2480E+00
      0.725  0.0000E+00  0.0000E+00  0.2490E+00  0.2490E+00
      0.766  0.0000E+00  0.0000E+00  0.2500E+00  0.2500E+00
      0.807  0.0000E+00  0.0000E+00  0.2520E+00  0.2520E+00
      0.848  0.0000E+00  0.0000E+00  0.2530E+00  0.2530E+00
      0.888  0.0000E+00  0.0000E+00  0.2540E+00  0.2540E+00
      0.929  0.0000E+00  0.0000E+00  0.2540E+00  0.2540E+00
      0.970  0.0000E+00  0.0000E+00  0.2550E+00  0.2550E+00
      1.011  0.0000E+00  0.0000E+00  0.2560E+00  0.2560E+00
      1.051  0.0000E+00  0.0000E+00  0.2570E+00  0.2570E+00
      1.092  0.0000E+00  0.0000E+00  0.2570E+00  0.2570E+00
      1.133  0.0000E+00  0.0000E+00  0.2590E+00  0.2590E+00
      1.174  0.0000E+00  0.0000E+00  0.2610E+00  0.2610E+00
      1.215  0.2452E-01  0.2452E-01  0.2640E+00  0.2640E+00
      1.255  0.0000E+00  0.0000E+00  0.2660E+00  0.2660E+00
      1.296  0.0000E+00  0.0000E+00  0.2680E+00  0.2680E+00
      1.337  0.0000E+00  0.0000E+00  0.2680E+00  0.2680E+00
      1.378  0.0000E+00  0.0000E+00  0.2690E+00  0.2690E+00
      1.418  0.0000E+00  0.0000E+00  0.2700E+00  0.2700E+00
      1.459  0.0000E+00  0.0000E+00  0.2710E+00  0.2710E+00
      1.500  0.0000E+00  0.0000E+00  0.2720E+00  0.2720E+00
      1.541  0.0000E+00  0.0000E+00  0.2720E+00  0.2720E+00
      1.582  0.0000E+00  0.0000E+00  0.2720E+00  0.2720E+00
      1.622  0.0000E+00  0.0000E+00  0.2720E+00  0.2720E+00
      1.663  0.0000E+00  0.0000E+00  0.2720E+00  0.2720E+00
      1.704  0.0000E+00  0.0000E+00  0.2720E+00  0.2720E+00
      1.745  0.0000E+00  0.0000E+00  0.2720E+00  0.2720E+00
      1.785  0.0000E+00  0.0000E+00  0.2720E+00  0.2720E+00
      1.826  0.0000E+00  0.0000E+00  0.2720E+00  0.2720E+00
      1.867  0.0000E+00  0.0000E+00  0.2720E+00  0.2720E+00
      1.908  0.0000E+00  0.0000E+00  0.2720E+00  0.2720E+00
      1.949  0.0000E+00  0.0000E+00  0.2720E+00  0.2720E+00
      1.989  0.0000E+00  0.0000E+00  0.2720E+00  0.2720E+00
      2.030  0.0000E+00  0.0000E+00  0.2720E+00  0.2720E+00
