unknown system                          
           1
    17.610695    0.000000    0.000000
     0.000000   17.610695    0.000000
     0.000000    0.000000   17.610695
   Ag
   4
Direct configuration=     1
   0.49343796  0.53944044  0.45838295
   0.40448152  0.60879929  0.35620284
   0.65490110  0.45663148  0.60086129
   0.48843192  0.43945218  0.62493045
Direct configuration=     2
   0.49332507  0.53942769  0.45843585
   0.40463679  0.60867050  0.35639503
   0.65429606  0.45658970  0.60089558
   0.48899458  0.43963550  0.62465107
Direct configuration=     3
   0.49298640  0.53938944  0.45859453
   0.40510260  0.60828414  0.35697158
   0.65248093  0.45646436  0.60099847
   0.49068258  0.44018546  0.62381295
Direct configuration=     4
   0.49230905  0.53931293  0.45891191
   0.40603420  0.60751140  0.35812469
   0.64885068  0.45621369  0.60120424
   0.49405857  0.44128537  0.62213669
Direct configuration=     5
   0.49095436  0.53915992  0.45954665
   0.40789742  0.60596594  0.36043091
   0.64159016  0.45571235  0.60161578
   0.50081055  0.44348519  0.61878419
Direct configuration=     6
   0.49129631  0.53919854  0.45938643
   0.40742712  0.60635603  0.35984879
   0.64342281  0.45583889  0.60151190
   0.49910627  0.44292993  0.61963040
Direct configuration=     7
   0.49118748  0.53918625  0.45943743
   0.40757680  0.60623188  0.36003406
   0.64283954  0.45579862  0.60154496
   0.49964868  0.44310665  0.61936108
Direct configuration=     8
   0.49136472  0.53852462  0.46068809
   0.40773537  0.60606002  0.36020456
   0.64253761  0.45593876  0.60131005
   0.49961480  0.44379999  0.61817483
Direct configuration=     9
   0.49189647  0.53653975  0.46444007
   0.40821108  0.60554444  0.36071606
   0.64163182  0.45635921  0.60060531
   0.49951314  0.44587999  0.61461609
Direct configuration=    10
   0.49295996  0.53257000  0.47194403
   0.40916249  0.60451328  0.36173906
   0.63982024  0.45720010  0.59919583
   0.49930982  0.45004001  0.60749861
Direct configuration=    11
   0.49295145  0.53217237  0.47273129
   0.40950718  0.60417479  0.36216388
   0.64002630  0.45736824  0.59893863
   0.49876757  0.45060799  0.60654373
Direct configuration=    12
   0.49292592  0.53097949  0.47509306
   0.41054126  0.60315932  0.36343835
   0.64064449  0.45787264  0.59816702
   0.49714083  0.45231194  0.60367910
Direct configuration=    13
   0.49271966  0.53129924  0.47458696
   0.41089578  0.60281049  0.36394532
   0.64089631  0.45794459  0.59807013
   0.49674075  0.45226908  0.60377512
Direct configuration=    14
   0.49210089  0.53225848  0.47306867
   0.41195933  0.60176399  0.36546623
   0.64165177  0.45816043  0.59777946
   0.49554051  0.45214049  0.60406318
Direct configuration=    15
   0.49086334  0.53417695  0.47003207
   0.41408645  0.59967099  0.36850805
   0.64316270  0.45859211  0.59719811
   0.49314002  0.45188333  0.60463931
Direct configuration=    16
   0.49176046  0.53278622  0.47223335
   0.41254447  0.60118824  0.36630298
   0.64206740  0.45827918  0.59761954
   0.49488017  0.45206975  0.60422167
Direct configuration=    17
   0.49180353  0.53276703  0.47222911
   0.41277197  0.60092522  0.36673203
   0.64172664  0.45838756  0.59743833
   0.49495037  0.45224358  0.60397807
Direct configuration=    18
   0.49193274  0.53270948  0.47221642
   0.41345448  0.60013615  0.36801915
   0.64070433  0.45871271  0.59689470
   0.49516096  0.45276505  0.60324726
Direct configuration=    19
   0.49241323  0.53242617  0.47257642
   0.41349520  0.59997141  0.36833138
   0.64051596  0.45893371  0.59652563
   0.49482811  0.45299211  0.60294409
Direct configuration=    20
   0.49269050  0.53226268  0.47278417
   0.41351870  0.59987634  0.36851156
   0.64040725  0.45906124  0.59631266
   0.49463604  0.45312314  0.60276915
Direct configuration=    21
   0.49324504  0.53193571  0.47319965
   0.41356571  0.59968620  0.36887190
   0.64018985  0.45931629  0.59588672
   0.49425191  0.45338519  0.60241926
Direct configuration=    22
   0.49368239  0.53208744  0.47288192
   0.41363317  0.59949696  0.36919574
   0.63997969  0.45949207  0.59557777
   0.49395725  0.45324692  0.60272209
Direct configuration=    23
   0.49461122  0.53240966  0.47220714
   0.41377645  0.59909508  0.36988350
   0.63953336  0.45986538  0.59492166
   0.49333148  0.45295327  0.60336524
Direct configuration=    24
   0.49513057  0.53213807  0.47259680
   0.41364845  0.59911493  0.36987553
   0.63925570  0.45999326  0.59468167
   0.49321779  0.45307714  0.60322354
Direct configuration=    25
   0.49591630  0.53172717  0.47318631
   0.41345480  0.59914496  0.36986349
   0.63883562  0.46018673  0.59431859
   0.49304578  0.45326453  0.60300915
Direct configuration=    26
   0.49652866  0.53168833  0.47318200
   0.41358328  0.59889457  0.37029358
   0.63848385  0.46043084  0.59384864
   0.49265672  0.45330965  0.60305331
Direct configuration=    27
   0.49836574  0.53157182  0.47316907
   0.41396870  0.59814339  0.37158387
   0.63742854  0.46116318  0.59243880
   0.49148952  0.45344500  0.60318580
Direct configuration=    28
   0.50203990  0.53133879  0.47314320
   0.41473955  0.59664103  0.37416444
   0.63531792  0.46262786  0.58961912
   0.48915513  0.45371571  0.60345077
Direct configuration=    29
   0.50938822  0.53087274  0.47309148
   0.41628124  0.59363631  0.37932558
   0.63109668  0.46555723  0.58397975
   0.48448636  0.45425711  0.60398072
Direct configuration=    30
   0.52408487  0.52994064  0.47298803
   0.41936463  0.58762687  0.38964787
   0.62265420  0.47141596  0.57270102
   0.47514880  0.45533992  0.60504062
Direct configuration=    31
   0.51372572  0.53059764  0.47306095
   0.41719126  0.59186272  0.38237205
   0.62860501  0.46728634  0.58065100
   0.48173052  0.45457669  0.60429353
Direct configuration=    32
   0.51492930  0.52927691  0.47519789
   0.41660384  0.59203047  0.38193138
   0.62642202  0.46784109  0.58005589
   0.48329734  0.45517493  0.60319237
Direct configuration=    33
   0.51448783  0.52976134  0.47441408
   0.41681930  0.59196894  0.38209301
   0.62722272  0.46763761  0.58027417
   0.48272265  0.45495550  0.60359627
Direct configuration=    34
   0.51467771  0.52964811  0.47463306
   0.41722367  0.59150391  0.38261364
   0.62682470  0.46819821  0.57961590
   0.48252642  0.45497316  0.60351493
Direct configuration=    35
   0.51504518  0.52942899  0.47505684
   0.41800625  0.59060393  0.38362121
   0.62605442  0.46928314  0.57834195
   0.48214665  0.45500733  0.60335753
Direct configuration=    36
   0.51565366  0.52937362  0.47525252
   0.41797444  0.59024066  0.38383333
   0.62623411  0.46993676  0.57746830
   0.48139029  0.45477235  0.60382338
Direct configuration=    37
   0.51568909  0.52937039  0.47526391
   0.41797259  0.59021951  0.38384568
   0.62624457  0.46997481  0.57741744
   0.48134625  0.45475867  0.60385050
Direct configuration=    38
   0.51604283  0.52937821  0.47543362
   0.41785189  0.58987235  0.38401814
   0.62590001  0.47038720  0.57678669
   0.48145777  0.45468563  0.60413909
Direct configuration=    39
   0.51601238  0.52937754  0.47541901
   0.41786228  0.58990224  0.38400329
   0.62592968  0.47035170  0.57684099
   0.48144817  0.45469192  0.60411424
