unknown system                          
           1
    24.343266    0.000000    0.000000
     0.000000   24.343266    0.000000
     0.000000    0.000000   24.343266
   Ag
  18
Direct configuration=     1
   0.50000000  0.42652613  0.55062727
   0.59201843  0.50000000  0.55103457
   0.56092769  0.44279593  0.65056464
   0.56092769  0.55720407  0.65056464
   0.50000000  0.42929581  0.35498680
   0.50000000  0.57347387  0.55062727
   0.40798157  0.50000000  0.55103457
   0.43907231  0.55720407  0.65056464
   0.50000000  0.57070419  0.35498680
   0.59092256  0.50000000  0.34349339
   0.40907744  0.50000000  0.34349339
   0.43907231  0.44279593  0.65056464
   0.50000000  0.50000000  0.73106213
   0.50000000  0.50000000  0.26509072
   0.43742352  0.44281515  0.45032614
   0.56257648  0.44281515  0.45032614
   0.56257648  0.55718485  0.45032614
   0.43742352  0.55718485  0.45032614
Direct configuration=     2
   0.50000000  0.42662312  0.55062228
   0.59189579  0.50000000  0.55102853
   0.56086159  0.44289791  0.65053345
   0.56086159  0.55710209  0.65053345
   0.50000000  0.42941234  0.35503192
   0.50000000  0.57337688  0.55062228
   0.40810421  0.50000000  0.55102853
   0.43913841  0.55710209  0.65053345
   0.50000000  0.57058766  0.35503192
   0.59081061  0.50000000  0.34352712
   0.40918939  0.50000000  0.34352712
   0.43913841  0.44289791  0.65053345
   0.50000000  0.50000000  0.73092337
   0.50000000  0.50000000  0.26522805
   0.43749576  0.44290428  0.45032377
   0.56250424  0.44290428  0.45032377
   0.56250424  0.55709572  0.45032377
   0.43749576  0.55709572  0.45032377
Direct configuration=     3
   0.50000000  0.42691409  0.55060732
   0.59152787  0.50000000  0.55101043
   0.56066328  0.44320385  0.65043989
   0.56066328  0.55679615  0.65043989
   0.50000000  0.42976193  0.35516730
   0.50000000  0.57308591  0.55060732
   0.40847213  0.50000000  0.55101043
   0.43933672  0.55679615  0.65043989
   0.50000000  0.57023807  0.35516730
   0.59047476  0.50000000  0.34362829
   0.40952524  0.50000000  0.34362829
   0.43933672  0.44320385  0.65043989
   0.50000000  0.50000000  0.73050707
   0.50000000  0.50000000  0.26564004
   0.43771248  0.44317166  0.45031667
   0.56228752  0.44317166  0.45031667
   0.56228752  0.55682834  0.45031667
   0.43771248  0.55682834  0.45031667
Direct configuration=     4
   0.50000000  0.42749604  0.55057740
   0.59079204  0.50000000  0.55097422
   0.56026666  0.44381573  0.65025276
   0.56026666  0.55618427  0.65025276
   0.50000000  0.43046112  0.35543807
   0.50000000  0.57250396  0.55057740
   0.40920796  0.50000000  0.55097422
   0.43973334  0.55618427  0.65025276
   0.50000000  0.56953888  0.35543807
   0.58980306  0.50000000  0.34383063
   0.41019694  0.50000000  0.34383063
   0.43973334  0.44381573  0.65025276
   0.50000000  0.50000000  0.72967449
   0.50000000  0.50000000  0.26646400
   0.43814592  0.44370643  0.45030246
   0.56185408  0.44370643  0.45030246
   0.56185408  0.55629357  0.45030246
   0.43814592  0.55629357  0.45030246
Direct configuration=     5
   0.50000000  0.42865994  0.55051756
   0.58932039  0.50000000  0.55090181
   0.55947343  0.44503949  0.64987850
   0.55947343  0.55496051  0.64987850
   0.50000000  0.43185949  0.35597959
   0.50000000  0.57134006  0.55051756
   0.41067961  0.50000000  0.55090181
   0.44052657  0.55496051  0.64987850
   0.50000000  0.56814051  0.35597959
   0.58845967  0.50000000  0.34423531
   0.41154033  0.50000000  0.34423531
   0.44052657  0.44503949  0.64987850
   0.50000000  0.50000000  0.72800931
   0.50000000  0.50000000  0.26811194
   0.43901281  0.44477596  0.45027405
   0.56098719  0.44477596  0.45027405
   0.56098719  0.55522404  0.45027405
   0.43901281  0.55522404  0.45027405
Direct configuration=     6
   0.50000000  0.42806679  0.55054805
   0.59007037  0.50000000  0.55093871
   0.55987768  0.44441583  0.65006923
   0.55987768  0.55558417  0.65006923
   0.50000000  0.43114685  0.35570362
   0.50000000  0.57193321  0.55054805
   0.40992963  0.50000000  0.55093871
   0.44012232  0.55558417  0.65006923
   0.50000000  0.56885315  0.35570362
   0.58914429  0.50000000  0.34402908
   0.41085571  0.50000000  0.34402908
   0.44012232  0.44441583  0.65006923
   0.50000000  0.50000000  0.72885791
   0.50000000  0.50000000  0.26727212
   0.43857103  0.44423091  0.45028853
   0.56142897  0.44423091  0.45028853
   0.56142897  0.55576909  0.45028853
   0.43857103  0.55576909  0.45028853
Direct configuration=     7
   0.50000000  0.42815948  0.55047602
   0.59000594  0.50000000  0.55086480
   0.55988608  0.44438109  0.64990731
   0.55988608  0.55561891  0.64990731
   0.50000000  0.43111310  0.35590064
   0.50000000  0.57184052  0.55047602
   0.40999406  0.50000000  0.55086480
   0.44011392  0.55561891  0.64990731
   0.50000000  0.56888690  0.35590064
   0.58922203  0.50000000  0.34412244
   0.41077797  0.50000000  0.34412244
   0.44011392  0.44438109  0.64990731
   0.50000000  0.50000000  0.72894753
   0.50000000  0.50000000  0.26727363
   0.43867709  0.44431213  0.45035545
   0.56132291  0.44431213  0.45035545
   0.56132291  0.55568787  0.45035545
   0.43867709  0.55568787  0.45035545
Direct configuration=     8
   0.50000000  0.42837399  0.55030932
   0.58985684  0.50000000  0.55069375
   0.55990551  0.44430067  0.64953259
   0.55990551  0.55569933  0.64953259
   0.50000000  0.43103500  0.35635658
   0.50000000  0.57162601  0.55030932
   0.41014316  0.50000000  0.55069375
   0.44009449  0.55569933  0.64953259
   0.50000000  0.56896500  0.35635658
   0.58940193  0.50000000  0.34433850
   0.41059807  0.50000000  0.34433850
   0.44009449  0.44430067  0.64953259
   0.50000000  0.50000000  0.72915493
   0.50000000  0.50000000  0.26727713
   0.43892255  0.44450012  0.45051033
   0.56107745  0.44450012  0.45051033
   0.56107745  0.55549988  0.45051033
   0.43892255  0.55549988  0.45051033
Direct configuration=     9
   0.50000000  0.42836713  0.55024569
   0.58993263  0.50000000  0.55064770
   0.55989257  0.44429508  0.64941570
   0.55989257  0.55570492  0.64941570
   0.50000000  0.43103694  0.35640411
   0.50000000  0.57163287  0.55024569
   0.41006737  0.50000000  0.55064770
   0.44010743  0.55570492  0.64941570
   0.50000000  0.56896306  0.35640411
   0.58945196  0.50000000  0.34441721
   0.41054804  0.50000000  0.34441721
   0.44010743  0.44429508  0.64941570
   0.50000000  0.50000000  0.72907317
   0.50000000  0.50000000  0.26744146
   0.43892524  0.44445748  0.45059829
   0.56107476  0.44445748  0.45059829
   0.56107476  0.55554252  0.45059829
   0.43892524  0.55554252  0.45059829
Direct configuration=    10
   0.50000000  0.42834652  0.55005481
   0.59016001  0.50000000  0.55050954
   0.55985376  0.44427831  0.64906504
   0.55985376  0.55572169  0.64906504
   0.50000000  0.43104274  0.35654670
   0.50000000  0.57165348  0.55005481
   0.40983999  0.50000000  0.55050954
   0.44014624  0.55572169  0.64906504
   0.50000000  0.56895726  0.35654670
   0.58960204  0.50000000  0.34465335
   0.41039796  0.50000000  0.34465335
   0.44014624  0.44427831  0.64906504
   0.50000000  0.50000000  0.72882791
   0.50000000  0.50000000  0.26793445
   0.43893332  0.44432956  0.45086217
   0.56106668  0.44432956  0.45086217
   0.56106668  0.55567044  0.45086217
   0.43893332  0.55567044  0.45086217
Direct configuration=    11
   0.50000000  0.42830532  0.54967303
   0.59061476  0.50000000  0.55023323
   0.55977613  0.44424475  0.64836372
   0.55977613  0.55575525  0.64836372
   0.50000000  0.43105436  0.35683189
   0.50000000  0.57169468  0.54967303
   0.40938524  0.50000000  0.55023323
   0.44022387  0.55575525  0.64836372
   0.50000000  0.56894564  0.35683189
   0.58990221  0.50000000  0.34512563
   0.41009779  0.50000000  0.34512563
   0.44022387  0.44424475  0.64836372
   0.50000000  0.50000000  0.72833737
   0.50000000  0.50000000  0.26892044
   0.43894947  0.44407374  0.45138994
   0.56105053  0.44407374  0.45138994
   0.56105053  0.55592626  0.45138994
   0.43894947  0.55592626  0.45138994
Direct configuration=    12
   0.50000000  0.42832484  0.54962901
   0.59069511  0.50000000  0.55021459
   0.55977289  0.44425228  0.64817683
   0.55977289  0.55574772  0.64817683
   0.50000000  0.43104501  0.35708199
   0.50000000  0.57167516  0.54962901
   0.40930489  0.50000000  0.55021459
   0.44022711  0.55574772  0.64817683
   0.50000000  0.56895499  0.35708199
   0.58994019  0.50000000  0.34529963
   0.41005981  0.50000000  0.34529963
   0.44022711  0.44425228  0.64817683
   0.50000000  0.50000000  0.72813479
   0.50000000  0.50000000  0.26900761
   0.43894136  0.44410152  0.45142495
   0.56105864  0.44410152  0.45142495
   0.56105864  0.55589848  0.45142495
   0.43894136  0.55589848  0.45142495
Direct configuration=    13
   0.50000000  0.42834319  0.54958765
   0.59077061  0.50000000  0.55019707
   0.55976985  0.44425936  0.64800124
   0.55976985  0.55574064  0.64800124
   0.50000000  0.43103622  0.35731699
   0.50000000  0.57165681  0.54958765
   0.40922939  0.50000000  0.55019707
   0.44023015  0.55574064  0.64800124
   0.50000000  0.56896378  0.35731699
   0.58997588  0.50000000  0.34546312
   0.41002412  0.50000000  0.34546312
   0.44023015  0.44425936  0.64800124
   0.50000000  0.50000000  0.72794444
   0.50000000  0.50000000  0.26908952
   0.43893374  0.44412762  0.45145786
   0.56106626  0.44412762  0.45145786
   0.56106626  0.55587238  0.45145786
   0.43893374  0.55587238  0.45145786
Direct configuration=    14
   0.50000000  0.42836848  0.54961524
   0.59073273  0.50000000  0.55022120
   0.55979767  0.44425532  0.64803478
   0.55979767  0.55574468  0.64803478
   0.50000000  0.43105516  0.35735356
   0.50000000  0.57163152  0.54961524
   0.40926727  0.50000000  0.55022120
   0.44020233  0.55574468  0.64803478
   0.50000000  0.56894484  0.35735356
   0.58991479  0.50000000  0.34546838
   0.41008521  0.50000000  0.34546838
   0.44020233  0.44425532  0.64803478
   0.50000000  0.50000000  0.72789738
   0.50000000  0.50000000  0.26902685
   0.43889167  0.44418876  0.45140497
   0.56110833  0.44418876  0.45140497
   0.56110833  0.55581124  0.45140497
   0.43889167  0.55581124  0.45140497
Direct configuration=    15
   0.50000000  0.42840078  0.54965048
   0.59068435  0.50000000  0.55025202
   0.55983319  0.44425015  0.64807763
   0.55983319  0.55574985  0.64807763
   0.50000000  0.43107935  0.35740027
   0.50000000  0.57159922  0.54965048
   0.40931565  0.50000000  0.55025202
   0.44016681  0.55574985  0.64807763
   0.50000000  0.56892065  0.35740027
   0.58983677  0.50000000  0.34547510
   0.41016323  0.50000000  0.34547510
   0.44016681  0.44425015  0.64807763
   0.50000000  0.50000000  0.72783726
   0.50000000  0.50000000  0.26894681
   0.43883794  0.44426685  0.45133742
   0.56116206  0.44426685  0.45133742
   0.56116206  0.55573315  0.45133742
   0.43883794  0.55573315  0.45133742
