       N       E                     dE             d eps       ncg     rms          rms(c)
DAV:   1     0.348835054855E+04    0.34884E+04   -0.72987E+04  1024   0.596E+02
DAV:   2     0.765599693638E+03   -0.27228E+04   -0.24380E+04  1768   0.145E+02
DAV:   3    -0.307871008547E+02   -0.79639E+03   -0.72406E+03  1320   0.885E+01
DAV:   4    -0.753947303271E+02   -0.44608E+02   -0.44023E+02  1120   0.226E+01
DAV:   5    -0.760559260999E+02   -0.66120E+00   -0.66007E+00  1160   0.329E+00    0.344E+01
DAV:   6    -0.296504858094E+02    0.46405E+02   -0.14403E+02  1032   0.163E+01    0.182E+01
DAV:   7    -0.223881716344E+02    0.72623E+01   -0.80590E+00  1080   0.478E+00    0.111E+01
DAV:   8    -0.224406460830E+02   -0.52474E-01   -0.23289E+00  1088   0.260E+00    0.619E+00
DAV:   9    -0.260822787820E+02   -0.36416E+01   -0.82984E-01  1136   0.135E+00    0.385E+00
DAV:  10    -0.364385259178E+02   -0.10356E+02   -0.29278E+00  1064   0.231E+00    0.354E+00
DAV:  11    -0.415533272658E+02   -0.51148E+01   -0.14953E+00  1104   0.244E+00    0.344E+00
DAV:  12    -0.448513584360E+02   -0.32980E+01   -0.73670E-01  1088   0.154E+00    0.281E+00
DAV:  13    -0.570438923171E+02   -0.12193E+02   -0.69750E+00  1032   0.319E+00    0.171E+00
DAV:  14    -0.633116719676E+02   -0.62678E+01   -0.20461E+00  1104   0.165E+00    0.190E+00
DAV:  15    -0.640613857561E+02   -0.74971E+00   -0.89263E-02  1272   0.525E-01    0.165E+00
DAV:  16    -0.678007869650E+02   -0.37394E+01   -0.85889E-01  1040   0.128E+00    0.112E+00
DAV:  17    -0.707593127646E+02   -0.29585E+01   -0.65147E-01  1024   0.108E+00    0.148E+00
DAV:  18    -0.710524701816E+02   -0.29316E+00   -0.30258E-02  1160   0.440E-01    0.126E+00
DAV:  19    -0.718892592893E+02   -0.83679E+00   -0.74545E-02  1040   0.597E-01    0.948E-01
DAV:  20    -0.734914091348E+02   -0.16021E+01   -0.22119E-01  1040   0.110E+00    0.367E-01
DAV:  21    -0.740750277041E+02   -0.58362E+00   -0.40856E-02  1104   0.390E-01    0.348E-01
DAV:  22    -0.743423483707E+02   -0.26732E+00   -0.74209E-03  1136   0.186E-01    0.215E-01
DAV:  23    -0.747264025123E+02   -0.38405E+00   -0.12329E-02  1064   0.167E-01    0.134E-01
DAV:  24    -0.748542113908E+02   -0.12781E+00   -0.28587E-03  1088   0.119E-01    0.868E-02
DAV:  25    -0.749195084445E+02   -0.65297E-01   -0.11980E-03   912   0.582E-02    0.573E-02
DAV:  26    -0.749655643673E+02   -0.46056E-01   -0.17480E-03   984   0.505E-02    0.357E-02
DAV:  27    -0.749724214732E+02   -0.68571E-02   -0.32037E-04   728   0.221E-02    0.259E-02
DAV:  28    -0.749768236355E+02   -0.44022E-02   -0.26002E-04   736   0.244E-02    0.163E-02
DAV:  29    -0.749814116331E+02   -0.45880E-02   -0.21822E-04   712   0.153E-02    0.143E-02
DAV:  30    -0.749846366201E+02   -0.32250E-02   -0.79307E-05   736   0.755E-03    0.108E-02
DAV:  31    -0.749887971985E+02   -0.41606E-02   -0.15712E-04   704   0.130E-02    0.573E-03
DAV:  32    -0.749901632021E+02   -0.13660E-02   -0.34459E-05   728   0.598E-03    0.464E-03
DAV:  33    -0.749907981544E+02   -0.63495E-03   -0.13809E-05   688   0.398E-03    0.308E-03
DAV:  34    -0.749912060487E+02   -0.40789E-03   -0.16252E-05   688   0.349E-03    0.227E-03
DAV:  35    -0.749913544892E+02   -0.14844E-03   -0.82905E-06   688   0.238E-03    0.175E-03
DAV:  36    -0.749914787818E+02   -0.12429E-03   -0.81499E-06   688   0.216E-03    0.144E-03
DAV:  37    -0.749916025177E+02   -0.12374E-03   -0.90113E-06   680   0.209E-03    0.101E-03
DAV:  38    -0.749916857821E+02   -0.83264E-04   -0.42485E-06   680   0.143E-03
   1 F= -.74991686E+02 E0= -.74991686E+02  d E =-.749917E+02  mag=    -0.0010
       N       E                     dE             d eps       ncg     rms          rms(c)
DAV:   1    -0.750235306408E+02   -0.31928E-01   -0.22782E+00  1072   0.257E+00    0.941E-02
DAV:   2    -0.750245503601E+02   -0.10197E-02   -0.10611E-02  1088   0.245E-01    0.709E-02
DAV:   3    -0.750245298922E+02    0.20468E-04   -0.18365E-04   640   0.357E-02
   2 F= -.75024530E+02 E0= -.75024530E+02  d E =-.328441E-01  mag=    -0.0006
       N       E                     dE             d eps       ncg     rms          rms(c)
DAV:   1    -0.751010769840E+02   -0.76527E-01   -0.20548E+01  1040   0.772E+00    0.285E-01
DAV:   2    -0.751102018572E+02   -0.91249E-02   -0.95400E-02  1088   0.733E-01    0.213E-01
DAV:   3    -0.751100123987E+02    0.18946E-03   -0.17300E-03  1104   0.102E-01    0.134E-01
DAV:   4    -0.751098860395E+02    0.12636E-03   -0.70809E-04  1104   0.591E-02    0.371E-02
DAV:   5    -0.751098924372E+02   -0.63977E-05   -0.43966E-05   656   0.268E-02
   3 F= -.75109892E+02 E0= -.75109892E+02  d E =-.118207E+00  mag=    -0.0003
       N       E                     dE             d eps       ncg     rms          rms(c)
DAV:   1    -0.751887637240E+02   -0.78878E-01   -0.82120E+01  1024   0.155E+01    0.537E-01
DAV:   2    -0.752254730379E+02   -0.36709E-01   -0.38165E-01  1072   0.147E+00    0.407E-01
DAV:   3    -0.752247697824E+02    0.70326E-03   -0.65903E-03  1096   0.196E-01    0.263E-01
DAV:   4    -0.752241718346E+02    0.59795E-03   -0.27461E-03  1104   0.107E-01    0.779E-02
DAV:   5    -0.752242014755E+02   -0.29641E-04   -0.15378E-04   664   0.416E-02
   4 F= -.75224201E+02 E0= -.75224201E+02  d E =-.232516E+00  mag=    -0.0001
       N       E                     dE             d eps       ncg     rms          rms(c)
DAV:   1    -0.750914695170E+02    0.13270E+00   -0.33006E+02  1024   0.311E+01    0.108E+00
DAV:   2    -0.752406760627E+02   -0.14921E+00   -0.15454E+00  1040   0.296E+00    0.789E-01
DAV:   3    -0.752381819906E+02    0.24941E-02   -0.27118E-02  1112   0.390E-01    0.519E-01
DAV:   4    -0.752357604736E+02    0.24215E-02   -0.10458E-02  1064   0.199E-01    0.154E-01
DAV:   5    -0.752358818099E+02   -0.12134E-03   -0.62878E-04  1112   0.673E-02    0.548E-02
DAV:   6    -0.752357907392E+02    0.91071E-04   -0.26388E-04   712   0.299E-02
   5 F= -.75235791E+02 E0= -.75235791E+02  d E =-.244105E+00  mag=    -0.0001
       N       E                     dE             d eps       ncg     rms          rms(c)
DAV:   1    -0.752363165043E+02   -0.43469E-03   -0.67543E+01  1024   0.140E+01    0.477E-01
DAV:   2    -0.752667497654E+02   -0.30433E-01   -0.31527E-01  1056   0.133E+00    0.355E-01
DAV:   3    -0.752662258896E+02    0.52388E-03   -0.56801E-03  1120   0.176E-01    0.226E-01
DAV:   4    -0.752657879489E+02    0.43794E-03   -0.21697E-03  1064   0.912E-02    0.676E-02
DAV:   5    -0.752658303377E+02   -0.42389E-04   -0.11500E-04   688   0.326E-02
   6 F= -.75265830E+02 E0= -.75265830E+02  d E =-.274145E+00  mag=    -0.0000
       N       E                     dE             d eps       ncg     rms          rms(c)
DAV:   1    -0.753141669559E+02   -0.48379E-01   -0.26917E+01  1024   0.880E+00    0.237E-01
DAV:   2    -0.753264530191E+02   -0.12286E-01   -0.12472E-01  1088   0.847E-01    0.220E-01
DAV:   3    -0.753262583148E+02    0.19470E-03   -0.19502E-03  1104   0.106E-01    0.162E-01
DAV:   4    -0.753258684482E+02    0.38987E-03   -0.10366E-03  1064   0.588E-02    0.691E-02
DAV:   5    -0.753258803334E+02   -0.11885E-04   -0.22384E-04   672   0.320E-02
   7 F= -.75325880E+02 E0= -.75325880E+02  d E =-.600500E-01  mag=    -0.0000
       N       E                     dE             d eps       ncg     rms          rms(c)
DAV:   1    -0.753337129750E+02   -0.78445E-02   -0.24327E+02  1024   0.266E+01    0.656E-01
DAV:   2    -0.754458848952E+02   -0.11217E+00   -0.11290E+00  1088   0.256E+00    0.662E-01
DAV:   3    -0.754448492611E+02    0.10356E-02   -0.17284E-02  1104   0.309E-01    0.502E-01
DAV:   4    -0.754414135845E+02    0.34357E-02   -0.66657E-03  1088   0.153E-01    0.272E-01
DAV:   5    -0.754413573352E+02    0.56249E-04   -0.38539E-03  1072   0.117E-01    0.967E-02
DAV:   6    -0.754412756152E+02    0.81720E-04   -0.19057E-04   688   0.254E-02
   8 F= -.75441276E+02 E0= -.75441276E+02  d E =-.175445E+00  mag=    -0.0000
       N       E                     dE             d eps       ncg     rms          rms(c)
DAV:   1    -0.749589322560E+02    0.48243E+00   -0.98968E+02  1024   0.542E+01    0.135E+00
DAV:   2    -0.754256917227E+02   -0.46676E+00   -0.46748E+00  1104   0.527E+00    0.136E+00
DAV:   3    -0.754221787511E+02    0.35130E-02   -0.71371E-02  1104   0.623E-01    0.100E+00
DAV:   4    -0.754094543755E+02    0.12724E-01   -0.19800E-02  1088   0.269E-01    0.617E-01
DAV:   5    -0.754078387331E+02    0.16156E-02   -0.15787E-02  1072   0.228E-01    0.206E-01
DAV:   6    -0.754078821940E+02   -0.43461E-04   -0.40531E-04   864   0.410E-02
   9 F= -.75407882E+02 E0= -.75407882E+02  d E =-.142052E+00  mag=    -0.0000
       N       E                     dE             d eps       ncg     rms          rms(c)
DAV:   1    -0.753193852286E+02    0.88454E-01   -0.32479E+02  1024   0.307E+01    0.890E-01
DAV:   2    -0.754745918957E+02   -0.15521E+00   -0.15670E+00  1104   0.300E+00    0.635E-01
DAV:   3    -0.754717583099E+02    0.28336E-02   -0.25063E-02  1120   0.380E-01    0.438E-01
DAV:   4    -0.754682775268E+02    0.34808E-02   -0.99061E-03  1072   0.183E-01    0.166E-01
DAV:   5    -0.754684393577E+02   -0.16183E-03   -0.17027E-03  1136   0.835E-02    0.601E-02
DAV:   6    -0.754683517472E+02    0.87611E-04   -0.30094E-04   720   0.316E-02
  10 F= -.75468352E+02 E0= -.75468352E+02  d E =-.202521E+00  mag=    -0.0000
       N       E                     dE             d eps       ncg     rms          rms(c)
DAV:   1    -0.754973378761E+02   -0.28899E-01   -0.79131E+01  1024   0.151E+01    0.302E-01
DAV:   2    -0.755335872660E+02   -0.36249E-01   -0.36128E-01  1072   0.143E+00    0.290E-01
DAV:   3    -0.755331732305E+02    0.41404E-03   -0.56148E-03  1136   0.175E-01    0.223E-01
DAV:   4    -0.755321233672E+02    0.10499E-02   -0.14608E-03  1072   0.699E-02    0.126E-01
DAV:   5    -0.755319654169E+02    0.15795E-03   -0.17150E-03  1088   0.744E-02    0.431E-02
DAV:   6    -0.755319584143E+02    0.70025E-05   -0.35285E-05   640   0.120E-02
  11 F= -.75531958E+02 E0= -.75531958E+02  d E =-.636067E-01  mag=    -0.0000
       N       E                     dE             d eps       ncg     rms          rms(c)
DAV:   1    -0.752815358882E+02    0.25043E+00   -0.72310E+02  1024   0.462E+01    0.113E+00
DAV:   2    -0.756202380585E+02   -0.33870E+00   -0.33831E+00  1088   0.443E+00    0.910E-01
DAV:   3    -0.756154735793E+02    0.47645E-02   -0.52966E-02  1104   0.544E-01    0.652E-01
DAV:   4    -0.756069376289E+02    0.85360E-02   -0.12840E-02  1088   0.208E-01    0.363E-01
DAV:   5    -0.756055713228E+02    0.13663E-02   -0.95222E-03  1072   0.176E-01    0.108E-01
DAV:   6    -0.756056498904E+02   -0.78568E-04   -0.18084E-04   720   0.299E-02
  12 F= -.75605650E+02 E0= -.75605650E+02  d E =-.137298E+00  mag=    -0.0000
       N       E                     dE             d eps       ncg     rms          rms(c)
DAV:   1    -0.756163699819E+02   -0.10799E-01   -0.11249E+02  1024   0.180E+01    0.363E-01
DAV:   2    -0.756682632485E+02   -0.51893E-01   -0.51834E-01  1056   0.172E+00    0.331E-01
DAV:   3    -0.756675517191E+02    0.71153E-03   -0.81240E-03  1152   0.215E-01    0.247E-01
DAV:   4    -0.756661567407E+02    0.13950E-02   -0.17862E-03  1040   0.774E-02    0.143E-01
DAV:   5    -0.756658866053E+02    0.27014E-03   -0.24848E-03  1072   0.886E-02    0.445E-02
DAV:   6    -0.756659127732E+02   -0.26168E-04   -0.42536E-05   648   0.133E-02
  13 F= -.75665913E+02 E0= -.75665913E+02  d E =-.602629E-01  mag=    -0.0000
       N       E                     dE             d eps       ncg     rms          rms(c)
DAV:   1    -0.752684030300E+02    0.39748E+00   -0.10336E+03  1024   0.555E+01    0.160E+00
DAV:   2    -0.757653921062E+02   -0.49699E+00   -0.49701E+00  1104   0.539E+00    0.103E+00
DAV:   3    -0.757570476863E+02    0.83444E-02   -0.80108E-02  1104   0.692E-01    0.692E-01
DAV:   4    -0.757460142462E+02    0.11033E-01   -0.17512E-02  1104   0.246E-01    0.368E-01
DAV:   5    -0.757444035441E+02    0.16107E-02   -0.10823E-02  1024   0.188E-01    0.957E-02
DAV:   6    -0.757445235550E+02   -0.12001E-03   -0.23686E-04   736   0.342E-02    0.516E-02
DAV:   7    -0.757446586929E+02   -0.13514E-03   -0.70418E-05   672   0.179E-02    0.121E-02
DAV:   8    -0.757447300840E+02   -0.71391E-04   -0.12366E-05   688   0.702E-03
  14 F= -.75744730E+02 E0= -.75744730E+02  d E =-.139080E+00  mag=    -0.0000
       N       E                     dE             d eps       ncg     rms          rms(c)
DAV:   1    -0.757413602334E+02    0.32985E-02   -0.16761E+02  1024   0.221E+01    0.479E-01
DAV:   2    -0.758178495908E+02   -0.76489E-01   -0.75911E-01  1088   0.207E+00    0.415E-01
DAV:   3    -0.758166679522E+02    0.11816E-02   -0.11613E-02  1152   0.249E-01    0.311E-01
DAV:   4    -0.758143969523E+02    0.22710E-02   -0.39709E-03  1088   0.114E-01    0.149E-01
DAV:   5    -0.758142671609E+02    0.12979E-03   -0.23558E-03  1072   0.891E-02    0.519E-02
DAV:   6    -0.758142748937E+02   -0.77328E-05   -0.70477E-05   656   0.167E-02
  15 F= -.75814275E+02 E0= -.75814275E+02  d E =-.695448E-01  mag=    -0.0000
       N       E                     dE             d eps       ncg     rms          rms(c)
DAV:   1    -0.755470901220E+02    0.26718E+00   -0.61901E+02  1024   0.427E+01    0.111E+00
DAV:   2    -0.758336929348E+02   -0.28660E+00   -0.28585E+00  1104   0.404E+00    0.817E-01
DAV:   3    -0.758283711901E+02    0.53217E-02   -0.44380E-02  1104   0.493E-01    0.577E-01
DAV:   4    -0.758207405301E+02    0.76307E-02   -0.14877E-02  1088   0.221E-01    0.263E-01
DAV:   5    -0.758203654552E+02    0.37507E-03   -0.54373E-03  1104   0.138E-01    0.827E-02
DAV:   6    -0.758203866493E+02   -0.21194E-04   -0.22685E-04   704   0.304E-02
  16 F= -.75820387E+02 E0= -.75820387E+02  d E =-.756566E-01  mag=    -0.0000
       N       E                     dE             d eps       ncg     rms          rms(c)
DAV:   1    -0.757858368671E+02    0.34529E-01   -0.12451E+02  1024   0.190E+01    0.405E-01
DAV:   2    -0.758420528147E+02   -0.56216E-01   -0.55933E-01  1088   0.178E+00    0.372E-01
DAV:   3    -0.758412384553E+02    0.81436E-03   -0.85082E-03  1152   0.213E-01    0.285E-01
DAV:   4    -0.758394808931E+02    0.17576E-02   -0.30694E-03  1072   0.997E-02    0.138E-01
DAV:   5    -0.758393982841E+02    0.82609E-04   -0.19346E-03  1104   0.808E-02    0.502E-02
DAV:   6    -0.758393891967E+02    0.90874E-05   -0.56598E-05   688   0.149E-02
  17 F= -.75839389E+02 E0= -.75839389E+02  d E =-.946591E-01  mag=    -0.0000
       N       E                     dE             d eps       ncg     rms          rms(c)
DAV:   1    -0.758133649673E+02    0.26033E-01   -0.21378E+02  1024   0.249E+01    0.520E-01
DAV:   2    -0.759117053334E+02   -0.98340E-01   -0.97778E-01  1072   0.236E+00    0.474E-01
DAV:   3    -0.759103421887E+02    0.13631E-02   -0.15035E-02  1120   0.284E-01    0.353E-01
DAV:   4    -0.759074050155E+02    0.29372E-02   -0.42931E-03  1104   0.120E-01    0.193E-01
DAV:   5    -0.759069936542E+02    0.41136E-03   -0.38021E-03  1088   0.110E-01    0.649E-02
DAV:   6    -0.759069914822E+02    0.21720E-05   -0.75191E-05   624   0.173E-02
  18 F= -.75906991E+02 E0= -.75906991E+02  d E =-.676023E-01  mag=    -0.0000
       N       E                     dE             d eps       ncg     rms          rms(c)
DAV:   1    -0.754974078450E+02    0.40959E+00   -0.91257E+02  1024   0.520E+01    0.140E+00
DAV:   2    -0.759283570757E+02   -0.43095E+00   -0.42989E+00  1088   0.499E+00    0.102E+00
DAV:   3    -0.759213715905E+02    0.69855E-02   -0.67329E-02  1120   0.612E-01    0.697E-01
DAV:   4    -0.759106127557E+02    0.10759E-01   -0.18088E-02  1088   0.248E-01    0.362E-01
DAV:   5    -0.759094480471E+02    0.11647E-02   -0.95606E-03  1072   0.177E-01    0.108E-01
DAV:   6    -0.759095317805E+02   -0.83733E-04   -0.24285E-04   720   0.328E-02
  19 F= -.75909532E+02 E0= -.75909532E+02  d E =-.701426E-01  mag=    -0.0000
       N       E                     dE             d eps       ncg     rms          rms(c)
DAV:   1    -0.758504882959E+02    0.58960E-01   -0.18704E+02  1024   0.233E+01    0.458E-01
DAV:   2    -0.759362294551E+02   -0.85741E-01   -0.85323E-01  1104   0.220E+00    0.464E-01
DAV:   3    -0.759353643032E+02    0.86515E-03   -0.13155E-02  1136   0.265E-01    0.356E-01
DAV:   4    -0.759328084342E+02    0.25559E-02   -0.32537E-03  1088   0.106E-01    0.216E-01
DAV:   5    -0.759323391467E+02    0.46929E-03   -0.45057E-03  1056   0.119E-01    0.748E-02
DAV:   6    -0.759323446489E+02   -0.55022E-05   -0.71531E-05   704   0.171E-02
  20 F= -.75932345E+02 E0= -.75932345E+02  d E =-.929555E-01  mag=    -0.0000
       N       E                     dE             d eps       ncg     rms          rms(c)
DAV:   1    -0.758703228298E+02    0.62016E-01   -0.26698E+02  1024   0.278E+01    0.566E-01
DAV:   2    -0.759934778086E+02   -0.12315E+00   -0.12199E+00  1088   0.263E+00    0.532E-01
DAV:   3    -0.759918750400E+02    0.16028E-02   -0.18480E-02  1120   0.311E-01    0.403E-01
DAV:   4    -0.759881978045E+02    0.36772E-02   -0.49888E-03  1088   0.129E-01    0.226E-01
DAV:   5    -0.759875745910E+02    0.62321E-03   -0.49834E-03  1088   0.126E-01    0.752E-02
DAV:   6    -0.759875914598E+02   -0.16869E-04   -0.74515E-05   624   0.186E-02
  21 F= -.75987591E+02 E0= -.75987591E+02  d E =-.552468E-01  mag=    -0.0000
       N       E                     dE             d eps       ncg     rms          rms(c)
DAV:   1    -0.759314239372E+02    0.56151E-01   -0.14027E+02  1024   0.201E+01    0.401E-01
DAV:   2    -0.759955857242E+02   -0.64162E-01   -0.63723E-01  1088   0.189E+00    0.379E-01
DAV:   3    -0.759947230280E+02    0.86270E-03   -0.95718E-03  1136   0.224E-01    0.289E-01
DAV:   4    -0.759928046720E+02    0.19184E-02   -0.27259E-03  1088   0.954E-02    0.159E-01
DAV:   5    -0.759925395248E+02    0.26515E-03   -0.26961E-03  1088   0.928E-02    0.551E-02
DAV:   6    -0.759925561947E+02   -0.16670E-04   -0.46122E-05   656   0.141E-02
  22 F= -.75992556E+02 E0= -.75992556E+02  d E =-.602115E-01  mag=    -0.0000
       N       E                     dE             d eps       ncg     rms          rms(c)
DAV:   1    -0.758951963484E+02    0.97343E-01   -0.31034E+02  1024   0.298E+01    0.640E-01
DAV:   2    -0.760421940631E+02   -0.14700E+00   -0.14571E+00  1088   0.286E+00    0.549E-01
DAV:   3    -0.760400927513E+02    0.21013E-02   -0.21963E-02  1104   0.343E-01    0.408E-01
DAV:   4    -0.760361723584E+02    0.39204E-02   -0.52724E-03  1088   0.131E-01    0.226E-01
DAV:   5    -0.760354371717E+02    0.73519E-03   -0.51222E-03  1072   0.127E-01    0.677E-02
DAV:   6    -0.760355021607E+02   -0.64989E-04   -0.69445E-05   704   0.188E-02
  23 F= -.76035502E+02 E0= -.76035502E+02  d E =-.429460E-01  mag=    -0.0000
       N       E                     dE             d eps       ncg     rms          rms(c)
DAV:   1    -0.759755053460E+02    0.59932E-01   -0.14655E+02  1024   0.205E+01    0.412E-01
DAV:   2    -0.760440164162E+02   -0.68511E-01   -0.67898E-01  1088   0.195E+00    0.372E-01
DAV:   3    -0.760430345339E+02    0.98188E-03   -0.10158E-02  1120   0.233E-01    0.283E-01
DAV:   4    -0.760411195596E+02    0.19150E-02   -0.26179E-03  1088   0.919E-02    0.155E-01
DAV:   5    -0.760408154458E+02    0.30411E-03   -0.27302E-03  1056   0.928E-02    0.496E-02
DAV:   6    -0.760408533695E+02   -0.37924E-04   -0.40321E-05   672   0.137E-02
  24 F= -.76040853E+02 E0= -.76040853E+02  d E =-.482972E-01  mag=    -0.0000
       N       E                     dE             d eps       ncg     rms          rms(c)
DAV:   1    -0.759883335113E+02    0.52482E-01   -0.22435E+02  1024   0.254E+01    0.567E-01
DAV:   2    -0.760941072656E+02   -0.10577E+00   -0.10515E+00  1088   0.242E+00    0.471E-01
DAV:   3    -0.760925564329E+02    0.15508E-02   -0.15915E-02  1136   0.287E-01    0.349E-01
DAV:   4    -0.760897584099E+02    0.27980E-02   -0.48074E-03  1072   0.126E-01    0.171E-01
DAV:   5    -0.760895608892E+02    0.19752E-03   -0.28378E-03  1072   0.966E-02    0.563E-02
DAV:   6    -0.760895748004E+02   -0.13911E-04   -0.82075E-05   704   0.180E-02
  25 F= -.76089575E+02 E0= -.76089575E+02  d E =-.487214E-01  mag=    -0.0000
       N       E                     dE             d eps       ncg     rms          rms(c)
DAV:   1    -0.759475232878E+02    0.14204E+00   -0.30488E+02  1024   0.297E+01    0.706E-01
DAV:   2    -0.760917857121E+02   -0.14426E+00   -0.14358E+00  1072   0.283E+00    0.553E-01
DAV:   3    -0.760895063921E+02    0.22793E-02   -0.21917E-02  1136   0.339E-01    0.402E-01
DAV:   4    -0.760858233501E+02    0.36830E-02   -0.67527E-03  1056   0.150E-01    0.190E-01
DAV:   5    -0.760856261441E+02    0.19721E-03   -0.32309E-03  1104   0.104E-01    0.611E-02
DAV:   6    -0.760856410716E+02   -0.14928E-04   -0.11287E-04   720   0.211E-02
  26 F= -.76085641E+02 E0= -.76085641E+02  d E =-.447877E-01  mag=    -0.0000
       N       E                     dE             d eps       ncg     rms          rms(c)
DAV:   1    -0.759895835961E+02    0.96043E-01   -0.25991E+02  1024   0.276E+01    0.952E-01
DAV:   2    -0.761060049758E+02   -0.11642E+00   -0.12160E+00  1072   0.260E+00    0.700E-01
DAV:   3    -0.761042181611E+02    0.17868E-02   -0.21488E-02  1104   0.323E-01    0.453E-01
DAV:   4    -0.761024764026E+02    0.17418E-02   -0.75643E-03  1088   0.172E-01    0.128E-01
DAV:   5    -0.761025686697E+02   -0.92267E-04   -0.40142E-04   976   0.597E-02
  27 F= -.76102569E+02 E0= -.76102569E+02  d E =-.169276E-01  mag=    -0.0000
       N       E                     dE             d eps       ncg     rms          rms(c)
DAV:   1    -0.761079411541E+02   -0.54648E-02   -0.50497E+01  1024   0.121E+01    0.402E-01
DAV:   2    -0.761302214181E+02   -0.22280E-01   -0.23208E-01  1072   0.113E+00    0.308E-01
DAV:   3    -0.761297846948E+02    0.43672E-03   -0.38709E-03  1136   0.138E-01    0.200E-01
DAV:   4    -0.761294251028E+02    0.35959E-03   -0.16904E-03  1072   0.796E-02    0.544E-02
DAV:   5    -0.761294491885E+02   -0.24086E-04   -0.70939E-05   688   0.264E-02
  28 F= -.76129449E+02 E0= -.76129449E+02  d E =-.438081E-01  mag=     0.0000
       N       E                     dE             d eps       ncg     rms          rms(c)
DAV:   1    -0.761223106592E+02    0.71144E-02   -0.71906E+01  1024   0.144E+01    0.320E-01
DAV:   2    -0.761553841436E+02   -0.33073E-01   -0.32921E-01  1088   0.136E+00    0.283E-01
DAV:   3    -0.761549159232E+02    0.46822E-03   -0.50769E-03  1152   0.162E-01    0.212E-01
DAV:   4    -0.761539748081E+02    0.94112E-03   -0.19700E-03  1088   0.799E-02    0.945E-02
DAV:   5    -0.761539782803E+02   -0.34722E-05   -0.85318E-04  1120   0.542E-02
  29 F= -.76153978E+02 E0= -.76153978E+02  d E =-.245291E-01  mag=     0.0000
       N       E                     dE             d eps       ncg     rms          rms(c)
DAV:   1    -0.761453038100E+02    0.86710E-02   -0.23295E+01  1024   0.821E+00    0.189E-01
DAV:   2    -0.761560054297E+02   -0.10702E-01   -0.10741E-01  1104   0.775E-01    0.159E-01
DAV:   3    -0.761558770554E+02    0.12837E-03   -0.16628E-03  1120   0.927E-02    0.116E-01
DAV:   4    -0.761556341611E+02    0.24289E-03   -0.59460E-04  1088   0.444E-02    0.505E-02
DAV:   5    -0.761556490213E+02   -0.14860E-04   -0.20970E-04   672   0.286E-02
  30 F= -.76155649E+02 E0= -.76155649E+02  d E =-.261998E-01  mag=     0.0000
       N       E                     dE             d eps       ncg     rms          rms(c)
DAV:   1    -0.761555610107E+02    0.73150E-04   -0.30737E+01  1024   0.940E+00    0.182E-01
DAV:   2    -0.761698202246E+02   -0.14259E-01   -0.14104E-01  1088   0.885E-01    0.167E-01
DAV:   3    -0.761696554051E+02    0.16482E-03   -0.20744E-03  1136   0.102E-01    0.130E-01
DAV:   4    -0.761692705638E+02    0.38484E-03   -0.64585E-04  1088   0.464E-02    0.648E-02
DAV:   5    -0.761692511813E+02    0.19382E-04   -0.53246E-04  1056   0.413E-02
  31 F= -.76169251E+02 E0= -.76169251E+02  d E =-.136022E-01  mag=     0.0000
       N       E                     dE             d eps       ncg     rms          rms(c)
DAV:   1    -0.761342336196E+02    0.35037E-01   -0.96396E+01  1024   0.167E+01    0.338E-01
DAV:   2    -0.761789914226E+02   -0.44758E-01   -0.44435E-01  1088   0.157E+00    0.296E-01
DAV:   3    -0.761783927063E+02    0.59872E-03   -0.65942E-03  1136   0.182E-01    0.228E-01
DAV:   4    -0.761771789445E+02    0.12138E-02   -0.21092E-03  1088   0.836E-02    0.109E-01
DAV:   5    -0.761771145801E+02    0.64364E-04   -0.14209E-03  1040   0.679E-02    0.393E-02
DAV:   6    -0.761771100065E+02    0.45736E-05   -0.39506E-05   656   0.126E-02
  32 F= -.76177110E+02 E0= -.76177110E+02  d E =-.214610E-01  mag=     0.0000
       N       E                     dE             d eps       ncg     rms          rms(c)
DAV:   1    -0.761802323638E+02   -0.31178E-02   -0.21374E+01  1024   0.785E+00    0.176E-01
DAV:   2    -0.761900171561E+02   -0.97848E-02   -0.97925E-02  1072   0.737E-01    0.157E-01
DAV:   3    -0.761898806970E+02    0.13646E-03   -0.14801E-03  1152   0.848E-02    0.118E-01
DAV:   4    -0.761896049242E+02    0.27577E-03   -0.65344E-04  1072   0.466E-02    0.494E-02
DAV:   5    -0.761896152500E+02   -0.10326E-04   -0.18995E-04   672   0.278E-02
  33 F= -.76189615E+02 E0= -.76189615E+02  d E =-.125052E-01  mag=     0.0000
       N       E                     dE             d eps       ncg     rms          rms(c)
DAV:   1    -0.761794846329E+02    0.10120E-01   -0.33433E+01  1024   0.982E+00    0.223E-01
DAV:   2    -0.761947660538E+02   -0.15281E-01   -0.15347E-01  1072   0.922E-01    0.194E-01
DAV:   3    -0.761945608069E+02    0.20525E-03   -0.23203E-03  1152   0.106E-01    0.144E-01
DAV:   4    -0.761941610670E+02    0.39974E-03   -0.96069E-04  1056   0.567E-02    0.601E-02
DAV:   5    -0.761941764774E+02   -0.15410E-04   -0.27741E-04   752   0.334E-02
  34 F= -.76194176E+02 E0= -.76194176E+02  d E =-.170665E-01  mag=     0.0000
       N       E                     dE             d eps       ncg     rms          rms(c)
DAV:   1    -0.761908743766E+02    0.32867E-02   -0.30850E+01  1024   0.943E+00    0.189E-01
DAV:   2    -0.762049360446E+02   -0.14062E-01   -0.13996E-01  1072   0.883E-01    0.171E-01
DAV:   3    -0.762047515977E+02    0.18445E-03   -0.20875E-03  1152   0.103E-01    0.131E-01
DAV:   4    -0.762043573864E+02    0.39421E-03   -0.70511E-04  1056   0.481E-02    0.638E-02
DAV:   5    -0.762043421417E+02    0.15245E-04   -0.47500E-04  1088   0.394E-02
  35 F= -.76204342E+02 E0= -.76204342E+02  d E =-.101657E-01  mag=     0.0000
       N       E                     dE             d eps       ncg     rms          rms(c)
DAV:   1    -0.761976834646E+02    0.66739E-02   -0.19989E+01  1024   0.759E+00    0.154E-01
DAV:   2    -0.762068360651E+02   -0.91526E-02   -0.91063E-02  1072   0.712E-01    0.138E-01
DAV:   3    -0.762067258978E+02    0.11017E-03   -0.13643E-03  1120   0.831E-02    0.105E-01
DAV:   4    -0.762064886729E+02    0.23722E-03   -0.45301E-04  1056   0.387E-02    0.506E-02
DAV:   5    -0.762064867024E+02    0.19705E-05   -0.27905E-04   736   0.314E-02
  36 F= -.76206487E+02 E0= -.76206487E+02  d E =-.123102E-01  mag=     0.0000
       N       E                     dE             d eps       ncg     rms          rms(c)
DAV:   1    -0.762005263622E+02    0.59623E-02   -0.33804E+01  1024   0.982E+00    0.198E-01
DAV:   2    -0.762161998983E+02   -0.15674E-01   -0.15519E-01  1088   0.930E-01    0.182E-01
DAV:   3    -0.762160427880E+02    0.15711E-03   -0.23307E-03  1120   0.110E-01    0.139E-01
DAV:   4    -0.762156320848E+02    0.41070E-03   -0.67697E-04  1072   0.477E-02    0.724E-02
DAV:   5    -0.762156054800E+02    0.26605E-04   -0.59579E-04  1072   0.437E-02
  37 F= -.76215605E+02 E0= -.76215605E+02  d E =-.911878E-02  mag=     0.0000
       N       E                     dE             d eps       ncg     rms          rms(c)
DAV:   1    -0.762011572136E+02    0.14475E-01   -0.38026E+01  1024   0.104E+01    0.213E-01
DAV:   2    -0.762188848814E+02   -0.17728E-01   -0.17523E-01  1072   0.987E-01    0.192E-01
DAV:   3    -0.762187085343E+02    0.17635E-03   -0.26378E-03  1104   0.117E-01    0.145E-01
DAV:   4    -0.762182602312E+02    0.44830E-03   -0.76057E-04  1056   0.507E-02    0.751E-02
DAV:   5    -0.762182360552E+02    0.24176E-04   -0.62895E-04  1072   0.450E-02
  38 F= -.76218236E+02 E0= -.76218236E+02  d E =-.117494E-01  mag=     0.0000
       N       E                     dE             d eps       ncg     rms          rms(c)
DAV:   1    -0.762090958744E+02    0.91644E-02   -0.37358E+01  1024   0.103E+01    0.208E-01
DAV:   2    -0.762264768799E+02   -0.17381E-01   -0.17243E-01  1088   0.976E-01    0.186E-01
DAV:   3    -0.762263118514E+02    0.16503E-03   -0.25686E-03  1104   0.116E-01    0.141E-01
DAV:   4    -0.762258812092E+02    0.43064E-03   -0.70834E-04  1072   0.488E-02    0.743E-02
DAV:   5    -0.762258528195E+02    0.28390E-04   -0.64158E-04  1088   0.453E-02
  39 F= -.76225853E+02 E0= -.76225853E+02  d E =-.761676E-02  mag=     0.0000
       N       E                     dE             d eps       ncg     rms          rms(c)
DAV:   1    -0.762116056758E+02    0.14276E-01   -0.35891E+01  1024   0.101E+01    0.207E-01
DAV:   2    -0.762282331112E+02   -0.16627E-01   -0.16565E-01  1088   0.956E-01    0.183E-01
DAV:   3    -0.762280561541E+02    0.17696E-03   -0.24700E-03  1104   0.113E-01    0.138E-01
DAV:   4    -0.762276454211E+02    0.41073E-03   -0.70656E-04  1072   0.487E-02    0.713E-02
DAV:   5    -0.762276276848E+02    0.17736E-04   -0.58382E-04  1072   0.434E-02
  40 F= -.76227628E+02 E0= -.76227628E+02  d E =-.939163E-02  mag=     0.0000
       N       E                     dE             d eps       ncg     rms          rms(c)
DAV:   1    -0.762119886595E+02    0.15657E-01   -0.51852E+01  1024   0.121E+01    0.242E-01
DAV:   2    -0.762361524897E+02   -0.24164E-01   -0.24020E-01  1072   0.115E+00    0.213E-01
DAV:   3    -0.762358943645E+02    0.25813E-03   -0.36211E-03  1088   0.139E-01    0.161E-01
DAV:   4    -0.762353043936E+02    0.58997E-03   -0.81892E-04  1088   0.518E-02    0.893E-02
DAV:   5    -0.762352123203E+02    0.92073E-04   -0.98863E-04  1056   0.561E-02
  41 F= -.76235212E+02 E0= -.76235212E+02  d E =-.758464E-02  mag=     0.0000
       N       E                     dE             d eps       ncg     rms          rms(c)
DAV:   1    -0.762208426946E+02    0.14462E-01   -0.33446E+01  1024   0.972E+00    0.195E-01
DAV:   2    -0.762363280574E+02   -0.15485E-01   -0.15478E-01  1056   0.924E-01    0.171E-01
DAV:   3    -0.762361681018E+02    0.15996E-03   -0.23342E-03  1088   0.112E-01    0.129E-01
DAV:   4    -0.762358099533E+02    0.35815E-03   -0.54407E-04  1056   0.424E-02    0.702E-02
DAV:   5    -0.762357751604E+02    0.34793E-04   -0.61697E-04  1056   0.446E-02
  42 F= -.76235775E+02 E0= -.76235775E+02  d E =-.814748E-02  mag=     0.0000
       N       E                     dE             d eps       ncg     rms          rms(c)
DAV:   1    -0.762155678892E+02    0.20242E-01   -0.58334E+01  1024   0.128E+01    0.236E-01
DAV:   2    -0.762427101397E+02   -0.27142E-01   -0.26944E-01  1072   0.122E+00    0.229E-01
DAV:   3    -0.762424858976E+02    0.22424E-03   -0.40611E-03  1088   0.146E-01    0.175E-01
DAV:   4    -0.762418304789E+02    0.65542E-03   -0.75212E-04  1088   0.506E-02    0.109E-01
DAV:   5    -0.762416570867E+02    0.17339E-03   -0.13817E-03  1056   0.651E-02    0.346E-02
DAV:   6    -0.762416793368E+02   -0.22250E-04   -0.14782E-05   672   0.820E-03
  43 F= -.76241679E+02 E0= -.76241679E+02  d E =-.590418E-02  mag=     0.0000
       N       E                     dE             d eps       ncg     rms          rms(c)
DAV:   1    -0.762371955594E+02    0.44615E-02   -0.10898E+01  1024   0.555E+00    0.979E-02
DAV:   2    -0.762422261195E+02   -0.50306E-02   -0.49918E-02  1088   0.525E-01    0.984E-02
DAV:   3    -0.762421857579E+02    0.40362E-04   -0.74593E-04  1120   0.623E-02
  44 F= -.76242186E+02 E0= -.76242186E+02  d E =-.641060E-02  mag=     0.0000
       N       E                     dE             d eps       ncg     rms          rms(c)
DAV:   1    -0.762370972427E+02    0.51289E-02   -0.23141E+01  1024   0.811E+00    0.184E-01
DAV:   2    -0.762474675260E+02   -0.10370E-01   -0.10474E-01  1072   0.766E-01    0.175E-01
DAV:   3    -0.762473016641E+02    0.16586E-03   -0.16085E-03  1168   0.910E-02    0.133E-01
DAV:   4    -0.762469539882E+02    0.34768E-03   -0.76078E-04  1072   0.504E-02    0.636E-02
DAV:   5    -0.762469647904E+02   -0.10802E-04   -0.35318E-04   992   0.353E-02
  45 F= -.76246965E+02 E0= -.76246965E+02  d E =-.477903E-02  mag=     0.0000
       N       E                     dE             d eps       ncg     rms          rms(c)
DAV:   1    -0.762458175790E+02    0.11364E-02   -0.29027E+00  1024   0.287E+00    0.707E-02
DAV:   2    -0.762471651691E+02   -0.13476E-02   -0.13549E-02  1088   0.273E-01    0.565E-02
DAV:   3    -0.762471562940E+02    0.88751E-05   -0.18786E-04   656   0.331E-02
  46 F= -.76247156E+02 E0= -.76247156E+02  d E =-.497054E-02  mag=     0.0000
       N       E                     dE             d eps       ncg     rms          rms(c)
DAV:   1    -0.762446656587E+02    0.24995E-02   -0.86061E+00  1024   0.499E+00    0.165E-01
DAV:   2    -0.762484699570E+02   -0.38043E-02   -0.39657E-02  1072   0.470E-01    0.127E-01
DAV:   3    -0.762484186796E+02    0.51277E-04   -0.71624E-04  1120   0.612E-02
  47 F= -.76248419E+02 E0= -.76248419E+02  d E =-.126239E-02  mag=     0.0000
       N       E                     dE             d eps       ncg     rms          rms(c)
DAV:   1    -0.762485116741E+02   -0.41717E-04   -0.11858E+00  1072   0.185E+00    0.472E-02
DAV:   2    -0.762490461869E+02   -0.53451E-03   -0.54443E-03  1072   0.177E-01    0.393E-02
DAV:   3    -0.762490404997E+02    0.56871E-05   -0.86576E-05   640   0.234E-02
  48 F= -.76249040E+02 E0= -.76249040E+02  d E =-.188421E-02  mag=     0.0000
       N       E                     dE             d eps       ncg     rms          rms(c)
DAV:   1    -0.762491327696E+02   -0.86583E-04   -0.33601E+00  1024   0.311E+00    0.634E-02
DAV:   2    -0.762506613257E+02   -0.15286E-02   -0.15343E-02  1088   0.296E-01    0.601E-02
DAV:   3    -0.762506422355E+02    0.19090E-04   -0.20668E-04   624   0.362E-02
  49 F= -.76250642E+02 E0= -.76250642E+02  d E =-.160174E-02  mag=     0.0000
       N       E                     dE             d eps       ncg     rms          rms(c)
DAV:   1    -0.762507023133E+02   -0.40988E-04   -0.35917E-02  1072   0.324E-01    0.229E-02
DAV:   2    -0.762507108925E+02   -0.85792E-05   -0.11504E-04   656   0.279E-02
  50 F= -.76250711E+02 E0= -.76250711E+02  d E =-.167039E-02  mag=     0.0000
       N       E                     dE             d eps       ncg     rms          rms(c)
DAV:   1    -0.762508095887E+02   -0.10728E-03   -0.20037E+00  1040   0.240E+00    0.648E-02
DAV:   2    -0.762517054368E+02   -0.89585E-03   -0.92408E-03  1088   0.230E-01    0.547E-02
DAV:   3    -0.762516933916E+02    0.12045E-04   -0.13595E-04   640   0.302E-02
  51 F= -.76251693E+02 E0= -.76251693E+02  d E =-.982499E-03  mag=     0.0000
       N       E                     dE             d eps       ncg     rms          rms(c)
DAV:   1    -0.762516310521E+02    0.74385E-04   -0.11665E-02  1072   0.182E-01    0.112E-02
DAV:   2    -0.762516381647E+02   -0.71126E-05   -0.59116E-05   640   0.204E-02
  52 F= -.76251638E+02 E0= -.76251638E+02  d E =-.927272E-03  mag=     0.0000
