37
Energy = -115.50703475 eV
Al 12.960821247212987 13.104910732451287 6.402722727455281
Al 14.248710167206212 12.98675183077401 8.860958763658694
Al 15.053608407668944 10.523601890523814 9.57156469401625
Al 14.586368387343352 11.034353712387992 7.000239724152366
Al 13.6461970735873 8.63535313542474 7.937657591022
Al 15.73673101270159 9.857994398449376 11.993896058632552
Al 15.3825047648717 12.756093398687607 11.386807786894595
Al 13.557414936393704 8.489853001129022 10.665836942859555
Al 14.683465737582793 11.337728245007392 13.926600272466926
Al 13.48228547619992 8.869201338057298 13.343211119153667
Al 12.55289210666636 15.041348188119096 8.222283985085802
Al 11.879034715989444 10.612878739422637 6.906409712786014
Al 12.82751359476993 13.994261618089526 10.824953105229374
Al 11.37845762529197 12.624620561359228 8.756479676358385
Al 13.529124605230123 9.759090373779493 15.852960470484522
Al 11.669660304874688 9.989223182509512 9.472937927026694
Al 13.10169395380416 11.277611128711603 11.454889128222725
Al 13.374192863630501 13.569620549176182 13.3036569984295
Al 13.48684118483178 12.68501728750206 15.890913552199354
Al 11.388178595427926 10.96611513775569 16.68881466712927
Al 11.233510325109735 9.23277039677725 11.963376355852029
Al 11.105334667467533 8.846200796658698 14.706422226219782
Al 11.756114646320416 11.444266850734099 14.004547032151287
Al 11.370575117212093 14.100575734278971 15.117533494647256
Al 10.971286413223309 15.030387588187981 12.582726783591644
Al 10.499407772984593 14.976904333222159 9.90565196947947
Al 9.489479557174846 10.807477483163968 7.940515286995818
Al 10.552498761953235 12.435847560511482 11.557925656353648
Al 9.1471230955056 10.315005097052012 10.55116422276177
Al 9.260996560588254 10.423043947289374 13.224653392012696
Al 8.966553916300276 9.977707058671925 15.847599999777733
Al 9.379400318590815 12.719703300918557 16.257272297050715
Al 9.139733244085233 13.38345729199576 13.672337341353373
Al 8.631712847996402 12.864770686397119 9.446769184691314
Al 8.298176668692754 14.783520245345446 11.475309020366419
Al 7.612400429166726 12.083719036924796 11.870511449147571
Al 7.280147308021529 11.679162554230555 14.632037795962507
