  46  46   0   0
  0.2449786E+03  0.2241964E-08  0.2241964E-08  0.2241964E-08  0.1000000E-15
  1.000000000000000E-004
  CAR 
 unknown system                          
      2.17356800    -10.25930196  301     -3.15184463      1.00000000
    -10.259  0.0000E+00  0.0000E+00  0.0000E+00  0.0000E+00
    -10.218  0.0000E+00  0.0000E+00  0.0000E+00  0.0000E+00
    -10.176  0.0000E+00  0.0000E+00  0.0000E+00  0.0000E+00
    -10.135  0.0000E+00  0.0000E+00  0.0000E+00  0.0000E+00
    -10.094  0.0000E+00  0.0000E+00  0.0000E+00  0.0000E+00
    -10.052  0.0000E+00  0.0000E+00  0.0000E+00  0.0000E+00
    -10.011  0.0000E+00  0.0000E+00  0.0000E+00  0.0000E+00
     -9.969  0.0000E+00  0.0000E+00  0.0000E+00  0.0000E+00
     -9.928  0.0000E+00  0.0000E+00  0.0000E+00  0.0000E+00
     -9.886  0.0000E+00  0.0000E+00  0.0000E+00  0.0000E+00
     -9.845  0.0000E+00  0.0000E+00  0.0000E+00  0.0000E+00
     -9.803  0.0000E+00  0.0000E+00  0.0000E+00  0.0000E+00
     -9.762  0.0000E+00  0.0000E+00  0.0000E+00  0.0000E+00
     -9.721  0.0000E+00  0.0000E+00  0.0000E+00  0.0000E+00
     -9.679  0.0000E+00  0.0000E+00  0.1000E-02  0.0000E+00
     -9.638  0.0000E+00  0.0000E+00  0.1000E-02  0.1000E-02
     -9.596  0.0000E+00  0.0000E+00  0.1000E-02  0.1000E-02
     -9.555  0.0000E+00  0.0000E+00  0.1000E-02  0.1000E-02
     -9.513  0.0000E+00  0.0000E+00  0.1000E-02  0.1000E-02
     -9.472  0.0000E+00  0.0000E+00  0.1000E-02  0.1000E-02
     -9.430  0.0000E+00  0.0000E+00  0.1000E-02  0.1000E-02
     -9.389  0.0000E+00  0.0000E+00  0.1000E-02  0.1000E-02
     -9.348  0.0000E+00  0.0000E+00  0.1000E-02  0.1000E-02
     -9.306  0.0000E+00  0.0000E+00  0.1000E-02  0.1000E-02
     -9.265  0.0000E+00  0.0000E+00  0.1000E-02  0.1000E-02
     -9.223  0.0000E+00  0.0000E+00  0.1000E-02  0.1000E-02
     -9.182  0.0000E+00  0.0000E+00  0.2000E-02  0.1000E-02
     -9.140  0.0000E+00  0.0000E+00  0.2000E-02  0.2000E-02
     -9.099  0.0000E+00  0.0000E+00  0.2000E-02  0.2000E-02
     -9.057  0.0000E+00  0.0000E+00  0.4000E-02  0.3000E-02
     -9.016  0.0000E+00  0.0000E+00  0.5000E-02  0.5000E-02
     -8.975  0.0000E+00  0.0000E+00  0.6000E-02  0.6000E-02
     -8.933  0.0000E+00  0.0000E+00  0.7000E-02  0.7000E-02
     -8.892  0.0000E+00  0.0000E+00  0.8000E-02  0.8000E-02
     -8.850  0.0000E+00  0.0000E+00  0.1100E-01  0.9000E-02
     -8.809  0.0000E+00  0.2413E-01  0.1200E-01  0.1200E-01
     -8.767  0.0000E+00  0.0000E+00  0.1300E-01  0.1200E-01
     -8.726  0.0000E+00  0.0000E+00  0.1400E-01  0.1400E-01
     -8.684  0.0000E+00  0.0000E+00  0.1700E-01  0.1600E-01
     -8.643  0.0000E+00  0.0000E+00  0.2000E-01  0.1900E-01
     -8.602  0.1221E-06  0.0000E+00  0.2200E-01  0.2200E-01
     -8.560  0.0000E+00  0.0000E+00  0.2500E-01  0.2500E-01
     -8.519  0.0000E+00  0.2413E-01  0.2800E-01  0.2800E-01
     -8.477  0.0000E+00  0.0000E+00  0.3100E-01  0.3000E-01
     -8.436  0.0000E+00  0.0000E+00  0.3400E-01  0.3300E-01
     -8.394  0.0000E+00  0.0000E+00  0.3700E-01  0.3600E-01
     -8.353  0.0000E+00  0.0000E+00  0.3900E-01  0.3800E-01
     -8.311  0.0000E+00  0.0000E+00  0.4300E-01  0.4200E-01
     -8.270  0.0000E+00  0.0000E+00  0.4600E-01  0.4400E-01
     -8.229  0.0000E+00  0.0000E+00  0.5000E-01  0.4900E-01
     -8.187  0.0000E+00  0.0000E+00  0.5300E-01  0.5200E-01
     -8.146  0.0000E+00  0.0000E+00  0.5600E-01  0.5500E-01
     -8.104  0.0000E+00  0.0000E+00  0.6000E-01  0.5900E-01
     -8.063  0.0000E+00  0.0000E+00  0.6300E-01  0.6200E-01
     -8.021  0.3597E-05  0.0000E+00  0.6500E-01  0.6500E-01
     -7.980  0.0000E+00  0.0000E+00  0.6800E-01  0.6700E-01
     -7.938  0.0000E+00  0.0000E+00  0.7100E-01  0.7000E-01
     -7.897  0.0000E+00  0.0000E+00  0.7400E-01  0.7300E-01
     -7.856  0.0000E+00  0.0000E+00  0.7600E-01  0.7600E-01
     -7.814  0.0000E+00  0.0000E+00  0.7900E-01  0.7800E-01
     -7.773  0.0000E+00  0.0000E+00  0.8300E-01  0.8200E-01
     -7.731  0.0000E+00  0.0000E+00  0.8700E-01  0.8500E-01
     -7.690  0.0000E+00  0.4546E-04  0.9000E-01  0.8900E-01
     -7.648  0.0000E+00  0.0000E+00  0.9200E-01  0.9100E-01
     -7.607  0.0000E+00  0.0000E+00  0.9500E-01  0.9400E-01
     -7.566  0.0000E+00  0.4709E-02  0.9800E-01  0.9620E-01
     -7.524  0.0000E+00  0.0000E+00  0.1000E+00  0.9900E-01
     -7.483  0.0000E+00  0.0000E+00  0.1030E+00  0.1010E+00
     -7.441  0.5900E-03  0.0000E+00  0.1040E+00  0.1040E+00
     -7.400  0.0000E+00  0.0000E+00  0.1080E+00  0.1070E+00
     -7.358  0.0000E+00  0.0000E+00  0.1110E+00  0.1100E+00
     -7.317  0.0000E+00  0.0000E+00  0.1140E+00  0.1130E+00
     -7.275  0.0000E+00  0.0000E+00  0.1180E+00  0.1170E+00
     -7.234  0.0000E+00  0.0000E+00  0.1190E+00  0.1180E+00
     -7.193  0.0000E+00  0.0000E+00  0.1230E+00  0.1230E+00
     -7.151  0.0000E+00  0.0000E+00  0.1260E+00  0.1260E+00
     -7.110  0.0000E+00  0.0000E+00  0.1280E+00  0.1280E+00
     -7.068  0.0000E+00  0.0000E+00  0.1330E+00  0.1320E+00
     -7.027  0.0000E+00  0.0000E+00  0.1350E+00  0.1350E+00
     -6.985  0.0000E+00  0.0000E+00  0.1380E+00  0.1370E+00
     -6.944  0.0000E+00  0.0000E+00  0.1410E+00  0.1400E+00
     -6.902  0.0000E+00  0.0000E+00  0.1450E+00  0.1440E+00
     -6.861  0.0000E+00  0.0000E+00  0.1490E+00  0.1480E+00
     -6.820  0.0000E+00  0.2413E-01  0.1530E+00  0.1520E+00
     -6.778  0.0000E+00  0.2413E-01  0.1570E+00  0.1570E+00
     -6.737  0.0000E+00  0.0000E+00  0.1620E+00  0.1590E+00
     -6.695  0.0000E+00  0.2413E-01  0.1670E+00  0.1640E+00
     -6.654  0.0000E+00  0.0000E+00  0.1720E+00  0.1710E+00
     -6.612  0.0000E+00  0.0000E+00  0.1780E+00  0.1750E+00
     -6.571  0.2413E-01  0.0000E+00  0.1840E+00  0.1820E+00
     -6.529  0.0000E+00  0.2300E-01  0.1890E+00  0.1880E+00
     -6.488  0.0000E+00  0.0000E+00  0.1920E+00  0.1920E+00
     -6.447  0.0000E+00  0.0000E+00  0.1980E+00  0.1960E+00
     -6.405  0.0000E+00  0.0000E+00  0.2020E+00  0.2010E+00
     -6.364  0.0000E+00  0.2979E-08  0.2070E+00  0.2050E+00
     -6.322  0.0000E+00  0.0000E+00  0.2120E+00  0.2100E+00
     -6.281  0.0000E+00  0.0000E+00  0.2160E+00  0.2140E+00
     -6.239  0.0000E+00  0.0000E+00  0.2210E+00  0.2190E+00
     -6.198  0.0000E+00  0.0000E+00  0.2230E+00  0.2220E+00
     -6.156  0.0000E+00  0.0000E+00  0.2260E+00  0.2250E+00
     -6.115  0.0000E+00  0.0000E+00  0.2290E+00  0.2280E+00
     -6.074  0.0000E+00  0.0000E+00  0.2310E+00  0.2300E+00
     -6.032  0.0000E+00  0.0000E+00  0.2330E+00  0.2330E+00
     -5.991  0.0000E+00  0.0000E+00  0.2340E+00  0.2340E+00
     -5.949  0.0000E+00  0.0000E+00  0.2360E+00  0.2360E+00
     -5.908  0.0000E+00  0.0000E+00  0.2370E+00  0.2370E+00
     -5.866  0.0000E+00  0.0000E+00  0.2370E+00  0.2370E+00
     -5.825  0.0000E+00  0.0000E+00  0.2380E+00  0.2370E+00
     -5.783  0.0000E+00  0.0000E+00  0.2380E+00  0.2380E+00
     -5.742  0.0000E+00  0.0000E+00  0.2380E+00  0.2380E+00
     -5.701  0.0000E+00  0.0000E+00  0.2380E+00  0.2380E+00
     -5.659  0.0000E+00  0.0000E+00  0.2390E+00  0.2390E+00
     -5.618  0.0000E+00  0.0000E+00  0.2390E+00  0.2390E+00
     -5.576  0.0000E+00  0.0000E+00  0.2390E+00  0.2390E+00
     -5.535  0.0000E+00  0.0000E+00  0.2390E+00  0.2390E+00
     -5.493  0.0000E+00  0.0000E+00  0.2390E+00  0.2390E+00
     -5.452  0.0000E+00  0.0000E+00  0.2390E+00  0.2390E+00
     -5.410  0.0000E+00  0.0000E+00  0.2390E+00  0.2390E+00
     -5.369  0.0000E+00  0.0000E+00  0.2390E+00  0.2390E+00
     -5.328  0.0000E+00  0.0000E+00  0.2390E+00  0.2390E+00
     -5.286  0.0000E+00  0.0000E+00  0.2390E+00  0.2390E+00
     -5.245  0.0000E+00  0.0000E+00  0.2390E+00  0.2390E+00
     -5.203  0.0000E+00  0.0000E+00  0.2390E+00  0.2390E+00
     -5.162  0.0000E+00  0.0000E+00  0.2390E+00  0.2390E+00
     -5.120  0.0000E+00  0.0000E+00  0.2400E+00  0.2400E+00
     -5.079  0.0000E+00  0.0000E+00  0.2410E+00  0.2400E+00
     -5.037  0.0000E+00  0.0000E+00  0.2410E+00  0.2410E+00
     -4.996  0.0000E+00  0.0000E+00  0.2420E+00  0.2410E+00
     -4.955  0.0000E+00  0.0000E+00  0.2420E+00  0.2420E+00
     -4.913  0.0000E+00  0.0000E+00  0.2420E+00  0.2420E+00
     -4.872  0.0000E+00  0.0000E+00  0.2420E+00  0.2420E+00
     -4.830  0.0000E+00  0.0000E+00  0.2430E+00  0.2420E+00
     -4.789  0.0000E+00  0.0000E+00  0.2430E+00  0.2430E+00
     -4.747  0.0000E+00  0.0000E+00  0.2430E+00  0.2430E+00
     -4.706  0.0000E+00  0.0000E+00  0.2430E+00  0.2430E+00
     -4.665  0.0000E+00  0.0000E+00  0.2440E+00  0.2430E+00
     -4.623  0.0000E+00  0.0000E+00  0.2450E+00  0.2440E+00
     -4.582  0.0000E+00  0.0000E+00  0.2450E+00  0.2450E+00
     -4.540  0.0000E+00  0.0000E+00  0.2450E+00  0.2450E+00
     -4.499  0.0000E+00  0.0000E+00  0.2460E+00  0.2450E+00
     -4.457  0.0000E+00  0.0000E+00  0.2470E+00  0.2460E+00
     -4.416  0.0000E+00  0.0000E+00  0.2470E+00  0.2470E+00
     -4.374  0.0000E+00  0.0000E+00  0.2470E+00  0.2470E+00
     -4.333  0.0000E+00  0.0000E+00  0.2470E+00  0.2470E+00
     -4.292  0.0000E+00  0.0000E+00  0.2470E+00  0.2470E+00
     -4.250  0.0000E+00  0.0000E+00  0.2470E+00  0.2470E+00
     -4.209  0.0000E+00  0.0000E+00  0.2470E+00  0.2470E+00
     -4.167  0.0000E+00  0.0000E+00  0.2470E+00  0.2470E+00
     -4.126  0.0000E+00  0.0000E+00  0.2470E+00  0.2470E+00
     -4.084  0.0000E+00  0.0000E+00  0.2470E+00  0.2470E+00
     -4.043  0.0000E+00  0.0000E+00  0.2470E+00  0.2470E+00
     -4.001  0.0000E+00  0.0000E+00  0.2470E+00  0.2470E+00
     -3.960  0.0000E+00  0.0000E+00  0.2470E+00  0.2470E+00
     -3.919  0.0000E+00  0.0000E+00  0.2480E+00  0.2470E+00
     -3.877  0.0000E+00  0.0000E+00  0.2480E+00  0.2480E+00
     -3.836  0.0000E+00  0.0000E+00  0.2480E+00  0.2480E+00
     -3.794  0.0000E+00  0.0000E+00  0.2480E+00  0.2480E+00
     -3.753  0.0000E+00  0.0000E+00  0.2480E+00  0.2480E+00
     -3.711  0.0000E+00  0.0000E+00  0.2490E+00  0.2480E+00
     -3.670  0.0000E+00  0.0000E+00  0.2490E+00  0.2490E+00
     -3.628  0.0000E+00  0.0000E+00  0.2490E+00  0.2490E+00
     -3.587  0.0000E+00  0.0000E+00  0.2500E+00  0.2490E+00
     -3.546  0.0000E+00  0.0000E+00  0.2500E+00  0.2500E+00
     -3.504  0.0000E+00  0.0000E+00  0.2500E+00  0.2500E+00
     -3.463  0.0000E+00  0.0000E+00  0.2510E+00  0.2510E+00
     -3.421  0.0000E+00  0.0000E+00  0.2520E+00  0.2510E+00
     -3.380  0.0000E+00  0.0000E+00  0.2520E+00  0.2520E+00
     -3.338  0.0000E+00  0.0000E+00  0.2520E+00  0.2520E+00
     -3.297  0.0000E+00  0.0000E+00  0.2520E+00  0.2520E+00
     -3.255  0.0000E+00  0.0000E+00  0.2520E+00  0.2520E+00
     -3.214  0.0000E+00  0.0000E+00  0.2520E+00  0.2520E+00
     -3.173  0.0000E+00  0.0000E+00  0.2530E+00  0.2520E+00
     -3.131  0.0000E+00  0.0000E+00  0.2540E+00  0.2520E+00
     -3.090  0.0000E+00  0.0000E+00  0.2550E+00  0.2530E+00
     -3.048  0.0000E+00  0.0000E+00  0.2550E+00  0.2550E+00
     -3.007  0.0000E+00  0.0000E+00  0.2550E+00  0.2550E+00
     -2.965  0.0000E+00  0.0000E+00  0.2560E+00  0.2550E+00
     -2.924  0.0000E+00  0.0000E+00  0.2560E+00  0.2560E+00
     -2.882  0.0000E+00  0.0000E+00  0.2560E+00  0.2560E+00
     -2.841  0.0000E+00  0.0000E+00  0.2560E+00  0.2560E+00
     -2.800  0.2413E-01  0.0000E+00  0.2570E+00  0.2560E+00
     -2.758  0.0000E+00  0.0000E+00  0.2570E+00  0.2560E+00
     -2.717  0.0000E+00  0.0000E+00  0.2580E+00  0.2570E+00
     -2.675  0.0000E+00  0.0000E+00  0.2580E+00  0.2580E+00
     -2.634  0.0000E+00  0.0000E+00  0.2590E+00  0.2580E+00
     -2.592  0.0000E+00  0.0000E+00  0.2590E+00  0.2590E+00
     -2.551  0.0000E+00  0.0000E+00  0.2590E+00  0.2590E+00
     -2.509  0.0000E+00  0.0000E+00  0.2590E+00  0.2590E+00
     -2.468  0.1806E-01  0.0000E+00  0.2597E+00  0.2590E+00
     -2.427  0.0000E+00  0.0000E+00  0.2600E+00  0.2600E+00
     -2.385  0.0000E+00  0.0000E+00  0.2600E+00  0.2600E+00
     -2.344  0.0000E+00  0.0000E+00  0.2600E+00  0.2600E+00
     -2.302  0.0000E+00  0.0000E+00  0.2610E+00  0.2600E+00
     -2.261  0.0000E+00  0.0000E+00  0.2610E+00  0.2600E+00
     -2.219  0.0000E+00  0.0000E+00  0.2610E+00  0.2610E+00
     -2.178  0.0000E+00  0.0000E+00  0.2620E+00  0.2610E+00
     -2.136  0.0000E+00  0.0000E+00  0.2620E+00  0.2620E+00
     -2.095  0.0000E+00  0.0000E+00  0.2620E+00  0.2620E+00
     -2.054  0.0000E+00  0.0000E+00  0.2640E+00  0.2620E+00
     -2.012  0.0000E+00  0.0000E+00  0.2640E+00  0.2640E+00
     -1.971  0.6251E-08  0.0000E+00  0.2640E+00  0.2640E+00
     -1.929  0.0000E+00  0.0000E+00  0.2650E+00  0.2640E+00
     -1.888  0.0000E+00  0.0000E+00  0.2650E+00  0.2650E+00
     -1.846  0.0000E+00  0.0000E+00  0.2650E+00  0.2650E+00
     -1.805  0.0000E+00  0.0000E+00  0.2650E+00  0.2650E+00
     -1.764  0.0000E+00  0.0000E+00  0.2650E+00  0.2650E+00
     -1.722  0.0000E+00  0.0000E+00  0.2660E+00  0.2650E+00
     -1.681  0.0000E+00  0.0000E+00  0.2660E+00  0.2660E+00
     -1.639  0.0000E+00  0.0000E+00  0.2680E+00  0.2660E+00
     -1.598  0.0000E+00  0.0000E+00  0.2690E+00  0.2680E+00
     -1.556  0.0000E+00  0.0000E+00  0.2700E+00  0.2690E+00
     -1.515  0.0000E+00  0.0000E+00  0.2700E+00  0.2690E+00
     -1.473  0.0000E+00  0.0000E+00  0.2700E+00  0.2700E+00
     -1.432  0.0000E+00  0.0000E+00  0.2700E+00  0.2700E+00
     -1.391  0.0000E+00  0.0000E+00  0.2700E+00  0.2700E+00
     -1.349  0.0000E+00  0.0000E+00  0.2710E+00  0.2700E+00
     -1.308  0.0000E+00  0.0000E+00  0.2720E+00  0.2710E+00
     -1.266  0.0000E+00  0.0000E+00  0.2720E+00  0.2720E+00
     -1.225  0.0000E+00  0.0000E+00  0.2730E+00  0.2720E+00
     -1.183  0.0000E+00  0.0000E+00  0.2730E+00  0.2720E+00
     -1.142  0.0000E+00  0.0000E+00  0.2740E+00  0.2730E+00
     -1.100  0.0000E+00  0.0000E+00  0.2750E+00  0.2740E+00
     -1.059  0.0000E+00  0.0000E+00  0.2750E+00  0.2750E+00
     -1.018  0.0000E+00  0.0000E+00  0.2750E+00  0.2750E+00
     -0.976  0.0000E+00  0.0000E+00  0.2760E+00  0.2750E+00
     -0.935  0.0000E+00  0.0000E+00  0.2770E+00  0.2760E+00
     -0.893  0.0000E+00  0.0000E+00  0.2780E+00  0.2770E+00
     -0.852  0.0000E+00  0.0000E+00  0.2780E+00  0.2780E+00
     -0.810  0.0000E+00  0.0000E+00  0.2780E+00  0.2780E+00
     -0.769  0.0000E+00  0.0000E+00  0.2790E+00  0.2780E+00
     -0.727  0.0000E+00  0.0000E+00  0.2790E+00  0.2780E+00
     -0.686  0.0000E+00  0.0000E+00  0.2790E+00  0.2790E+00
     -0.645  0.0000E+00  0.0000E+00  0.2790E+00  0.2790E+00
     -0.603  0.0000E+00  0.0000E+00  0.2800E+00  0.2800E+00
     -0.562  0.0000E+00  0.0000E+00  0.2810E+00  0.2800E+00
     -0.520  0.0000E+00  0.0000E+00  0.2810E+00  0.2810E+00
     -0.479  0.0000E+00  0.0000E+00  0.2810E+00  0.2810E+00
     -0.437  0.0000E+00  0.0000E+00  0.2810E+00  0.2810E+00
     -0.396  0.0000E+00  0.0000E+00  0.2820E+00  0.2810E+00
     -0.354  0.0000E+00  0.0000E+00  0.2820E+00  0.2820E+00
     -0.313  0.0000E+00  0.0000E+00  0.2830E+00  0.2820E+00
     -0.272  0.0000E+00  0.2413E-01  0.2830E+00  0.2830E+00
     -0.230  0.0000E+00  0.0000E+00  0.2840E+00  0.2830E+00
     -0.189  0.0000E+00  0.0000E+00  0.2840E+00  0.2830E+00
     -0.147  0.0000E+00  0.0000E+00  0.2840E+00  0.2840E+00
     -0.106  0.0000E+00  0.0000E+00  0.2850E+00  0.2840E+00
     -0.064  0.0000E+00  0.0000E+00  0.2850E+00  0.2840E+00
     -0.023  0.0000E+00  0.0000E+00  0.2860E+00  0.2850E+00
      0.019  0.0000E+00  0.0000E+00  0.2860E+00  0.2850E+00
      0.060  0.0000E+00  0.0000E+00  0.2860E+00  0.2860E+00
      0.101  0.0000E+00  0.0000E+00  0.2870E+00  0.2860E+00
      0.143  0.0000E+00  0.0000E+00  0.2880E+00  0.2870E+00
      0.184  0.0000E+00  0.0000E+00  0.2880E+00  0.2880E+00
      0.226  0.0000E+00  0.0000E+00  0.2890E+00  0.2880E+00
      0.267  0.0000E+00  0.0000E+00  0.2890E+00  0.2890E+00
      0.309  0.0000E+00  0.0000E+00  0.2910E+00  0.2890E+00
      0.350  0.0000E+00  0.2413E-01  0.2910E+00  0.2910E+00
      0.392  0.0000E+00  0.0000E+00  0.2920E+00  0.2910E+00
      0.433  0.0000E+00  0.0000E+00  0.2930E+00  0.2920E+00
      0.474  0.0000E+00  0.0000E+00  0.2930E+00  0.2920E+00
      0.516  0.0000E+00  0.0000E+00  0.2930E+00  0.2930E+00
      0.557  0.0000E+00  0.0000E+00  0.2950E+00  0.2930E+00
      0.599  0.0000E+00  0.0000E+00  0.2950E+00  0.2940E+00
      0.640  0.0000E+00  0.0000E+00  0.2960E+00  0.2950E+00
      0.682  0.0000E+00  0.0000E+00  0.2970E+00  0.2960E+00
      0.723  0.0000E+00  0.0000E+00  0.2970E+00  0.2960E+00
      0.765  0.0000E+00  0.0000E+00  0.2990E+00  0.2970E+00
      0.806  0.0000E+00  0.0000E+00  0.2990E+00  0.2980E+00
      0.847  0.0000E+00  0.2413E-01  0.3010E+00  0.3000E+00
      0.889  0.0000E+00  0.0000E+00  0.3010E+00  0.3010E+00
      0.930  0.0000E+00  0.0000E+00  0.3030E+00  0.3010E+00
      0.972  0.0000E+00  0.0000E+00  0.3040E+00  0.3030E+00
      1.013  0.0000E+00  0.0000E+00  0.3050E+00  0.3040E+00
      1.055  0.0000E+00  0.0000E+00  0.3060E+00  0.3050E+00
      1.096  0.0000E+00  0.0000E+00  0.3070E+00  0.3060E+00
      1.137  0.0000E+00  0.0000E+00  0.3080E+00  0.3080E+00
      1.179  0.0000E+00  0.0000E+00  0.3100E+00  0.3090E+00
      1.220  0.0000E+00  0.0000E+00  0.3120E+00  0.3110E+00
      1.262  0.0000E+00  0.0000E+00  0.3140E+00  0.3120E+00
      1.303  0.0000E+00  0.0000E+00  0.3160E+00  0.3140E+00
      1.345  0.0000E+00  0.0000E+00  0.3170E+00  0.3160E+00
      1.386  0.0000E+00  0.0000E+00  0.3180E+00  0.3180E+00
      1.428  0.0000E+00  0.0000E+00  0.3200E+00  0.3190E+00
      1.469  0.0000E+00  0.0000E+00  0.3210E+00  0.3210E+00
      1.510  0.0000E+00  0.0000E+00  0.3240E+00  0.3220E+00
      1.552  0.0000E+00  0.0000E+00  0.3260E+00  0.3250E+00
      1.593  0.0000E+00  0.0000E+00  0.3280E+00  0.3270E+00
      1.635  0.0000E+00  0.0000E+00  0.3280E+00  0.3280E+00
      1.676  0.0000E+00  0.0000E+00  0.3280E+00  0.3280E+00
      1.718  0.0000E+00  0.0000E+00  0.3280E+00  0.3280E+00
      1.759  0.0000E+00  0.0000E+00  0.3280E+00  0.3280E+00
      1.801  0.0000E+00  0.0000E+00  0.3280E+00  0.3280E+00
      1.842  0.0000E+00  0.0000E+00  0.3280E+00  0.3280E+00
      1.883  0.0000E+00  0.0000E+00  0.3280E+00  0.3280E+00
      1.925  0.0000E+00  0.0000E+00  0.3280E+00  0.3280E+00
      1.966  0.0000E+00  0.0000E+00  0.3280E+00  0.3280E+00
      2.008  0.0000E+00  0.0000E+00  0.3280E+00  0.3280E+00
      2.049  0.0000E+00  0.0000E+00  0.3280E+00  0.3280E+00
      2.091  0.0000E+00  0.0000E+00  0.3280E+00  0.3280E+00
      2.132  0.0000E+00  0.0000E+00  0.3280E+00  0.3280E+00
      2.174  0.0000E+00  0.0000E+00  0.3280E+00  0.3280E+00
