 vasp.5.3.5 31Mar14 (build Feb 01 2018 12:10:03) gamma-only                     
  
 executed on             LinuxIFC date 2019.03.21  20:12:20
 running on   32 total cores
 distrk:  each k-point on   32 cores,    1 groups
 distr:  one band on NCORES_PER_BAND=   8 cores,    4 groups


--------------------------------------------------------------------------------------------------------


 INCAR:
 POTCAR:    PAW_PBE Ag 02Apr2005                  
 POTCAR:    PAW_PBE Ag 02Apr2005                  
   VRHFIN =Ag : s1 d10                                                          
   LEXCH  = PE                                                                  
   EATOM  =  1037.2675 eV,   76.2370 Ry                                         
                                                                                
   TITEL  = PAW_PBE Ag 02Apr2005                                                
   LULTRA =        F    use ultrasoft PP ?                                      
   IUNSCR =        1    unscreen: 0-lin 1-nonlin 2-no                           
   RPACOR =    2.000    partial core radius                                     
   POMASS =  107.868; ZVAL   =   11.000    mass and valenz                      
   RCORE  =    2.500    outmost cutoff radius                                   
   RWIGS  =    2.840; RWIGS  =    1.503    wigner-seitz radius (au A)           
   ENMAX  =  249.844; ENMIN  =  187.383 eV                                      
   ICORE  =        3    local potential                                         
   LCOR   =        T    correct aug charges                                     
   LPAW   =        T    paw PP                                                  
   EAUG   =  412.496                                                            
   DEXC   =    0.000                                                            
   RMAX   =    2.560    core radius for proj-oper                               
   RAUG   =    1.300    factor for augmentation sphere                          
   RDEP   =    2.576    radius for radial grids                                 
   RDEPT  =    2.072    core radius for aug-charge                              
                                                                                
   Atomic configuration                                                         
   12 entries                                                                   
     n  l   j            E        occ.                                          
     1  0  0.50    -25324.9161   2.0000                                         
     2  0  0.50     -3728.5341   2.0000                                         
     2  1  1.50     -3344.0404   6.0000                                         
     3  0  0.50      -683.5581   2.0000                                         
     3  1  1.50      -557.3225   6.0000                                         
     3  2  2.50      -358.3853  10.0000                                         
     4  0  0.50       -95.0341   2.0000                                         
     4  1  1.50       -58.5511   6.0000                                         
     4  2  2.50        -7.4440  10.0000                                         
     5  0  0.50        -4.4045   1.0000                                         
     5  1  0.50        -1.3606   0.0000                                         
     4  3  2.50        -1.3606   0.0000                                         
   Description                                                                  
     l       E           TYP  RCUT    TYP  RCUT                                 
     2     -7.4439781     23  2.400                                             
     2     -8.8045607     23  2.400                                             
     0     -4.4044681     23  2.400                                             
     0      1.9520038     23  2.400                                             
     1     -1.3605826     23  2.500                                             
     1     27.2116520     23  2.500                                             
     3     -4.0817478     23  2.400                                             
  local pseudopotential read in
  partial core-charges read in
  partial kinetic energy density read in
  atomic valenz-charges read in
  non local Contribution for L=           2  read in
    real space projection operators read in
  non local Contribution for L=           2  read in
    real space projection operators read in
  non local Contribution for L=           0  read in
    real space projection operators read in
  non local Contribution for L=           0  read in
    real space projection operators read in
  non local Contribution for L=           1  read in
    real space projection operators read in
  non local Contribution for L=           1  read in
    real space projection operators read in
    PAW grid and wavefunctions read in
 
   number of l-projection  operators is LMAX  =           6
   number of lm-projection operators is LMMAX =          18
 

 ----------------------------------------------------------------------------- 
|                                                                             |
|  ADVICE TO THIS USER RUNNING 'VASP/VAMP'   (HEAR YOUR MASTER'S VOICE ...):  |
|                                                                             |
|      You have a (more or less) 'large supercell' and for larger cells       |
|      it might be more efficient to use real space projection opertators     |
|      So try LREAL= Auto  in the INCAR   file.                               |
|      Mind: At the moment your POTCAR file does not contain real space       |
|       projectors, and has to be modified,  BUT if you                       |
|      want to do an extremely  accurate calculation you might also keep the  |
|      reciprocal projection scheme          (i.e. LREAL=.FALSE.)             |
|                                                                             |
 ----------------------------------------------------------------------------- 

  PAW_PBE Ag 02Apr2005                  :
 energy of atom  1       EATOM=-1037.2675
 kinetic energy error for atom=    0.0689 (will be added to EATOM!!)
 
 
 POSCAR: Pt17, -77.41350386 <s> Ag </s>          
  positions in direct lattice
  No initial velocities read in
 exchange correlation table for  LEXCH =        8
   RHO(1)=    0.500       N(1)  =     2000
   RHO(2)=  100.500       N(2)  =     4000
 


--------------------------------------------------------------------------------------------------------


 ion  position               nearest neighbor table
   1  0.434  0.331  0.470-   3 2.63   8 2.66   4 2.69
   2  0.678  0.424  0.428-   3 2.64   6 2.66   7 2.71
   3  0.554  0.383  0.453-   1 2.63   2 2.64   5 2.66   4 2.71   7 2.85
   4  0.444  0.461  0.437-  14 2.69   1 2.69   3 2.71  11 2.72   7 3.00   8 3.04  15 3.09   5 3.36

   5  0.547  0.447  0.570-   8 2.64   6 2.66   3 2.66  12 2.71  13 2.81   7 3.31   4 3.36  15 3.60

   6  0.665  0.501  0.536-   2 2.66   5 2.66  13 2.70   7 2.79  10 2.92
   7  0.582  0.520  0.425-   9 2.71   2 2.71  11 2.78   6 2.79  10 2.84   3 2.85   4 3.00   5 3.31

   8  0.421  0.408  0.578-   5 2.64   1 2.66  15 2.71  12 2.72   4 3.04
   9  0.566  0.651  0.392-  11 2.66  10 2.67   7 2.71
  10  0.588  0.625  0.521-   9 2.67  17 2.70  13 2.71  11 2.72  16 2.82   7 2.84   6 2.92
  11  0.469  0.593  0.463-   9 2.66  14 2.68  15 2.69  10 2.72   4 2.72   7 2.78  16 3.07
  12  0.468  0.502  0.666-  15 2.69   5 2.71   8 2.72  16 2.78  13 2.88
  13  0.598  0.558  0.639-   6 2.70  17 2.70  10 2.71   5 2.81  16 2.82  12 2.88
  14  0.343  0.551  0.438-  15 2.65  11 2.68   4 2.69
  15  0.393  0.540  0.560-  14 2.65  16 2.69  11 2.69  12 2.69   8 2.71   4 3.09   5 3.60
  16  0.479  0.630  0.612-  17 2.68  15 2.69  12 2.78  13 2.82  10 2.82  11 3.07
  17  0.594  0.694  0.638-  16 2.68  10 2.70  13 2.70
 
  LATTYP: Found a simple cubic cell.
 ALAT       =    19.9328324758
  
  Lattice vectors:
  
 A1 = (  19.9328324758,   0.0000000000,   0.0000000000)
 A2 = (   0.0000000000,  19.9328324758,   0.0000000000)
 A3 = (   0.0000000000,   0.0000000000,  19.9328324758)


Analysis of symmetry for initial positions (statically):
=====================================================================
 Subroutine PRICEL returns:
 Original cell was already a primitive cell.
 

 Routine SETGRP: Setting up the symmetry group for a 
 simple cubic supercell.


 Subroutine GETGRP returns: Found  1 space group operations
 (whereof  1 operations were pure point group operations)
 out of a pool of 48 trial point group operations.


The static configuration has the point symmetry C_1 .


Analysis of symmetry for dynamics (positions and initial velocities):
=====================================================================
 Subroutine PRICEL returns:
 Original cell was already a primitive cell.
 

 Routine SETGRP: Setting up the symmetry group for a 
 simple cubic supercell.


 Subroutine GETGRP returns: Found  1 space group operations
 (whereof  1 operations were pure point group operations)
 out of a pool of 48 trial point group operations.


The dynamic configuration has the point symmetry C_1 .


Analysis of magnetic symmetry:
=====================================================================
 Subroutine PRICEL returns:
 Original cell was already a primitive cell.
 

 Subroutine MAGSYM returns: Found  1 space group operations
 (whereof  1 operations were pure point group operations)
 out of a pool of  1 trial space group operations
 (whereof  1 operations were pure point group operations)
 and found also     1 'primitive' translations


The magnetic configuration has the point symmetry C_1 .
 
 
 KPOINTS: Gamma-point only                        
  k-points in reciprocal lattice
Space group operators:
 irot       det(A)        alpha          n_x          n_y          n_z        tau_x        tau_y        tau_z
    1     1.000000     0.000000     1.000000     0.000000     0.000000     0.000000     0.000000     0.000000


--------------------------------------------------------------------------------------------------------




 Dimension of arrays:
   k-points           NKPTS =      1   k-points in BZ     NKDIM =      1   number of bands    NBANDS=    124
   number of dos      NEDOS =    301   number of ions     NIONS =     17
   non local maximal  LDIM  =      6   non local SUM 2l+1 LMDIM =     18
   total plane-waves  NPLWV = 512000
   max r-space proj   IRMAX =      1   max aug-charges    IRDMAX=   3378
   dimension x,y,z NGX =    80 NGY =   80 NGZ =   80
   dimension x,y,z NGXF=   160 NGYF=  160 NGZF=  160
   support grid    NGXF=   160 NGYF=  160 NGZF=  160
   ions per type =              17
 NGX,Y,Z   is equivalent  to a cutoff of   6.67,  6.67,  6.67 a.u.
 NGXF,Y,Z  is equivalent  to a cutoff of  13.34, 13.34, 13.34 a.u.


 I would recommend the setting:
   dimension x,y,z NGX =    77 NGY =   77 NGZ =   77
 SYSTEM =  unknown system                          
 POSCAR =  Pt17, -77.41350386 <s> Ag </s>          

 Startparameter for this run:
   NWRITE =      2    write-flag & timer
   PREC   = normal    normal or accurate (medium, high low for compatibility)
   ISTART =      0    job   : 0-new  1-cont  2-samecut
   ICHARG =      2    charge: 1-file 2-atom 10-const
   ISPIN  =      2    spin polarized calculation?
   LNONCOLLINEAR =      F non collinear calculations
   LSORBIT =      F    spin-orbit coupling
   INIWAV =      1    electr: 0-lowe 1-rand  2-diag
   LASPH  =      F    aspherical Exc in radial PAW
   METAGGA=      F    non-selfconsistent MetaGGA calc.

 Electronic Relaxation 1
   ENCUT  =  249.8 eV  18.36 Ry    4.29 a.u.  25.69 25.69 25.69*2*pi/ulx,y,z
   ENINI  =  249.8     initial cutoff
   ENAUG  =  412.5 eV  augmentation charge cutoff
   NELM   =     60;   NELMIN=  2; NELMDL= -5     # of ELM steps 
   EDIFF  = 0.1E-03   stopping-criterion for ELM
   LREAL  =      F    real-space projection
   NLSPLINE    = F    spline interpolate recip. space projectors
   LCOMPAT=      F    compatible to vasp.4.4
   GGA_COMPAT  = T    GGA compatible to vasp.4.4-vasp.4.6
   LMAXPAW     = -100 max onsite density
   LMAXMIX     =    2 max onsite mixed and CHGCAR
   VOSKOWN=      0    Vosko Wilk Nusair interpolation
   ROPT   =    0.00000
 Ionic relaxation
   EDIFFG = 0.1E-02   stopping-criterion for IOM
   NSW    =   1000    number of steps for IOM
   NBLOCK =      1;   KBLOCK =   1000    inner block; outer block 
   IBRION =      2    ionic relax: 0-MD 1-quasi-New 2-CG
   NFREE  =      1    steps in history (QN), initial steepest desc. (CG)
   ISIF   =      2    stress and relaxation
   IWAVPR =     11    prediction:  0-non 1-charg 2-wave 3-comb
   ISYM   =      2    0-nonsym 1-usesym 2-fastsym
   LCORR  =      T    Harris-Foulkes like correction to forces

   POTIM  = 0.1000    time-step for ionic-motion
   TEIN   =    0.0    initial temperature
   TEBEG  =    0.0;   TEEND  =   0.0 temperature during run
   SMASS  =  -3.00    Nose mass-parameter (am)
   estimated Nose-frequenzy (Omega)   =  0.10E-29 period in steps =****** mass=  -0.908E-26a.u.
   SCALEE = 1.0000    scale energy and forces
   NPACO  =    256;   APACO  = 16.0  distance and # of slots for P.C.
   PSTRESS=    0.0 pullay stress

  Mass of Ions in am
   POMASS = 107.87
  Ionic Valenz
   ZVAL   =  11.00
  Atomic Wigner-Seitz radii
   RWIGS  =  -1.00
  virtual crystal weights 
   VCA    =   1.00
   NELECT =     187.0000    total number of electrons
   NUPDOWN=      -1.0000    fix difference up-down

 DOS related values:
   EMIN   =  10.00;   EMAX   =-10.00  energy-range for DOS
   EFERMI =   0.00
   ISMEAR =     0;   SIGMA  =   0.00  broadening in eV -4-tet -1-fermi 0-gaus

 Electronic relaxation 2 (details)
   IALGO  =     38    algorithm
   LDIAG  =      T    sub-space diagonalisation (order eigenvalues)
   LSUBROT=      F    optimize rotation matrix (better conditioning)
   TURBO    =      0    0=normal 1=particle mesh
   IRESTART =      0    0=no restart 2=restart with 2 vectors
   NREBOOT  =      0    no. of reboots
   NMIN     =      0    reboot dimension
   EREF     =   0.00    reference energy to select bands
   IMIX   =      4    mixing-type and parameters
     AMIX     =   0.40;   BMIX     =  1.00
     AMIX_MAG =   1.60;   BMIX_MAG =  1.00
     AMIN     =   0.10
     WC   =   100.;   INIMIX=   1;  MIXPRE=   1;  MAXMIX= -45

 Intra band minimization:
   WEIMIN = 0.0010     energy-eigenvalue tresh-hold
   EBREAK =  0.20E-06  absolut break condition
   DEPER  =   0.30     relativ break condition  

   TIME   =   0.40     timestep for ELM

  volume/ion in A,a.u.               =     465.86      3143.80
  Fermi-wavevector in a.u.,A,eV,Ry     =   0.469663  0.887534  3.001218  0.220583
  Thomas-Fermi vector in A             =   1.461326
 
 Write flags
   LWAVE  =      F    write WAVECAR
   LCHARG =      F    write CHGCAR
   LVTOT  =      F    write LOCPOT, total local potential
   LVHAR  =      F    write LOCPOT, Hartree potential only
   LELF   =      F    write electronic localiz. function (ELF)
   LORBIT =      0    0 simple, 1 ext, 2 COOP (PROOUT)


 Dipole corrections
   LMONO  =      F    monopole corrections only (constant potential shift)
   LDIPOL =      F    correct potential (dipole corrections)
   IDIPOL =      0    1-x, 2-y, 3-z, 4-all directions 
   EPSILON=  1.0000000 bulk dielectric constant

 Exchange correlation treatment:
   GGA     =    PE    GGA type
   LEXCH   =     8    internal setting for exchange type
   VOSKOWN=      0    Vosko Wilk Nusair interpolation
   LHFCALC =     F    Hartree Fock is set to
   LHFONE  =     F    Hartree Fock one center treatment
   AEXX    =    0.0000 exact exchange contribution

 Linear response parameters
   LEPSILON=     F    determine dielectric tensor
   LRPA    =     F    only Hartree local field effects (RPA)
   LNABLA  =     F    use nabla operator in PAW spheres
   LVEL    =     F    velocity operator in full k-point grid
   LINTERFAST=   F  fast interpolation
   KINTER  =     0    interpolate to denser k-point grid
   CSHIFT  =0.1000    complex shift for real part using Kramers Kronig
   OMEGAMAX=  -1.0    maximum frequency
   DEG_THRESHOLD= 0.2000000E-02 threshold for treating states as degnerate
   RTIME   =    0.100 relaxation time in fs

 Orbital magnetization related:
   ORBITALMAG=     F  switch on orbital magnetization
   LCHIMAG   =     F  perturbation theory with respect to B field
   DQ        =  0.001000  dq finite difference perturbation B field



--------------------------------------------------------------------------------------------------------


 conjugate gradient relaxation of ions
 charge density and potential will be updated during run
 spin polarized calculation
 Variant of blocked Davidson
 Davidson routine will perform the subspace rotation
 perform sub-space diagonalisation
    after iterative eigenvector-optimisation
 modified Broyden-mixing scheme, WC =      100.0
 initial mixing is a Kerker type mixing with AMIX =  0.4000 and BMIX =      1.0000
 Hartree-type preconditioning will be used
 using additional bands           30
 reciprocal scheme for non local part
 use partial core corrections
 calculate Harris-corrections to forces 
   (improved forces if not selfconsistent)
 use gradient corrections 
 use of overlap-Matrix (Vanderbilt PP)
 Gauss-broadening in eV      SIGMA  =   0.00


--------------------------------------------------------------------------------------------------------


  energy-cutoff  :      249.84
  volume of cell :     7919.67
      direct lattice vectors                 reciprocal lattice vectors
    19.932832476  0.000000000  0.000000000     0.050168485  0.000000000  0.000000000
     0.000000000 19.932832476  0.000000000     0.000000000  0.050168485  0.000000000
     0.000000000  0.000000000 19.932832476     0.000000000  0.000000000  0.050168485

  length of vectors
    19.932832476 19.932832476 19.932832476     0.050168485  0.050168485  0.050168485


 
 k-points in units of 2pi/SCALE and weight: Gamma-point only                        
   0.00000000  0.00000000  0.00000000       1.000
 
 k-points in reciprocal lattice and weights: Gamma-point only                        
   0.00000000  0.00000000  0.00000000       1.000
 
 position of ions in fractional coordinates (direct lattice) 
   0.43437135  0.33064621  0.47005588
   0.67789623  0.42407535  0.42783623
   0.55435051  0.38317123  0.45258353
   0.44420911  0.46130522  0.43696030
   0.54730483  0.44713373  0.56954682
   0.66472687  0.50098727  0.53604480
   0.58179197  0.52045877  0.42470661
   0.42120391  0.40807060  0.57786258
   0.56556268  0.65142003  0.39161020
   0.58768103  0.62497528  0.52116990
   0.46887953  0.59301569  0.46253324
   0.46832778  0.50156079  0.66576772
   0.59830178  0.55846340  0.63907254
   0.34344291  0.55080520  0.43767655
   0.39259263  0.53976406  0.56049652
   0.47924989  0.62950692  0.61172247
   0.59435763  0.69406893  0.63750477
 
 position of ions in cartesian coordinates  (Angst):
   8.65825125  6.59071546  9.36954502
  13.51239207  8.45302289  8.52798789
  11.04977584  7.63768785  9.02127168
   8.85434577  9.19511958  8.70985651
  10.90933550  8.91264174 11.35268141
  13.24988933  9.98609540 10.68489123
  11.59676193 10.37421739  8.46560577
   8.39578701  8.13400292 11.51843801
  11.27326612 12.98464626  7.80590046
  11.71414760 12.45752758 10.38839227
   9.34609715 11.82048244  9.21959764
   9.33509925  9.99752727 13.27063634
  11.92584924 11.13175740 12.73852581
   6.84579001 10.97910785  8.72413343
   7.82548321 10.75902660 11.17228325
   9.55280767 12.54785592 12.19336160
  11.84723107 13.83475972 12.70727578
 


--------------------------------------------------------------------------------------------------------


 use parallel FFT for wavefunctions z direction half grid
 k-point  1 :   0.0000 0.0000 0.0000  plane waves:   35508

 maximum and minimum number of plane-waves per node :      4444     4435

 maximum number of plane-waves:     35508
 maximum index in each direction: 
   IXMAX=   25   IYMAX=   25   IZMAX=   25
   IXMIN=  -25   IYMIN=  -25   IZMIN=    0

 WARNING: aliasing errors must be expected set NGX to 102 to avoid them
 WARNING: aliasing errors must be expected set NGY to 102 to avoid them
 WARNING: aliasing errors must be expected set NGZ to 102 to avoid them
 aliasing errors are usually negligible using standard VASP settings
 and one can safely disregard these warnings

 parallel 3D FFT for wavefunctions:
    minimum data exchange during FFTs selected (reduces bandwidth)
 parallel 3D FFT for charge:
    minimum data exchange during FFTs selected (reduces bandwidth)


 total amount of memory used by VASP on root node    56540. kBytes
========================================================================

   base      :      30000. kBytes
   nonl-proj :       1845. kBytes
   fftplans  :       5770. kBytes
   grid      :      14451. kBytes
   one-center:         46. kBytes
   wavefun   :       4428. kBytes
 
     INWAV:  cpu time    0.00: real time    0.00
 Broyden mixing: mesh for mixing (old mesh)
   NGX = 51   NGY = 51   NGZ = 51
  (NGX  =160   NGY  =160   NGZ  =160)
  gives a total of 132651 points

 initial charge density was supplied:
 charge density of overlapping atoms calculated
 number of electron     187.0000000 magnetization      17.0000000
 keeping initial charge density in first step


--------------------------------------------------------------------------------------------------------


 Maximum index for augmentation-charges          257 (set IRDMAX)


--------------------------------------------------------------------------------------------------------


 First call to EWALD:  gamma=   0.089
 Maximum number of real-space cells 3x 3x 3
 Maximum number of reciprocal cells 3x 3x 3

 FEWALD executed in parallel
    FEWALD:  cpu time    0.00: real time    0.00


----------------------------------------- Iteration    1(   1)  ---------------------------------------


    POTLOK:  cpu time    0.23: real time    0.23
    SETDIJ:  cpu time    0.01: real time    0.01
     EDDAV:  cpu time    1.38: real time    1.39
       DOS:  cpu time    0.00: real time    0.00
    --------------------------------------------
      LOOP:  cpu time    1.62: real time    1.65

 eigenvalue-minimisations  :   496
 total energy-change (2. order) : 0.1658369E+04  (-0.3154547E+04)
 number of electron     187.0000000 magnetization      17.0000000
 augmentation part      187.0000000 magnetization      17.0000000

 Free energy of the ion-electron system (eV)
  ---------------------------------------------------
  alpha Z        PSCENC =        31.03880363
  Ewald energy   TEWEN  =     25022.25977787
  -Hartree energ DENC   =    -41897.36896609
  -exchange      EXHF   =         0.00000000
  -V(xc)+E(xc)   XCENC  =      -187.85098990
  PAW double counting   =     17057.32702718   -16273.49835094
  entropy T*S    EENTRO =         0.00000000
  eigenvalues    EBANDS =       274.08455260
  atomic energy  EATOM  =     17632.37671147
  ---------------------------------------------------
  free energy    TOTEN  =      1658.36856581 eV

  energy without entropy =     1658.36856581  energy(sigma->0) =     1658.36856581


--------------------------------------------------------------------------------------------------------




----------------------------------------- Iteration    1(   2)  ---------------------------------------


     EDDAV:  cpu time    2.21: real time    2.21
       DOS:  cpu time    0.00: real time    0.00
    --------------------------------------------
      LOOP:  cpu time    2.22: real time    2.22

 eigenvalue-minimisations  :   896
 total energy-change (2. order) :-0.1196803E+04  (-0.1052805E+04)
 number of electron     187.0000000 magnetization      17.0000000
 augmentation part      187.0000000 magnetization      17.0000000

 Free energy of the ion-electron system (eV)
  ---------------------------------------------------
  alpha Z        PSCENC =        31.03880363
  Ewald energy   TEWEN  =     25022.25977787
  -Hartree energ DENC   =    -41897.36896609
  -exchange      EXHF   =         0.00000000
  -V(xc)+E(xc)   XCENC  =      -187.85098990
  PAW double counting   =     17057.32702718   -16273.49835094
  entropy T*S    EENTRO =         0.00000000
  eigenvalues    EBANDS =      -922.71875140
  atomic energy  EATOM  =     17632.37671147
  ---------------------------------------------------
  free energy    TOTEN  =       461.56526181 eV

  energy without entropy =      461.56526181  energy(sigma->0) =      461.56526181


--------------------------------------------------------------------------------------------------------




----------------------------------------- Iteration    1(   3)  ---------------------------------------


     EDDAV:  cpu time    1.78: real time    1.78
       DOS:  cpu time    0.00: real time    0.00
    --------------------------------------------
      LOOP:  cpu time    1.78: real time    1.79

 eigenvalue-minimisations  :   688
 total energy-change (2. order) :-0.4626187E+03  (-0.4272426E+03)
 number of electron     187.0000000 magnetization      17.0000000
 augmentation part      187.0000000 magnetization      17.0000000

 Free energy of the ion-electron system (eV)
  ---------------------------------------------------
  alpha Z        PSCENC =        31.03880363
  Ewald energy   TEWEN  =     25022.25977787
  -Hartree energ DENC   =    -41897.36896609
  -exchange      EXHF   =         0.00000000
  -V(xc)+E(xc)   XCENC  =      -187.85098990
  PAW double counting   =     17057.32702718   -16273.49835094
  entropy T*S    EENTRO =         0.00000000
  eigenvalues    EBANDS =     -1385.33742379
  atomic energy  EATOM  =     17632.37671147
  ---------------------------------------------------
  free energy    TOTEN  =        -1.05341057 eV

  energy without entropy =       -1.05341057  energy(sigma->0) =       -1.05341057


--------------------------------------------------------------------------------------------------------




----------------------------------------- Iteration    1(   4)  ---------------------------------------


     EDDAV:  cpu time    1.50: real time    1.50
       DOS:  cpu time    0.00: real time    0.00
    --------------------------------------------
      LOOP:  cpu time    1.50: real time    1.50

 eigenvalue-minimisations  :   552
 total energy-change (2. order) :-0.3051331E+02  (-0.3006556E+02)
 number of electron     187.0000000 magnetization      17.0000000
 augmentation part      187.0000000 magnetization      17.0000000

 Free energy of the ion-electron system (eV)
  ---------------------------------------------------
  alpha Z        PSCENC =        31.03880363
  Ewald energy   TEWEN  =     25022.25977787
  -Hartree energ DENC   =    -41897.36896609
  -exchange      EXHF   =         0.00000000
  -V(xc)+E(xc)   XCENC  =      -187.85098990
  PAW double counting   =     17057.32702718   -16273.49835094
  entropy T*S    EENTRO =         0.00000000
  eigenvalues    EBANDS =     -1415.85073832
  atomic energy  EATOM  =     17632.37671147
  ---------------------------------------------------
  free energy    TOTEN  =       -31.56672510 eV

  energy without entropy =      -31.56672510  energy(sigma->0) =      -31.56672510


--------------------------------------------------------------------------------------------------------




----------------------------------------- Iteration    1(   5)  ---------------------------------------


     EDDAV:  cpu time    1.50: real time    1.50
       DOS:  cpu time    0.00: real time    0.00
    CHARGE:  cpu time    0.07: real time    0.07
    MIXING:  cpu time    0.01: real time    0.01
    --------------------------------------------
      LOOP:  cpu time    1.58: real time    1.58

 eigenvalue-minimisations  :   552
 total energy-change (2. order) :-0.4356747E+00  (-0.4351423E+00)
 number of electron     186.9999885 magnetization      14.6862266
 augmentation part       88.0595013 magnetization      14.0803917

 Broyden mixing:
  rms(total) = 0.23747E+01    rms(broyden)= 0.23743E+01
  rms(prec ) = 0.24231E+01
  weight for this iteration     100.00

 Free energy of the ion-electron system (eV)
  ---------------------------------------------------
  alpha Z        PSCENC =        31.03880363
  Ewald energy   TEWEN  =     25022.25977787
  -Hartree energ DENC   =    -41897.36896609
  -exchange      EXHF   =         0.00000000
  -V(xc)+E(xc)   XCENC  =      -187.85098990
  PAW double counting   =     17057.32702718   -16273.49835094
  entropy T*S    EENTRO =         0.00000000
  eigenvalues    EBANDS =     -1416.28641298
  atomic energy  EATOM  =     17632.37671147
  ---------------------------------------------------
  free energy    TOTEN  =       -32.00239977 eV

  energy without entropy =      -32.00239977  energy(sigma->0) =      -32.00239977


--------------------------------------------------------------------------------------------------------




----------------------------------------- Iteration    1(   6)  ---------------------------------------


    POTLOK:  cpu time    0.22: real time    0.22
    SETDIJ:  cpu time    0.01: real time    0.01
     EDDAV:  cpu time    1.38: real time    1.39
       DOS:  cpu time    0.00: real time    0.00
    CHARGE:  cpu time    0.07: real time    0.07
    MIXING:  cpu time    0.00: real time    0.01
    --------------------------------------------
      LOOP:  cpu time    1.69: real time    1.70

 eigenvalue-minimisations  :   496
 total energy-change (2. order) : 0.2403521E+02  (-0.7360866E+01)
 number of electron     186.9999880 magnetization      13.3621779
 augmentation part       89.9357995 magnetization       7.1930911

 Broyden mixing:
  rms(total) = 0.11816E+01    rms(broyden)= 0.11814E+01
  rms(prec ) = 0.12026E+01
  weight for this iteration     100.00

 eigenvalues of (default mixing * dielectric matrix)
  average eigenvalue GAMMA=   0.8559
  0.8559

 Free energy of the ion-electron system (eV)
  ---------------------------------------------------
  alpha Z        PSCENC =        31.03880363
  Ewald energy   TEWEN  =     25022.25977787
  -Hartree energ DENC   =    -41840.16028688
  -exchange      EXHF   =         0.00000000
  -V(xc)+E(xc)   XCENC  =      -175.20425058
  PAW double counting   =     17663.13803243   -16892.17590937
  entropy T*S    EENTRO =         0.00000000
  eigenvalues    EBANDS =     -1449.24006724
  atomic energy  EATOM  =     17632.37671147
  ---------------------------------------------------
  free energy    TOTEN  =        -7.96718868 eV

  energy without entropy =       -7.96718868  energy(sigma->0) =       -7.96718868


--------------------------------------------------------------------------------------------------------




----------------------------------------- Iteration    1(   7)  ---------------------------------------


    POTLOK:  cpu time    0.22: real time    0.22
    SETDIJ:  cpu time    0.01: real time    0.01
     EDDAV:  cpu time    1.42: real time    1.42
       DOS:  cpu time    0.00: real time    0.00
    CHARGE:  cpu time    0.07: real time    0.07
    MIXING:  cpu time    0.01: real time    0.01
    --------------------------------------------
      LOOP:  cpu time    1.73: real time    1.73

 eigenvalue-minimisations  :   512
 total energy-change (2. order) : 0.7059240E+00  (-0.3349274E+00)
 number of electron     186.9999879 magnetization      11.4379080
 augmentation part       89.8308874 magnetization       5.4828082

 Broyden mixing:
  rms(total) = 0.66811E+00    rms(broyden)= 0.66810E+00
  rms(prec ) = 0.67801E+00
  weight for this iteration     100.00

 eigenvalues of (default mixing * dielectric matrix)
  average eigenvalue GAMMA=   1.0037
  0.7615  1.2459

 Free energy of the ion-electron system (eV)
  ---------------------------------------------------
  alpha Z        PSCENC =        31.03880363
  Ewald energy   TEWEN  =     25022.25977787
  -Hartree energ DENC   =    -41877.39735954
  -exchange      EXHF   =         0.00000000
  -V(xc)+E(xc)   XCENC  =      -174.41395139
  PAW double counting   =     18020.26149029   -17257.35910213
  entropy T*S    EENTRO =         0.00000000
  eigenvalues    EBANDS =     -1404.02763488
  atomic energy  EATOM  =     17632.37671147
  ---------------------------------------------------
  free energy    TOTEN  =        -7.26126468 eV

  energy without entropy =       -7.26126468  energy(sigma->0) =       -7.26126468


--------------------------------------------------------------------------------------------------------




----------------------------------------- Iteration    1(   8)  ---------------------------------------


    POTLOK:  cpu time    0.22: real time    0.22
    SETDIJ:  cpu time    0.01: real time    0.01
     EDDAV:  cpu time    1.46: real time    1.47
       DOS:  cpu time    0.00: real time    0.00
    CHARGE:  cpu time    0.07: real time    0.07
    MIXING:  cpu time    0.00: real time    0.01
    --------------------------------------------
      LOOP:  cpu time    1.77: real time    1.78

 eigenvalue-minimisations  :   536
 total energy-change (2. order) :-0.3137534E+01  (-0.1694318E+00)
 number of electron     186.9999881 magnetization      10.1769544
 augmentation part       89.7098312 magnetization       6.3299540

 Broyden mixing:
  rms(total) = 0.43820E+00    rms(broyden)= 0.43809E+00
  rms(prec ) = 0.45545E+00
  weight for this iteration     100.00

 eigenvalues of (default mixing * dielectric matrix)
  average eigenvalue GAMMA=   1.1490
  2.0161  0.8505  0.5805

 Free energy of the ion-electron system (eV)
  ---------------------------------------------------
  alpha Z        PSCENC =        31.03880363
  Ewald energy   TEWEN  =     25022.25977787
  -Hartree energ DENC   =    -41911.68087611
  -exchange      EXHF   =         0.00000000
  -V(xc)+E(xc)   XCENC  =      -176.52692523
  PAW double counting   =     18416.14378587   -17661.19834092
  entropy T*S    EENTRO =         0.00000000
  eigenvalues    EBANDS =     -1362.81173564
  atomic energy  EATOM  =     17632.37671147
  ---------------------------------------------------
  free energy    TOTEN  =       -10.39879906 eV

  energy without entropy =      -10.39879906  energy(sigma->0) =      -10.39879906


--------------------------------------------------------------------------------------------------------




----------------------------------------- Iteration    1(   9)  ---------------------------------------


    POTLOK:  cpu time    0.22: real time    0.22
    SETDIJ:  cpu time    0.00: real time    0.01
     EDDAV:  cpu time    1.47: real time    1.47
       DOS:  cpu time    0.00: real time    0.00
    CHARGE:  cpu time    0.07: real time    0.07
    MIXING:  cpu time    0.01: real time    0.01
    --------------------------------------------
      LOOP:  cpu time    1.78: real time    1.78

 eigenvalue-minimisations  :   536
 total energy-change (2. order) : 0.1556312E+00  (-0.4412514E-01)
 number of electron     186.9999881 magnetization       9.0071758
 augmentation part       89.6952491 magnetization       5.2367848

 Broyden mixing:
  rms(total) = 0.25411E+00    rms(broyden)= 0.25409E+00
  rms(prec ) = 0.26511E+00
  weight for this iteration     100.00

 eigenvalues of (default mixing * dielectric matrix)
  average eigenvalue GAMMA=   1.1217
  2.1851  0.6223  0.7440  0.9355

 Free energy of the ion-electron system (eV)
  ---------------------------------------------------
  alpha Z        PSCENC =        31.03880363
  Ewald energy   TEWEN  =     25022.25977787
  -Hartree energ DENC   =    -41925.57428713
  -exchange      EXHF   =         0.00000000
  -V(xc)+E(xc)   XCENC  =      -176.19940978
  PAW double counting   =     18552.01405014   -17799.79091527
  entropy T*S    EENTRO =         0.00000000
  eigenvalues    EBANDS =     -1346.36789877
  atomic energy  EATOM  =     17632.37671147
  ---------------------------------------------------
  free energy    TOTEN  =       -10.24316784 eV

  energy without entropy =      -10.24316784  energy(sigma->0) =      -10.24316784


--------------------------------------------------------------------------------------------------------




----------------------------------------- Iteration    1(  10)  ---------------------------------------


    POTLOK:  cpu time    0.23: real time    0.22
    SETDIJ:  cpu time    0.00: real time    0.01
     EDDAV:  cpu time    1.47: real time    1.47
       DOS:  cpu time    0.00: real time    0.00
    CHARGE:  cpu time    0.07: real time    0.07
    MIXING:  cpu time    0.01: real time    0.01
    --------------------------------------------
      LOOP:  cpu time    1.78: real time    1.78

 eigenvalue-minimisations  :   536
 total energy-change (2. order) :-0.3940192E+01  (-0.1169529E+00)
 number of electron     186.9999880 magnetization       7.1129966
 augmentation part       89.6663781 magnetization       3.4982832

 Broyden mixing:
  rms(total) = 0.19236E+00    rms(broyden)= 0.19235E+00
  rms(prec ) = 0.19709E+00
  weight for this iteration     100.00

 eigenvalues of (default mixing * dielectric matrix)
  average eigenvalue GAMMA=   1.2718
  2.0619  2.0619  0.8049  0.8049  0.6254

 Free energy of the ion-electron system (eV)
  ---------------------------------------------------
  alpha Z        PSCENC =        31.03880363
  Ewald energy   TEWEN  =     25022.25977787
  -Hartree energ DENC   =    -41933.03346339
  -exchange      EXHF   =         0.00000000
  -V(xc)+E(xc)   XCENC  =      -179.05584003
  PAW double counting   =     18584.87913262   -17833.40434565
  entropy T*S    EENTRO =         0.00000000
  eigenvalues    EBANDS =     -1339.24413646
  atomic energy  EATOM  =     17632.37671147
  ---------------------------------------------------
  free energy    TOTEN  =       -14.18335994 eV

  energy without entropy =      -14.18335994  energy(sigma->0) =      -14.18335994


--------------------------------------------------------------------------------------------------------




----------------------------------------- Iteration    1(  11)  ---------------------------------------


    POTLOK:  cpu time    0.22: real time    0.23
    SETDIJ:  cpu time    0.01: real time    0.01
     EDDAV:  cpu time    1.42: real time    1.42
       DOS:  cpu time    0.00: real time    0.00
    CHARGE:  cpu time    0.07: real time    0.07
    MIXING:  cpu time    0.01: real time    0.01
    --------------------------------------------
      LOOP:  cpu time    1.73: real time    1.85

 eigenvalue-minimisations  :   512
 total energy-change (2. order) :-0.6759768E+01  (-0.2938957E+00)
 number of electron     186.9999880 magnetization       6.0432882
 augmentation part       89.6583930 magnetization       2.6696242

 Broyden mixing:
  rms(total) = 0.12562E+00    rms(broyden)= 0.12560E+00
  rms(prec ) = 0.12849E+00
  weight for this iteration     100.00

 eigenvalues of (default mixing * dielectric matrix)
  average eigenvalue GAMMA=   1.3009
  2.6307  2.0940  0.9218  0.9218  0.6038  0.6334

 Free energy of the ion-electron system (eV)
  ---------------------------------------------------
  alpha Z        PSCENC =        31.03880363
  Ewald energy   TEWEN  =     25022.25977787
  -Hartree energ DENC   =    -41934.82449026
  -exchange      EXHF   =         0.00000000
  -V(xc)+E(xc)   XCENC  =      -184.25076800
  PAW double counting   =     18580.69524705   -17829.39684765
  entropy T*S    EENTRO =         0.00000000
  eigenvalues    EBANDS =     -1338.84156242
  atomic energy  EATOM  =     17632.37671147
  ---------------------------------------------------
  free energy    TOTEN  =       -20.94312832 eV

  energy without entropy =      -20.94312832  energy(sigma->0) =      -20.94312832


--------------------------------------------------------------------------------------------------------




----------------------------------------- Iteration    1(  12)  ---------------------------------------


    POTLOK:  cpu time    0.22: real time    0.22
    SETDIJ:  cpu time    0.01: real time    0.01
     EDDAV:  cpu time    1.45: real time    1.45
       DOS:  cpu time    0.00: real time    0.00
    CHARGE:  cpu time    0.07: real time    0.07
    MIXING:  cpu time    0.01: real time    0.01
    --------------------------------------------
      LOOP:  cpu time    1.76: real time    1.77

 eigenvalue-minimisations  :   528
 total energy-change (2. order) :-0.3578183E+01  (-0.1074305E+00)
 number of electron     186.9999880 magnetization       4.6871850
 augmentation part       89.6551281 magnetization       1.4369592

 Broyden mixing:
  rms(total) = 0.91296E-01    rms(broyden)= 0.91288E-01
  rms(prec ) = 0.95570E-01
  weight for this iteration     100.00

 eigenvalues of (default mixing * dielectric matrix)
  average eigenvalue GAMMA=   1.4177
  3.3066  2.0136  1.2571  1.2571  0.7973  0.6243  0.6680

 Free energy of the ion-electron system (eV)
  ---------------------------------------------------
  alpha Z        PSCENC =        31.03880363
  Ewald energy   TEWEN  =     25022.25977787
  -Hartree energ DENC   =    -41932.13284620
  -exchange      EXHF   =         0.00000000
  -V(xc)+E(xc)   XCENC  =      -187.13244873
  PAW double counting   =     18567.83366687   -17816.57237299
  entropy T*S    EENTRO =        -0.00000000
  eigenvalues    EBANDS =     -1342.19260352
  atomic energy  EATOM  =     17632.37671147
  ---------------------------------------------------
  free energy    TOTEN  =       -24.52131160 eV

  energy without entropy =      -24.52131160  energy(sigma->0) =      -24.52131160


--------------------------------------------------------------------------------------------------------




----------------------------------------- Iteration    1(  13)  ---------------------------------------


    POTLOK:  cpu time    0.22: real time    0.22
    SETDIJ:  cpu time    0.01: real time    0.01
     EDDAV:  cpu time    1.42: real time    1.42
       DOS:  cpu time    0.00: real time    0.00
    CHARGE:  cpu time    0.07: real time    0.07
    MIXING:  cpu time    0.01: real time    0.01
    --------------------------------------------
      LOOP:  cpu time    1.73: real time    1.74

 eigenvalue-minimisations  :   512
 total energy-change (2. order) :-0.3993124E+01  (-0.1245826E+00)
 number of electron     186.9999879 magnetization       4.6074640
 augmentation part       89.7067552 magnetization       3.4033802

 Broyden mixing:
  rms(total) = 0.17328E+00    rms(broyden)= 0.17310E+00
  rms(prec ) = 0.18914E+00
  weight for this iteration     100.00

 eigenvalues of (default mixing * dielectric matrix)
  average eigenvalue GAMMA=   1.2609
  3.4108  1.9516  1.2767  1.2767  0.8107  0.6218  0.6634  0.0752

 Free energy of the ion-electron system (eV)
  ---------------------------------------------------
  alpha Z        PSCENC =        31.03880363
  Ewald energy   TEWEN  =     25022.25977787
  -Hartree energ DENC   =    -41920.40184886
  -exchange      EXHF   =         0.00000000
  -V(xc)+E(xc)   XCENC  =      -190.53933973
  PAW double counting   =     18518.53350303   -17766.95885915
  entropy T*S    EENTRO =         0.00000000
  eigenvalues    EBANDS =     -1354.82318408
  atomic energy  EATOM  =     17632.37671147
  ---------------------------------------------------
  free energy    TOTEN  =       -28.51443583 eV

  energy without entropy =      -28.51443583  energy(sigma->0) =      -28.51443583


--------------------------------------------------------------------------------------------------------




----------------------------------------- Iteration    1(  14)  ---------------------------------------


    POTLOK:  cpu time    0.22: real time    0.23
    SETDIJ:  cpu time    0.01: real time    0.01
     EDDAV:  cpu time    1.52: real time    1.52
       DOS:  cpu time    0.00: real time    0.00
    CHARGE:  cpu time    0.07: real time    0.07
    MIXING:  cpu time    0.01: real time    0.01
    --------------------------------------------
      LOOP:  cpu time    1.83: real time    1.83

 eigenvalue-minimisations  :   560
 total energy-change (2. order) :-0.1886990E-01  (-0.2065637E-02)
 number of electron     186.9999879 magnetization       4.4587012
 augmentation part       89.6986541 magnetization       3.2691292

 Broyden mixing:
  rms(total) = 0.16521E+00    rms(broyden)= 0.16520E+00
  rms(prec ) = 0.18119E+00
  weight for this iteration     100.00

 eigenvalues of (default mixing * dielectric matrix)
  average eigenvalue GAMMA=   1.1323
  3.4105  1.9284  1.2835  1.2835  0.8119  0.6219  0.6623  0.1220  0.0671

 Free energy of the ion-electron system (eV)
  ---------------------------------------------------
  alpha Z        PSCENC =        31.03880363
  Ewald energy   TEWEN  =     25022.25977787
  -Hartree energ DENC   =    -41920.29001096
  -exchange      EXHF   =         0.00000000
  -V(xc)+E(xc)   XCENC  =      -190.56007687
  PAW double counting   =     18518.18316819   -17766.62145042
  entropy T*S    EENTRO =         0.00000000
  eigenvalues    EBANDS =     -1354.92022863
  atomic energy  EATOM  =     17632.37671147
  ---------------------------------------------------
  free energy    TOTEN  =       -28.53330573 eV

  energy without entropy =      -28.53330573  energy(sigma->0) =      -28.53330573


--------------------------------------------------------------------------------------------------------




----------------------------------------- Iteration    1(  15)  ---------------------------------------


    POTLOK:  cpu time    0.22: real time    0.22
    SETDIJ:  cpu time    0.01: real time    0.01
     EDDAV:  cpu time    1.43: real time    1.43
       DOS:  cpu time    0.00: real time    0.00
    CHARGE:  cpu time    0.07: real time    0.07
    MIXING:  cpu time    0.01: real time    0.01
    --------------------------------------------
      LOOP:  cpu time    1.74: real time    1.75

 eigenvalue-minimisations  :   516
 total energy-change (2. order) :-0.1733620E+00  (-0.7798414E-03)
 number of electron     186.9999879 magnetization       3.3552720
 augmentation part       89.7094744 magnetization       2.1770654

 Broyden mixing:
  rms(total) = 0.15983E+00    rms(broyden)= 0.15983E+00
  rms(prec ) = 0.17457E+00
  weight for this iteration     100.00

 eigenvalues of (default mixing * dielectric matrix)
  average eigenvalue GAMMA=   1.3005
  4.2543  2.1108  1.2392  1.2392  0.8444  0.8444  0.8296  0.6263  0.6263  0.3906

 Free energy of the ion-electron system (eV)
  ---------------------------------------------------
  alpha Z        PSCENC =        31.03880363
  Ewald energy   TEWEN  =     25022.25977787
  -Hartree energ DENC   =    -41918.74807616
  -exchange      EXHF   =         0.00000000
  -V(xc)+E(xc)   XCENC  =      -190.74213446
  PAW double counting   =     18510.83725426   -17759.16478241
  entropy T*S    EENTRO =         0.00000000
  eigenvalues    EBANDS =     -1356.56422196
  atomic energy  EATOM  =     17632.37671147
  ---------------------------------------------------
  free energy    TOTEN  =       -28.70666776 eV

  energy without entropy =      -28.70666776  energy(sigma->0) =      -28.70666776


--------------------------------------------------------------------------------------------------------




----------------------------------------- Iteration    1(  16)  ---------------------------------------


    POTLOK:  cpu time    0.23: real time    0.23
    SETDIJ:  cpu time    0.00: real time    0.01
     EDDAV:  cpu time    1.40: real time    1.40
       DOS:  cpu time    0.00: real time    0.00
    CHARGE:  cpu time    0.07: real time    0.07
    MIXING:  cpu time    0.01: real time    0.01
    --------------------------------------------
      LOOP:  cpu time    1.72: real time    1.72

 eigenvalue-minimisations  :   504
 total energy-change (2. order) :-0.8671447E+00  (-0.1895485E-01)
 number of electron     186.9999879 magnetization       2.1828006
 augmentation part       89.7283069 magnetization       1.0712157

 Broyden mixing:
  rms(total) = 0.11164E+00    rms(broyden)= 0.11164E+00
  rms(prec ) = 0.12052E+00
  weight for this iteration     100.00

 eigenvalues of (default mixing * dielectric matrix)
  average eigenvalue GAMMA=   1.4602
  5.5799  2.0482  2.0482  1.1924  1.1924  0.8363  0.7543  0.7543  0.6135  0.5213
  0.5213

 Free energy of the ion-electron system (eV)
  ---------------------------------------------------
  alpha Z        PSCENC =        31.03880363
  Ewald energy   TEWEN  =     25022.25977787
  -Hartree energ DENC   =    -41915.23946787
  -exchange      EXHF   =         0.00000000
  -V(xc)+E(xc)   XCENC  =      -191.57065277
  PAW double counting   =     18497.36290677   -17745.59005180
  entropy T*S    EENTRO =         0.00000000
  eigenvalues    EBANDS =     -1360.21183971
  atomic energy  EATOM  =     17632.37671147
  ---------------------------------------------------
  free energy    TOTEN  =       -29.57381241 eV

  energy without entropy =      -29.57381241  energy(sigma->0) =      -29.57381241


--------------------------------------------------------------------------------------------------------




----------------------------------------- Iteration    1(  17)  ---------------------------------------


    POTLOK:  cpu time    0.22: real time    0.23
    SETDIJ:  cpu time    0.01: real time    0.01
     EDDAV:  cpu time    1.42: real time    1.42
       DOS:  cpu time    0.00: real time    0.00
    CHARGE:  cpu time    0.07: real time    0.07
    MIXING:  cpu time    0.01: real time    0.01
    --------------------------------------------
      LOOP:  cpu time    1.74: real time    1.78

 eigenvalue-minimisations  :   512
 total energy-change (2. order) :-0.7568134E+00  (-0.1866895E-01)
 number of electron     186.9999880 magnetization       1.6611557
 augmentation part       89.7113701 magnetization       0.6027483

 Broyden mixing:
  rms(total) = 0.53932E-01    rms(broyden)= 0.53923E-01
  rms(prec ) = 0.57658E-01
  weight for this iteration     100.00

 eigenvalues of (default mixing * dielectric matrix)
  average eigenvalue GAMMA=   1.5401
  6.8852  2.1156  2.1156  1.1856  1.1856  1.1272  0.7443  0.7443  0.6462  0.5983
  0.5667  0.5667

 Free energy of the ion-electron system (eV)
  ---------------------------------------------------
  alpha Z        PSCENC =        31.03880363
  Ewald energy   TEWEN  =     25022.25977787
  -Hartree energ DENC   =    -41913.52226353
  -exchange      EXHF   =         0.00000000
  -V(xc)+E(xc)   XCENC  =      -192.27040724
  PAW double counting   =     18495.59379947   -17743.82903743
  entropy T*S    EENTRO =         0.00000000
  eigenvalues    EBANDS =     -1361.97801003
  atomic energy  EATOM  =     17632.37671147
  ---------------------------------------------------
  free energy    TOTEN  =       -30.33062580 eV

  energy without entropy =      -30.33062580  energy(sigma->0) =      -30.33062580


--------------------------------------------------------------------------------------------------------




----------------------------------------- Iteration    1(  18)  ---------------------------------------


    POTLOK:  cpu time    0.22: real time    0.23
    SETDIJ:  cpu time    0.01: real time    0.01
     EDDAV:  cpu time    1.46: real time    1.46
       DOS:  cpu time    0.00: real time    0.00
    CHARGE:  cpu time    0.07: real time    0.07
    MIXING:  cpu time    0.01: real time    0.01
    --------------------------------------------
      LOOP:  cpu time    1.78: real time    1.78

 eigenvalue-minimisations  :   532
 total energy-change (2. order) :-0.4789757E+00  (-0.4522352E-02)
 number of electron     186.9999880 magnetization       1.3940483
 augmentation part       89.7115374 magnetization       0.3573264

 Broyden mixing:
  rms(total) = 0.35105E-01    rms(broyden)= 0.35100E-01
  rms(prec ) = 0.38083E-01
  weight for this iteration     100.00

 eigenvalues of (default mixing * dielectric matrix)
  average eigenvalue GAMMA=   1.5872
  7.3276  2.1401  2.1401  1.6602  1.3410  1.3410  0.8844  0.7095  0.7095  0.6201
  0.6201  0.5699  0.5699

 Free energy of the ion-electron system (eV)
  ---------------------------------------------------
  alpha Z        PSCENC =        31.03880363
  Ewald energy   TEWEN  =     25022.25977787
  -Hartree energ DENC   =    -41910.70689949
  -exchange      EXHF   =         0.00000000
  -V(xc)+E(xc)   XCENC  =      -192.75559770
  PAW double counting   =     18489.88819332   -17737.99625089
  entropy T*S    EENTRO =         0.00000000
  eigenvalues    EBANDS =     -1364.91433967
  atomic energy  EATOM  =     17632.37671147
  ---------------------------------------------------
  free energy    TOTEN  =       -30.80960147 eV

  energy without entropy =      -30.80960147  energy(sigma->0) =      -30.80960147


--------------------------------------------------------------------------------------------------------




----------------------------------------- Iteration    1(  19)  ---------------------------------------


    POTLOK:  cpu time    0.22: real time    0.23
    SETDIJ:  cpu time    0.01: real time    0.01
     EDDAV:  cpu time    1.44: real time    1.44
       DOS:  cpu time    0.00: real time    0.00
    CHARGE:  cpu time    0.07: real time    0.07
    MIXING:  cpu time    0.01: real time    0.01
    --------------------------------------------
      LOOP:  cpu time    1.76: real time    1.76

 eigenvalue-minimisations  :   520
 total energy-change (2. order) :-0.3480416E+00  (-0.2290124E-02)
 number of electron     186.9999880 magnetization       1.2051599
 augmentation part       89.6980719 magnetization       0.1720051

 Broyden mixing:
  rms(total) = 0.15390E-01    rms(broyden)= 0.15387E-01
  rms(prec ) = 0.18913E-01
  weight for this iteration     100.00

 eigenvalues of (default mixing * dielectric matrix)
  average eigenvalue GAMMA=   1.6716
  8.0150  2.8047  2.1350  2.1350  1.3243  1.3243  1.0711  0.8586  0.6814  0.6814
  0.5720  0.5720  0.6281  0.5999

 Free energy of the ion-electron system (eV)
  ---------------------------------------------------
  alpha Z        PSCENC =        31.03880363
  Ewald energy   TEWEN  =     25022.25977787
  -Hartree energ DENC   =    -41908.42340111
  -exchange      EXHF   =         0.00000000
  -V(xc)+E(xc)   XCENC  =      -193.09225256
  PAW double counting   =     18493.38922058   -17741.44864446
  entropy T*S    EENTRO =         0.00000000
  eigenvalues    EBANDS =     -1367.25785846
  atomic energy  EATOM  =     17632.37671147
  ---------------------------------------------------
  free energy    TOTEN  =       -31.15764306 eV

  energy without entropy =      -31.15764306  energy(sigma->0) =      -31.15764306


--------------------------------------------------------------------------------------------------------




----------------------------------------- Iteration    1(  20)  ---------------------------------------


    POTLOK:  cpu time    0.22: real time    0.23
    SETDIJ:  cpu time    0.01: real time    0.01
     EDDAV:  cpu time    1.44: real time    1.45
       DOS:  cpu time    0.00: real time    0.00
    CHARGE:  cpu time    0.07: real time    0.07
    MIXING:  cpu time    0.01: real time    0.01
    --------------------------------------------
      LOOP:  cpu time    1.76: real time    1.77

 eigenvalue-minimisations  :   524
 total energy-change (2. order) :-0.2249240E+00  (-0.1211450E-02)
 number of electron     186.9999880 magnetization       1.1024908
 augmentation part       89.6935650 magnetization       0.0681645

 Broyden mixing:
  rms(total) = 0.71698E-02    rms(broyden)= 0.71658E-02
  rms(prec ) = 0.99772E-02
  weight for this iteration     100.00

 eigenvalues of (default mixing * dielectric matrix)
  average eigenvalue GAMMA=   1.6564
  8.3768  2.9958  2.1520  2.1520  1.3082  1.3082  1.0183  1.0183  0.7917  0.6810
  0.6810  0.5707  0.5707  0.6251  0.5964

 Free energy of the ion-electron system (eV)
  ---------------------------------------------------
  alpha Z        PSCENC =        31.03880363
  Ewald energy   TEWEN  =     25022.25977787
  -Hartree energ DENC   =    -41904.55637514
  -exchange      EXHF   =         0.00000000
  -V(xc)+E(xc)   XCENC  =      -193.33820639
  PAW double counting   =     18490.91143776   -17738.82259142
  entropy T*S    EENTRO =         0.00000000
  eigenvalues    EBANDS =     -1371.25212484
  atomic energy  EATOM  =     17632.37671147
  ---------------------------------------------------
  free energy    TOTEN  =       -31.38256706 eV

  energy without entropy =      -31.38256706  energy(sigma->0) =      -31.38256706


--------------------------------------------------------------------------------------------------------




----------------------------------------- Iteration    1(  21)  ---------------------------------------


    POTLOK:  cpu time    0.22: real time    0.23
    SETDIJ:  cpu time    0.01: real time    0.01
     EDDAV:  cpu time    1.39: real time    1.39
       DOS:  cpu time    0.00: real time    0.00
    CHARGE:  cpu time    0.07: real time    0.07
    MIXING:  cpu time    0.01: real time    0.01
    --------------------------------------------
      LOOP:  cpu time    1.71: real time    1.82

 eigenvalue-minimisations  :   496
 total energy-change (2. order) :-0.3752501E-01  (-0.1479956E-03)
 number of electron     186.9999880 magnetization       1.0456463
 augmentation part       89.6964396 magnetization       0.0153023

 Broyden mixing:
  rms(total) = 0.56802E-02    rms(broyden)= 0.56793E-02
  rms(prec ) = 0.79207E-02
  weight for this iteration     100.00

 eigenvalues of (default mixing * dielectric matrix)
  average eigenvalue GAMMA=   1.6286
  8.4663  2.8664  2.0014  2.0014  1.7144  1.3097  1.3097  0.9593  0.9593  0.8016
  0.5768  0.5768  0.6356  0.6356  0.6298  0.6129

 Free energy of the ion-electron system (eV)
  ---------------------------------------------------
  alpha Z        PSCENC =        31.03880363
  Ewald energy   TEWEN  =     25022.25977787
  -Hartree energ DENC   =    -41902.97360564
  -exchange      EXHF   =         0.00000000
  -V(xc)+E(xc)   XCENC  =      -193.39274922
  PAW double counting   =     18491.57958695   -17739.50392155
  entropy T*S    EENTRO =         0.00000000
  eigenvalues    EBANDS =     -1372.80469557
  atomic energy  EATOM  =     17632.37671147
  ---------------------------------------------------
  free energy    TOTEN  =       -31.42009207 eV

  energy without entropy =      -31.42009207  energy(sigma->0) =      -31.42009207


--------------------------------------------------------------------------------------------------------




----------------------------------------- Iteration    1(  22)  ---------------------------------------


    POTLOK:  cpu time    0.22: real time    0.23
    SETDIJ:  cpu time    0.01: real time    0.01
     EDDAV:  cpu time    1.23: real time    1.23
       DOS:  cpu time    0.00: real time    0.00
    CHARGE:  cpu time    0.07: real time    0.07
    MIXING:  cpu time    0.01: real time    0.01
    --------------------------------------------
      LOOP:  cpu time    1.55: real time    1.56

 eigenvalue-minimisations  :   416
 total energy-change (2. order) :-0.3548859E-01  (-0.1497290E-03)
 number of electron     186.9999880 magnetization       1.0175999
 augmentation part       89.6971818 magnetization      -0.0122138

 Broyden mixing:
  rms(total) = 0.37748E-02    rms(broyden)= 0.37743E-02
  rms(prec ) = 0.53263E-02
  weight for this iteration     100.00

 eigenvalues of (default mixing * dielectric matrix)
  average eigenvalue GAMMA=   1.7166
  8.5657  3.9907  2.4747  2.1246  2.1246  1.3148  1.3148  1.0144  1.0144  0.8829
  0.5740  0.5740  0.6637  0.6637  0.5902  0.6475  0.6475

 Free energy of the ion-electron system (eV)
  ---------------------------------------------------
  alpha Z        PSCENC =        31.03880363
  Ewald energy   TEWEN  =     25022.25977787
  -Hartree energ DENC   =    -41900.73047836
  -exchange      EXHF   =         0.00000000
  -V(xc)+E(xc)   XCENC  =      -193.44503281
  PAW double counting   =     18494.07531662   -17742.04107955
  entropy T*S    EENTRO =         0.00000000
  eigenvalues    EBANDS =     -1374.98959953
  atomic energy  EATOM  =     17632.37671147
  ---------------------------------------------------
  free energy    TOTEN  =       -31.45558066 eV

  energy without entropy =      -31.45558066  energy(sigma->0) =      -31.45558066


--------------------------------------------------------------------------------------------------------




----------------------------------------- Iteration    1(  23)  ---------------------------------------


    POTLOK:  cpu time    0.22: real time    0.23
    SETDIJ:  cpu time    0.00: real time    0.01
     EDDAV:  cpu time    1.19: real time    1.19
       DOS:  cpu time    0.00: real time    0.00
    CHARGE:  cpu time    0.07: real time    0.07
    MIXING:  cpu time    0.02: real time    0.01
    --------------------------------------------
      LOOP:  cpu time    1.51: real time    1.53

 eigenvalue-minimisations  :   396
 total energy-change (2. order) :-0.8728533E-02  (-0.1032955E-03)
 number of electron     186.9999880 magnetization       1.0107657
 augmentation part       89.6995614 magnetization      -0.0191686

 Broyden mixing:
  rms(total) = 0.18228E-02    rms(broyden)= 0.18220E-02
  rms(prec ) = 0.28567E-02
  weight for this iteration     100.00

 eigenvalues of (default mixing * dielectric matrix)
  average eigenvalue GAMMA=   1.6966
  8.5388  4.4234  2.4921  2.1421  2.1421  1.3176  1.3176  1.1936  0.8969  0.8969
  0.5746  0.5746  0.8108  0.6543  0.6543  0.6677  0.6210  0.6210

 Free energy of the ion-electron system (eV)
  ---------------------------------------------------
  alpha Z        PSCENC =        31.03880363
  Ewald energy   TEWEN  =     25022.25977787
  -Hartree energ DENC   =    -41898.50110180
  -exchange      EXHF   =         0.00000000
  -V(xc)+E(xc)   XCENC  =      -193.47144054
  PAW double counting   =     18494.25982862   -17742.22646601
  entropy T*S    EENTRO =         0.00000000
  eigenvalues    EBANDS =     -1377.20042243
  atomic energy  EATOM  =     17632.37671147
  ---------------------------------------------------
  free energy    TOTEN  =       -31.46430920 eV

  energy without entropy =      -31.46430920  energy(sigma->0) =      -31.46430920


--------------------------------------------------------------------------------------------------------




----------------------------------------- Iteration    1(  24)  ---------------------------------------


    POTLOK:  cpu time    0.23: real time    0.23
    SETDIJ:  cpu time    0.01: real time    0.01
     EDDAV:  cpu time    1.15: real time    1.15
       DOS:  cpu time    0.00: real time    0.00
    CHARGE:  cpu time    0.07: real time    0.07
    MIXING:  cpu time    0.02: real time    0.01
    --------------------------------------------
      LOOP:  cpu time    1.47: real time    1.76

 eigenvalue-minimisations  :   376
 total energy-change (2. order) :-0.2805497E-02  (-0.1911427E-04)
 number of electron     186.9999880 magnetization       1.0101397
 augmentation part       89.7003864 magnetization      -0.0196840

 Broyden mixing:
  rms(total) = 0.12785E-02    rms(broyden)= 0.12783E-02
  rms(prec ) = 0.20617E-02
  weight for this iteration     100.00

 eigenvalues of (default mixing * dielectric matrix)
  average eigenvalue GAMMA=   1.7334
  8.4351  5.0366  2.6442  2.0907  2.0907  1.8637  1.3342  1.3342  1.1913  0.8792
  0.8792  0.8218  0.5752  0.5752  0.6472  0.6472  0.6621  0.6250  0.6025

 Free energy of the ion-electron system (eV)
  ---------------------------------------------------
  alpha Z        PSCENC =        31.03880363
  Ewald energy   TEWEN  =     25022.25977787
  -Hartree energ DENC   =    -41897.70980317
  -exchange      EXHF   =         0.00000000
  -V(xc)+E(xc)   XCENC  =      -193.47921519
  PAW double counting   =     18494.42295174   -17742.39162849
  entropy T*S    EENTRO =         0.00000000
  eigenvalues    EBANDS =     -1377.98471255
  atomic energy  EATOM  =     17632.37671147
  ---------------------------------------------------
  free energy    TOTEN  =       -31.46711469 eV

  energy without entropy =      -31.46711469  energy(sigma->0) =      -31.46711469


--------------------------------------------------------------------------------------------------------




----------------------------------------- Iteration    1(  25)  ---------------------------------------


    POTLOK:  cpu time    0.22: real time    0.23
    SETDIJ:  cpu time    0.01: real time    0.01
     EDDAV:  cpu time    1.18: real time    1.18
       DOS:  cpu time    0.00: real time    0.00
    CHARGE:  cpu time    0.07: real time    0.07
    MIXING:  cpu time    0.02: real time    0.02
    --------------------------------------------
      LOOP:  cpu time    1.50: real time    1.50

 eigenvalue-minimisations  :   388
 total energy-change (2. order) :-0.4105584E-02  (-0.2914733E-04)
 number of electron     186.9999880 magnetization       1.0073537
 augmentation part       89.7003195 magnetization      -0.0227849

 Broyden mixing:
  rms(total) = 0.11660E-02    rms(broyden)= 0.11658E-02
  rms(prec ) = 0.15550E-02
  weight for this iteration     100.00

 eigenvalues of (default mixing * dielectric matrix)
  average eigenvalue GAMMA=   1.7490
  8.4187  5.6036  2.6652  2.5570  2.0560  2.0560  1.3288  1.3288  1.2755  0.9360
  0.8705  0.8705  0.5754  0.5754  0.6458  0.6458  0.6814  0.6814  0.5967  0.6116

 Free energy of the ion-electron system (eV)
  ---------------------------------------------------
  alpha Z        PSCENC =        31.03880363
  Ewald energy   TEWEN  =     25022.25977787
  -Hartree energ DENC   =    -41896.78285382
  -exchange      EXHF   =         0.00000000
  -V(xc)+E(xc)   XCENC  =      -193.48723054
  PAW double counting   =     18494.83515871   -17742.80467200
  entropy T*S    EENTRO =         0.00000000
  eigenvalues    EBANDS =     -1378.90691558
  atomic energy  EATOM  =     17632.37671147
  ---------------------------------------------------
  free energy    TOTEN  =       -31.47122028 eV

  energy without entropy =      -31.47122028  energy(sigma->0) =      -31.47122028


--------------------------------------------------------------------------------------------------------




----------------------------------------- Iteration    1(  26)  ---------------------------------------


    POTLOK:  cpu time    0.22: real time    0.22
    SETDIJ:  cpu time    0.01: real time    0.01
     EDDAV:  cpu time    1.13: real time    1.13
       DOS:  cpu time    0.00: real time    0.00
    CHARGE:  cpu time    0.07: real time    0.07
    MIXING:  cpu time    0.02: real time    0.02
    --------------------------------------------
      LOOP:  cpu time    1.45: real time    1.45

 eigenvalue-minimisations  :   364
 total energy-change (2. order) :-0.1048134E-02  (-0.4285445E-05)
 number of electron     186.9999880 magnetization       1.0044067
 augmentation part       89.7007797 magnetization      -0.0255661

 Broyden mixing:
  rms(total) = 0.99033E-03    rms(broyden)= 0.99027E-03
  rms(prec ) = 0.12351E-02
  weight for this iteration     100.00

 eigenvalues of (default mixing * dielectric matrix)
  average eigenvalue GAMMA=   1.7515
  8.3246  6.1445  3.1144  2.0856  2.0856  2.1346  1.3209  1.3209  1.4537  1.1767
  0.8962  0.8962  0.8340  0.5754  0.5754  0.6473  0.6473  0.6707  0.6707  0.6032
  0.6032

 Free energy of the ion-electron system (eV)
  ---------------------------------------------------
  alpha Z        PSCENC =        31.03880363
  Ewald energy   TEWEN  =     25022.25977787
  -Hartree energ DENC   =    -41896.41764349
  -exchange      EXHF   =         0.00000000
  -V(xc)+E(xc)   XCENC  =      -193.49069789
  PAW double counting   =     18494.71677126   -17742.68353910
  entropy T*S    EENTRO =         0.00000000
  eigenvalues    EBANDS =     -1379.27245216
  atomic energy  EATOM  =     17632.37671147
  ---------------------------------------------------
  free energy    TOTEN  =       -31.47226841 eV

  energy without entropy =      -31.47226841  energy(sigma->0) =      -31.47226841


--------------------------------------------------------------------------------------------------------




----------------------------------------- Iteration    1(  27)  ---------------------------------------


    POTLOK:  cpu time    0.22: real time    0.22
    SETDIJ:  cpu time    0.01: real time    0.01
     EDDAV:  cpu time    1.09: real time    1.09
       DOS:  cpu time    0.00: real time    0.00
    CHARGE:  cpu time    0.07: real time    0.07
    MIXING:  cpu time    0.02: real time    0.02
    --------------------------------------------
      LOOP:  cpu time    1.41: real time    1.42

 eigenvalue-minimisations  :   348
 total energy-change (2. order) :-0.5448307E-03  (-0.1963730E-05)
 number of electron     186.9999880 magnetization       1.0010193
 augmentation part       89.7007043 magnetization      -0.0287914

 Broyden mixing:
  rms(total) = 0.66278E-03    rms(broyden)= 0.66274E-03
  rms(prec ) = 0.83581E-03
  weight for this iteration     100.00

 eigenvalues of (default mixing * dielectric matrix)
  average eigenvalue GAMMA=   1.7816
  8.1992  6.6781  3.4267  2.2076  2.2076  1.9524  1.6758  1.6758  1.3287  1.3287
  0.9176  0.9176  0.9081  0.5754  0.5754  0.7376  0.7376  0.6439  0.6439  0.5970
  0.6361  0.6235

 Free energy of the ion-electron system (eV)
  ---------------------------------------------------
  alpha Z        PSCENC =        31.03880363
  Ewald energy   TEWEN  =     25022.25977787
  -Hartree energ DENC   =    -41896.23147154
  -exchange      EXHF   =         0.00000000
  -V(xc)+E(xc)   XCENC  =      -193.49188788
  PAW double counting   =     18494.82646228   -17742.79411775
  entropy T*S    EENTRO =         0.00000000
  eigenvalues    EBANDS =     -1379.45709132
  atomic energy  EATOM  =     17632.37671147
  ---------------------------------------------------
  free energy    TOTEN  =       -31.47281324 eV

  energy without entropy =      -31.47281324  energy(sigma->0) =      -31.47281324


--------------------------------------------------------------------------------------------------------




----------------------------------------- Iteration    1(  28)  ---------------------------------------


    POTLOK:  cpu time    0.22: real time    0.23
    SETDIJ:  cpu time    0.01: real time    0.01
     EDDAV:  cpu time    1.12: real time    1.12
       DOS:  cpu time    0.00: real time    0.00
    CHARGE:  cpu time    0.07: real time    0.07
    MIXING:  cpu time    0.02: real time    0.02
    --------------------------------------------
      LOOP:  cpu time    1.44: real time    3.44

 eigenvalue-minimisations  :   360
 total energy-change (2. order) :-0.1612688E-03  (-0.1817991E-05)
 number of electron     186.9999880 magnetization       0.9995068
 augmentation part       89.7006200 magnetization      -0.0300763

 Broyden mixing:
  rms(total) = 0.28082E-03    rms(broyden)= 0.28072E-03
  rms(prec ) = 0.39073E-03
  weight for this iteration     100.00

 eigenvalues of (default mixing * dielectric matrix)
  average eigenvalue GAMMA=   1.8217
  7.7778  7.7778  4.0340  2.1946  2.0183  2.0183  2.0046  2.0046  1.3246  1.3246
  1.0385  0.8795  0.8795  0.5755  0.5755  0.8286  0.8286  0.6448  0.6448  0.6061
  0.6061  0.6563  0.6563

 Free energy of the ion-electron system (eV)
  ---------------------------------------------------
  alpha Z        PSCENC =        31.03880363
  Ewald energy   TEWEN  =     25022.25977787
  -Hartree energ DENC   =    -41896.09778650
  -exchange      EXHF   =         0.00000000
  -V(xc)+E(xc)   XCENC  =      -193.49220896
  PAW double counting   =     18494.83781519   -17742.80369115
  entropy T*S    EENTRO =         0.00000000
  eigenvalues    EBANDS =     -1379.59239605
  atomic energy  EATOM  =     17632.37671147
  ---------------------------------------------------
  free energy    TOTEN  =       -31.47297451 eV

  energy without entropy =      -31.47297451  energy(sigma->0) =      -31.47297451


--------------------------------------------------------------------------------------------------------




----------------------------------------- Iteration    1(  29)  ---------------------------------------


    POTLOK:  cpu time    0.22: real time    0.23
    SETDIJ:  cpu time    0.01: real time    0.01
     EDDAV:  cpu time    1.12: real time    1.12
       DOS:  cpu time    0.00: real time    0.00
    --------------------------------------------
      LOOP:  cpu time    1.36: real time    1.37

 eigenvalue-minimisations  :   360
 total energy-change (2. order) :-0.2111781E-05  (-0.4406132E-06)
 number of electron     186.9999880 magnetization       0.9995068
 augmentation part       89.7006200 magnetization      -0.0300763

 Free energy of the ion-electron system (eV)
  ---------------------------------------------------
  alpha Z        PSCENC =        31.03880363
  Ewald energy   TEWEN  =     25022.25977787
  -Hartree energ DENC   =    -41896.05504147
  -exchange      EXHF   =         0.00000000
  -V(xc)+E(xc)   XCENC  =      -193.49218581
  PAW double counting   =     18494.83535436   -17742.80085330
  entropy T*S    EENTRO =         0.00000000
  eigenvalues    EBANDS =     -1379.63554337
  atomic energy  EATOM  =     17632.37671147
  ---------------------------------------------------
  free energy    TOTEN  =       -31.47297662 eV

  energy without entropy =      -31.47297662  energy(sigma->0) =      -31.47297662


--------------------------------------------------------------------------------------------------------




 average (electrostatic) potential at core
  the test charge radii are     1.1249
  (the norm of the test charge is              1.0000)
       1 -82.4490       2 -82.1019       3 -82.5088       4 -82.3521       5 -82.3394
       6 -82.1738       7 -82.3942       8 -82.2731       9 -82.2336      10 -82.4225
      11 -82.4900      12 -82.2969      13 -82.3415      14 -82.1943      15 -82.3614
      16 -82.1953      17 -82.2171
 
 
 
 E-fermi :  -3.4982     XC(G=0):  -0.8863     alpha+bet : -0.4927


 spin component 1

 k-point     1 :       0.0000    0.0000    0.0000
  band No.  band energies     occupation 
      1      -9.5929      1.00000
      2      -9.3036      1.00000
      3      -9.1652      1.00000
      4      -9.1538      1.00000
      5      -9.0331      1.00000
      6      -8.9842      1.00000
      7      -8.9056      1.00000
      8      -8.8780      1.00000
      9      -8.8341      1.00000
     10      -8.8044      1.00000
     11      -8.7363      1.00000
     12      -8.7103      1.00000
     13      -8.6956      1.00000
     14      -8.6307      1.00000
     15      -8.5922      1.00000
     16      -8.5769      1.00000
     17      -8.5180      1.00000
     18      -8.4958      1.00000
     19      -8.4521      1.00000
     20      -8.4205      1.00000
     21      -8.4013      1.00000
     22      -8.3594      1.00000
     23      -8.2665      1.00000
     24      -8.2196      1.00000
     25      -8.2120      1.00000
     26      -8.1695      1.00000
     27      -8.1441      1.00000
     28      -8.0743      1.00000
     29      -8.0211      1.00000
     30      -7.9672      1.00000
     31      -7.9269      1.00000
     32      -7.8967      1.00000
     33      -7.8408      1.00000
     34      -7.8310      1.00000
     35      -7.7786      1.00000
     36      -7.7601      1.00000
     37      -7.6451      1.00000
     38      -7.6179      1.00000
     39      -7.5959      1.00000
     40      -7.5720      1.00000
     41      -7.5307      1.00000
     42      -7.4932      1.00000
     43      -7.4869      1.00000
     44      -7.4334      1.00000
     45      -7.4003      1.00000
     46      -7.3392      1.00000
     47      -7.3023      1.00000
     48      -7.2867      1.00000
     49      -7.2413      1.00000
     50      -7.2198      1.00000
     51      -7.2115      1.00000
     52      -7.1803      1.00000
     53      -7.1406      1.00000
     54      -7.1063      1.00000
     55      -7.0996      1.00000
     56      -7.0875      1.00000
     57      -7.0505      1.00000
     58      -7.0200      1.00000
     59      -6.9982      1.00000
     60      -6.9781      1.00000
     61      -6.9410      1.00000
     62      -6.9126      1.00000
     63      -6.8933      1.00000
     64      -6.8782      1.00000
     65      -6.8501      1.00000
     66      -6.8415      1.00000
     67      -6.8224      1.00000
     68      -6.8156      1.00000
     69      -6.8058      1.00000
     70      -6.7809      1.00000
     71      -6.7624      1.00000
     72      -6.7520      1.00000
     73      -6.7198      1.00000
     74      -6.6862      1.00000
     75      -6.6514      1.00000
     76      -6.6160      1.00000
     77      -6.6003      1.00000
     78      -6.5588      1.00000
     79      -6.5001      1.00000
     80      -6.4463      1.00000
     81      -6.4063      1.00000
     82      -6.3305      1.00000
     83      -6.3081      1.00000
     84      -6.2814      1.00000
     85      -6.2111      1.00000
     86      -6.2025      1.00000
     87      -6.0840      1.00000
     88      -6.0610      1.00000
     89      -5.8787      1.00000
     90      -5.1182      1.00000
     91      -4.7886      1.00000
     92      -4.2537      1.00000
     93      -3.7274      1.00000
     94      -3.5169      1.00000
     95      -3.2918      0.00000
     96      -3.1609      0.00000
     97      -2.3451      0.00000
     98      -2.1822      0.00000
     99      -2.0641      0.00000
    100      -1.9806      0.00000
    101      -1.8245      0.00000
    102      -1.4371      0.00000
    103      -1.3216      0.00000
    104      -1.3042      0.00000
    105      -1.0876      0.00000
    106      -0.9421      0.00000
    107      -0.7687      0.00000
    108      -0.4488      0.00000
    109      -0.2929      0.00000
    110      -0.2109      0.00000
    111      -0.1020      0.00000
    112       0.0101      0.00000
    113       0.0983      0.00000
    114       0.3023      0.00000
    115       0.3903      0.00000
    116       0.4605      0.00000
    117       0.5410      0.00000
    118       0.6067      0.00000
    119       0.6589      0.00000
    120       0.6895      0.00000
    121       0.7155      0.00000
    122       0.7405      0.00000
    123       0.8367      0.00000
    124       0.8666      0.00000

 spin component 2

 k-point     1 :       0.0000    0.0000    0.0000
  band No.  band energies     occupation 
      1      -9.5730      1.00000
      2      -9.2900      1.00000
      3      -9.1492      1.00000
      4      -9.1390      1.00000
      5      -9.0192      1.00000
      6      -8.9698      1.00000
      7      -8.8886      1.00000
      8      -8.8555      1.00000
      9      -8.8202      1.00000
     10      -8.7824      1.00000
     11      -8.7196      1.00000
     12      -8.6971      1.00000
     13      -8.6788      1.00000
     14      -8.6033      1.00000
     15      -8.5657      1.00000
     16      -8.5621      1.00000
     17      -8.5029      1.00000
     18      -8.4779      1.00000
     19      -8.4312      1.00000
     20      -8.4040      1.00000
     21      -8.3857      1.00000
     22      -8.3395      1.00000
     23      -8.2508      1.00000
     24      -8.2045      1.00000
     25      -8.1957      1.00000
     26      -8.1529      1.00000
     27      -8.1250      1.00000
     28      -8.0543      1.00000
     29      -8.0045      1.00000
     30      -7.9483      1.00000
     31      -7.9154      1.00000
     32      -7.8781      1.00000
     33      -7.8259      1.00000
     34      -7.8097      1.00000
     35      -7.7594      1.00000
[...]
     25      -8.0071      1.00000
     26      -7.9875      1.00000
     27      -7.9294      1.00000
     28      -7.9008      1.00000
     29      -7.8770      1.00000
     30      -7.8587      1.00000
     31      -7.8263      1.00000
     32      -7.7828      1.00000
     33      -7.7289      1.00000
     34      -7.6653      1.00000
     35      -7.6490      1.00000
     36      -7.5895      1.00000
     37      -7.5740      1.00000
     38      -7.5185      1.00000
     39      -7.4723      1.00000
     40      -7.4415      1.00000
     41      -7.4029      1.00000
     42      -7.3929      1.00000
     43      -7.3268      1.00000
     44      -7.3027      1.00000
     45      -7.2868      1.00000
     46      -7.2403      1.00000
     47      -7.2322      1.00000
     48      -7.1967      1.00000
     49      -7.1548      1.00000
     50      -7.1346      1.00000
     51      -7.0983      1.00000
     52      -7.0833      1.00000
     53      -7.0648      1.00000
     54      -7.0586      1.00000
     55      -7.0167      1.00000
     56      -7.0000      1.00000
     57      -6.9712      1.00000
     58      -6.9430      1.00000
     59      -6.9365      1.00000
     60      -6.9259      1.00000
     61      -6.9074      1.00000
     62      -6.8843      1.00000
     63      -6.8750      1.00000
     64      -6.8379      1.00000
     65      -6.8321      1.00000
     66      -6.8115      1.00000
     67      -6.8030      1.00000
     68      -6.7866      1.00000
     69      -6.7670      1.00000
     70      -6.7029      1.00000
     71      -6.6772      1.00000
     72      -6.6567      1.00000
     73      -6.6388      1.00000
     74      -6.6293      1.00000
     75      -6.5891      1.00000
     76      -6.5756      1.00000
     77      -6.5536      1.00000
     78      -6.5318      1.00000
     79      -6.5187      1.00000
     80      -6.4675      1.00000
     81      -6.4327      1.00000
     82      -6.3959      1.00000
     83      -6.3704      1.00000
     84      -6.3277      1.00000
     85      -6.3227      1.00000
     86      -6.2482      1.00000
     87      -6.1439      1.00000
     88      -6.1020      1.00000
     89      -5.7293      1.00000
     90      -4.7844      1.00000
     91      -4.7236      1.00000
     92      -4.1454      1.00000
     93      -3.9837      1.00000
     94      -3.4739      0.00000
     95      -3.1506      0.00000
     96      -2.6000      0.00000
     97      -2.4732      0.00000
     98      -2.2898      0.00000
     99      -2.0416      0.00000
    100      -2.0063      0.00000
    101      -1.8665      0.00000
    102      -1.6267      0.00000
    103      -1.2671      0.00000
    104      -1.0067      0.00000
    105      -0.9340      0.00000
    106      -0.8396      0.00000
    107      -0.6847      0.00000
    108      -0.5928      0.00000
    109      -0.3339      0.00000
    110      -0.2876      0.00000
    111      -0.1151      0.00000
    112       0.0620      0.00000
    113       0.1285      0.00000
    114       0.3043      0.00000
    115       0.3554      0.00000
    116       0.4506      0.00000
    117       0.5823      0.00000
    118       0.6322      0.00000
    119       0.6706      0.00000
    120       0.7014      0.00000
    121       0.7172      0.00000
    122       0.7467      0.00000
    123       0.8412      0.00000
    124       0.9033      0.00000


--------------------------------------------------------------------------------------------------------


 soft charge-density along one line, spin component           1
         0         1         2         3         4         5         6         7         8         9
 total charge-density along one line
 
 soft charge-density along one line, spin component           2
         0         1         2         3         4         5         6         7         8         9
 total charge-density along one line
 
 pseudopotential strength for first ion, spin component:           1
-10.357  -0.002   0.006  -0.000  -0.000 -10.330  -0.002   0.005
 -0.002 -10.365   0.002  -0.002  -0.004  -0.002 -10.337   0.001
  0.006   0.002 -10.352   0.002  -0.006   0.005   0.001 -10.325
 -0.000  -0.002   0.002 -10.352   0.006  -0.000  -0.002   0.002
 -0.000  -0.004  -0.006   0.006 -10.361  -0.000  -0.004  -0.006
-10.330  -0.002   0.005  -0.000  -0.000 -10.279  -0.002   0.005
 -0.002 -10.337   0.001  -0.002  -0.004  -0.002 -10.286   0.001
  0.005   0.001 -10.325   0.002  -0.006   0.005   0.001 -10.274
 -0.000  -0.002   0.002 -10.325   0.006  -0.000  -0.002   0.002
 -0.000  -0.004  -0.006   0.006 -10.334  -0.000  -0.004  -0.006
  0.003  -0.001  -0.000  -0.004  -0.002   0.003  -0.001  -0.000
  0.004  -0.001   0.000  -0.007  -0.003   0.004  -0.001   0.000
 -0.007  -0.003   0.018   0.000   0.030  -0.007  -0.003   0.017
  0.000  -0.030  -0.003  -0.008   0.000   0.000  -0.029  -0.003
 -0.031   0.000   0.004  -0.003  -0.008  -0.030   0.000   0.004
 -0.009  -0.004   0.022  -0.000   0.037  -0.008  -0.004   0.021
 -0.000  -0.037  -0.004  -0.010   0.000  -0.000  -0.035  -0.004
 -0.038  -0.000   0.005  -0.004  -0.009  -0.036  -0.000   0.004
 pseudopotential strength for first ion, spin component:           2
-10.357  -0.001   0.005  -0.000   0.000 -10.330  -0.001   0.005
 -0.001 -10.364   0.001  -0.002  -0.004  -0.001 -10.337   0.001
  0.005   0.001 -10.351   0.003  -0.007   0.005   0.001 -10.324
 -0.000  -0.002   0.003 -10.352   0.006  -0.000  -0.002   0.003
  0.000  -0.004  -0.007   0.006 -10.361   0.000  -0.004  -0.007
-10.330  -0.001   0.005  -0.000   0.000 -10.279  -0.001   0.005
 -0.001 -10.337   0.001  -0.002  -0.004  -0.001 -10.285   0.001
  0.005   0.001 -10.324   0.003  -0.007   0.005   0.001 -10.273
 -0.000  -0.002   0.003 -10.325   0.006  -0.000  -0.002   0.002
  0.000  -0.004  -0.007   0.006 -10.334   0.000  -0.004  -0.006
  0.003  -0.001   0.000  -0.004  -0.002   0.003  -0.001   0.000
  0.004  -0.001   0.000  -0.007  -0.003   0.004  -0.001   0.000
 -0.007  -0.003   0.018   0.000   0.030  -0.007  -0.003   0.017
  0.000  -0.030  -0.003  -0.008   0.000   0.000  -0.029  -0.003
 -0.031   0.000   0.004  -0.003  -0.008  -0.030   0.000   0.004
 -0.009  -0.004   0.022  -0.000   0.037  -0.008  -0.004   0.021
 -0.000  -0.037  -0.004  -0.010   0.000  -0.000  -0.035  -0.003
 -0.038  -0.000   0.005  -0.004  -0.009  -0.036  -0.000   0.005
 total augmentation occupancy for first ion, spin component:           1
  2.690  -0.177  -0.114  -0.038   0.020  -0.663   0.159   0.150   0.015  -0.019  -0.264   0.059  -0.049   0.066  -0.141  -0.001
 -0.177   2.763   0.123   0.026  -0.028   0.159  -0.816  -0.117  -0.023  -0.008   0.026  -0.003   0.007  -0.173   0.068  -0.002
 -0.114   0.123   2.561  -0.043   0.039   0.151  -0.117  -0.529   0.081  -0.049  -0.035  -0.016   0.031  -0.056   0.056   0.008
 -0.038   0.026  -0.043   2.466   0.020   0.015  -0.022   0.080  -0.509   0.069   0.488  -0.055   0.030  -0.001   0.009  -0.003
  0.020  -0.028   0.039   0.020   2.529  -0.020  -0.008  -0.049   0.069  -0.551   0.168  -0.065   0.076   0.003  -0.016   0.012
 -0.663   0.159   0.151   0.015  -0.020   0.619  -0.144  -0.182   0.005   0.019   0.227  -0.051   0.058  -0.056   0.162  -0.005
  0.159  -0.816  -0.117  -0.022  -0.008  -0.144   0.840   0.112   0.019   0.039  -0.019  -0.001  -0.009   0.205  -0.058   0.001
  0.150  -0.117  -0.529   0.080  -0.049  -0.182   0.112   0.477  -0.112   0.058   0.040   0.008  -0.042   0.058  -0.066   0.003
  0.015  -0.023   0.081  -0.509   0.069   0.005   0.019  -0.112   0.522  -0.144  -0.444   0.060  -0.026   0.002  -0.006   0.003
 -0.019  -0.008  -0.049   0.069  -0.551   0.019   0.039   0.058  -0.144   0.544  -0.131   0.047  -0.108  -0.000   0.032   0.008
 -0.264   0.026  -0.035   0.488   0.168   0.227  -0.019   0.040  -0.444  -0.131   1.813  -0.223   0.229   0.016   0.070  -0.021
  0.059  -0.003  -0.016  -0.055  -0.065  -0.051  -0.001   0.008   0.060   0.047  -0.223   0.042  -0.044  -0.003  -0.014   0.003
 -0.049   0.007   0.031   0.030   0.076   0.058  -0.009  -0.042  -0.026  -0.108   0.229  -0.044   0.058  -0.002   0.014  -0.005
  0.066  -0.173  -0.056  -0.001   0.003  -0.056   0.205   0.058   0.002  -0.000   0.016  -0.003  -0.002   0.074  -0.034  -0.000
 -0.141   0.068   0.056   0.009  -0.016   0.162  -0.058  -0.066  -0.006   0.032   0.070  -0.014   0.014  -0.034   0.064  -0.001
 -0.001  -0.002   0.008  -0.003   0.012  -0.005   0.001   0.003   0.003   0.008  -0.021   0.003  -0.005  -0.000  -0.001   0.001
 -0.003  -0.008   0.001  -0.005  -0.000   0.003  -0.012  -0.003  -0.000   0.000  -0.002   0.000  -0.000  -0.004   0.001   0.000
 -0.011  -0.003  -0.001  -0.003  -0.004  -0.009   0.003   0.004   0.001  -0.002  -0.006   0.001  -0.001   0.001  -0.004   0.000
 total augmentation occupancy for first ion, spin component:           2
 -0.004   0.003  -0.005   0.000   0.002   0.002  -0.002   0.004  -0.000  -0.002  -0.004  -0.000   0.001  -0.001  -0.000   0.000
  0.003   0.002  -0.016  -0.001   0.003  -0.002  -0.003   0.013   0.001  -0.002  -0.013  -0.002   0.001  -0.003  -0.001   0.000
 -0.005  -0.016   0.014   0.004  -0.010   0.004   0.013  -0.013  -0.003   0.007   0.016   0.003  -0.002   0.006   0.001  -0.000
  0.000  -0.001   0.004  -0.005  -0.002  -0.000   0.001  -0.003   0.002   0.001   0.003   0.000  -0.000   0.001   0.001  -0.000
  0.002   0.003  -0.010  -0.002  -0.004  -0.002  -0.002   0.007   0.001   0.002  -0.005  -0.001  -0.000  -0.001  -0.001  -0.000
  0.002  -0.002   0.004  -0.000  -0.002   0.000   0.002  -0.003  -0.000   0.001   0.003   0.000  -0.000   0.001   0.000  -0.000
 -0.002  -0.003   0.013   0.001  -0.002   0.002   0.004  -0.010  -0.001   0.002   0.011   0.001  -0.000   0.002   0.001  -0.000
  0.004   0.013  -0.013  -0.003   0.007  -0.003  -0.010   0.012   0.002  -0.005  -0.013  -0.002   0.001  -0.004  -0.001   0.000
 -0.000   0.001  -0.003   0.002   0.001  -0.000  -0.001   0.002  -0.000  -0.001  -0.002  -0.000   0.000  -0.001  -0.000   0.000
 -0.002  -0.002   0.007   0.001   0.002   0.001   0.002  -0.005  -0.001   0.000   0.004   0.000   0.000   0.001   0.001   0.000
 -0.004  -0.013   0.016   0.003  -0.005   0.003   0.011  -0.013  -0.002   0.004   0.014   0.001  -0.001   0.005   0.002  -0.000
 -0.000  -0.002   0.003   0.000  -0.001   0.000   0.001  -0.002  -0.000   0.000   0.001   0.000  -0.000   0.000   0.000   0.000
  0.001   0.001  -0.002  -0.000  -0.000  -0.000  -0.000   0.001   0.000   0.000  -0.001  -0.000  -0.000  -0.000  -0.000   0.000
 -0.001  -0.003   0.006   0.001  -0.001   0.001   0.002  -0.004  -0.001   0.001   0.005   0.000  -0.000   0.001   0.001  -0.000
 -0.000  -0.001   0.001   0.001  -0.001   0.000   0.001  -0.001  -0.000   0.001   0.002   0.000  -0.000   0.001  -0.000  -0.000
  0.000   0.000  -0.000  -0.000  -0.000  -0.000  -0.000   0.000   0.000   0.000  -0.000   0.000   0.000  -0.000  -0.000  -0.000
  0.000   0.000  -0.000  -0.000   0.000  -0.000  -0.000   0.000   0.000  -0.000  -0.000  -0.000  -0.000  -0.000  -0.000   0.000
  0.000   0.000  -0.000   0.000   0.000  -0.000  -0.000   0.000   0.000  -0.000  -0.000   0.000   0.000  -0.000  -0.000   0.000


------------------------ aborting loop because EDIFF is reached ----------------------------------------


    CHARGE:  cpu time    0.07: real time    0.07
    FORLOC:  cpu time    0.01: real time    0.01
    FORNL :  cpu time    0.74: real time    0.74
    STRESS:  cpu time    0.89: real time    0.89
    FORCOR:  cpu time    0.23: real time    0.23
    FORHAR:  cpu time    0.03: real time    0.03
    MIXING:  cpu time    0.01: real time    0.01
    OFIELD:  cpu time    0.00: real time    0.00

  FORCE on cell =-STRESS in cart. coord.  units (eV):
  Direction    XX          YY          ZZ          XY          YZ          ZX
  --------------------------------------------------------------------------------------
  Alpha Z    31.03880    31.03880    31.03880
  Ewald    8746.54229  7977.67447  7607.97924  1652.80593  1324.49298 -1343.91336
  Hartree 14344.60116 13596.13579 13285.09059  1465.69270  1192.91057 -1181.98411
  E(xc)    -985.29674  -985.40531  -985.43085     0.45970     0.31574    -0.37966
  Local  -25850.31203-24328.43922-23650.05160 -3117.90696 -2518.40847  2524.32805
  n-local  -184.70901  -186.46888  -186.21506     0.71387     0.75501    -0.50458
  augment  1561.14457  1560.58757  1561.07949    -0.58459    -0.04891     0.68194
  Kinetic  2330.89438  2328.95136  2330.46739    -1.40209    -0.11342     1.65818
  Fock        0.00000     0.00000     0.00000     0.00000     0.00000     0.00000
  -------------------------------------------------------------------------------------
  Total      -6.09658    -5.92542    -6.04198    -0.22144    -0.09651    -0.11355
  in kB      -1.23336    -1.19873    -1.22232    -0.04480    -0.01952    -0.02297
  external pressure =       -1.22 kB  Pullay stress =        0.00 kB


 VOLUME and BASIS-vectors are now :
 -----------------------------------------------------------------------------
  energy-cutoff  :      249.84
  volume of cell :     7919.67
      direct lattice vectors                 reciprocal lattice vectors
    19.932832476  0.000000000  0.000000000     0.050168485  0.000000000  0.000000000
     0.000000000 19.932832476  0.000000000     0.000000000  0.050168485  0.000000000
     0.000000000  0.000000000 19.932832476     0.000000000  0.000000000  0.050168485

  length of vectors
    19.932832476 19.932832476 19.932832476     0.050168485  0.050168485  0.050168485


 FORCES acting on ions
    electron-ion (+dipol)            ewald-force                    non-local-force                 convergence-correction
 -----------------------------------------------------------------------------------------------
   0.327E+03 0.107E+04 0.901E+02   -.325E+03 -.107E+04 -.896E+02   -.161E+01 -.537E+01 -.429E+00   -.447E-02 0.677E-02 -.170E-01
   -.842E+03 0.328E+03 0.575E+03   0.836E+03 -.327E+03 -.571E+03   0.570E+01 -.114E+01 -.379E+01   0.527E-01 -.267E-01 0.107E-01
   -.311E+03 0.938E+03 0.459E+03   0.309E+03 -.934E+03 -.459E+03   0.207E+01 -.407E+01 0.113E+00   0.163E-01 -.289E-01 -.929E-02
   0.489E+03 0.386E+03 0.828E+03   -.488E+03 -.385E+03 -.826E+03   -.118E+01 -.980E+00 -.172E+01   -.959E-02 0.308E-01 0.296E-01
   -.139E+03 0.526E+03 -.380E+03   0.140E+03 -.525E+03 0.380E+03   -.131E+01 -.736E+00 -.558E-01   0.599E-02 -.105E-01 -.307E-01
   -.101E+04 0.313E+03 -.258E+03   0.101E+04 -.311E+03 0.258E+03   0.339E+01 -.219E+01 0.215E+00   -.181E-01 -.485E-02 -.189E-02
   -.351E+03 -.999E+02 0.877E+03   0.351E+03 0.101E+03 -.876E+03   -.498E-01 -.651E+00 -.110E+01   -.216E-01 0.110E-01 0.136E-01
   0.685E+03 0.673E+03 -.567E+03   -.682E+03 -.670E+03 0.564E+03   -.280E+01 -.273E+01 0.287E+01   0.841E-02 -.841E-02 0.209E-01
   -.253E+03 -.830E+03 0.716E+03   0.252E+03 0.824E+03 -.711E+03   0.127E+01 0.617E+01 -.463E+01   -.228E-01 0.595E-02 0.163E-02
   -.647E+03 -.705E+03 0.354E+02   0.646E+03 0.705E+03 -.352E+02   0.110E+01 0.207E+00 -.310E+00   -.254E-02 -.178E-02 0.417E-01
   0.447E+03 -.732E+03 0.474E+03   -.445E+03 0.730E+03 -.473E+03   -.151E+01 0.248E+01 -.139E+01   0.152E-01 0.276E-01 -.344E-01
   0.301E+03 0.875E+02 -.111E+04   -.301E+03 -.872E+02 0.110E+04   -.402E+00 -.344E+00 0.523E+01   -.249E-02 -.470E-02 -.145E-01
   -.637E+03 0.821E+02 -.916E+03   0.636E+03 -.818E+02 0.912E+03   0.103E+01 -.247E+00 0.438E+01   -.339E-01 -.192E-01 -.323E-01
   0.942E+03 -.189E+03 0.542E+03   -.936E+03 0.187E+03 -.538E+03   -.578E+01 0.193E+01 -.357E+01   0.130E-03 0.155E-01 0.135E-01
   0.985E+03 -.197E+03 -.264E+03   -.982E+03 0.198E+03 0.263E+03   -.225E+01 -.559E+00 0.103E+01   0.129E-01 -.244E-01 0.885E-02
   0.431E+03 -.840E+03 -.517E+03   -.430E+03 0.838E+03 0.516E+03   -.125E+01 0.204E+01 0.854E+00   0.294E-01 0.122E-01 -.777E-02
   -.415E+03 -.811E+03 -.590E+03   0.412E+03 0.806E+03 0.586E+03   0.275E+01 0.509E+01 0.352E+01   -.303E-01 0.181E-01 0.248E-02
 -----------------------------------------------------------------------------------------------
   0.848E+00 0.109E+01 -.126E+01   -.909E-12 0.909E-12 0.568E-12   -.842E+00 -.110E+01 0.121E+01   -.480E-02 -.132E-02 -.490E-02
 
 
 POSITION                                       TOTAL-FORCE (eV/Angst)
 -----------------------------------------------------------------------------------
      9.02474      6.93675     10.05234        -0.008181      0.007995     -0.014646
     13.77108      8.83473      7.94170         0.010433     -0.009508      0.023271
     11.37033      7.81019      8.80500         0.011191      0.001462     -0.011625
      8.96218      9.21679      8.53322         0.005015      0.008954      0.010305
     10.31978      9.20899     11.11960        -0.006941     -0.012732     -0.016842
     13.06077      9.62310     10.51784         0.001620     -0.007067     -0.013395
     11.59024     10.48723      8.24149         0.014642     -0.022492      0.009447
      7.79995      8.05182     12.22357         0.011711     -0.014887      0.012700
     11.47113     13.17388      7.92195        -0.007682      0.005924      0.004833
     11.94333     12.25346     10.45105         0.004360      0.007912     -0.017027
      9.34953     11.91040      9.24483        -0.011580      0.010407      0.002726
      9.17771     10.14366     13.49781         0.001573      0.003905     -0.005377
     11.90894     10.79007     12.78118        -0.014534     -0.012513      0.005836
      6.76062     10.77858      8.54278        -0.004396      0.018083      0.011660
      7.76593     10.54885     11.06425         0.017380     -0.002111     -0.007262
      9.62180     12.45424     12.05382        -0.012714     -0.001893     -0.006980
     11.99425     13.57345     12.87796        -0.011896      0.018561      0.012375
 -----------------------------------------------------------------------------------
    total drift:                                0.001118     -0.012179     -0.050709


--------------------------------------------------------------------------------------------------------



  FREE ENERGIE OF THE ION-ELECTRON SYSTEM (eV)
  ---------------------------------------------------
  free  energy   TOTEN  =       -32.48246692 eV

  energy  without entropy=      -32.48246692  energy(sigma->0) =      -32.48246692
 
 d Force = 0.3489323E-03[ 0.207E-03, 0.491E-03]  d Energy = 0.5259594E-03-0.177E-03
 d Force =-0.1814323E+01[-0.182E+01,-0.181E+01]  d Ewald  =-0.1814327E+01 0.403E-05


--------------------------------------------------------------------------------------------------------


    POTLOK:  cpu time    0.24: real time    0.24


--------------------------------------------------------------------------------------------------------




--------------------------------------------------------------------------------------------------------


  
 reached required accuracy - stopping structural energy minimisation
     LOOP+:  cpu time    7.12: real time    7.25
    4ORBIT:  cpu time    0.00: real time    0.00

 total amount of memory used by VASP on root node    56540. kBytes
========================================================================

   base      :      30000. kBytes
   nonl-proj :       1845. kBytes
   fftplans  :       5770. kBytes
   grid      :      14451. kBytes
   one-center:         46. kBytes
   wavefun   :       4428. kBytes
 
  
  
 General timing and accounting informations for this job:
 ========================================================
  
                  Total CPU time used (sec):      662.097
                            User time (sec):      654.877
                          System time (sec):        7.220
                         Elapsed time (sec):      710.189
  
                   Maximum memory used (kb):       64744.
                   Average memory used (kb):           0.
  
                          Minor page faults:      1188685
                          Major page faults:            0
                 Voluntary context switches:        10146
