unknown system                          
           1
    19.932832    0.000000    0.000000
     0.000000   19.932832    0.000000
     0.000000    0.000000   19.932832
   Ag
  17
Direct configuration=     1
   0.43437135  0.33064621  0.47005588
   0.67789623  0.42407535  0.42783623
   0.55435051  0.38317123  0.45258353
   0.44420911  0.46130522  0.43696030
   0.54730483  0.44713373  0.56954682
   0.66472687  0.50098727  0.53604480
   0.58179197  0.52045877  0.42470661
   0.42120391  0.40807060  0.57786258
   0.56556268  0.65142003  0.39161020
   0.58768103  0.62497528  0.52116990
   0.46887953  0.59301569  0.46253324
   0.46832778  0.50156079  0.66576772
   0.59830178  0.55846340  0.63907254
   0.34344291  0.55080520  0.43767655
   0.39259263  0.53976406  0.56049652
   0.47924989  0.62950692  0.61172247
   0.59435763  0.69406893  0.63750477
Direct configuration=     2
   0.43419684  0.33043543  0.47009775
   0.67817673  0.42403217  0.42763707
   0.55450817  0.38311111  0.45230146
   0.44421370  0.46133850  0.43699207
   0.54742191  0.44727625  0.56962696
   0.66498479  0.50111548  0.53606798
   0.58171890  0.52032540  0.42466221
   0.42083423  0.40788566  0.57792270
   0.56573775  0.65153773  0.39139327
   0.58787452  0.62499302  0.52113697
   0.46882802  0.59317999  0.46257269
   0.46834041  0.50161040  0.66605073
   0.59828189  0.55831524  0.63927707
   0.34315260  0.55075262  0.43752498
   0.39235631  0.53969373  0.56057730
   0.47914840  0.62958951  0.61168527
   0.59447548  0.69423642  0.63762420
Direct configuration=     3
   0.43367332  0.32980309  0.47022336
   0.67901823  0.42390265  0.42703960
   0.55498114  0.38293076  0.45145524
   0.44422748  0.46143837  0.43708736
   0.54777313  0.44770379  0.56986738
   0.66575855  0.50150010  0.53613751
   0.58149970  0.51992530  0.42452899
   0.41972517  0.40733082  0.57810308
   0.56626295  0.65189085  0.39074247
   0.58845499  0.62504626  0.52103817
   0.46867350  0.59367290  0.46269105
   0.46837830  0.50175923  0.66689977
   0.59822221  0.55787076  0.63989068
   0.34228168  0.55059487  0.43707026
   0.39164734  0.53948275  0.56081963
   0.47884393  0.62983729  0.61157364
   0.59482904  0.69473888  0.63798248
Direct configuration=     4
   0.43262628  0.32853841  0.47047457
   0.68070122  0.42364360  0.42584467
   0.55592708  0.38257007  0.44976282
   0.44425503  0.46163811  0.43727796
   0.54847559  0.44855889  0.57034821
   0.66730607  0.50226934  0.53627658
   0.58106128  0.51912510  0.42426255
   0.41750706  0.40622116  0.57846382
   0.56731337  0.65259708  0.38944089
   0.58961592  0.62515272  0.52084058
   0.46836446  0.59465872  0.46292775
   0.46845407  0.50205689  0.66859785
   0.59810285  0.55698180  0.64111790
   0.34053984  0.55027936  0.43616081
   0.39022939  0.53906078  0.56130428
   0.47823499  0.63033285  0.61135039
   0.59553615  0.69574381  0.63869904
Direct configuration=     5
   0.43053220  0.32600905  0.47097701
   0.68406720  0.42312550  0.42345479
   0.55781896  0.38184869  0.44637796
   0.44431013  0.46203757  0.43765914
   0.54988050  0.45026907  0.57130987
   0.67040112  0.50380782  0.53655472
   0.58018445  0.51752469  0.42372967
   0.41307085  0.40400182  0.57918530
   0.56941420  0.65400954  0.38683771
   0.59193779  0.62536564  0.52044540
   0.46774638  0.59663035  0.46340116
   0.46860561  0.50265220  0.67199401
   0.59786414  0.55520387  0.64357235
   0.33705614  0.54964836  0.43434192
   0.38739349  0.53821685  0.56227359
   0.47701712  0.63132398  0.61090388
   0.59695037  0.69775367  0.64013217
Direct configuration=     6
   0.43110332  0.32669888  0.47083998
   0.68314920  0.42326680  0.42410658
   0.55730299  0.38204543  0.44730111
   0.44429510  0.46192863  0.43755518
   0.54949734  0.44980266  0.57104760
   0.66955701  0.50338823  0.53647887
   0.58042359  0.51796117  0.42387500
   0.41428073  0.40460710  0.57898853
   0.56884124  0.65362432  0.38754767
   0.59130455  0.62530757  0.52055317
   0.46791495  0.59609263  0.46327205
   0.46856428  0.50248984  0.67106778
   0.59792924  0.55568876  0.64290295
   0.33800624  0.54982045  0.43483799
   0.38816692  0.53844701  0.56200924
   0.47734927  0.63105367  0.61102566
   0.59656467  0.69720552  0.63974132
Direct configuration=     7
   0.43114127  0.32682368  0.47097669
   0.68388273  0.42365116  0.42380426
   0.55708948  0.38196527  0.44676392
   0.44421375  0.46185038  0.43820874
   0.54884052  0.44990314  0.57061790
   0.67021442  0.50371558  0.53610382
   0.58028227  0.51791885  0.42408388
   0.41384248  0.40469026  0.57933353
   0.56933254  0.65322588  0.38750481
   0.59169461  0.62513972  0.52067643
   0.46770844  0.59644664  0.46341480
   0.46829977  0.50243767  0.67116925
   0.59781074  0.55607013  0.64326118
   0.33788701  0.54945456  0.43481331
   0.38778334  0.53816920  0.56191189
   0.47768642  0.63109639  0.61073122
   0.59654087  0.69687017  0.63977505
Direct configuration=     8
   0.43125512  0.32719806  0.47138679
   0.68608332  0.42480422  0.42289729
   0.55644896  0.38172479  0.44515236
   0.44396969  0.46161562  0.44016940
   0.54687006  0.45020457  0.56932880
   0.67218663  0.50469761  0.53497869
   0.57985830  0.51779188  0.42471050
   0.41252772  0.40493974  0.58036854
   0.57080641  0.65203057  0.38737624
   0.59286479  0.62463617  0.52104621
   0.46708893  0.59750866  0.46384304
   0.46750622  0.50228117  0.67147365
   0.59745525  0.55721424  0.64433588
   0.33752930  0.54835690  0.43473927
   0.38663258  0.53733577  0.56161985
   0.47869789  0.63122456  0.60984792
   0.59646948  0.69586413  0.63987623
Direct configuration=     9
   0.43148283  0.32794683  0.47220700
   0.69048450  0.42711036  0.42108335
   0.55516792  0.38124383  0.44192925
   0.44348157  0.46114611  0.44409073
   0.54292914  0.45080744  0.56675061
   0.67613105  0.50666166  0.53272843
   0.57901038  0.51753796  0.42596374
   0.40989821  0.40543870  0.58243855
   0.57375416  0.64963995  0.38711908
   0.59520514  0.62362909  0.52178576
   0.46584991  0.59963270  0.46469953
   0.46591913  0.50196817  0.67208246
   0.59674426  0.55950246  0.64648527
   0.33681388  0.54616158  0.43459119
   0.38433107  0.53566891  0.56103578
   0.48072081  0.63148090  0.60808131
   0.59632669  0.69385203  0.64007861
Direct configuration=    10
   0.43133902  0.32747392  0.47168897
   0.68770480  0.42565385  0.42222900
   0.55597700  0.38154759  0.44396491
   0.44378986  0.46144264  0.44161409
   0.54541815  0.45042668  0.56837895
   0.67363982  0.50542120  0.53414965
   0.57954591  0.51769833  0.42517221
   0.41155896  0.40512356  0.58113117
   0.57189242  0.65114982  0.38728150
   0.59372702  0.62426514  0.52131868
   0.46663245  0.59829120  0.46415859
   0.46692151  0.50216586  0.67169795
   0.59719331  0.55805726  0.64512775
   0.33726572  0.54754811  0.43468471
   0.38578466  0.53672167  0.56140467
   0.47944317  0.63131900  0.60919707
   0.59641687  0.69512283  0.63995079
Direct configuration=    11
   0.43142813  0.32778387  0.47213020
   0.68803392  0.42636105  0.42188711
   0.55640296  0.38166119  0.44301012
   0.44359625  0.46161589  0.44297028
   0.54480784  0.45129543  0.56726523
   0.67377469  0.50589556  0.53392446
   0.57950399  0.51748319  0.42581268
   0.41092606  0.40503643  0.58176859
   0.57260846  0.65030023  0.38750302
   0.59421847  0.62378065  0.52123685
   0.46653687  0.59865492  0.46441292
   0.46649398  0.50221832  0.67149518
   0.59709156  0.55777211  0.64509398
   0.33724254  0.54696051  0.43462512
   0.38560798  0.53675772  0.56136259
   0.47946646  0.63093607  0.60853202
   0.59651052  0.69491553  0.64012032
Direct configuration=    12
   0.43169545  0.32871370  0.47345388
   0.68902126  0.42848266  0.42086143
   0.55768082  0.38200197  0.44014575
   0.44301542  0.46213565  0.44703884
   0.54297688  0.45390169  0.56392408
   0.67417927  0.50731864  0.53324889
   0.57937821  0.51683774  0.42773407
   0.40902734  0.40477501  0.58368086
   0.57475661  0.64775147  0.38816757
   0.59569285  0.62232716  0.52099137
   0.46625012  0.59974609  0.46517592
   0.46521139  0.50237573  0.67088689
   0.59678631  0.55691664  0.64499265
   0.33717299  0.54519774  0.43444634
   0.38507792  0.53686589  0.56123635
   0.47953632  0.62978728  0.60653686
   0.59679148  0.69429361  0.64062891
Direct configuration=    13
   0.43223010  0.33057338  0.47610124
   0.69099594  0.43272588  0.41881007
   0.56023655  0.38268354  0.43441700
   0.44185377  0.46317515  0.45517595
   0.53931497  0.45911421  0.55724178
   0.67498845  0.51016480  0.53189776
   0.57912665  0.51554686  0.43157686
   0.40522991  0.40425219  0.58750540
   0.57905290  0.64265394  0.38949668
   0.59864159  0.61942019  0.52050041
   0.46567663  0.60192842  0.46670193
   0.46264621  0.50269053  0.66967030
   0.59617582  0.55520570  0.64479000
   0.33703389  0.54167220  0.43408877
   0.38401781  0.53708223  0.56098386
   0.47967605  0.62748969  0.60254655
   0.59735340  0.69304978  0.64164608
Direct configuration=    14
   0.43187832  0.32934979  0.47435939
   0.68969668  0.42993401  0.42015978
   0.55855499  0.38223510  0.43818628
   0.44261809  0.46249120  0.44982206
   0.54172436  0.45568459  0.56163846
   0.67445604  0.50829214  0.53278675
   0.57929216  0.51639621  0.42904847
   0.40772847  0.40459619  0.58498901
   0.57622612  0.64600790  0.38862218
   0.59670144  0.62133286  0.52082344
   0.46605396  0.60049253  0.46569788
   0.46433399  0.50248340  0.67047077
   0.59657750  0.55633143  0.64492334
   0.33712541  0.54399186  0.43432404
   0.38471532  0.53693989  0.56114999
   0.47958412  0.62900141  0.60517201
   0.59698368  0.69386817  0.64097683
Direct configuration=    15
   0.43257783  0.32964109  0.47502815
   0.68908647  0.43047703  0.41980318
   0.55903314  0.38213012  0.43746130
   0.44344173  0.46232066  0.45125724
   0.54122041  0.45709789  0.56019778
   0.67435012  0.50792511  0.53363401
   0.57912523  0.51600962  0.42929301
   0.40725924  0.40427107  0.58576112
   0.57649138  0.64585098  0.38830212
   0.59645352  0.62195721  0.52155274
   0.46650977  0.60030031  0.46529184
   0.46439614  0.50259571  0.67021936
   0.59653988  0.55498806  0.64424637
   0.33667079  0.54405735  0.43389629
   0.38459833  0.53747096  0.56135879
   0.47974156  0.62876015  0.60501810
   0.59675510  0.69357536  0.64082926
Direct configuration=    16
   0.43351900  0.33003302  0.47592794
   0.68826545  0.43120764  0.41932340
   0.55967648  0.38198887  0.43648587
   0.44454991  0.46209120  0.45318821
   0.54054237  0.45899945  0.55825940
   0.67420760  0.50743128  0.53477396
   0.57890064  0.51548948  0.42962203
   0.40662790  0.40383364  0.58679996
   0.57684828  0.64563983  0.38787148
   0.59611995  0.62279726  0.52253398
   0.46712305  0.60004167  0.46474554
   0.46447976  0.50274682  0.66988110
   0.59648927  0.55318060  0.64333554
   0.33605911  0.54414546  0.43332078
   0.38444093  0.53818549  0.56163973
   0.47995340  0.62843554  0.60481103
   0.59644755  0.69318139  0.64063071
Direct configuration=    17
   0.43483801  0.32986381  0.47690811
   0.68778189  0.43170770  0.41891413
   0.55988671  0.38105736  0.43591718
   0.44428172  0.46275632  0.45398714
   0.53968575  0.46011869  0.55711431
   0.67412210  0.50656467  0.53561702
   0.57897533  0.51664551  0.42951277
   0.40618427  0.40390704  0.58771723
   0.57695919  0.64555742  0.38775546
   0.59572866  0.62336793  0.52204750
   0.46752006  0.59937259  0.46392181
   0.46482562  0.50269600  0.66984681
   0.59658955  0.55206496  0.64325843
   0.33661114  0.54408441  0.43331664
   0.38407071  0.53849450  0.56117773
   0.48007486  0.62835721  0.60525086
   0.59611509  0.69281254  0.64088755
Direct configuration=    18
   0.43509632  0.32983068  0.47710006
   0.68768719  0.43180563  0.41883398
   0.55992787  0.38087494  0.43580581
   0.44422920  0.46288657  0.45414360
   0.53951800  0.46033788  0.55689006
   0.67410536  0.50639496  0.53578211
   0.57898996  0.51687190  0.42949138
   0.40609739  0.40392141  0.58789686
   0.57698091  0.64554128  0.38773273
   0.59565203  0.62347968  0.52195224
   0.46759780  0.59924157  0.46376050
   0.46489335  0.50268605  0.66984009
   0.59660919  0.55184649  0.64324333
   0.33671924  0.54407245  0.43331583
   0.38399820  0.53855502  0.56108725
   0.48009865  0.62834187  0.60533699
   0.59604998  0.69274030  0.64093785
Direct configuration=    19
   0.43622290  0.32985712  0.47799102
   0.68748892  0.43218686  0.41857662
   0.55979081  0.38095871  0.43570973
   0.44353204  0.46248063  0.45368407
   0.53890986  0.46042848  0.55663938
   0.67387222  0.50573384  0.53582309
   0.57947494  0.51696245  0.42925425
   0.40580884  0.40431483  0.58825192
   0.57700588  0.64621875  0.38728621
   0.59566772  0.62341179  0.52158453
   0.46751735  0.59912554  0.46339828
   0.46509125  0.50261315  0.66993713
   0.59677344  0.55202177  0.64365682
   0.33719752  0.54418976  0.43316857
   0.38394591  0.53849689  0.56106388
   0.48000915  0.62810374  0.60579210
   0.59594190  0.69232436  0.64133307
Direct configuration=    20
   0.43890531  0.32992009  0.48011242
   0.68701685  0.43309459  0.41796382
   0.55946446  0.38115816  0.43548095
   0.44187207  0.46151407  0.45258994
   0.53746188  0.46064420  0.55604250
   0.67331709  0.50415971  0.53592067
   0.58062967  0.51717805  0.42868965
   0.40512180  0.40525157  0.58909734
   0.57706533  0.64783185  0.38622301
   0.59570508  0.62325012  0.52070902
   0.46732578  0.59884926  0.46253581
   0.46556247  0.50243959  0.67016818
   0.59716454  0.55243913  0.64464135
   0.33833632  0.54446908  0.43281794
   0.38382141  0.53835847  0.56100824
   0.47979605  0.62753675  0.60687572
   0.59568456  0.69133398  0.64227409
Direct configuration=    21
   0.43816067  0.32990261  0.47952352
   0.68714789  0.43284261  0.41813393
   0.55955506  0.38110279  0.43554446
   0.44233287  0.46178239  0.45289367
   0.53786384  0.46058431  0.55620819
   0.67347120  0.50459669  0.53589358
   0.58030912  0.51711820  0.42884639
   0.40531252  0.40499153  0.58886265
   0.57704882  0.64738406  0.38651815
   0.59569471  0.62329500  0.52095206
   0.46737896  0.59892596  0.46277523
   0.46543166  0.50248777  0.67010404
   0.59705597  0.55232327  0.64436805
   0.33802019  0.54439154  0.43291527
   0.38385597  0.53839689  0.56102369
   0.47985521  0.62769415  0.60657491
   0.59575600  0.69160891  0.64201286
Direct configuration=    22
   0.43912237  0.32966653  0.48071793
   0.68736756  0.43294007  0.41758564
   0.55964558  0.38166649  0.43542815
   0.44207664  0.46127024  0.45225739
   0.53741129  0.46078109  0.55614294
   0.67290871  0.50408405  0.53609944
   0.58026654  0.51758479  0.42848302
   0.40488135  0.40521580  0.58908136
   0.57689498  0.64778443  0.38635929
   0.59563357  0.62302020  0.52103269
   0.46763811  0.59876290  0.46264000
   0.46561253  0.50246627  0.67035641
   0.59715972  0.55236304  0.64433813
   0.33797157  0.54483047  0.43248050
   0.38407315  0.53841237  0.56110869
   0.47982528  0.62736541  0.60675365
   0.59576170  0.69121453  0.64228543
Direct configuration=    23
   0.44200748  0.32895828  0.48430115
   0.68802655  0.43323244  0.41594079
   0.55991717  0.38335758  0.43507921
   0.44130793  0.45973378  0.45034857
   0.53605364  0.46137142  0.55594719
   0.67122123  0.50254613  0.53671702
   0.58013882  0.51898457  0.42739292
   0.40358782  0.40588863  0.58973748
   0.57643345  0.64898556  0.38588270
   0.59545016  0.62219580  0.52127457
   0.46841554  0.59827371  0.46223430
   0.46615516  0.50240177  0.67111352
   0.59747098  0.55248236  0.64424839
   0.33782572  0.54614726  0.43117616
   0.38472469  0.53845882  0.56136369
   0.47973548  0.62637919  0.60728988
   0.59577881  0.69003138  0.64310311
Direct configuration=    24
   0.44294208  0.32866942  0.48570908
   0.68816232  0.43348778  0.41543733
   0.56030022  0.38406343  0.43491715
   0.44098279  0.45966721  0.44987875
   0.53545627  0.46165058  0.55578962
   0.67067374  0.50189523  0.53659270
   0.58017859  0.51916740  0.42697152
   0.40308721  0.40596352  0.58997295
   0.57625981  0.64927301  0.38601317
   0.59538120  0.62207290  0.52148126
   0.46845183  0.59791514  0.46229923
   0.46622699  0.50229854  0.67146656
   0.59749580  0.55217678  0.64416751
   0.33800278  0.54655428  0.43100036
   0.38493188  0.53846195  0.56084625
   0.47985929  0.62624578  0.60730855
   0.59585786  0.68986571  0.64329866
Direct configuration=    25
   0.44574585  0.32780285  0.48993288
   0.68856965  0.43425378  0.41392697
   0.56144939  0.38618098  0.43443097
   0.44000734  0.45946753  0.44846928
   0.53366415  0.46248806  0.55531691
   0.66903124  0.49994253  0.53621976
   0.58029787  0.51971590  0.42570732
   0.40158538  0.40618818  0.59067933
   0.57573887  0.65013536  0.38640459
   0.59517433  0.62170423  0.52210133
   0.46856069  0.59683940  0.46249403
   0.46644248  0.50198883  0.67252570
   0.59757025  0.55126006  0.64392489
   0.33853397  0.54777535  0.43047295
   0.38555345  0.53847135  0.55929393
   0.48023072  0.62584558  0.60736454
   0.59609502  0.68936871  0.64388530
Direct configuration=    26
   0.44741878  0.32807565  0.49151054
   0.68888308  0.43484691  0.41324593
   0.56164080  0.38664403  0.43436653
   0.43975853  0.45892890  0.44817209
   0.53247075  0.46286661  0.55492592
   0.66840468  0.49898191  0.53562491
   0.58050906  0.52008551  0.42514829
   0.40085544  0.40631547  0.59122642
   0.57549320  0.65038287  0.38699976
   0.59515263  0.62163006  0.52224810
   0.46869613  0.59659050  0.46259821
   0.46616819  0.50184980  0.67276023
   0.59753677  0.55059796  0.64390395
   0.33863788  0.54825965  0.43021179
   0.38589249  0.53828443  0.55873445
   0.48044404  0.62576280  0.60735906
   0.59628820  0.68932560  0.64411451
Direct configuration=    27
   0.45243759  0.32889405  0.49624350
   0.68982335  0.43662630  0.41120282
   0.56221504  0.38803320  0.43417320
   0.43901211  0.45731302  0.44728052
   0.52889054  0.46400227  0.55375297
   0.66652502  0.49610004  0.53384036
   0.58114260  0.52119432  0.42347120
   0.39866563  0.40669737  0.59286770
   0.57475620  0.65112543  0.38878526
   0.59508752  0.62140757  0.52268841
   0.46910247  0.59584379  0.46291073
   0.46534530  0.50143273  0.67346379
   0.59743633  0.54861165  0.64384111
   0.33894960  0.54971254  0.42942829
   0.38690961  0.53772368  0.55705603
   0.48108399  0.62551448  0.60734263
   0.59686775  0.68919626  0.64480215
Direct configuration=    28
   0.45470093  0.33014040  0.49796988
   0.69025296  0.43729613  0.41001510
   0.56275830  0.38794195  0.43411710
   0.43824170  0.45664639  0.44672033
   0.52739848  0.46452269  0.55344601
   0.66539827  0.49524358  0.53332613
   0.58157047  0.52137256  0.42290877
   0.39756716  0.40655062  0.59398441
   0.57461782  0.65206114  0.38936937
   0.59555771  0.62109835  0.52329805
   0.46944570  0.59595698  0.46273632
   0.46451830  0.50166784  0.67323718
   0.59735411  0.54795193  0.64342281
   0.33911604  0.54968743  0.42882964
   0.38725438  0.53733672  0.55739917
   0.48133871  0.62526711  0.60753646
   0.59715961  0.68868688  0.64483392
Direct configuration=    29
   0.45960099  0.33283871  0.50170743
   0.69118305  0.43874628  0.40744374
   0.56393444  0.38774442  0.43399564
   0.43657380  0.45520315  0.44550755
   0.52416823  0.46564936  0.55278147
   0.66295891  0.49338937  0.53221285
   0.58249680  0.52175843  0.42169114
   0.39518901  0.40623291  0.59640204
   0.57431822  0.65408691  0.39063395
   0.59657566  0.62042890  0.52461788
   0.47018877  0.59620203  0.46235873
   0.46272789  0.50217685  0.67274658
   0.59717611  0.54652366  0.64251721
   0.33947636  0.54963307  0.42753358
   0.38800078  0.53649897  0.55814206
   0.48189016  0.62473155  0.60795610
   0.59779149  0.68758410  0.64490271
Direct configuration=    30
   0.46124072  0.33396351  0.50322731
   0.69139678  0.43914233  0.40643875
   0.56481184  0.38794776  0.43382294
   0.43591668  0.45501889  0.44492656
   0.52316008  0.46593991  0.55248652
   0.66211106  0.49254132  0.53186256
   0.58262059  0.52213393  0.42122630
   0.39414436  0.40576690  0.59739986
   0.57436178  0.65482109  0.39117496
   0.59698522  0.62012996  0.52459708
   0.47030943  0.59605878  0.46236593
   0.46215744  0.50247181  0.67289270
   0.59701786  0.54595475  0.64238030
   0.33981472  0.54935985  0.42731156
   0.38805153  0.53638380  0.55793024
   0.48203222  0.62464450  0.60806512
   0.59811833  0.68714958  0.64504196
Direct configuration=    31
   0.46615989  0.33733791  0.50778695
   0.69203799  0.44033048  0.40342381
   0.56744407  0.38855779  0.43330484
   0.43394532  0.45446610  0.44318360
   0.52013563  0.46681154  0.55160168
   0.65956753  0.48999717  0.53081169
   0.58299198  0.52326041  0.41983179
   0.39101043  0.40436888  0.60039331
   0.57449246  0.65702364  0.39279799
   0.59821390  0.61923314  0.52453465
   0.47067140  0.59562905  0.46238751
   0.46044610  0.50335669  0.67333106
   0.59654311  0.54424802  0.64196959
   0.34082981  0.54854019  0.42664550
   0.38820379  0.53603828  0.55729479
   0.48245841  0.62438335  0.60839221
   0.59909884  0.68584601  0.64545970
Direct configuration=    32
   0.46447720  0.33618364  0.50622725
   0.69181865  0.43992405  0.40445512
   0.56654367  0.38834912  0.43348206
   0.43461966  0.45465519  0.44377981
   0.52117020  0.46651339  0.55190436
   0.66043759  0.49086744  0.53117115
   0.58286494  0.52287508  0.42030881
   0.39208245  0.40484710  0.59936935
   0.57444776  0.65627022  0.39224281
   0.59779361  0.61953992  0.52455601
   0.47054758  0.59577605  0.46238013
   0.46103149  0.50305401  0.67318111
   0.59670550  0.54483184  0.64211008
   0.34048258  0.54882057  0.42687334
   0.38815171  0.53615647  0.55751216
   0.48231263  0.62447268  0.60828032
   0.59876344  0.68629192  0.64531680
Direct configuration=    33
   0.46442824  0.33667526  0.50677607
   0.69174676  0.43994815  0.40418481
   0.56697206  0.38895050  0.43340705
   0.43510976  0.45451834  0.44351600
   0.52123018  0.46643734  0.55189449
   0.66043984  0.49028979  0.53105463
   0.58262732  0.52324626  0.42003235
   0.39168401  0.40472236  0.59957678
   0.57461300  0.65636876  0.39241447
   0.59777158  0.61945604  0.52417078
   0.47049171  0.59549160  0.46265433
   0.46110663  0.50306516  0.67358942
   0.59650027  0.54467341  0.64231714
   0.34033659  0.54879847  0.42698922
   0.38787004  0.53607122  0.55702210
   0.48234412  0.62461383  0.60808639
   0.59897853  0.68610218  0.64546462
Direct configuration=    34
   0.46435507  0.33740990  0.50759618
   0.69163934  0.43998415  0.40378087
   0.56761221  0.38984914  0.43329497
   0.43584212  0.45431385  0.44312180
   0.52131981  0.46632371  0.55187974
   0.66044320  0.48942659  0.53088052
   0.58227226  0.52380092  0.41961923
   0.39108863  0.40453597  0.59988675
   0.57485992  0.65651601  0.39267098
   0.59773865  0.61933070  0.52359513
   0.47040822  0.59506655  0.46306408
   0.46121892  0.50308183  0.67419955
   0.59619360  0.54443667  0.64262654
   0.34011844  0.54876545  0.42716239
   0.38744915  0.53594383  0.55628981
   0.48239117  0.62482475  0.60779660
   0.59929995  0.68581864  0.64568551
Direct configuration=    35
   0.46427063  0.33779498  0.50792465
   0.69165747  0.44012092  0.40345963
   0.56753878  0.39033357  0.43353468
   0.43657934  0.45452074  0.44251455
   0.52154502  0.46626844  0.55225890
   0.66033798  0.48894977  0.53083329
   0.58219597  0.52396241  0.41924963
   0.39070027  0.40488658  0.60021723
   0.57499387  0.65677419  0.39261126
   0.59777777  0.61911002  0.52383406
   0.47031397  0.59490953  0.46327995
   0.46125460  0.50311180  0.67417331
   0.59604287  0.54439950  0.64253428
   0.33988251  0.54856171  0.42722323
   0.38729923  0.53555594  0.55633072
   0.48233745  0.62475525  0.60748733
   0.59952293  0.68541336  0.64568395
Direct configuration=    36
   0.46408490  0.33864190  0.50864708
   0.69169734  0.44042172  0.40275310
   0.56737727  0.39139902  0.43406190
   0.43820077  0.45497576  0.44117895
   0.52204034  0.46614688  0.55309283
   0.66010655  0.48790103  0.53072941
   0.58202820  0.52431757  0.41843673
   0.38984609  0.40565772  0.60094410
   0.57528849  0.65734202  0.39247992
   0.59786382  0.61862465  0.52435957
   0.47010667  0.59456418  0.46375476
   0.46133310  0.50317773  0.67411558
   0.59571136  0.54431774  0.64233135
   0.33936360  0.54811359  0.42735704
   0.38696949  0.53470281  0.55642070
   0.48221930  0.62460238  0.60680712
   0.60001335  0.68452199  0.64568051
Direct configuration=    37
   0.46383025  0.33916627  0.50901726
   0.69164469  0.44068917  0.40239744
   0.56728624  0.39149921  0.43454270
   0.43894558  0.45569948  0.44036704
   0.52194086  0.46587576  0.55341056
   0.65985498  0.48750193  0.53051439
   0.58220242  0.52474311  0.41799299
   0.38947806  0.40575517  0.60147453
   0.57528964  0.65747056  0.39277897
   0.59797150  0.61820693  0.52415598
   0.47014015  0.59466050  0.46376398
   0.46124815  0.50332611  0.67404706
   0.59589578  0.54416533  0.64232948
   0.33934945  0.54754761  0.42757061
   0.38696305  0.53449715  0.55647228
   0.48199679  0.62445679  0.60653304
   0.60021306  0.68416759  0.64578236
Direct configuration=    38
   0.46330297  0.34025200  0.50978372
   0.69153567  0.44124293  0.40166102
   0.56709776  0.39170667  0.43553822
   0.44048775  0.45719799  0.43868594
   0.52173486  0.46531441  0.55406843
   0.65933409  0.48667558  0.53006919
   0.58256316  0.52562420  0.41707420
   0.38871604  0.40595696  0.60257282
   0.57529201  0.65773671  0.39339817
   0.59819446  0.61734202  0.52373442
   0.47020948  0.59485994  0.46378308
   0.46107227  0.50363334  0.67390517
   0.59627764  0.54384977  0.64232563
   0.33932014  0.54637571  0.42801281
   0.38694970  0.53407133  0.55657908
   0.48153607  0.62415534  0.60596554
   0.60062659  0.68343378  0.64599323
Direct configuration=    39
   0.46284340  0.34088600  0.50998455
   0.69131523  0.44149442  0.40135484
   0.56736488  0.39183769  0.43598295
   0.44130560  0.45773414  0.43802140
   0.52138659  0.46496284  0.55424697
   0.65902799  0.48636091  0.52975220
   0.58283920  0.52545491  0.41660475
   0.38838437  0.40574830  0.60323737
   0.57522232  0.65815575  0.39370191
   0.59833549  0.61699057  0.52379213
   0.47016470  0.59515478  0.46370928
   0.46095529  0.50383818  0.67401293
   0.59656210  0.54365764  0.64226868
   0.33925010  0.54584833  0.42821907
   0.38705240  0.53406722  0.55646097
   0.48163368  0.62417465  0.60582763
   0.60060731  0.68306235  0.64597303
Direct configuration=    40
   0.46195582  0.34211048  0.51037242
   0.69088948  0.44198013  0.40076350
   0.56788079  0.39209075  0.43684187
   0.44288516  0.45876963  0.43673795
   0.52071395  0.46428385  0.55459179
   0.65843680  0.48575319  0.52913999
   0.58337234  0.52512795  0.41569808
   0.38774378  0.40534530  0.60452085
   0.57508772  0.65896505  0.39428855
   0.59860788  0.61631179  0.52390359
   0.47007823  0.59572420  0.46356675
   0.46072936  0.50423380  0.67422105
   0.59711150  0.54328656  0.64215870
   0.33911481  0.54482977  0.42861744
   0.38725076  0.53405929  0.55623284
   0.48182219  0.62421195  0.60556128
   0.60057008  0.68234499  0.64593401
Direct configuration=    41
   0.46127376  0.34279830  0.51012228
   0.69104525  0.44198860  0.40024135
   0.56842648  0.39187044  0.43740292
   0.44387278  0.45910934  0.43605417
   0.52021002  0.46409759  0.55496564
   0.65802562  0.48542896  0.52886642
   0.58308711  0.52543013  0.41514996
   0.38741064  0.40516393  0.60552167
   0.57497940  0.65934030  0.39483999
   0.59872343  0.61595832  0.52397610
   0.47014675  0.59620153  0.46335881
   0.46058918  0.50454997  0.67443336
   0.59729242  0.54279389  0.64193079
   0.33887884  0.54432941  0.42869888
   0.38761026  0.53391172  0.55612317
   0.48224154  0.62432606  0.60554778
   0.60043718  0.68213019  0.64591737
Direct configuration=    42
   0.45977222  0.34431253  0.50957159
   0.69138816  0.44200727  0.39909184
   0.56962781  0.39138543  0.43863809
   0.44604704  0.45985719  0.43454883
   0.51910062  0.46368752  0.55578866
   0.65712038  0.48471517  0.52826416
   0.58245919  0.52609537  0.41394327
   0.38667724  0.40476466  0.60772500
   0.57474092  0.66016642  0.39605398
   0.59897783  0.61518014  0.52413573
   0.47029761  0.59725237  0.46290104
   0.46028055  0.50524603  0.67490075
   0.59769070  0.54170926  0.64142905
   0.33835934  0.54322788  0.42887816
   0.38840169  0.53358685  0.55588172
   0.48316475  0.62457727  0.60551805
   0.60014462  0.68165730  0.64588073
Direct configuration=    43
   0.45891572  0.34493079  0.50913107
   0.69146616  0.44204516  0.39867166
   0.57036714  0.39134787  0.43924642
   0.44683921  0.46040813  0.43374665
   0.51864985  0.46360850  0.55619276
   0.65667971  0.48423669  0.52770026
   0.58210627  0.52600141  0.41347371
   0.38655543  0.40478387  0.60882328
   0.57478947  0.66072511  0.39656416
   0.59913642  0.61493022  0.52413879
   0.46995665  0.59754341  0.46288117
   0.46010889  0.50567221  0.67518589
   0.59772098  0.54119703  0.64128268
   0.33840906  0.54260744  0.42895965
   0.38894453  0.53322750  0.55567729
   0.48333533  0.62448962  0.60546976
   0.60026983  0.68167372  0.64600545
Direct configuration=    44
   0.45746923  0.34597493  0.50838709
   0.69159790  0.44210914  0.39796203
   0.57161577  0.39128444  0.44027380
   0.44817706  0.46133858  0.43239187
   0.51788857  0.46347505  0.55687521
   0.65593547  0.48342859  0.52674792
   0.58151023  0.52584272  0.41268069
   0.38634971  0.40481632  0.61067812
   0.57487147  0.66166868  0.39742579
   0.59940427  0.61450814  0.52414396
   0.46938082  0.59803494  0.46284760
   0.45981897  0.50639196  0.67566744
   0.59777211  0.54033194  0.64103549
   0.33849305  0.54155959  0.42909727
   0.38986131  0.53262060  0.55533205
   0.48362342  0.62434161  0.60538822
   0.60048131  0.68170145  0.64621609
Direct configuration=    45
   0.45682445  0.34655576  0.50801313
   0.69165048  0.44227741  0.39780894
   0.57156830  0.39143970  0.44081976