 running on   32 total cores
 distrk:  each k-point on   32 cores,    1 groups
 distr:  one band on    8 cores,    4 groups
 using from now: INCAR     
 vasp.5.3.5 31Mar14 (build Feb 01 2018 12:10:03) gamma-only                     
  
 POSCAR found type information on POSCAR  Ag
 POSCAR found :  1 types and       9 ions
 scaLAPACK will be used
 LDA part: xc-table for Pade appr. of Perdew
 POSCAR, INCAR and KPOINTS ok, starting setup
 WARNING: small aliasing (wrap around) errors must be expected
 FFT: planning ...
 WAVECAR not read
 entering main loop
       N       E                     dE             d eps       ncg     rms          rms(c)
DAV:   1     0.870063462773E+03    0.87006E+03   -0.15068E+04   256   0.545E+02
DAV:   2     0.329905565677E+03   -0.54016E+03   -0.47871E+03   480   0.104E+02
DAV:   3     0.197379780391E+02   -0.31017E+03   -0.28610E+03   384   0.895E+01
DAV:   4    -0.141982965335E+02   -0.33936E+02   -0.30115E+02   312   0.343E+01
DAV:   5    -0.149106328985E+02   -0.71234E+00   -0.71135E+00   280   0.600E+00    0.160E+01
DAV:   6    -0.352307180802E+01    0.11388E+02   -0.35338E+01   264   0.143E+01    0.729E+00
DAV:   7    -0.299276629374E+01    0.53031E+00   -0.16364E+00   288   0.598E+00    0.409E+00
DAV:   8    -0.549619632843E+01   -0.25034E+01   -0.13731E+00   288   0.343E+00    0.203E+00
DAV:   9    -0.784623140376E+01   -0.23500E+01   -0.68451E-01   280   0.198E+00    0.257E+00
DAV:  10    -0.770863576224E+01    0.13760E+00   -0.19584E-02   296   0.594E-01    0.243E+00
DAV:  11    -0.807216281537E+01   -0.36353E+00   -0.10454E-01   280   0.150E+00    0.219E+00
DAV:  12    -0.976173741490E+01   -0.16896E+01   -0.69586E-01   272   0.266E+00    0.147E+00
DAV:  13    -0.119939306512E+02   -0.22322E+01   -0.10774E+00   272   0.350E+00    0.643E-01
DAV:  14    -0.132939412145E+02   -0.13000E+01   -0.40730E-01   272   0.123E+00    0.432E-01
DAV:  15    -0.140535067377E+02   -0.75957E+00   -0.13793E-01   272   0.669E-01    0.221E-01
DAV:  16    -0.145824856708E+02   -0.52898E+00   -0.62911E-02   272   0.488E-01    0.142E-01
DAV:  17    -0.147236929174E+02   -0.14121E+00   -0.53273E-03   264   0.161E-01    0.100E-01
DAV:  18    -0.148132032594E+02   -0.89510E-01   -0.72258E-03   280   0.190E-01    0.425E-02
DAV:  19    -0.148262204807E+02   -0.13017E-01   -0.11245E-03   232   0.772E-02    0.235E-02
DAV:  20    -0.148290599374E+02   -0.28395E-02   -0.59741E-04   200   0.498E-02    0.143E-02
DAV:  21    -0.148296366771E+02   -0.57674E-03   -0.47026E-04   208   0.380E-02    0.982E-03
DAV:  22    -0.148301894223E+02   -0.55275E-03   -0.78238E-05   208   0.216E-02    0.776E-03
DAV:  23    -0.148318743520E+02   -0.16849E-02   -0.82891E-05   184   0.159E-02    0.727E-03
DAV:  24    -0.148322072372E+02   -0.33289E-03   -0.31316E-05   184   0.108E-02    0.566E-03
DAV:  25    -0.148322568030E+02   -0.49566E-04   -0.10088E-05   176   0.178E-02
   1 F= -.14832257E+02 E0= -.14832257E+02  d E =-.148323E+02  mag=     0.9982
 curvature:   0.00 expect dE= 0.000E+00 dE for cont linesearch  0.000E+00
 trial: gam= 0.00000 g(F)=  0.166E-01 g(S)=  0.000E+00 ort = 0.000E+00 (trialstep = 0.100E+01)
 search vector abs. value=  0.166E-01
 bond charge predicted
       N       E                     dE             d eps       ncg     rms          rms(c)
DAV:   1    -0.148477368346E+02   -0.15530E-01   -0.11227E+00   272   0.353E+00    0.891E-02
DAV:   2    -0.148483144940E+02   -0.57766E-03   -0.53843E-03   288   0.341E-01    0.693E-02
DAV:   3    -0.148483275148E+02   -0.13021E-04   -0.99360E-05   184   0.490E-02
   2 F= -.14848328E+02 E0= -.14848328E+02  d E =-.160707E-01  mag=     0.9993
 ZBRENT: can't locate minimum, use default step
 trial-energy change:   -0.016071  1 .order   -0.015787   -0.016607   -0.014968
 step:   4.0000(harm= 10.1298)  dis= 0.02696  next Energy=   -14.916370 (dE=-0.841E-01)
 bond charge predicted
       N       E                     dE             d eps       ncg     rms          rms(c)
DAV:   1    -0.148843639384E+02   -0.36049E-01   -0.10134E+01   272   0.106E+01    0.253E-01
DAV:   2    -0.148890887678E+02   -0.47248E-02   -0.48080E-02   288   0.103E+00    0.206E-01
DAV:   3    -0.148889932090E+02    0.95559E-04   -0.90913E-04   280   0.142E-01
   3 F= -.14888993E+02 E0= -.14888993E+02  d E =-.567364E-01  mag=     0.9997
 curvature:  -2.78 expect dE=-0.242E-01 dE for cont linesearch -0.229E-01
 ZBRENT: increasing intervall
 opt :  10.0000  next Energy=   -14.939572 (dE=-0.107E+00)
 bond charge predicted
       N       E                     dE             d eps       ncg     rms          rms(c)
DAV:   1    -0.149230329114E+02   -0.33944E-01   -0.40638E+01   256   0.213E+01    0.448E-01
DAV:   2    -0.149423675160E+02   -0.19335E-01   -0.19195E-01   280   0.207E+00    0.390E-01
DAV:   3    -0.149421774273E+02    0.19009E-03   -0.33865E-03   288   0.269E-01    0.259E-01
DAV:   4    -0.149417790053E+02    0.39842E-03   -0.17826E-03   280   0.155E-01    0.764E-02
DAV:   5    -0.149418181064E+02   -0.39101E-04   -0.72999E-05   200   0.568E-02
   4 F= -.14941818E+02 E0= -.14941818E+02  d E =-.109561E+00  mag=     0.9999
 curvature:  -6.14 expect dE=-0.287E-01 dE for cont linesearch -0.140E-01
 ZBRENT: increasing intervall
 opt :  22.0000  next Energy=   -14.948994 (dE=-0.117E+00)
 bond charge predicted
       N       E                     dE             d eps       ncg     rms          rms(c)
DAV:   1    -0.148816370620E+02    0.60142E-01   -0.16425E+02   256   0.432E+01    0.675E-01
DAV:   2    -0.149596283100E+02   -0.77991E-01   -0.77298E-01   280   0.424E+00    0.693E-01
DAV:   3    -0.149598451811E+02   -0.21687E-03   -0.12957E-02   280   0.520E-01    0.518E-01
DAV:   4    -0.149578166734E+02    0.20285E-02   -0.50567E-03   256   0.271E-01    0.291E-01
DAV:   5    -0.149578532615E+02   -0.36588E-04   -0.18868E-03   288   0.181E-01    0.948E-02
DAV:   6    -0.149579305193E+02   -0.77258E-04   -0.11845E-04   184   0.398E-02
   5 F= -.14957931E+02 E0= -.14957931E+02  d E =-.125674E+00  mag=     1.0000
 curvature:  -3.15 expect dE=-0.295E-01 dE for cont linesearch -0.131E-02
 ZBRENT: bracketing found
 ZBRENT: interpolating
 opt :  18.4077  next Energy=   -14.962649 (dE=-0.130E+00)
 bond charge predicted
       N       E                     dE             d eps       ncg     rms          rms(c)
DAV:   1    -0.149567297852E+02    0.11235E-02   -0.14515E+01   256   0.127E+01    0.226E-01
DAV:   2    -0.149640526509E+02   -0.73229E-02   -0.71284E-02   272   0.126E+00    0.162E-01
DAV:   3    -0.149640777595E+02   -0.25109E-04   -0.12932E-03   264   0.169E-01    0.106E-01
DAV:   4    -0.149641327351E+02   -0.54976E-04   -0.58619E-04   264   0.877E-02
   6 F= -.14964133E+02 E0= -.14964133E+02  d E =-.131876E+00  mag=     1.0000
 curvature: -11.35 expect dE=-0.763E-01 dE for cont linesearch -0.250E-03
 trial: gam= 0.44130 g(F)=  0.672E-02 g(S)=  0.000E+00 ort =-0.605E-03 (trialstep = 0.448E+01)
 search vector abs. value=  0.942E-02
 bond charge predicted
       N       E                     dE             d eps       ncg     rms          rms(c)
DAV:   1    -0.149859983181E+02   -0.21921E-01   -0.12697E+01   256   0.121E+01    0.142E-01
DAV:   2    -0.149922103652E+02   -0.62120E-02   -0.60607E-02   280   0.118E+00    0.114E-01
DAV:   3    -0.149921733737E+02    0.36992E-04   -0.10039E-03   280   0.153E-01    0.801E-02
DAV:   4    -0.149920376262E+02    0.13575E-03   -0.23914E-04   192   0.599E-02    0.438E-02
DAV:   5    -0.149920493159E+02   -0.11690E-04   -0.22065E-04   184   0.589E-02
   7 F= -.14992049E+02 E0= -.14992049E+02  d E =-.279166E-01  mag=     1.0000
 ZBRENT: can't locate minimum, use default step
 trial-energy change:   -0.027917  1 .order   -0.028034   -0.028938   -0.027130
 step:  17.9261(harm= 71.7519)  dis= 0.06203  next Energy=   -15.195787 (dE=-0.232E+00)
 bond charge predicted
       N       E                     dE             d eps       ncg     rms          rms(c)
DAV:   1    -0.150038417254E+02   -0.11804E-01   -0.11504E+02   256   0.366E+01    0.519E-01
DAV:   2    -0.150606750040E+02   -0.56833E-01   -0.56231E-01   272   0.360E+00    0.341E-01
DAV:   3    -0.150602311621E+02    0.44384E-03   -0.95257E-03   280   0.484E-01    0.224E-01
DAV:   4    -0.150592157233E+02    0.10154E-02   -0.19804E-03   280   0.170E-01    0.118E-01
DAV:   5    -0.150592344350E+02   -0.18712E-04   -0.11924E-03   256   0.126E-01    0.346E-02
DAV:   6    -0.150593722981E+02   -0.13786E-03   -0.38999E-05   192   0.239E-02    0.229E-02
DAV:   7    -0.150595202873E+02   -0.14799E-03   -0.31453E-05   168   0.188E-02    0.708E-03
DAV:   8    -0.150596253457E+02   -0.10506E-03   -0.89278E-06   184   0.944E-03    0.303E-03
DAV:   9    -0.150597184755E+02   -0.93130E-04   -0.62945E-06   192   0.604E-03
   8 F= -.15059718E+02 E0= -.15059718E+02  d E =-.955857E-01  mag=     1.0000
 curvature: -18.84 expect dE=-0.592E-01 dE for cont linesearch -0.342E-01
 ZBRENT: increasing intervall
 opt :  44.8153  next Energy=   -15.119476 (dE=-0.155E+00)
 bond charge predicted
       N       E                     dE             d eps       ncg     rms          rms(c)
DAV:   1    -0.148843722879E+02    0.17525E+00   -0.47129E+02   256   0.756E+01    0.146E+00
DAV:   2    -0.151235597219E+02   -0.23919E+00   -0.24070E+00   272   0.761E+00    0.743E-01
DAV:   3    -0.151212899039E+02    0.22698E-02   -0.42264E-02   280   0.106E+00    0.451E-01
DAV:   4    -0.151177928147E+02    0.34971E-02   -0.68136E-03   280   0.321E-01    0.256E-01
DAV:   5    -0.151176230105E+02    0.16980E-03   -0.43282E-03   272   0.240E-01    0.677E-02
DAV:   6    -0.151180262978E+02   -0.40329E-03   -0.12018E-04   200   0.456E-02    0.446E-02
DAV:   7    -0.151184553323E+02   -0.42903E-03   -0.80549E-05   168   0.290E-02    0.154E-02
DAV:   8    -0.151187325917E+02   -0.27726E-03   -0.23051E-05   176   0.163E-02    0.597E-03
DAV:   9    -0.151189849064E+02   -0.25231E-03   -0.21274E-05   184   0.110E-02    0.440E-03
DAV:  10    -0.151192421018E+02   -0.25720E-03   -0.26733E-05   184   0.855E-03    0.330E-03
DAV:  11    -0.151194496006E+02   -0.20750E-03   -0.31096E-05   184   0.735E-03    0.224E-03
DAV:  12    -0.151195333718E+02   -0.83771E-04   -0.65336E-06   192   0.421E-03
   9 F= -.15119533E+02 E0= -.15119533E+02  d E =-.155401E+00  mag=     1.0000
 curvature: -32.89 expect dE=-0.221E+00 dE for cont linesearch -0.923E-04
 trial: gam= 1.26203 g(F)=  0.673E-02 g(S)=  0.000E+00 ort = 0.163E-03 (trialstep = 0.534E+01)
 search vector abs. value=  0.222E-01
 bond charge predicted
       N       E                     dE             d eps       ncg     rms          rms(c)
DAV:   1    -0.151325044723E+02   -0.13055E-01   -0.42412E+01   256   0.220E+01    0.254E-01
DAV:   2    -0.151525440748E+02   -0.20040E-01   -0.20366E-01   264   0.217E+00    0.235E-01
DAV:   3    -0.151524387516E+02    0.10532E-03   -0.35379E-03   272   0.295E-01    0.157E-01
DAV:   4    -0.151519543856E+02    0.48437E-03   -0.68809E-04   272   0.101E-01    0.100E-01
DAV:   5    -0.151518788460E+02    0.75540E-04   -0.78934E-04   264   0.101E-01
  10 F= -.15151879E+02 E0= -.15151879E+02  d E =-.323455E-01  mag=     1.0000
 ZBRENT: can't locate minimum, use default step
 trial-energy change:   -0.032345  1 .order   -0.033237   -0.037029   -0.029445
 step:  21.3545(harm= 26.0677)  dis= 0.12315  next Energy=   -15.209936 (dE=-0.904E-01)
 bond charge predicted
       N       E                     dE             d eps       ncg     rms          rms(c)
DAV:   1    -0.149906875197E+02    0.16127E+00   -0.39238E+02   256   0.685E+01    0.114E+00
DAV:   2    -0.151898145577E+02   -0.19913E+00   -0.20018E+00   272   0.694E+00    0.822E-01
DAV:   3    -0.151895863664E+02    0.22819E-03   -0.35779E-02   288   0.970E-01    0.492E-01
DAV:   4    -0.151862110583E+02    0.33753E-02   -0.63289E-03   264   0.304E-01    0.305E-01
DAV:   5    -0.151861008544E+02    0.11020E-03   -0.43638E-03   272   0.243E-01    0.903E-02
DAV:   6    -0.151865938087E+02   -0.49295E-03   -0.83756E-05   184   0.374E-02    0.619E-02
DAV:   7    -0.151873600847E+02   -0.76628E-03   -0.10928E-04   184   0.321E-02    0.193E-02
DAV:   8    -0.151878132525E+02   -0.45317E-03   -0.25566E-05   192   0.172E-02    0.648E-03
DAV:   9    -0.151882544666E+02   -0.44121E-03   -0.20302E-05   176   0.104E-02    0.397E-03
DAV:  10    -0.151886131220E+02   -0.35866E-03   -0.20144E-05   176   0.774E-03    0.324E-03
DAV:  11    -0.151888669449E+02   -0.25382E-03   -0.22876E-05   176   0.698E-03    0.254E-03
DAV:  12    -0.151889565131E+02   -0.89568E-04   -0.84072E-06   176   0.441E-03
  11 F= -.15188957E+02 E0= -.15188957E+02  d E =-.694231E-01  mag=     1.0000
 curvature: -39.47 expect dE=-0.122E+00 dE for cont linesearch -0.333E-02
 ZBRENT: interpolating
 opt :  18.1731  next Energy=   -15.191131 (dE=-0.716E-01)
 bond charge predicted
       N       E                     dE             d eps       ncg     rms          rms(c)
DAV:   1    -0.151833099868E+02    0.55570E-02   -0.15034E+01   256   0.131E+01    0.163E-01
DAV:   2    -0.151904891542E+02   -0.71792E-02   -0.71341E-02   280   0.127E+00    0.158E-01
DAV:   3    -0.151904837595E+02    0.53947E-05   -0.12291E-03   288   0.170E-01    0.108E-01
DAV:   4    -0.151902838557E+02    0.19990E-03   -0.33885E-04   240   0.720E-02    0.651E-02
DAV:   5    -0.151902807384E+02    0.31174E-05   -0.25941E-04   208   0.640E-02
  12 F= -.15190281E+02 E0= -.15190281E+02  d E =-.707474E-01  mag=     1.0000
 curvature: -25.77 expect dE=-0.537E-01 dE for cont linesearch -0.532E-04
 trial: gam= 0.18268 g(F)=  0.208E-02 g(S)=  0.000E+00 ort = 0.214E-03 (trialstep = 0.791E+01)
 search vector abs. value=  0.290E-02
 bond charge predicted
       N       E                     dE             d eps       ncg     rms          rms(c)
DAV:   1    -0.151991178046E+02   -0.88339E-02   -0.12185E+01   256   0.118E+01    0.157E-01
DAV:   2    -0.152050303114E+02   -0.59125E-02   -0.58674E-02   280   0.115E+00    0.141E-01
DAV:   3    -0.152050184548E+02    0.11857E-04   -0.99404E-04   296   0.148E-01
  13 F= -.15205018E+02 E0= -.15205018E+02  d E =-.147377E-01  mag=     1.0000
 trial-energy change:   -0.014738  1 .order   -0.014404   -0.016771   -0.012038
 step:  28.0120(harm= 28.0120)  dis= 0.04972  next Energy=   -15.219993 (dE=-0.297E-01)
 bond charge predicted
       N       E                     dE             d eps       ncg     rms          rms(c)
DAV:   1    -0.151826478601E+02    0.22382E-01   -0.79238E+01   256   0.302E+01    0.407E-01
DAV:   2    -0.152209039245E+02   -0.38256E-01   -0.38000E-01   264   0.294E+00    0.386E-01
DAV:   3    -0.152207958996E+02    0.10802E-03   -0.62974E-03   288   0.367E-01    0.273E-01
DAV:   4    -0.152200185619E+02    0.77734E-03   -0.20299E-03   272   0.180E-01    0.149E-01
DAV:   5    -0.152201691433E+02   -0.15058E-03   -0.89901E-04   272   0.114E-01    0.484E-02
DAV:   6    -0.152202724891E+02   -0.10335E-03   -0.32586E-05   208   0.211E-02    0.304E-02
DAV:   7    -0.152203897434E+02   -0.11725E-03   -0.49768E-05   160   0.242E-02    0.949E-03
DAV:   8    -0.152204580106E+02   -0.68267E-04   -0.10750E-05   192   0.130E-02
  14 F= -.15220458E+02 E0= -.15220458E+02  d E =-.301773E-01  mag=     1.0000
 curvature: -19.14 expect dE=-0.276E-01 dE for cont linesearch -0.813E-06
 trial: gam= 0.74515 g(F)=  0.144E-02 g(S)=  0.000E+00 ort =-0.111E-04 (trialstep = 0.114E+02)
 search vector abs. value=  0.303E-02
 bond charge predicted
       N       E                     dE             d eps       ncg     rms          rms(c)
DAV:   1    -0.152197552375E+02    0.63451E-03   -0.26522E+01   256   0.173E+01    0.208E-01
DAV:   2    -0.152329370841E+02   -0.13182E-01   -0.13045E-01   264   0.169E+00    0.160E-01
DAV:   3    -0.152328555235E+02    0.81561E-04   -0.20490E-03   280   0.211E-01    0.112E-01
DAV:   4    -0.152326041285E+02    0.25139E-03   -0.45913E-04   280   0.794E-02    0.594E-02
DAV:   5    -0.152326008192E+02    0.33094E-05   -0.31082E-04   256   0.629E-02
  15 F= -.15232601E+02 E0= -.15232601E+02  d E =-.121428E-01  mag=     1.0000
 trial-energy change:   -0.012143  1 .order   -0.012494   -0.016330   -0.008659
 step:  24.2588(harm= 24.2588)  dis= 0.05524  next Energy=   -15.237839 (dE=-0.174E-01)
 bond charge predicted
       N       E                     dE             d eps       ncg     rms          rms(c)
DAV:   1    -0.152191669290E+02    0.13437E-01   -0.33787E+01   256   0.195E+01    0.248E-01
DAV:   2    -0.152358760054E+02   -0.16709E-01   -0.16712E-01   288   0.191E+00    0.181E-01
DAV:   3    -0.152357731858E+02    0.10282E-03   -0.26383E-03   280   0.241E-01    0.124E-01
DAV:   4    -0.152354998723E+02    0.27331E-03   -0.57226E-04   288   0.894E-02    0.641E-02
DAV:   5    -0.152355455566E+02   -0.45684E-04   -0.33734E-04   248   0.659E-02
  16 F= -.15235546E+02 E0= -.15235546E+02  d E =-.150875E-01  mag=     1.0000
 curvature: -25.69 expect dE=-0.211E-01 dE for cont linesearch -0.345E-03
 trial: gam= 0.55918 g(F)=  0.822E-03 g(S)=  0.000E+00 ort =-0.202E-03 (trialstep = 0.140E+02)
 search vector abs. value=  0.154E-02
 bond charge predicted
       N       E                     dE             d eps       ncg     rms          rms(c)
DAV:   1    -0.152326640011E+02    0.28359E-02   -0.20329E+01   256   0.150E+01    0.175E-01
DAV:   2    -0.152429703281E+02   -0.10306E-01   -0.10087E-01   288   0.146E+00    0.120E-01
DAV:   3    -0.152429950230E+02   -0.24695E-04   -0.15351E-03   288   0.174E-01    0.880E-02
DAV:   4    -0.152429253429E+02    0.69680E-04   -0.30074E-04   232   0.644E-02
  17 F= -.15242925E+02 E0= -.15242925E+02  d E =-.737979E-02  mag=     1.0000
 trial-energy change:   -0.007380  1 .order   -0.007788   -0.009903   -0.005673
 step:  32.7012(harm= 32.7012)  dis= 0.04715  next Energy=   -15.247137 (dE=-0.116E-01)
 bond charge predicted
       N       E                     dE             d eps       ncg     rms          rms(c)
DAV:   1    -0.152277830545E+02    0.15212E-01   -0.36659E+01   272   0.201E+01    0.249E-01
DAV:   2    -0.152462723066E+02   -0.18489E-01   -0.18224E-01   280   0.197E+00    0.162E-01
DAV:   3    -0.152462239934E+02    0.48313E-04   -0.27836E-03   288   0.235E-01    0.117E-01
DAV:   4    -0.152460097835E+02    0.21421E-03   -0.55387E-04   264   0.862E-02    0.561E-02
DAV:   5    -0.152460561487E+02   -0.46365E-04   -0.30278E-04   240   0.640E-02
  18 F= -.15246056E+02 E0= -.15246056E+02  d E =-.105106E-01  mag=     1.0000
 curvature: -35.63 expect dE=-0.202E-01 dE for cont linesearch -0.138E-04
 trial: gam= 0.36695 g(F)=  0.568E-03 g(S)=  0.000E+00 ort = 0.245E-04 (trialstep = 0.177E+02)
 search vector abs. value=  0.794E-03
 bond charge predicted
       N       E                     dE             d eps       ncg     rms          rms(c)
DAV:   1    -0.152454278557E+02    0.58193E-03   -0.16735E+01   256   0.138E+01    0.168E-01
DAV:   2    -0.152538386959E+02   -0.84108E-02   -0.80994E-02   264   0.135E+00    0.144E-01
DAV:   3    -0.152538546269E+02   -0.15931E-04   -0.13308E-03   280   0.174E-01    0.986E-02
DAV:   4    -0.152537245333E+02    0.13009E-03   -0.32310E-04   240   0.709E-02    0.554E-02
DAV:   5    -0.152537602949E+02   -0.35762E-04   -0.22359E-04   184   0.609E-02
  19 F= -.15253760E+02 E0= -.15253760E+02  d E =-.770415E-02  mag=     1.0000
 trial-energy change:   -0.007704  1 .order   -0.008035   -0.010215   -0.005854
 step:  41.4949(harm= 41.4949)  dis= 0.03630  next Energy=   -15.258020 (dE=-0.120E-01)
 bond charge predicted
       N       E                     dE             d eps       ncg     rms          rms(c)
DAV:   1    -0.152415658472E+02    0.12159E-01   -0.30187E+01   272   0.186E+01    0.230E-01
DAV:   2    -0.152563680098E+02   -0.14802E-01   -0.14576E-01   280   0.181E+00    0.195E-01
DAV:   3    -0.152563564665E+02    0.11543E-04   -0.23859E-03   288   0.233E-01    0.132E-01
DAV:   4    -0.152560874484E+02    0.26902E-03   -0.58529E-04   288   0.938E-02    0.734E-02
DAV:   5    -0.152561089817E+02   -0.21533E-04   -0.34035E-04   264   0.722E-02
  20 F= -.15256109E+02 E0= -.15256109E+02  d E =-.100528E-01  mag=     1.0000
 curvature: -28.56 expect dE=-0.364E-01 dE for cont linesearch -0.174E-03
 trial: gam= 2.43968 g(F)=  0.127E-02 g(S)=  0.000E+00 ort =-0.696E-04 (trialstep = 0.315E+01)
 search vector abs. value=  0.566E-02
 bond charge predicted
       N       E                     dE             d eps       ncg     rms          rms(c)
DAV:   1    -0.152572252785E+02   -0.11378E-02   -0.37700E+00   272   0.652E+00    0.709E-02
DAV:   2    -0.152591569022E+02   -0.19316E-02   -0.18384E-02   288   0.643E-01    0.670E-02
DAV:   3    -0.152591917616E+02   -0.34859E-04   -0.29250E-04   232   0.840E-02
  21 F= -.15259192E+02 E0= -.15259192E+02  d E =-.308278E-02  mag=     1.0000
 trial-energy change:   -0.003083  1 .order   -0.002821   -0.003481   -0.002161
 step:   8.3138(harm=  8.3138)  dis= 0.02412  next Energy=   -15.260700 (dE=-0.459E-02)
 bond charge predicted
       N       E                     dE             d eps       ncg     rms          rms(c)
DAV:   1    -0.152579197385E+02    0.12372E-02   -0.10154E+01   256   0.107E+01    0.119E-01
DAV:   2    -0.152628940912E+02   -0.49744E-02   -0.48204E-02   288   0.104E+00    0.121E-01
DAV:   3    -0.152628835235E+02    0.10568E-04   -0.77964E-04   288   0.132E-01
  22 F= -.15262884E+02 E0= -.15262884E+02  d E =-.677454E-02  mag=     1.0000
 curvature: -21.30 expect dE=-0.179E-01 dE for cont linesearch -0.107E-02
 ZBRENT: increasing intervall
 opt :  18.6377  next Energy=   -15.266792 (dE=-0.107E-01)
 bond charge predicted
       N       E                     dE             d eps       ncg     rms          rms(c)
DAV:   1    -0.152448320873E+02    0.18062E-01   -0.40701E+01   256   0.215E+01    0.262E-01
DAV:   2    -0.152648320214E+02   -0.20000E-01   -0.19505E-01   280   0.210E+00    0.241E-01
DAV:   3    -0.152647613187E+02    0.70703E-04   -0.32267E-03   288   0.270E-01    0.169E-01
DAV:   4    -0.152642366172E+02    0.52470E-03   -0.10706E-03   272   0.116E-01    0.938E-02
DAV:   5    -0.152642595323E+02   -0.22915E-04   -0.61377E-04   272   0.936E-02
  23 F= -.15264260E+02 E0= -.15264260E+02  d E =-.815055E-02  mag=     1.0000
 curvature: -78.10 expect dE=-0.557E-01 dE for cont linesearch -0.299E-03
 trial: gam= 0.13808 g(F)=  0.713E-03 g(S)=  0.000E+00 ort =-0.147E-03 (trialstep = 0.625E+01)
 search vector abs. value=  0.781E-03
 bond charge predicted
       N       E                     dE             d eps       ncg     rms          rms(c)
DAV:   1    -0.152669289272E+02   -0.26923E-02   -0.20534E+00   256   0.485E+00    0.838E-02
DAV:   2    -0.152679647807E+02   -0.10359E-02   -0.10197E-02   272   0.469E-01    0.557E-02
DAV:   3    -0.152679890535E+02   -0.24273E-04   -0.15416E-04   192   0.566E-02
  24 F= -.15267989E+02 E0= -.15267989E+02  d E =-.372952E-02  mag=     1.0000
 trial-energy change:   -0.003730  1 .order   -0.003293   -0.004331   -0.002256
 step:   8.7123(harm= 13.0444)  dis= 0.00980  next Energy=   -15.268460 (dE=-0.420E-02)
 bond charge predicted
       N       E                     dE             d eps       ncg     rms          rms(c)
DAV:   1    -0.152689488971E+02   -0.98412E-03   -0.32346E-01   288   0.193E+00    0.391E-02
DAV:   2    -0.152691296447E+02   -0.18075E-03   -0.15909E-03   280   0.184E-01    0.254E-02
DAV:   3    -0.152691515402E+02   -0.21896E-04   -0.24033E-05   184   0.220E-02
  25 F= -.15269152E+02 E0= -.15269152E+02  d E =-.489201E-02  mag=     1.0000
 curvature:  -4.36 expect dE=-0.130E-02 dE for cont linesearch -0.652E-03
 trial: gam=-0.12648 g(F)=  0.298E-03 g(S)=  0.000E+00 ort = 0.342E-03 (trialstep = 0.674E+01)
 search vector abs. value=  0.224E-03
 bond charge predicted
       N       E                     dE             d eps       ncg     rms          rms(c)
DAV:   1    -0.152705213033E+02   -0.13917E-02   -0.68527E-01   264   0.279E+00    0.374E-02
DAV:   2    -0.152708667557E+02   -0.34545E-03   -0.33804E-03   280   0.272E-01    0.301E-02
DAV:   3    -0.152708739238E+02   -0.71680E-05   -0.49013E-05   176   0.337E-02
  26 F= -.15270874E+02 E0= -.15270874E+02  d E =-.172238E-02  mag=     1.0000
 trial-energy change:   -0.001722  1 .order   -0.001500   -0.001716   -0.001285
 step:  26.8372(harm= 26.8372)  dis= 0.01905  next Energy=   -15.272567 (dE=-0.342E-02)
 bond charge predicted
       N       E                     dE             d eps       ncg     rms          rms(c)
DAV:   1    -0.152710671477E+02   -0.20039E-03   -0.60918E+00   256   0.831E+00    0.113E-01
DAV:   2    -0.152739686801E+02   -0.29015E-02   -0.29877E-02   272   0.809E-01    0.934E-02
DAV:   3    -0.152739397486E+02    0.28932E-04   -0.47968E-04   280   0.994E-02
  27 F= -.15273940E+02 E0= -.15273940E+02  d E =-.478821E-02  mag=     1.0000
 curvature: -11.80 expect dE=-0.211E-02 dE for cont linesearch -0.340E-03
 trial: gam= 0.22660 g(F)=  0.179E-03 g(S)=  0.000E+00 ort = 0.803E-04 (trialstep = 0.106E+02)
 search vector abs. value=  0.227E-03
 bond charge predicted
       N       E                     dE             d eps       ncg     rms          rms(c)
DAV:   1    -0.152745400676E+02   -0.57139E-03   -0.17219E+00   272   0.439E+00    0.714E-02
DAV:   2    -0.152753385597E+02   -0.79849E-03   -0.82696E-03   280   0.421E-01    0.542E-02
DAV:   3    -0.152753383212E+02    0.23856E-06   -0.12650E-04   176   0.520E-02
  28 F= -.15275338E+02 E0= -.15275338E+02  d E =-.139857E-02  mag=     1.0000
 trial-energy change:   -0.001399  1 .order   -0.001198   -0.002093   -0.000303
 step:  12.4083(harm= 12.4083)  dis= 0.00784  next Energy=   -15.275164 (dE=-0.122E-02)
 bond charge predicted
       N       E                     dE             d eps       ncg     rms          rms(c)
DAV:   1    -0.152754774256E+02   -0.13887E-03   -0.50784E-02   272   0.757E-01    0.198E-02
DAV:   2    -0.152755308308E+02   -0.53405E-04   -0.22618E-04   208   0.712E-02
  29 F= -.15275531E+02 E0= -.15275531E+02  d E =-.159108E-02  mag=     1.0000
 curvature:  -7.14 expect dE=-0.539E-03 dE for cont linesearch -0.343E-04
 trial: gam= 0.33772 g(F)=  0.755E-04 g(S)=  0.000E+00 ort = 0.330E-04 (trialstep = 0.110E+02)
 search vector abs. value=  0.124E-03
 bond charge predicted
       N       E                     dE             d eps       ncg     rms          rms(c)
DAV:   1    -0.152760637082E+02   -0.58628E-03   -0.99993E-01   264   0.338E+00    0.377E-02
DAV:   2    -0.152765542420E+02   -0.49053E-03   -0.47948E-03   272   0.327E-01    0.338E-02
DAV:   3    -0.152765527518E+02    0.14902E-05   -0.68600E-05   168   0.403E-02
  30 F= -.15276553E+02 E0= -.15276553E+02  d E =-.102192E-02  mag=     1.0000
 trial-energy change:   -0.001022  1 .order   -0.000765   -0.000951   -0.000579
 step:  28.0357(harm= 28.0357)  dis= 0.01105  next Energy=   -15.276746 (dE=-0.121E-02)
 bond charge predicted
       N       E                     dE             d eps       ncg     rms          rms(c)
DAV:   1    -0.152764884620E+02    0.65780E-04   -0.24237E+00   256   0.526E+00    0.633E-02
DAV:   2    -0.152776503811E+02   -0.11619E-02   -0.11579E-02   280   0.508E-01    0.563E-02
DAV:   3    -0.152776341570E+02    0.16224E-04   -0.16364E-04   176   0.615E-02
  31 F= -.15277634E+02 E0= -.15277634E+02  d E =-.210333E-02  mag=     1.0000
 curvature: -20.01 expect dE=-0.112E-02 dE for cont linesearch -0.145E-04
 trial: gam= 0.87847 g(F)=  0.561E-04 g(S)=  0.000E+00 ort = 0.947E-05 (trialstep = 0.106E+02)
 search vector abs. value=  0.168E-03
 bond charge predicted
       N       E                     dE             d eps       ncg     rms          rms(c)
DAV:   1    -0.152779289806E+02   -0.27860E-03   -0.12695E+00   272   0.379E+00    0.454E-02
DAV:   2    -0.152785737667E+02   -0.64479E-03   -0.60760E-03   272   0.368E-01    0.419E-02
DAV:   3    -0.152785718756E+02    0.18911E-05   -0.84216E-05   176   0.436E-02
  32 F= -.15278572E+02 E0= -.15278572E+02  d E =-.937719E-03  mag=     1.0000
 trial-energy change:   -0.000938  1 .order   -0.000585   -0.000681   -0.000489
 step:  37.5045(harm= 37.5045)  dis= 0.02146  next Energy=   -15.278841 (dE=-0.121E-02)
 bond charge predicted
       N       E                     dE             d eps       ncg     rms          rms(c)
DAV:   1    -0.152758147409E+02    0.27590E-02   -0.81914E+00   256   0.964E+00    0.117E-01
DAV:   2    -0.152797754937E+02   -0.39608E-02   -0.39232E-02   264   0.931E-01    0.103E-01
DAV:   3    -0.152797427699E+02    0.32724E-04   -0.61639E-04   280   0.113E-01
  33 F= -.15279743E+02 E0= -.15279743E+02  d E =-.210861E-02  mag=     1.0000
 curvature: -48.98 expect dE=-0.109E-01 dE for cont linesearch -0.199E-04
 trial: gam= 5.01495 g(F)=  0.223E-03 g(S)=  0.000E+00 ort = 0.827E-05 (trialstep = 0.592E+00)
 search vector abs. value=  0.454E-02
 bond charge predicted
       N       E                     dE             d eps       ncg     rms          rms(c)
DAV:   1    -0.152797599663E+02    0.15527E-04   -0.10851E-01   280   0.111E+00    0.396E-02
DAV:   2    -0.152798135581E+02   -0.53592E-04   -0.46245E-04   272   0.103E-01
  34 F= -.15279814E+02 E0= -.15279814E+02  d E =-.707883E-04  mag=     1.0000
 trial-energy change:   -0.000071  1 .order   -0.000107   -0.000157   -0.000056
 step:   0.9257(harm=  0.9257)  dis= 0.00298  next Energy=   -15.279865 (dE=-0.123E-03)
 bond charge predicted
       N       E                     dE             d eps       ncg     rms          rms(c)
DAV:   1    -0.152798942160E+02   -0.13425E-03   -0.34603E-02   280   0.627E-01    0.124E-02
DAV:   2    -0.152799281300E+02   -0.33914E-04   -0.14297E-04   184   0.603E-02
  35 F= -.15279928E+02 E0= -.15279928E+02  d E =-.185360E-03  mag=     1.0000
 curvature:  -7.93 expect dE=-0.176E-02 dE for cont linesearch -0.284E-04
 trial: gam= 0.00804 g(F)=  0.222E-03 g(S)=  0.000E+00 ort = 0.128E-03 (trialstep = 0.659E+00)
 search vector abs. value=  0.225E-03
 reached required accuracy - stopping structural energy minimisation
Application 91097100 resources: utime ~5183s, stime ~105s, Rss ~52548, inblocks ~81895, outblocks ~151803
