10
Energy = -39.04142874 eV
S 9.015433645780655 6.762717968814941 10.353998876560404
S 8.376364257625497 10.193593854266002 9.49593780134003
S 6.656378752310849 11.175332286704641 8.476150061303773
S 11.402073864735103 7.230076096165102 8.127057320998182
S 9.729521630309337 6.278585764840322 8.289780866897283
S 7.2465078737209785 6.056035731235252 10.617177435724507
S 8.585109269561897 8.517248946605873 6.801908482771463
S 10.322411386298038 9.273090923007185 6.942982244162865
S 5.126484398049424 10.156970457189704 9.051723791495347
S 10.05843584812062 10.840487188602962 8.754930365507978
