11
Energy = -42.17753847 eV
S 10.47202341748545 12.830633496788629 10.474284019588694
S 11.6175104745678 11.084784962926692 10.444715017817282
S 10.599059098366869 13.636478834705283 12.243775746946131
S 10.585577058265331 9.43795451336264 14.189990292839878
S 12.186786048223158 8.70796590092447 13.441017820887545
S 10.195357987720577 9.540040449080164 10.836725516525878
S 9.206499790668135 9.978144464485782 12.490473148671985
S 10.45451337324909 8.21657112089606 7.25017870952355
S 10.133974865934468 10.031339890447496 6.785224583464623
S 7.5610437362941045 9.523489101154228 6.149400745136165
S 7.739722674995317 7.679503333503812 6.5727067807714725
