11
Energy = -42.39017206 eV
S 7.086920610165803 11.70024247759719 7.311938461898775
S 7.794107837467261 10.818224429505804 5.746151933775336
S 8.152033260204723 10.897920329548706 8.985944380245764
S 11.012819667652806 8.585849169070313 9.108338276634186
S 6.943207537066933 11.564571786997169 10.620840366020673
S 9.431719333835913 6.430741645892939 7.204854621747415
S 11.303209656330178 7.6256770211995555 7.33831574062405
S 8.497281827807283 6.99165639665065 8.922884196448333
S 7.509077651083629 10.562610747635228 12.170487831452531
S 9.419893517027528 6.053949550228291 10.463924103782986
S 11.306916340412403 7.251085373146601 10.606224831895807
