14
Energy = -55.19944542 eV
S 7.980573641933355 8.782589010511952 11.757665599269712
S 10.085663335740264 11.999257157159054 7.393843667142667
S 12.046806116686856 8.520540048837843 12.936106024850355
S 11.804668984782435 12.549910804682447 8.44092606255831
S 13.414431961366986 8.850650529911764 9.938596554860384
S 10.046362231089356 9.911097131859995 7.379682304704148
S 13.427348269434198 8.032232571435754 11.683582752795912
S 11.397852073824868 12.67675354144211 13.474234279092785
S 11.142709842364596 11.925211173644888 11.730289233988401
S 9.437206837657987 8.690992638949421 10.43877801653323
S 11.31395290096573 13.52470980761428 10.14199187787965
S 8.558997450577575 9.113846721813813 8.483664967326655
S 8.880437215436784 11.959509248845066 11.156982444487252
S 7.921965971378381 10.921674780051648 12.50263221451053
