14
Energy = -55.87495194 eV
S 5.877208662130495 9.08297898642247 4.532238399366255
S 4.497860928291001 8.014693045757438 5.298623405343563
S 10.670966887008154 6.792341092516132 6.884733557194689
S 7.414334792130202 6.068804006965809 6.55393155460442
S 9.736654276197287 8.309808796528 6.128404841614991
S 4.027803941741357 9.002650879977539 7.186969281089286
S 5.197406379392675 10.50943171833719 7.236339915189003
S 8.94322002286251 9.648307338987118 7.750551126014533
S 9.037670680268864 5.077971164439908 6.85838319777651
S 10.034037679990375 9.274183139740206 9.369176508229122
S 6.623668652085167 6.491972070195549 8.726755468709207
S 7.602455960562855 5.228261315356253 9.824803994007482
S 8.895898232060565 8.177939043480155 10.815007878430166
S 9.36928336201771 6.249127858035854 10.76255132916984
