17
Energy = -66.64199586 eV
S 9.833527025090264 9.384754454021436 11.891034124768384
S 6.1467838537121 8.409389263800842 8.409008478487198
S 10.825916706446188 12.703329281062954 9.368086686187292
S 10.3332900384986 6.26078691674113 10.65728385709057
S 10.222425888092037 8.35169666294131 10.162966279143424
S 7.415673095231509 5.262582297123318 9.014874551977032
S 7.208992390786283 9.899249710615095 9.742497858187177
S 11.421710203999234 10.718253358927983 12.05890102444023
S 11.882764889383697 8.946414833188765 6.963751806827983
S 6.281704433590314 6.835484697771569 9.699625685108058
S 10.282120877238372 7.7878932321192655 6.331068573739225
S 9.505064554335666 5.595757354132944 8.942849406030167
S 6.0879413869453085 11.341431165759793 10.304314131696863
S 8.525796911700217 10.664395471045552 7.968519317198562
S 11.005675100243614 9.318153043557583 5.11571303115642
S 8.90487910728916 12.547083071072421 8.511770801619544
S 10.679561564041906 12.537172956101061 11.421562669607738
