19
Energy = -74.02835236 eV
S 13.999094951435778 7.031459366875488 9.912157552362055
S 13.06878095321465 10.986228991030611 11.472035322386231
S 12.762373233319458 7.665662969726731 8.489460990825291
S 13.042800455424834 9.849632949395701 8.09734063715585
S 13.306663212321022 7.757238668037704 11.819694776129026
S 11.804876800234378 10.422515664398551 10.154249996258205
S 10.401755846892323 6.4678321463747865 10.727192563311327
S 7.720514446253399 8.196889957778033 8.424931872095543
S 11.244049150148435 7.959864393387125 11.605981574346863
S 6.021132743344367 7.069253778468653 8.482462071173812
S 7.322549832128019 10.261718542030566 11.712835726853928
S 11.868152685553182 10.188508830791731 6.616460415986144
S 8.312554000076368 11.525786256776316 10.636712721060324
S 7.837731097022048 9.213759000151432 6.61694131601533
S 4.588280754368702 8.279426416300861 9.558431491790854
S 7.657365454486007 12.476399196676157 7.5180644958913385
S 6.970241175091416 12.698654091912415 9.424197721061706
S 3.3588507281801383 9.165160264856981 8.354090455819922
S 6.631736817190987 10.88126777627731 6.6554764268970645
