19
Energy = -73.02398914 eV
S 14.386803541648314 12.998482754523824 8.252650714866911
S 11.309271397730251 15.357461996553859 10.382691957217435
S 13.80357264227102 13.012961574654101 10.278174946602658
S 12.907465062365924 13.303922023779025 7.04802839194837
S 9.30893317620263 11.900063147004435 6.8286182488810185
S 10.281402536834783 13.85469833975183 9.769682995504894
S 12.191338839152706 11.607538400491057 10.456954628135218
S 12.367614285928004 10.093225167576579 9.267885978742267
S 10.2608590320053 8.032265046687085 12.38855808772237
S 10.279690404410829 10.260279520750656 7.067064926628873
S 8.991866182637642 13.132111248655566 11.376294106517067
S 8.309129891985918 11.38933716418228 10.896915076985614
S 10.212483254991078 5.828296576596016 12.409713010374118
S 9.023695552603842 8.841276389757514 8.067388911309699
S 9.04112210189964 8.588712688055894 13.84467129558586
S 7.263881310241502 6.848199333119493 11.71817929207769
S 10.018872509058617 7.224471921242032 8.415719584125696
S 8.2703029344883 5.498527133925074 12.970754586423075
S 7.019991182631703 8.44134979931287 12.979707522237321
