21
Energy = -81.94183291 eV
S 15.501397588491596 10.95065552341009 9.124855134113158
S 16.02482131392034 9.22436590074861 8.065331007840141
S 11.770324398866954 13.242535110705113 8.899560294160192
S 11.795569404556876 11.576209437724467 7.600649373471744
S 15.010294714395457 7.526819568867097 8.911007435895188
S 15.949910830055137 10.953010668440974 11.009459460700887
S 15.111676188983463 7.692184930784381 12.102613611926486
S 11.972849008287469 12.327157975157439 10.66336634005912
S 9.769255472773471 14.322520237428034 14.473888613815266
S 13.325022719002797 8.211656102037635 11.681841161853896
S 10.693414520737116 12.677942919230055 14.955447809546879
S 13.153126700314276 7.982281517100836 9.33813393802772
S 10.004175630407307 10.941430821903674 8.475686037732151
S 7.09026483320594 8.834995304544828 11.582689285021779
S 10.579929437513655 10.599675220463403 10.37214006939863
S 8.234536182448927 12.71049782419875 12.080527075621639
S 7.826150332472028 13.967794663719552 13.822996054877882
S 6.885525429759063 13.100477773285268 10.739454274480993
S 6.650027391368046 9.199134698818085 9.76207992785559
S 5.955047237510741 10.567706169720692 12.754299382646712
S 5.181366060105968 11.54797676316556 11.296604612474088
