21
Energy = -83.50179888 eV
S 13.987746406452684 7.706205420515982 11.89206850895364
S 12.391149194106742 7.336691897262986 13.182187799109881
S 14.575907100072389 11.308706844478793 12.675165623016
S 13.453753463886414 7.350401209026525 9.92482450278334
S 13.092912078961923 9.15591463609579 9.049737913349613
S 11.134521358964946 8.917581882413506 13.307926090218265
S 13.21905765590443 12.645746801512585 12.499345902173076
S 7.80423741687891 7.755712250131652 12.145283968469386
S 10.952020465859125 9.35918010678158 8.9975357894859
S 11.57374868688918 12.103372725957104 14.013593122844066
S 12.08825743910482 10.327059399935267 14.671421472892506
S 6.9618036098381815 9.480539761629776 11.98359366370464
S 10.64777755951328 11.722278901667586 6.666033412828185
S 6.774747673220884 10.411357913496603 8.034285691226764
S 8.369784780615866 10.808373308282267 10.90576132009092
S 10.81740817207341 12.566273521138031 8.358771905568242
S 10.442411560394463 9.37211406309082 7.102921715708736
S 8.34054599253774 12.163474256017578 5.99383180844067
S 6.284458033377327 12.140425168338755 8.646241705138968
S 7.391942154437751 12.488066656938436 10.726540276912653
S 7.806788212731582 13.533327775355358 7.217882340808291
