22
Energy = -86.46150307 eV
S 14.748691690821682 10.568162370390525 11.68804874220239
S 14.809945508684494 11.521566346486008 6.179256379465446
S 13.651627187705243 12.401761979948374 11.690251491450605
S 13.448753288853405 8.889273209025932 7.697928705886131
S 14.078737824620381 9.212052746865444 13.084836025964124
S 13.17587718173033 10.524438266979022 6.3797253038638875
S 12.705046229806948 7.952035862197876 12.262320276294298
S 12.80806421798355 12.566992793341589 9.917769101111238
S 11.798582816003897 7.928661562381121 7.937812094631261
S 10.445285838378382 11.976018132636773 12.299144236775348
S 10.613505814207766 11.752206914312362 10.408078394852627
S 10.859178221559615 8.52144091405979 13.276265071211741
S 9.682539263140146 13.411251455955197 9.227317447114133
S 9.886164300187708 6.862889879709007 13.585012547412676
S 5.522257839547885 14.20911168721766 10.523348875105352
S 7.147264625831041 9.785961572614962 12.139053584462486
S 8.474582124148693 6.769285270641609 11.685933895597303
S 6.333713739788149 8.449127528419357 13.227152925848399
S 8.590138004169795 12.380187525906376 7.872442447292622
S 8.7449955540118 8.490451505769688 10.88107240124454
S 5.559466003350619 13.441589598247504 8.746019015133996
S 6.825621726334857 11.714716023052043 8.724722642413715
