24
Energy = -94.84988055 eV
S 11.152450958632167 8.073476115899703 6.236288811011096
S 9.65272701460203 7.37241719492614 7.3192939192019235
S 14.100839118228322 8.133836572285809 11.418378816115865
S 13.31068581751561 10.435962957558148 13.627621196100124
S 13.865798899267796 8.206047498230088 8.084451267684125
S 13.286379029302955 7.190771671748652 9.832478009600758
S 8.62013468582267 9.920563611380157 5.288165016772748
S 12.318549548415417 9.371115516205746 7.443063670032536
S 10.327372023738029 13.08654452904303 9.584350996831928
S 12.59097429987978 9.560941212609434 12.067120358394746
S 7.912221085328152 8.756620499206079 6.619228570637834
S 9.050651761373757 7.766635372354616 12.008948533110928
S 9.482997453577243 13.954059437510724 6.650013504775658
S 7.562889915700899 4.810674389983383 12.66777255745717
S 8.624344171184646 14.534932514296505 9.649073322252146
S 11.175970855563612 13.631043872945927 7.85301159318863
S 5.362995264723099 5.162049556016364 12.292403568675203
S 6.585342226074318 9.026378975388477 10.090648674554103
S 7.703917906911599 10.324960462437039 8.664885837355632
S 8.955132670974324 15.532380648277774 7.948079538351644
S 8.197086286111523 6.510191606167556 13.48138801589193
S 6.584396997775829 11.724510877191602 8.001369829739787
S 7.747998872673218 9.334737873799549 11.734572839641826
S 4.958410516304367 6.969355411211409 12.775162888836787
