26
Energy = -102.54108281 eV
S 9.074161936154342 7.057875491704183 5.92495285947686
S 11.32118235878117 5.73169157473734 8.202477673002287
S 11.049541058884614 6.657488442027111 6.378136856082367
S 8.270963309706877 7.211356865961467 10.293825215206672
S 12.654293678275433 6.838597464323831 9.441931284402784
S 6.827528752224029 7.642691892974645 11.968880709107854
S 11.919052258836702 7.163543909239493 11.268806138961507
S 8.686528054000771 9.088487602705616 6.2351211149712675
S 8.65104263724508 8.991547455426183 9.510662355464921
S 6.2413075710031185 9.501244573569288 11.67439907528082
S 13.126036744419677 11.491404380693158 8.634166782471993
S 11.393875442655071 9.279442191219005 11.550534373947285
S 13.036142289077993 10.297374447486039 7.157845065658613
S 11.47600976304763 9.35028830408231 13.546880920640353
S 9.51761922349311 8.853410780201923 14.373030153331463
S 7.803757773417046 10.914012093989085 12.235256706836372
S 10.868126842930613 13.918952399641 7.528273400311483
S 7.400001072667287 9.242745218979168 7.815354566199843
S 11.086156533088694 13.123973165358928 11.85724128618148
S 11.430425668342751 13.549664820229037 5.42760010542349
S 9.186946912322814 13.032024023544599 7.697011333167352
S 9.981242120830906 12.511020844346483 4.757185060678116
S 7.521369297462188 11.609102406500973 14.06368216667674
S 8.849066738618333 10.399891141362396 15.399334892222507
S 12.033067229028317 13.449971787018786 13.505815225134214
S 11.014144185074294 13.723584427611193 15.115489209243114
