28
Energy = -110.38599137 eV
S 15.02988121523101 8.09424553574356 8.78487302664345
S 13.390670942144098 8.337056338537385 7.813956426920395
S 14.795252271283266 10.372729327900702 9.996040539408213
S 13.018628121029284 11.188469196033948 5.023928404731567
S 13.406997518855775 9.054077391342153 11.760672379095823
S 13.309053515741851 10.970273911937396 8.990552990694116
S 12.022831746140648 13.736623807733675 6.474449101533459
S 11.121759322526255 11.024739995908176 4.976691370981809
S 11.593107718630648 7.550724408801305 9.178942081198938
S 11.774099241156934 9.3204098246539 10.782594086415784
S 10.739901756075486 13.211770945605931 13.776654237431512
S 10.658489708894816 11.442483289800798 14.690093928874376
S 9.624551956169316 7.413308923489074 13.820018769600393
S 8.900445617012165 8.761992547492838 15.270295066835564
S 7.104757927370194 10.62217121553712 6.299238414633149
S 10.131936154092715 14.004698215547915 10.495987897621855
S 11.33891822372338 12.870775177482006 11.753009014312564
S 9.99580483385237 7.872300763821258 8.16966474846432
S 10.416166833781599 12.820686633405138 6.001593147382918
S 8.161857784099906 11.167243250429205 9.37335644999418
S 8.23620927037072 13.40900715582736 10.484202709942227
S 8.631451127618524 10.623490352183483 14.535626756041221
S 7.787272259716676 10.27753963456048 11.346263631557573
S 7.634057257305289 6.8860882794830385 11.144581704962778
S 8.112587996209955 6.238475504408977 13.108760875516158
S 6.634779102296936 10.382755909832442 8.166654966086599
S 5.774644696882819 7.5839369522709585 11.062713218399427
S 5.921589129303414 9.743704853818382 11.603413196192713
