30
Energy = -116.23588632 eV
S 10.385725279145836 9.771619861853106 5.928394145041711
S 13.34741575150257 10.686864054148998 6.011225078139388
S 12.374739140376388 12.338305556144425 6.06921331278466
S 10.248979537372202 11.680791624081918 6.019052234499649
S 12.204764668644293 9.079524274364587 8.04308334980019
S 12.200278642551758 14.652632128888486 8.977649756638446
S 14.11935178077718 14.786696646587991 9.015191495747025
S 8.828648301046703 8.556961599422864 9.887988012986602
S 8.635754798507278 12.21344321801322 9.44651610984693
S 11.70911172126628 10.437245534683534 9.515855416095526
S 7.540796705838801 10.690643695315684 9.85873543089882
S 12.308809801487657 8.53690682872771 10.14121490241809
S 7.434945594223728 7.276934262550301 10.16406201500734
S 13.157245726541065 15.973606166655008 11.779498180519452
S 15.125109532412573 13.550562509816107 11.438544507135148
S 11.544252396966883 15.48578583754187 10.890917452061995
S 14.371020685620103 11.622521484255158 11.39221025611724
S 10.751191643749994 12.420287597452495 12.56456824774517
S 7.264236137583062 10.759138835439309 12.187220491665073
S 9.295287953142628 8.697193928236908 12.582221266421477
S 6.0269300361277205 9.374225218199031 12.703392846291248
S 7.794816550207227 7.5757733525555695 12.862930949579159
S 16.109432564916435 11.972296628623806 12.486857095533345
S 11.235789163703409 12.90369158900172 14.365958889100524
S 13.732753084865257 12.96032769036684 14.704009534875526
S 13.839033624212469 10.446091088799205 15.496891169871498
S 10.902619113903855 10.965596889498443 15.595850602906816
S 13.87140242371243 13.683955618450858 16.46490037244782
S 13.72331479055862 10.960232770987195 17.32386556395937
S 11.290681673119881 11.314582333421214 17.45642013794882
