31
Energy = -122.40019136 eV
S 4.469687748851186 7.655546791279593 12.448258773555033
S 4.94450034268911 8.220993206953663 10.509248292965943
S 9.931875318706878 13.712944924947122 12.815461109205552
S 6.287635135798889 12.829910299196037 10.848212424221941
S 6.688971525343868 14.246296795954816 12.288423797549765
S 11.938274029183793 9.139969874762839 4.513462497723012
S 8.685018737811745 9.299438763010539 9.588955517227042
S 3.869488706060068 6.467037475852791 10.851374570337814
S 14.253912603310077 9.83575140136188 8.115819188604684
S 13.62890618802424 14.031966600686376 14.987691142814436
S 14.302053085457096 12.044544614937015 7.617359619115904
S 12.131261001833593 15.447711041401304 14.677553429042222
S 9.802618477230503 11.37100697752295 7.096247725483334
S 10.283011968158354 9.828343640268068 8.470240827119026
S 13.672145364143857 9.180679258054528 13.004203166229997
S 8.582324462816832 14.990802118982268 11.913212214073894
S 15.738980463254627 9.687542626911487 9.330529557481633
S 14.812652580632967 8.777581968883116 6.189775472106217
S 12.823209837844933 12.514706987226662 6.353392384305609
S 10.971591961144398 7.449107969867942 13.103407687204978
S 6.710975982431093 10.959779941043402 11.671024669425059
S 8.654851320864545 10.402699290626039 11.401472339967311
S 14.64080251120616 13.636248978672292 13.260999533874656
S 8.463706403782592 5.851558269548565 11.661983978027438
S 10.305848613257698 5.6451711015936095 12.252016333101766
S 13.382673950589021 12.475894744958369 12.021309658515245
S 12.541413143649246 8.037420902457296 11.785062045084707
S 12.593493239923557 11.001468959857075 13.161958341419224
S 13.048206841025236 7.928104233870455 5.551486309100303
S 11.071460954678553 12.916270671955097 7.475400631313456
S 10.363433953742053 14.383606790116133 14.728387537944855
