31
Energy = -124.47291451 eV
S 12.346704319202429 5.724659600957896 8.625820262138005
S 8.587856002945642 5.846308571053438 8.790920478060213
S 11.22784754133384 14.18210569369674 12.68628997653508
S 6.856795340113612 12.572580353019893 13.5352492410261
S 9.389352186103432 11.511452133834922 7.572744970690351
S 8.373689448076103 7.74616372962576 8.585558621999903
S 9.340369312517833 14.981622034050137 13.140916260150375
S 7.85021558749591 13.898094619792332 12.262514092824468
S 7.155551770353771 10.664738172858383 12.80541789043377
S 6.048919277070959 11.456794754593295 8.020904603970783
S 10.982197310873232 8.429811491344374 12.36716465065352
S 10.325320993840027 9.831851776946936 13.735955462253536
S 13.810313050508345 11.238711556097757 14.42185022255954
S 12.29544625411364 14.132441359777443 14.45954566519201
S 10.904811133577464 9.24146575921581 10.47064230431895
S 12.492550973487447 10.527268528174515 10.149637652048007
S 11.658768925346145 4.9257698359991 6.882914638441093
S 14.200899703596447 6.592732339834574 8.256405407657342
S 7.793587800800814 12.22810959367955 8.76146269319471
S 9.592009198125803 12.666555656933559 5.970908917286645
S 13.90585822433576 9.480589485053418 15.204882543173667
S 10.902560284360135 14.356675942491982 6.745684889855105
S 5.683032499249067 9.6212331267299 8.95636690006815
S 12.201345367426846 12.335267427244055 15.400443931896207
S 14.238870152804061 9.47975368854794 9.86980704647419
S 14.162193371934437 8.626923901670157 7.970369139391168
S 11.149572438798804 14.086256725645141 8.62485052023333
S 9.622698054891353 7.669699414914409 6.111565536246116
S 8.313515048327154 9.56500657568422 14.11494162988029
S 6.370792116552741 8.13577426207941 7.7710110807455175
S 9.712619701490803 5.7633356445909065 6.321040663986181
