33
Energy = -131.25925636 eV
S 9.034766345186252 12.42136825928385 15.389067208903393
S 10.342608277185539 7.511177586562285 15.347811437244944
S 7.292953396833532 12.91549147923378 14.225165384468513
S 15.95226296786831 14.749404900814271 10.539786392918252
S 7.877178770952544 8.530376159155304 11.815316472311878
S 15.659525646772995 7.128933683502591 7.5648196884635475
S 10.70112646069825 10.87163825186392 7.841418880825085
S 7.587612058171902 9.993763597365307 8.847233349814362
S 15.49886186759139 13.966902902720289 12.34519534505517
S 10.00733580530719 16.12487062204365 10.095365127785252
S 13.010133141632584 6.270417139904685 9.496103369287178
S 15.012143972711328 10.063989930915595 9.010384899638984
S 14.298084799010692 15.338230245194678 13.410499727759097
S 9.167548183901163 11.2737218964482 9.174919394657548
S 10.620319036451345 7.268769932255825 13.348338088620492
S 11.529251195158997 9.936602155460358 17.33407930162826
S 14.41228126641456 13.944877852087606 9.223664926908693
S 13.74708318491898 5.952980869461688 7.755888881037374
S 7.3735490978776665 15.206960306340934 11.819861757954559
S 7.9809588330654755 8.180530609040908 9.791009031749121
S 7.7263827611530065 13.190246801882372 12.254427296933942
S 13.210447047246891 10.08741463041855 9.975918613032547
S 15.83177282749093 8.126966538617133 9.277573044132414
S 9.830320827487434 8.941006631431486 12.392331707686557
S 11.204749632249673 11.75789628892726 13.476861131304727
S 11.783381779932322 9.317899107669074 8.67283119141957
S 14.924921530787516 14.411798487527879 7.424805471641693
S 9.059412439767124 16.305430056434062 12.041542405415752
S 12.350486291245394 14.962975424761515 13.04009438026682
S 12.040566647778785 8.75485602475784 15.895232113227971
S 11.700407948960056 17.041876891804137 10.195177795918196
S 10.16077289206693 13.93499583198357 15.873093783394228
S 12.073685473772398 13.206770981226677 14.37669642546849
