35
Energy = -140.45719576 eV
S 8.584903136585602 14.313695947680127 11.217912561031216
S 12.581644642117714 16.056262525977257 10.494237493510667
S 15.260854459804486 10.356887170799714 14.44048962479889
S 12.876640013731624 8.78398323475237 6.776156323998888
S 16.722818892793597 11.085316506180613 7.674740021942286
S 11.317876356335892 13.31041772579775 7.629889416777033
S 13.513336309239497 9.647396184104577 14.873570963999938
S 12.285340436882892 6.730622775184859 13.87054416139474
S 14.918106349837402 8.341160163832633 6.71620785446946
S 9.637744452026569 12.502511256147343 11.688272146047995
S 12.541799847257149 11.707947885710297 4.980857587571795
S 5.726397961870033 8.934271596706841 14.26529236609878
S 14.88603485671393 10.312385074796062 11.899674669121552
S 7.282122958459727 8.554055489803277 12.987983695103386
S 5.64822859121923 11.935790390717848 15.647856007307857
S 10.807294131198505 12.489592656708576 5.796680548546389
S 13.691790315230186 7.480399823966308 15.120786285080912
S 9.68169263100133 11.459084977434035 9.96319115474892
S 9.059421115214532 9.307133616752926 13.74432997424965
S 16.204201077617352 12.981639325602856 10.334106141990693
S 13.245041177019901 15.852966700699191 8.684550265432922
S 14.711404422118521 12.506367826874657 11.586781590722826
S 12.359432919375825 9.648273116246632 4.985602588562932
S 7.724044351722542 12.758284920863149 15.26382809212983
S 15.873011528670727 9.274486127723748 8.27066640516139
S 15.571933052714833 12.642578231614687 8.353178221678327
S 8.403619939537633 13.308235732792678 16.96871119995148
S 5.0923376614520635 10.918029971377624 14.006934925731544
S 6.88481535832383 14.498689252653405 14.06597407439341
S 11.528973981693634 11.829860450819158 9.036594447165958
S 10.503692802815102 6.424678704895366 14.907317866484098
S 13.12167353104149 9.559435847635127 11.929935056286334
S 9.691502132955392 8.25215536133771 15.40305636988455
S 10.779101924831519 16.71481847321771 10.726898066993268
S 8.517658571401638 15.183253420104561 13.068417268055795
