36
Energy = -142.42578838 eV
S 6.445258695371932 10.849443382849259 13.796548499541563
S 4.190031233269026 11.27336567764462 11.289298597573788
S 5.930329006271309 11.291319930931056 10.50034542332254
S 6.846469694627773 6.726976221231077 7.384304344163229
S 10.105599364517863 4.872408627618047 6.46115925473066
S 8.74489711273678 13.49458510892354 12.092943929549834
S 12.7884716152401 15.056502338476022 9.787241825494768
S 15.288091843521277 6.251459838075047 12.095927263892044
S 11.703854904680297 14.051633012651722 8.400156584302607
S 11.802850572124575 10.51138057812989 6.617880872463112
S 6.646909030023015 8.157753664835587 13.49393734721925
S 4.558297949483313 10.749878602280074 13.551429310857285
S 11.746216204315585 6.8654229393033575 8.64779526219999
S 13.62555853180903 6.830532972732275 9.275317953412378
S 12.804068497449602 12.15205682424547 11.509954042061642
S 7.503487590466203 9.962231276901496 6.980083232820457
S 13.599905358164683 9.862747008518667 6.850394386811571
S 9.679228023628765 11.401501546016942 4.247014187554955
S 13.96433683554892 13.615131150204958 10.833134986703147
S 9.809342359272268 15.068640188239044 12.058365898854674
S 8.961533786964743 8.091985697637472 4.564178843057363
S 10.10643921369157 11.895385911190015 13.295763716785391
S 7.979939336337212 9.715098631341254 4.458700110965545
S 8.000077998425514 8.335944188491098 11.68044556951936
S 9.904520489698116 3.9398169406799366 9.705252637506787
S 9.771899397890754 8.097623029882998 12.395232897891276
S 11.395079891843665 4.77910192097627 7.869963205480168
S 13.48907177896796 6.315119115442705 11.410802723668912
S 8.390645854161757 8.304519503760773 7.436259882289311
S 11.278716488159139 10.308706280093816 4.469301806227478
S 4.7943588030195174 7.994383217401605 13.031809722734174
S 11.797992457485782 12.859715137709125 13.333181291654553
S 8.281486900533348 3.8966691566017913 8.636821623508196
S 8.959337590679327 12.582425290862433 9.878711852606303
S 7.080890807929623 5.681581028920206 9.067305428035882
S 9.641039182235522 14.171747230474246 8.930043972760158
