41
Energy = -156.53373455 eV
S 9.48281850106906 13.85489136795608 7.777406525899966
S 11.709624910508273 16.146755059263544 8.657446743650812
S 11.05328101553486 13.395564970097388 11.435142562820559
S 13.273688426257715 15.550613062331102 15.03447042640001
S 9.086311691494542 14.211972287223523 12.21776380829509
S 12.653275982305672 14.566003698067902 11.711803117606024
S 14.65443697045359 14.312204407276997 15.607418416565539
S 8.24768460713313 15.035967206171392 8.655165436098796
S 10.961308552417758 10.895636980071012 8.73583609454371
S 11.458317684105273 14.713910728918322 7.234872724837422
S 13.285385372641574 15.744738294945096 9.940656011738001
S 13.802330035447477 12.464972706899042 16.25970600395894
S 15.369089873449898 9.52701468092264 10.092082336349343
S 14.790061336883127 13.568671491577897 7.6648084356237645
S 14.02070455275382 11.863152078898985 7.158926186577655
S 16.296424479901653 12.307982076972612 11.508894452590452
S 16.974128311510725 10.800630470239557 10.541553748687136
S 14.807739229321395 10.192204150323 13.972359092070972
S 15.939144453866371 8.012951131480921 8.911162368127997
S 12.728850470504815 11.884128569296236 5.708552277523864
S 12.417132029494722 5.46018654168266 10.186940425747572
S 12.509106718153038 8.494856136895313 15.649088108355937
S 14.387419957234512 8.235060073005219 15.060016926266313
S 9.733733288538867 12.15999524662339 16.824435218721714
S 9.028240794090369 14.162358563603084 14.190987597902708
S 13.336666431061122 11.410764262538445 14.512199762413886
S 5.5974839317366945 12.33227137381667 9.617778221081068
S 9.388679196707882 11.90749293306564 14.900407184813137
S 7.400997260635845 11.177385093387555 14.485144670690156
S 7.718315489334675 9.442418667650212 13.411782022775482
S 7.470852162919812 11.65204269945327 10.280175823525608
S 9.796926930713617 6.871368315733072 14.071952127395859
S 9.84771989029559 8.284193146814612 7.911455060015333
S 9.305411846241972 7.962363974217486 9.76631132221112
S 5.5174086520137084 14.452571527699527 10.567163261272489
S 6.365075079233021 10.417145349289779 8.93049116430737
S 10.564775379205827 10.125431781164634 10.532206398632274
S 8.093002347649005 7.950203256881051 14.814680018191233
S 11.321594763071547 7.995271646062336 13.697749478771973
S 12.01265289228702 7.870745266646603 7.770953691375084
S 11.891799001820065 5.835144337744579 8.291654949693473
