43
Energy = -170.87453729 eV
S 12.463749251376552 10.445186268426353 4.983276373258095
S 13.84670048977455 9.994675503887162 6.642526390930226
S 15.320466815815811 7.27342817277247 9.056030183273943
S 10.689909132843152 7.404026830987639 5.281059535167048
S 10.751093379325901 10.859931401090478 5.78103956071348
S 11.80005854284311 6.410353486797262 7.018717453433332
S 10.989693300729666 16.3159161355083 7.424349338579969
S 13.202226046252733 11.064588893701377 8.20031795783445
S 9.587639980633941 8.796695797963553 6.0030024656991925
S 15.053535623875568 8.365857177699779 10.612182572864137
S 5.362937057127696 11.419656864681649 9.857125981524446
S 10.371664751336741 15.689474622177263 9.149988566029103
S 14.172259518094647 12.984503359294004 8.140717355725524
S 11.268987896937068 7.35297558848551 8.68363658087018
S 6.723062973661697 12.261513109996644 8.815384979988297
S 7.209324944004202 8.284935920108008 10.859666264819129
S 13.467643959671605 12.09303037778852 11.673686849198798
S 13.571770980175444 7.661405651029427 11.96974085558285
S 8.713830301734813 11.122350550612898 9.619253611852528
S 14.717681554185274 13.971716520806934 11.339898795806231
S 9.61235857870276 6.37091119767084 9.504787302735279
S 7.057230518661464 14.416894022177164 9.758984763038647
S 7.909166139634217 7.555753838070046 9.146120268024921
S 11.321008485242468 16.928200608652293 10.724105605409385
S 9.883411171225173 17.416188360214754 12.03595748265953
S 6.086727886740458 14.21409920253183 11.468533319594421
S 11.674554380637893 12.83766300587172 12.26247377920793
S 7.99220534471907 10.314272137125775 11.238150065899056
S 15.648954560477332 12.976825142623552 9.481545656264705
S 16.146137089167606 14.328082991403004 12.566952355425038
S 15.327004862572556 7.595591850084689 13.148134538601195
S 9.907462747744605 15.958469994234855 13.607510320401419
S 10.90315731130388 11.895156526916127 13.974036402822517
S 15.34284336005822 8.777919185658217 14.660638677998184
S 8.831136190099238 7.339159397447487 15.353239596714085
S 7.402972179832316 13.659811982162893 13.034513445975053
S 9.095218988089261 9.160105312815176 16.712320958550333
S 10.358376811725018 6.225148145711881 15.633294391817115
S 7.972126484096316 15.413822397399983 13.977565791319993
S 11.473315396884614 12.63657984112557 15.772576736202792
S 12.324593582483079 9.437818055188263 16.111656100446417
S 10.871493711456123 8.80325540967453 17.519218608139585
S 12.922925308636675 11.314666752014139 16.544699750192592
