45
Energy = -174.96415041 eV
S 11.709181986447117 9.787594653984446 5.67510741667158
S 11.802720688347112 14.215643939066494 7.3288492461800425
S 12.790898633319921 11.36038195801028 5.535574551726338
S 9.63320049008095 10.095799144273478 5.485398391932707
S 9.100107731054505 11.933352793765447 5.237376027528381
S 15.157053411067546 13.724226934833142 7.579210809274413
S 13.116497792655784 7.278145903190262 8.42013261508688
S 10.084756560365877 7.6304369957856935 8.41836104607166
S 13.405153629134574 14.506924094779228 8.489140199498548
S 6.694095168787661 9.775731666192282 8.99503373799833
S 7.210069492312427 11.944683768420061 8.457238411518865
S 10.746058876385641 12.481837069096795 8.213432415707253
S 15.436503563130206 11.804692099674993 8.292054498434267
S 12.170898902623877 11.384487434148038 8.998456102428346
S 14.436164790605844 7.969649167332861 9.620509506083023
S 9.668842499300553 5.831842937267757 9.006481134508675
S 16.59983452956394 12.106635465952044 9.997846769300619
S 6.211265595405417 13.176013468909911 9.575125540520665
S 9.675667883920669 9.090265616428791 9.622240334187305
S 12.203157094957113 15.898517773730815 11.759544378920907
S 5.092931256738842 9.80958905668032 10.170194600979054
S 9.125953499875031 15.151332950481681 10.069599579836504
S 11.935544807940932 11.966666398019045 11.114965915426609
S 12.233099054779974 6.251439011133831 11.281241431634664
S 5.553833763813371 12.780770192969426 13.567228849570805
S 12.132030582640336 10.385719312424158 12.234251351583787
S 13.916823683236748 7.121409247253375 11.53979008223789
S 8.659254958225342 12.894627716040471 12.196820050660437
S 15.448311797583788 12.819880840609349 11.611230956770143
S 7.6799950912658845 14.432707243252171 11.13054942599281
S 7.803857944734942 6.9223488645950635 11.659834627808511
S 5.855666594745451 9.71783233235435 12.193893867949244
S 13.0073516828404 14.475840193916016 12.770384861770728
S 9.525150949261093 7.619636283738763 12.505778918587284
S 9.63712465171531 6.347249392303751 14.203226971023822
S 6.193778302779653 7.785378076471598 12.69115894390653
S 14.529535218757623 8.629591724479289 14.471706982210915
S 11.330218554812173 13.854798911041728 14.417667677608407
S 13.957967759996778 10.404995381571423 14.030837393191241
S 15.732128636614194 11.680185443364001 13.234118906906067
S 8.904493233687688 10.638825090530814 14.014644616757494
S 7.428657836347189 12.747919362811777 14.00098413185339
S 11.235397763261625 6.842214989262492 15.155305210153593
S 11.542376012159808 12.41763562647361 15.723197626009418
S 9.996013949996252 10.614170380655317 15.613900793268712
