47
Energy = -175.13426182 eV
S 10.202022274396183 9.927066311390222 4.828832482719823
S 9.63691237914146 11.715019452878057 4.6323229985077194
S 8.93967058618664 9.092586559582656 6.660390194368518
S 8.611015191278529 12.535781506350231 7.493798703260633
S 12.806402918062188 11.39596912721903 6.383580875590274
S 13.578084638300382 9.470867824356182 6.318885914670745
S 11.974380569271716 13.240458385131106 7.53792808288183
S 7.099514782531455 13.719340163791212 7.722906500471586
S 13.244072173633976 5.90304827362807 8.52443040592702
S 12.509626802269658 7.9552956719429595 7.110826773751329
S 9.75883539262326 7.770361917464417 8.076484834218459
S 7.784299119553046 15.528362211641145 8.726301580242197
S 13.063265654417249 14.689361114459818 8.319325557272387
S 6.862624253760071 10.608926625298178 9.58604953013553
S 13.122694537118187 8.079219774649749 10.853317363141558
S 11.525413740458156 11.083066891876173 9.414805059231306
S 13.358395814656088 10.65316091243564 9.218147053176445
S 9.83037578606956 14.92902095719612 9.26834730103254
S 11.882950846354547 5.329683858297659 9.839106035521842
S 12.558034989751008 14.553072139476594 11.730369352879155
S 8.367674642095826 6.5420720228493865 8.84456813347824
S 14.459359384744392 13.707001630796007 9.83801318933407
S 9.530383203149022 13.158496124534725 10.195146582089782
S 8.791301381335838 10.334667079501454 9.992574957136853
S 5.857204473682674 10.665929320238291 11.244972981083565
S 14.390013477642725 11.822064397663906 10.774121710316654
S 7.45340847793598 14.806380462126578 12.181809571002752
S 7.324599860283429 6.856465603276587 10.944652080560719
S 11.810435994359821 12.85777546722755 12.192101022527034
S 11.141522769884155 8.591139722948938 10.877641510392673
S 11.728293533065765 5.338716793639179 12.32464968532985
S 10.458452123710321 16.337289554465144 12.102149914643892
S 7.174978303640705 12.774801295633454 12.670219244473227
S 7.321816176217139 8.485645333158708 11.951935266744957
S 10.797596307586442 9.324748871460038 12.937672518040282
S 9.19748182711388 15.3448621310946 13.210469734120272
S 9.042840089245711 12.213178318841974 13.602183331795965
S 14.346424501949539 8.588760407339068 12.38637996953128
S 15.542247407793107 10.226609984996395 12.06823830816973
S 9.080197580431944 6.028304981301484 13.66918392570283
S 13.068629761024198 11.784687505320473 14.045886238230963
S 12.926628998430655 6.200826933023906 13.538285159027952
S 8.55654208123137 9.357416652429881 14.11441531067582
S 9.020347729005447 12.169101734764553 15.54725456567524
S 11.962365111241995 8.660229721490253 14.644346835227182
S 8.732452577480101 7.426736897200106 14.957004230237915
S 12.035955910648672 10.68416750837739 15.365713560214989
