48
Energy = -189.88293144 eV
S 10.301414332990088 8.07220636037789 4.214670239973229
S 10.146833126731572 10.265669926183222 4.360229809174819
S 5.227772380181774 8.183824139143248 5.205606804127602
S 6.8612352544687925 10.913802368199756 4.019256012455737
S 5.984233942269001 9.012005483521978 3.63223359992313
S 13.107138989719648 14.360612071570056 8.081978118627871
S 11.628149148797435 14.075108965070264 6.904034164574324
S 8.453333857247037 10.657032060724662 5.35091626878466
S 15.365183077474546 10.77195349962501 8.620561483978058
S 9.047246728666574 7.353067466892684 5.591431151915188
S 13.508173568067226 10.510243059928923 7.856783344429525
S 9.179811852971605 4.4970313298864015 8.807884591498842
S 10.72267361098685 5.7771992304786055 8.07069725911662
S 6.608370126544028 7.254865231620879 8.671053845617722
S 5.700506578606411 11.932950672799478 9.351873210450943
S 10.000941076328733 15.601292290973262 7.2336990450085175
S 8.425465600777425 10.174826525281045 10.090770415293491
S 15.554911748764429 14.685693369986371 10.780756298702126
S 16.1161128493592 8.992759335580626 9.408538387955065
S 12.23467370540302 11.711903636111586 9.176863339291927
S 6.5382672771545245 6.11465735948479 10.20147034573873
S 9.906752148007271 7.541200103214089 7.5105064941983475
S 7.054025822317361 11.301384757003905 10.84385218071625
S 10.628331696127555 11.999857873801606 8.12435926900562
S 10.08627420557301 16.24412635701465 9.115882720143379
S 12.494642378665336 7.258581750380233 11.124424760695394
S 14.025282665303063 14.020302595731124 11.763416404986407
S 8.602920101639867 5.076415738893126 10.618501836809697
S 4.279899144328561 12.975578296462702 10.155844318346595
S 11.543513298032787 8.134152952481923 12.582176352444165
S 15.55927444950004 8.792242315619703 11.430895123605731
S 12.33790926838863 11.420626807907945 15.185978502952663
S 8.645034297397503 15.091402137403772 10.170745397006447
S 6.736712077122898 7.37376461947485 12.169622721950974
S 9.624087239689885 13.951035024459358 11.554005663284594
S 12.016746047281124 4.757269723747489 12.786771539825464
S 10.541852647447357 11.327973786300461 14.286030495899176
S 14.78541356180604 13.121893165607213 13.589318865418035
S 14.564775569201782 7.0372726630566245 11.608913617343283
S 11.101095576120949 6.049156586852729 13.858388488555377
S 7.589238017276963 12.665057778653667 14.648765412585439
S 12.38367013785853 6.768471479021759 15.63785215577329
S 7.777101099617386 14.740205981440242 14.225695151688312
S 13.315953633549345 13.311447540618216 14.96283931342563
S 6.6955134817013775 6.133817041635811 13.640658936449112
S 9.616709350463513 14.9721666995259 13.3644577614065
S 9.128567000015371 12.031452933687229 15.77231280739351
S 11.208031345942983 7.94621400044972 16.59825106533838
