6
Energy = -22.41747832 eV
S 8.505971870264629 9.154102732883764 5.901516195731405
S 6.8894088079004145 8.7334381183551 6.853817476873781
S 7.7353715885038214 4.414445709064447 7.400595122861046
S 7.270744554429243 7.563558187568838 8.68546019798286
S 6.406577560994767 5.735527817613101 7.798638703361071
S 5.870643379617104 6.954858659354055 6.036915591740724
