<?xml version="1.0" encoding="ISO-8859-1"?>
<modeling>
 <generator>
  <i name="program" type="string">vasp </i>
  <i name="version" type="string">5.3.5  </i>
  <i name="subversion" type="string">31Mar14 (build Feb 01 2018 12:10:03) gamma-only                       parallel </i>
  <i name="platform" type="string">LinuxIFC </i>
  <i name="date" type="string">2019 03 20 </i>
  <i name="time" type="string">17:27:23 </i>
 </generator>
 <incar>
  <i type="string" name="PREC">normal</i>
  <i type="int" name="ISPIN">     2</i>
  <i type="int" name="IBRION">     2</i>
  <i type="int" name="NSW">  1000</i>
  <i type="int" name="ISIF">     2</i>
  <i name="POTIM">      0.10000000</i>
  <i type="logical" name="LPLANE"> T  </i>
  <i type="int" name="ISMEAR">     0</i>
  <i name="SIGMA">      0.00010000</i>
  <i type="logical" name="LWAVE"> F  </i>
  <i type="logical" name="LCHARG"> F  </i>
  <i type="logical" name="LVTOT"> F  </i>
  <i type="string" name="GGA"> PE</i>
 </incar>
 <kpoints>
  <varray name="kpointlist" >
   <v>       0.00000000       0.00000000       0.00000000 </v>
  </varray>
  <varray name="weights" >
   <v>       1.00000000 </v>
  </varray>
 </kpoints>
 <parameters>
  <separator name="general" >
   <i type="string" name="SYSTEM">unknown system</i>
   <i type="logical" name="LCOMPAT"> F  </i>
  </separator>
  <separator name="electronic" >
   <i type="string" name="PREC">normal</i>
   <i name="ENMAX">    249.84400000</i>
   <i name="ENAUG">    412.49600000</i>
   <i name="EDIFF">      0.00010000</i>
   <i type="int" name="IALGO">    38</i>
   <i type="int" name="IWAVPR">    11</i>
   <i type="int" name="NBANDS">    36</i>
   <i name="NELECT">     55.00000000</i>
   <i type="int" name="TURBO">     0</i>
   <i type="int" name="IRESTART">     0</i>
   <i type="int" name="NREBOOT">     0</i>
   <i type="int" name="NMIN">     0</i>
   <i name="EREF">      0.00000000</i>
   <separator name="electronic smearing" >
    <i type="int" name="ISMEAR">     0</i>
    <i name="SIGMA">      0.00010000</i>
    <i name="KSPACING">      0.50000000</i>
    <i type="logical" name="KGAMMA"> T  </i>
   </separator>
   <separator name="electronic projectors" >
    <i type="logical" name="LREAL"> F  </i>
    <v name="ROPT">      0.00000000</v>
    <i type="int" name="LMAXPAW">  -100</i>
    <i type="int" name="LMAXMIX">     2</i>
    <i type="logical" name="NLSPLINE"> F  </i>
   </separator>
   <separator name="electronic startup" >
    <i type="int" name="ISTART">     0</i>
    <i type="int" name="ICHARG">     2</i>
    <i type="int" name="INIWAV">     1</i>
   </separator>
   <separator name="electronic spin" >
    <i type="int" name="ISPIN">     2</i>
    <i type="logical" name="LNONCOLLINEAR"> F  </i>
    <v name="MAGMOM">      1.00000000      1.00000000      1.00000000      1.00000000      1.00000000</v>
    <i name="NUPDOWN">     -1.00000000</i>
    <i type="logical" name="LSORBIT"> F  </i>
    <v name="SAXIS">      0.00000000      0.00000000      1.00000000</v>
    <i type="logical" name="LSPIRAL"> F  </i>
    <v name="QSPIRAL">      0.00000000      0.00000000      0.00000000</v>
    <i type="logical" name="LZEROZ"> F  </i>
   </separator>
   <separator name="electronic exchange-correlation" >
    <i type="logical" name="LASPH"> F  </i>
    <i type="logical" name="LMETAGGA"> F  </i>
   </separator>
   <separator name="electronic convergence" >
    <i type="int" name="NELM">    60</i>
    <i type="int" name="NELMDL">    -5</i>
    <i type="int" name="NELMIN">     2</i>
    <i name="ENINI">    249.84400000</i>
    <separator name="electronic convergence detail" >
     <i type="logical" name="LDIAG"> T  </i>
     <i type="logical" name="LSUBROT"> F  </i>
     <i name="WEIMIN">      0.00100000</i>
     <i name="EBREAK">      0.00000069</i>
     <i name="DEPER">      0.30000000</i>
     <i type="int" name="NRMM">     4</i>
     <i name="TIME">      0.40000000</i>
    </separator>
   </separator>
   <separator name="electronic mixer" >
    <i name="AMIX">      0.40000000</i>
    <i name="BMIX">      1.00000000</i>
    <i name="AMIN">      0.10000000</i>
    <i name="AMIX_MAG">      1.60000000</i>
    <i name="BMIX_MAG">      1.00000000</i>
    <separator name="electronic mixer details" >
     <i type="int" name="IMIX">     4</i>
     <i type="int" name="MAXMIX">   -45</i>
     <i name="WC">    100.00000000</i>
     <i type="int" name="INIMIX">     1</i>
     <i type="int" name="MIXPRE">     1</i>
     <i type="int" name="MREMOVE">     5</i>
    </separator>
   </separator>
   <separator name="electronic dipolcorrection" >
    <i type="logical" name="LDIPOL"> F  </i>
    <i type="logical" name="LMONO"> F  </i>
    <i type="int" name="IDIPOL">     0</i>
    <i name="EPSILON">      1.00000000</i>
    <v name="DIPOL">   -100.00000000   -100.00000000   -100.00000000</v>
    <i name="EFIELD">      0.00000000</i>
   </separator>
  </separator>
  <separator name="grids" >
   <i type="int" name="NGX">    64</i>
   <i type="int" name="NGY">    64</i>
   <i type="int" name="NGZ">    64</i>
   <i type="int" name="NGXF">   128</i>
   <i type="int" name="NGYF">   128</i>
   <i type="int" name="NGZF">   128</i>
   <i type="logical" name="ADDGRID"> F  </i>
  </separator>
  <separator name="ionic" >
   <i type="int" name="NSW">  1000</i>
   <i type="int" name="IBRION">     2</i>
   <i type="int" name="ISIF">     2</i>
   <i name="PSTRESS">      0.00000000</i>
   <i name="EDIFFG">      0.00100000</i>
   <i type="int" name="NFREE">     1</i>
   <i name="POTIM">      0.10000000</i>
   <i name="SMASS">     -3.00000000</i>
   <i name="SCALEE">      1.00000000</i>
  </separator>
  <separator name="ionic md" >
   <i name="TEBEG">      0.00010000</i>
   <i name="TEEND">      0.00010000</i>
   <i type="int" name="NBLOCK">     1</i>
   <i type="int" name="KBLOCK">  1000</i>
   <i type="int" name="NPACO">   256</i>
   <i name="APACO">     16.00000000</i>
  </separator>
  <separator name="symmetry" >
   <i type="int" name="ISYM">     2</i>
   <i name="SYMPREC">      0.00001000</i>
  </separator>
  <separator name="dos" >
   <i type="logical" name="LORBIT"> F  </i>
   <v name="RWIGS">     -1.00000000</v>
   <i type="int" name="NEDOS">   301</i>
   <i name="EMIN">     10.00000000</i>
   <i name="EMAX">    -10.00000000</i>
   <i name="EFERMI">      0.00000000</i>
  </separator>
  <separator name="writing" >
   <i type="int" name="NWRITE">     2</i>
   <i type="logical" name="LWAVE"> F  </i>
   <i type="logical" name="LCHARG"> F  </i>
   <i type="logical" name="LPARD"> F  </i>
   <i type="logical" name="LVTOT"> F  </i>
   <i type="logical" name="LVHAR"> F  </i>
   <i type="logical" name="LELF"> F  </i>
   <i type="logical" name="LOPTICS"> F  </i>
   <v name="STM">      0.00000000      0.00000000      0.00000000      0.00000000      0.00000000      0.00000000      0.00000000</v>
  </separator>
  <separator name="performance" >
   <i type="int" name="NPAR">     4</i>
   <i type="int" name="NSIM">     4</i>
   <i type="int" name="NBLK">    -1</i>
   <i type="logical" name="LPLANE"> T  </i>
   <i type="logical" name="LSCALAPACK"> T  </i>
   <i type="logical" name="LSCAAWARE"> F  </i>
   <i type="logical" name="LSCALU"> F  </i>
   <i type="logical" name="LASYNC"> F  </i>
   <i type="logical" name="LORBITALREAL"> F  </i>
  </separator>
  <separator name="miscellaneous" >
   <i type="int" name="IDIOT">     3</i>
   <i type="logical" name="LMUSIC"> F  </i>
   <v name="POMASS">    107.86800000</v>
   <v name="DARWINR">      0.00000000</v>
   <v name="DARWINV">      1.00000000</v>
   <i type="logical" name="LCORR"> T  </i>
  </separator>
  <i type="logical" name="GGA_COMPAT"> T  </i>
  <i type="logical" name="LBERRY"> F  </i>
  <i type="int" name="ICORELEVEL">     0</i>
  <i type="logical" name="LDAU"> F  </i>
  <i type="int" name="I_CONSTRAINED_M">     0</i>
  <separator name="electronic exchange-correlation" >
   <i type="string" name="GGA">PE</i>
   <i type="int" name="VOSKOWN">     0</i>
   <i type="logical" name="LHFCALC"> F  </i>
   <i type="string" name="PRECFOCK"></i>
   <i type="logical" name="LSYMGRAD"> F  </i>
   <i type="logical" name="LHFONE"> F  </i>
   <i type="logical" name="LRHFCALC"> F  </i>
   <i type="logical" name="LTHOMAS"> F  </i>
   <i type="logical" name="LMODELHF"> F  </i>
   <i name="ENCUT4O">     -1.00000000</i>
   <i type="int" name="EXXOEP">     0</i>
   <i type="int" name="FOURORBIT">     0</i>
   <i name="AEXX">      0.00000000</i>
   <i name="HFALPHA">      0.00000000</i>
   <i name="MCALPHA">      0.00000000</i>
   <i name="ALDAX">      1.00000000</i>
   <i name="AGGAX">      1.00000000</i>
   <i name="ALDAC">      1.00000000</i>
   <i name="AGGAC">      1.00000000</i>
   <i type="int" name="NKREDX">     1</i>
   <i type="int" name="NKREDY">     1</i>
   <i type="int" name="NKREDZ">     1</i>
   <i type="logical" name="SHIFTRED"> F  </i>
   <i type="logical" name="ODDONLY"> F  </i>
   <i type="logical" name="EVENONLY"> F  </i>
   <i type="int" name="LMAXFOCK">     0</i>
   <i type="int" name="NMAXFOCKAE">     0</i>
   <i type="logical" name="LFOCKAEDFT"> F  </i>
   <i name="HFSCREEN">      0.00000000</i>
   <i name="HFSCREENC">      0.00000000</i>
   <i type="int" name="NBANDSGWLOW">     0</i>
  </separator>
  <separator name="vdW DFT" >
   <i type="logical" name="LUSE_VDW"> F  </i>
   <i name="Zab_VDW">     -0.84910000</i>
   <i name="PARAM1">      0.12340000</i>
   <i name="PARAM2">      1.00000000</i>
   <i name="PARAM3">      0.00000000</i>
  </separator>
  <separator name="model GW" >
   <i type="int" name="MODEL_GW">     0</i>
   <i name="MODEL_EPS0">    525.21054828</i>
   <i name="MODEL_ALPHA">      1.00000000</i>
  </separator>
  <separator name="linear response parameters" >
   <i type="logical" name="LEPSILON"> F  </i>
   <i type="logical" name="LRPA"> F  </i>
   <i type="logical" name="LNABLA"> F  </i>
   <i type="logical" name="LVEL"> F  </i>
   <i type="int" name="KINTER">     0</i>
   <i name="CSHIFT">      0.10000000</i>
   <i name="OMEGAMAX">     -1.00000000</i>
   <i name="DEG_THRESHOLD">      0.00200000</i>
  </separator>
  <separator name="orbital magnetization" >
   <i type="logical" name="NUCIND"> F  </i>
   <v name="MAGPOS">      0.00000000      0.00000000      0.00000000</v>
   <i type="logical" name="LNICSALL"> T  </i>
   <i type="logical" name="ORBITALMAG"> F  </i>
   <i type="logical" name="LMAGBLOCH"> F  </i>
   <i type="logical" name="LCHIMAG"> F  </i>
   <i type="logical" name="LGAUGE"> T  </i>
   <i type="int" name="MAGATOM">     0</i>
   <v name="MAGDIPOL">      0.00000000      0.00000000      0.00000000</v>
   <v name="AVECCONST">      0.00000000      0.00000000      0.00000000</v>
  </separator>
  <separator name="response functions" >
   <i type="logical" name="LADDER"> F  </i>
   <i type="logical" name="LFXC"> F  </i>
   <i type="logical" name="LHARTREE"> T  </i>
   <i type="int" name="IBSE">     0</i>
   <i type="logical" name="LTCTE"> F  </i>
   <i type="logical" name="LTETE"> F  </i>
   <i type="logical" name="LTRIPLET"> F  </i>
   <i type="logical" name="LFXCEPS"> F  </i>
   <i type="logical" name="LFXHEG"> F  </i>
   <i type="logical" name="L2ORDER"> F  </i>
   <i type="logical" name="LUSEW"> F  </i>
   <i name="ENCUTGW">     -2.00000000</i>
   <i name="ENCUTGWSOFT">     -2.00000000</i>
   <i name="ENCUTLF">     -1.00000000</i>
   <i type="int" name="LMAXMP2">    -1</i>
   <i name="SCISSOR">      0.00000000</i>
   <i type="int" name="NOMEGA">     0</i>
   <i type="int" name="NOMEGAR">     0</i>
   <i type="int" name="NBANDSGW">    -1</i>
   <i type="int" name="NBANDSO">    -1</i>
   <i type="int" name="NBANDSV">    -1</i>
   <i type="int" name="NELM">     1</i>
   <i type="int" name="DIM">     3</i>
   <i type="int" name="ANTIRES">     0</i>
   <i name="OMEGAMAX">    -30.00000000</i>
   <i name="OMEGAMIN">    -30.00000000</i>
   <i name="OMEGATL">   -200.00000000</i>
   <i type="int" name="OMEGAGRID">     0</i>
   <i name="CSHIFT">     -0.10000000</i>
   <i type="logical" name="SELFENERGY"> F  </i>
   <i type="logical" name="LSPECTRAL"> F  </i>
   <i type="logical" name="ODDONLYGW"> F  </i>
   <i type="logical" name="EVENONLYGW"> F  </i>
   <i type="int" name="NKREDLFX">     1</i>
   <i type="int" name="NKREDLFY">     1</i>
   <i type="int" name="NKREDLFZ">     1</i>
   <i type="int" name="MAXMEM">  1800</i>
   <i type="int" name="TELESCOPE">     0</i>
   <i type="int" name="TAUPAR">     1</i>
  </separator>
  <separator name="External order field" >
   <i name="OFIELD_KAPPA">      0.00000000</i>
   <v name="OFIELD_K">      0.00000000      0.00000000      0.00000000</v>
   <i name="OFIELD_Q6_NEAR">      0.00000000</i>
   <i name="OFIELD_Q6_FAR">      0.00000000</i>
   <i name="OFIELD_A">      0.00000000</i>
  </separator>
 </parameters>
 <atominfo>
  <atoms>       5 </atoms>
  <types>       1 </types>
  <array name="atoms" >
   <dimension dim="1">ion</dimension>
   <field type="string">element</field>
   <field type="int">atomtype</field>
   <set>
    <rc><c>Ag</c><c>   1</c></rc>
    <rc><c>Ag</c><c>   1</c></rc>
    <rc><c>Ag</c><c>   1</c></rc>
    <rc><c>Ag</c><c>   1</c></rc>
    <rc><c>Ag</c><c>   1</c></rc>
   </set>
  </array>
  <array name="atomtypes" >
   <dimension dim="1">type</dimension>
   <field type="int">atomspertype</field>
   <field type="string">element</field>
   <field>mass</field>
   <field>valence</field>
   <field type="string">pseudopotential</field>
   <set>
    <rc><c>   5</c><c>Ag</c><c>    107.86800000</c><c>     11.00000000</c><c>  PAW_PBE Ag 02Apr2005                  </c></rc>
   </set>
  </array>
 </atominfo>
 <structure name="initialpos" >
  <crystal>
   <varray name="basis" >
    <v>      16.35751766       0.00000000       0.00000000 </v>
    <v>       0.00000000      16.35751766       0.00000000 </v>
    <v>       0.00000000       0.00000000      16.35751766 </v>
   </varray>
   <i name="volume">   4376.75456898 </i>
   <varray name="rec_basis" >
    <v>       0.06113397       0.00000000       0.00000000 </v>
    <v>       0.00000000       0.06113397       0.00000000 </v>
    <v>       0.00000000       0.00000000       0.06113397 </v>
   </varray>
  </crystal>
  <varray name="positions" >
   <v>       0.59719140       0.53228891       0.59847957 </v>
   <v>       0.55421816       0.41750213       0.51784203 </v>
   <v>       0.51748735       0.62625271       0.50810223 </v>
   <v>       0.43392743       0.42204757       0.46875696 </v>
   <v>       0.43189133       0.53661735       0.44153113 </v>
  </varray>
 </structure>
 <calculation>
  <scstep>
   <time name="dav">    0.13    0.13</time>
   <time name="total">    0.24    0.25</time>
   <energy>
    <i name="alphaZ">      4.85849764 </i>
    <i name="ewald">   2665.81982793 </i>
    <i name="hartreedc">  -7591.59513676 </i>
    <i name="XCdc">    -54.91119708 </i>
    <i name="pawpsdc">   5016.86089035 </i>
    <i name="pawaedc">  -4786.32304439 </i>
    <i name="eentropy">      0.00000000 </i>
    <i name="bandstr">     68.80481919 </i>
    <i name="atom">   5185.99315043 </i>
    <i name="e_fr_energy">    509.50780731 </i>
    <i name="e_wo_entrp">    509.50780731 </i>
    <i name="e_0_energy">    509.50780731 </i>
   </energy>
  </scstep>
  <scstep>
   <time name="dav">    0.22    0.22</time>
   <time name="total">    0.22    0.22</time>
   <energy>
    <i name="e_fr_energy">    220.09683378 </i>
    <i name="e_wo_entrp">    220.09683378 </i>
    <i name="e_0_energy">    220.09683378 </i>
   </energy>
  </scstep>
  <scstep>
   <time name="dav">    0.18    0.18</time>
   <time name="total">    0.18    0.19</time>
   <energy>
    <i name="e_fr_energy">     27.72827920 </i>
    <i name="e_wo_entrp">     27.72827920 </i>
    <i name="e_0_energy">     27.72827920 </i>
   </energy>
  </scstep>
  <scstep>
   <time name="dav">    0.15    0.15</time>
   <time name="total">    0.15    0.16</time>
   <energy>
    <i name="e_fr_energy">      0.72906840 </i>
    <i name="e_wo_entrp">      0.72906840 </i>
    <i name="e_0_energy">      0.72906840 </i>
   </energy>
  </scstep>
  <scstep>
   <time name="dav">    0.13    0.13</time>
   <time name="total">    0.15    0.16</time>
   <energy>
    <i name="e_fr_energy">      0.10380588 </i>
    <i name="e_wo_entrp">      0.10380588 </i>
    <i name="e_0_energy">      0.10380588 </i>
   </energy>
  </scstep>
  <scstep>
   <time name="dav">    0.13    0.13</time>
   <time name="total">    0.24    0.25</time>
   <energy>
    <i name="e_fr_energy">      5.63678405 </i>
    <i name="e_wo_entrp">      5.63678405 </i>
    <i name="e_0_energy">      5.63678405 </i>
   </energy>
  </scstep>
  <scstep>
   <time name="dav">    0.13    0.13</time>
   <time name="total">    0.25    0.30</time>
   <energy>
    <i name="e_fr_energy">      8.49539764 </i>
    <i name="e_wo_entrp">      8.49539764 </i>
    <i name="e_0_energy">      8.49539764 </i>
   </energy>
  </scstep>
  <scstep>
   <time name="dav">    0.13    0.13</time>
   <time name="total">    0.24    0.25</time>
   <energy>
    <i name="e_fr_energy">      4.72841558 </i>
    <i name="e_wo_entrp">      4.72841558 </i>
    <i name="e_0_energy">      4.72841558 </i>
   </energy>
  </scstep>
  <scstep>
   <time name="dav">    0.13    0.13</time>
   <time name="total">    0.25    0.25</time>
   <energy>
    <i name="e_fr_energy">      2.79817541 </i>
    <i name="e_wo_entrp">      2.79817541 </i>
    <i name="e_0_energy">      2.79817541 </i>
   </energy>
  </scstep>
  <scstep>
   <time name="dav">    0.13    0.13</time>
   <time name="total">    0.25    0.25</time>
   <energy>
    <i name="e_fr_energy">      1.44162333 </i>
    <i name="e_wo_entrp">      1.44162333 </i>
    <i name="e_0_energy">      1.44162333 </i>
   </energy>
  </scstep>
  <scstep>
   <time name="dav">    0.13    0.13</time>
   <time name="total">    0.24    0.25</time>
   <energy>
    <i name="e_fr_energy">      0.92455915 </i>
    <i name="e_wo_entrp">      0.92455915 </i>
    <i name="e_0_energy">      0.92455915 </i>
   </energy>
  </scstep>
  <scstep>
   <time name="dav">    0.13    0.13</time>
   <time name="total">    0.24    0.30</time>
   <energy>
    <i name="e_fr_energy">      0.34019293 </i>
    <i name="e_wo_entrp">      0.34019293 </i>
    <i name="e_0_energy">      0.34019293 </i>
   </energy>
  </scstep>
  <scstep>
   <time name="dav">    0.13    0.13</time>
   <time name="total">    0.25    0.25</time>
   <energy>
    <i name="e_fr_energy">      0.07186558 </i>
    <i name="e_wo_entrp">      0.07186558 </i>
    <i name="e_0_energy">      0.07186558 </i>
   </energy>
  </scstep>
  <scstep>
   <time name="dav">    0.12    0.12</time>
   <time name="total">    0.24    0.24</time>
   <energy>
    <i name="e_fr_energy">      0.01947029 </i>
    <i name="e_wo_entrp">      0.01947029 </i>
    <i name="e_0_energy">      0.01947029 </i>
   </energy>
  </scstep>
  <scstep>
   <time name="dav">    0.12    0.12</time>
   <time name="total">    0.23    0.24</time>
   <energy>
    <i name="e_fr_energy">     -0.00822603 </i>
    <i name="e_wo_entrp">     -0.00822603 </i>
    <i name="e_0_energy">     -0.00822603 </i>
   </energy>
  </scstep>
  <scstep>
   <time name="dav">    0.10    0.10</time>
   <time name="total">    0.22    0.25</time>
   <energy>
    <i name="e_fr_energy">     -0.01241223 </i>
    <i name="e_wo_entrp">     -0.01241223 </i>
    <i name="e_0_energy">     -0.01241223 </i>
   </energy>
  </scstep>
  <scstep>
   <time name="dav">    0.10    0.10</time>
   <time name="total">    0.22    0.23</time>
   <energy>
    <i name="e_fr_energy">     -0.01345255 </i>
    <i name="e_wo_entrp">     -0.01345255 </i>
    <i name="e_0_energy">     -0.01345255 </i>
   </energy>
  </scstep>
  <scstep>
   <time name="dav">    0.10    0.10</time>
   <time name="total">    0.21    0.22</time>
   <energy>
    <i name="e_fr_energy">     -0.01442661 </i>
    <i name="e_wo_entrp">     -0.01442661 </i>
    <i name="e_0_energy">     -0.01442661 </i>
   </energy>
  </scstep>
  <scstep>
   <time name="dav">    0.10    0.10</time>
   <time name="total">    0.22    0.22</time>
   <energy>
    <i name="e_fr_energy">     -0.01484392 </i>
    <i name="e_wo_entrp">     -0.01484392 </i>
    <i name="e_0_energy">     -0.01484392 </i>
   </energy>
  </scstep>
  <scstep>
   <time name="dav">    0.10    0.10</time>
   <time name="total">    0.22    0.23</time>
   <energy>
    <i name="e_fr_energy">     -0.01501438 </i>
    <i name="e_wo_entrp">     -0.01501438 </i>
    <i name="e_0_energy">     -0.01501438 </i>
   </energy>
  </scstep>
  <scstep>
   <time name="dav">    0.10    0.10</time>
   <time name="total">    0.20    0.20</time>
   <energy>
    <i name="alphaZ">      4.85849764 </i>
    <i name="ewald">   2665.81982793 </i>
    <i name="hartreedc">  -7583.80592389 </i>
    <i name="XCdc">    -55.99963521 </i>
    <i name="pawpsdc">   5953.79415910 </i>
    <i name="pawaedc">  -5738.03044766 </i>
    <i name="eentropy">      0.00000000 </i>
    <i name="bandstr">   -432.64470664 </i>
    <i name="atom">   5185.99315043 </i>
    <i name="e_fr_energy">     -0.01507829 </i>
    <i name="e_wo_entrp">     -0.01507829 </i>
    <i name="e_0_energy">     -0.01507829 </i>
   </energy>
  </scstep>
  <structure>
   <crystal>
    <varray name="basis" >
     <v>      16.35751766       0.00000000       0.00000000 </v>
     <v>       0.00000000      16.35751766       0.00000000 </v>
     <v>       0.00000000       0.00000000      16.35751766 </v>
    </varray>
    <i name="volume">   4376.75456898 </i>
    <varray name="rec_basis" >
     <v>       0.06113397       0.00000000       0.00000000 </v>
     <v>       0.00000000       0.06113397       0.00000000 </v>
     <v>       0.00000000       0.00000000       0.06113397 </v>
    </varray>
   </crystal>
   <varray name="positions" >
    <v>       0.59719140       0.53228891       0.59847957 </v>
    <v>       0.55421816       0.41750213       0.51784203 </v>
    <v>       0.51748735       0.62625271       0.50810223 </v>
    <v>       0.43392743       0.42204757       0.46875696 </v>
    <v>       0.43189133       0.53661735       0.44153113 </v>
   </varray>
  </structure>
  <varray name="forces" >
   <v>       1.36272432       1.18149195       1.94793291 </v>
   <v>       7.42037674      -1.82362467       2.08867561 </v>
   <v>       1.93791509       3.14088850       1.35204232 </v>
   <v>      -8.00056595     -18.37049747       0.93999977 </v>
   <v>      -2.72045020      15.87174169      -6.32865061 </v>
  </varray>
  <varray name="stress" >
   <v>       7.07963479       1.22739636       4.18847862 </v>
   <v>       1.22739637      14.90924970      -1.44968432 </v>
   <v>       4.18847861      -1.44968433       2.86728377 </v>
  </varray>
  <energy>
   <i name="e_fr_energy">     -0.01507829 </i>
   <i name="e_wo_entrp">     -0.01507829 </i>
   <i name="e_0_energy">      0.00000000 </i>
  </energy>
  <time name="totalsc">    5.00    5.26</time>
 </calculation>
 <calculation>
  <scstep>
   <time name="dav">    0.13    0.13</time>
   <time name="total">    0.24    0.25</time>
   <energy>
    <i name="alphaZ">      4.85849764 </i>
    <i name="ewald">   2383.77492843 </i>
    <i name="hartreedc">  -7316.62891161 </i>
    <i name="XCdc">    -57.09328292 </i>
    <i name="pawpsdc">   5953.82894070 </i>
    <i name="pawaedc">  -5738.06513232 </i>
    <i name="eentropy">      0.00000000 </i>
    <i name="bandstr">   -420.87995739 </i>
    <i name="atom">   5185.99315043 </i>
    <i name="e_fr_energy">     -4.21176705 </i>
    <i name="e_wo_entrp">     -4.21176705 </i>
    <i name="e_0_energy">     -4.21176705 </i>
   </energy>
  </scstep>
  <scstep>
   <time name="dav">    0.14    0.14</time>
   <time name="total">    0.25    0.26</time>
   <energy>
    <i name="e_fr_energy">     -4.47987756 </i>
    <i name="e_wo_entrp">     -4.47987756 </i>
    <i name="e_0_energy">     -4.47987756 </i>
   </energy>
  </scstep>
  <scstep>
   <time name="dav">    0.14    0.13</time>
   <time name="total">    0.25    0.26</time>
   <energy>
    <i name="e_fr_energy">     -4.44722064 </i>
    <i name="e_wo_entrp">     -4.44722064 </i>
    <i name="e_0_energy">     -4.44722064 </i>
   </energy>
  </scstep>
  <scstep>
   <time name="dav">    0.13    0.13</time>
   <time name="total">    0.24    0.25</time>
   <energy>
    <i name="e_fr_energy">     -4.45316679 </i>
    <i name="e_wo_entrp">     -4.45316679 </i>
    <i name="e_0_energy">     -4.45316679 </i>
   </energy>
  </scstep>
  <scstep>
   <time name="dav">    0.14    0.13</time>
   <time name="total">    0.25    0.26</time>
   <energy>
    <i name="e_fr_energy">     -4.45549204 </i>
    <i name="e_wo_entrp">     -4.45549204 </i>
    <i name="e_0_energy">     -4.45549204 </i>
   </energy>
  </scstep>
  <scstep>
   <time name="dav">    0.13    0.13</time>
   <time name="total">    0.25    0.26</time>
   <energy>
    <i name="e_fr_energy">     -4.45677771 </i>
    <i name="e_wo_entrp">     -4.45677771 </i>
    <i name="e_0_energy">     -4.45677771 </i>
   </energy>
  </scstep>
  <scstep>
   <time name="dav">    0.10    0.10</time>
   <time name="total">    0.22    0.23</time>
   <energy>
    <i name="e_fr_energy">     -4.45737028 </i>
    <i name="e_wo_entrp">     -4.45737028 </i>
    <i name="e_0_energy">     -4.45737028 </i>
   </energy>
  </scstep>
  <scstep>
   <time name="dav">    0.10    0.11</time>
   <time name="total">    0.22    0.23</time>
   <energy>
    <i name="e_fr_energy">     -4.45772711 </i>
    <i name="e_wo_entrp">     -4.45772711 </i>
    <i name="e_0_energy">     -4.45772711 </i>
   </energy>
  </scstep>
  <scstep>
   <time name="dav">    0.10    0.10</time>
   <time name="total">    0.22    0.24</time>
   <energy>
    <i name="e_fr_energy">     -4.45800176 </i>
    <i name="e_wo_entrp">     -4.45800176 </i>
    <i name="e_0_energy">     -4.45800176 </i>
   </energy>
  </scstep>
  <scstep>
   <time name="dav">    0.10    0.10</time>
   <time name="total">    0.22    0.27</time>
   <energy>
    <i name="e_fr_energy">     -4.45821951 </i>
    <i name="e_wo_entrp">     -4.45821951 </i>
    <i name="e_0_energy">     -4.45821951 </i>
   </energy>
  </scstep>
  <scstep>
   <time name="dav">    0.10    0.10</time>
   <time name="total">    0.22    0.23</time>
   <energy>
    <i name="e_fr_energy">     -4.45838576 </i>
    <i name="e_wo_entrp">     -4.45838576 </i>
    <i name="e_0_energy">     -4.45838576 </i>
   </energy>
  </scstep>
  <scstep>
   <time name="dav">    0.10    0.10</time>
   <time name="total">    0.22    0.23</time>
   <energy>
    <i name="e_fr_energy">     -4.45849148 </i>
    <i name="e_wo_entrp">     -4.45849148 </i>
    <i name="e_0_energy">     -4.45849148 </i>
   </energy>
  </scstep>
  <scstep>
   <time name="dav">    0.11    0.11</time>
   <time name="total">    0.20    0.23</time>
   <energy>
    <i name="alphaZ">      4.85849764 </i>
    <i name="ewald">   2383.77492843 </i>
    <i name="hartreedc">  -7324.51198700 </i>
    <i name="XCdc">    -56.95878804 </i>
    <i name="pawpsdc">   5626.90174910 </i>
    <i name="pawaedc">  -5407.21511280 </i>
    <i name="eentropy">      0.00000000 </i>
    <i name="bandstr">   -417.30095670 </i>
    <i name="atom">   5185.99315043 </i>
    <i name="e_fr_energy">     -4.45851894 </i>
    <i name="e_wo_entrp">     -4.45851894 </i>
    <i name="e_0_energy">     -4.45851894 </i>
   </energy>
  </scstep>
  <structure>
   <crystal>
    <varray name="basis" >
     <v>      16.35751766       0.00000000       0.00000000 </v>
     <v>       0.00000000      16.35751766       0.00000000 </v>
     <v>       0.00000000       0.00000000      16.35751766 </v>
    </varray>
    <i name="volume">   4376.75456898 </i>
    <varray name="rec_basis" >
     <v>       0.06113397       0.00000000       0.00000000 </v>
     <v>       0.00000000       0.06113397       0.00000000 </v>
     <v>       0.00000000       0.00000000       0.06113397 </v>
    </varray>
   </crystal>
   <varray name="positions" >
    <v>       0.59799520       0.53298582       0.59962856 </v>
    <v>       0.55859509       0.41642646       0.51907405 </v>
    <v>       0.51863044       0.62810537       0.50889974 </v>
    <v>       0.42920827       0.41121168       0.46931142 </v>
    <v>       0.43028667       0.54597934       0.43779815 </v>
   </varray>
  </structure>
  <varray name="forces" >
   <v>       1.17655351       1.24772896       1.77607836 </v>
   <v>       3.36063686      -1.15535660       0.30116814 </v>
   <v>       2.23991284       2.95893418       1.66765430 </v>
   <v>      -4.37622795      -4.77394609      -0.71917847 </v>
   <v>      -2.40087526       1.72263953      -3.02572233 </v>
  </varray>
  <varray name="stress" >
   <v>       4.38924468       1.96016479       2.94633611 </v>
   <v>       1.96016479       5.53879896       1.01098417 </v>
   <v>       2.94633612       1.01098417       1.87127245 </v>
  </varray>
  <energy>
   <i name="e_fr_energy">     -4.45851894 </i>
   <i name="e_wo_entrp">     -4.45851894 </i>
   <i name="e_0_energy">      0.00000000 </i>
  </energy>
  <time name="totalsc">    3.34    3.52</time>
 </calculation>
 <calculation>
  <scstep>
   <time name="dav">    0.13    0.13</time>
   <time name="total">    0.24    0.25</time>
   <energy>
    <i name="alphaZ">      4.85849764 </i>
    <i name="ewald">   2283.46893575 </i>
    <i name="hartreedc">  -7226.98039114 </i>
    <i name="XCdc">    -57.30955718 </i>
    <i name="pawpsdc">   5626.95445419 </i>
    <i name="pawaedc">  -5407.26757710 </i>
    <i name="eentropy">      0.00000000 </i>
    <i name="bandstr">   -414.80040530 </i>
    <i name="atom">   5185.99315043 </i>
    <i name="e_fr_energy">     -5.08289271 </i>
    <i name="e_wo_entrp">     -5.08289271 </i>
    <i name="e_0_energy">     -5.08289271 </i>
   </energy>
  </scstep>
  <scstep>
   <time name="dav">    0.14    0.13</time>
   <time name="total">    0.25    0.28</time>
   <energy>
    <i name="e_fr_energy">     -5.12068140 </i>
    <i name="e_wo_entrp">     -5.12068140 </i>
    <i name="e_0_energy">     -5.12068140 </i>
   </energy>
  </scstep>
  <scstep>
   <time name="dav">    0.14    0.14</time>
   <time name="total">    0.25    0.26</time>
   <energy>
    <i name="e_fr_energy">     -5.11769948 </i>
    <i name="e_wo_entrp">     -5.11769948 </i>
    <i name="e_0_energy">     -5.11769948 </i>
   </energy>
  </scstep>
  <scstep>
   <time name="dav">    0.13    0.13</time>
   <time name="total">    0.25    0.25</time>
   <energy>
    <i name="e_fr_energy">     -5.11906389 </i>
    <i name="e_wo_entrp">     -5.11906389 </i>
    <i name="e_0_energy">     -5.11906389 </i>
   </energy>
  </scstep>
  <scstep>
   <time name="dav">    0.12    0.12</time>
   <time name="total">    0.23    0.23</time>
   <energy>
    <i name="e_fr_energy">     -5.11941237 </i>
    <i name="e_wo_entrp">     -5.11941237 </i>
    <i name="e_0_energy">     -5.11941237 </i>
   </energy>
  </scstep>
  <scstep>
   <time name="dav">    0.11    0.11</time>
   <time name="total">    0.23    0.23</time>
   <energy>
    <i name="e_fr_energy">     -5.11967745 </i>
    <i name="e_wo_entrp">     -5.11967745 </i>
    <i name="e_0_energy">     -5.11967745 </i>
   </energy>
  </scstep>
  <scstep>
   <time name="dav">    0.11    0.11</time>
   <time name="total">    0.22    0.22</time>
   <energy>
    <i name="e_fr_energy">     -5.11978708 </i>
    <i name="e_wo_entrp">     -5.11978708 </i>
    <i name="e_0_energy">     -5.11978708 </i>
   </energy>
  </scstep>
  <scstep>
   <time name="dav">    0.10    0.10</time>
   <time name="total">    0.20    0.20</time>
   <energy>
    <i name="alphaZ">      4.85849764 </i>
    <i name="ewald">   2283.46893575 </i>
    <i name="hartreedc">  -7229.44398257 </i>
    <i name="XCdc">    -57.25494361 </i>
    <i name="pawpsdc">   5551.15522688 </i>
    <i name="pawaedc">  -5330.44002551 </i>
    <i name="eentropy">      0.00000000 </i>
    <i name="bandstr">   -413.45672104 </i>
    <i name="atom">   5185.99315043 </i>
    <i name="e_fr_energy">     -5.11986205 </i>
    <i name="e_wo_entrp">     -5.11986205 </i>
    <i name="e_0_energy">     -5.11986205 </i>
   </energy>
  </scstep>
  <structure>
   <crystal>
    <varray name="basis" >
     <v>      16.35751766       0.00000000       0.00000000 </v>
     <v>       0.00000000      16.35751766       0.00000000 </v>
     <v>       0.00000000       0.00000000      16.35751766 </v>
    </varray>
    <i name="volume">   4376.75456898 </i>
    <varray name="rec_basis" >
     <v>       0.06113397       0.00000000       0.00000000 </v>
     <v>       0.00000000       0.06113397       0.00000000 </v>
     <v>       0.00000000       0.00000000       0.06113397 </v>
    </varray>
   </crystal>
   <varray name="positions" >
    <v>       0.59831734       0.53326511       0.60008904 </v>
    <v>       0.56034920       0.41599537       0.51956779 </v>
    <v>       0.51908854       0.62884785       0.50921935 </v>
    <v>       0.42731701       0.40686906       0.46953362 </v>
    <v>       0.42964358       0.54973128       0.43630212 </v>
   </varray>
  </structure>
  <varray name="forces" >
   <v>       1.11153806       1.25803589       1.71179400 </v>
   <v>       2.19876178      -1.09191293      -0.16288530 </v>
   <v>       2.31723996       2.84197574       1.75467019 </v>
   <v>      -3.19694134      -2.48749273      -0.79170042 </v>
   <v>      -2.43059846      -0.52060597      -2.51187846 </v>
  </varray>
  <varray name="stress" >
   <v>       3.54803245       1.98092440       2.59923370 </v>
   <v>       1.98092441       3.66665154       1.44246475 </v>
   <v>       2.59923370       1.44246476       1.63786507 </v>
  </varray>
  <energy>
   <i name="e_fr_energy">     -5.11986205 </i>
   <i name="e_wo_entrp">     -5.11986205 </i>
   <i name="e_0_energy">      0.00000000 </i>
  </energy>
  <time name="totalsc">    2.20    2.28</time>
 </calculation>
 <calculation>
  <scstep>
   <time name="dav">    0.13    0.13</time>
   <time name="total">    0.24    0.25</time>
   <energy>
    <i name="alphaZ">      4.85849764 </i>
    <i name="ewald">   2099.64835896 </i>
    <i name="hartreedc">  -7048.88616276 </i>
    <i name="XCdc">    -57.82043228 </i>
    <i name="pawpsdc">   5550.93020637 </i>
    <i name="pawaedc">  -5330.21355838 </i>
    <i name="eentropy">      0.00000000 </i>
    <i name="bandstr">   -409.98334182 </i>
    <i name="atom">   5185.99315043 </i>
    <i name="e_fr_energy">     -5.47328184 </i>
    <i name="e_wo_entrp">     -5.47328184 </i>
    <i name="e_0_energy">     -5.47328184 </i>
   </energy>
  </scstep>
  <scstep>
   <time name="dav">    0.13    0.13</time>
   <time name="total">    0.25    0.25</time>
   <energy>
    <i name="e_fr_energy">     -5.64060536 </i>
    <i name="e_wo_entrp">     -5.64060536 </i>
    <i name="e_0_energy">     -5.64060536 </i>
   </energy>
  </scstep>
  <scstep>
   <time name="dav">    0.14    0.14</time>
   <time name="total">    0.25    0.25</time>
   <energy>
    <i name="e_fr_energy">     -5.64079704 </i>
    <i name="e_wo_entrp">     -5.64079704 </i>
    <i name="e_0_energy">     -5.64079704 </i>
   </energy>
  </scstep>
  <scstep>
   <time name="dav">    0.13    0.13</time>
   <time name="total">    0.25    0.25</time>
   <energy>
    <i name="e_fr_energy">     -5.64024925 </i>
    <i name="e_wo_entrp">     -5.64024925 </i>
    <i name="e_0_energy">     -5.64024925 </i>
   </energy>
  </scstep>
  <scstep>
   <time name="dav">    0.14    0.14</time>
   <time name="total">    0.25    0.27</time>
   <energy>
    <i name="e_fr_energy">     -5.64142436 </i>
    <i name="e_wo_entrp">     -5.64142436 </i>
    <i name="e_0_energy">     -5.64142436 </i>
   </energy>
  </scstep>
  <scstep>
   <time name="dav">    0.10    0.10</time>
   <time name="total">    0.22    0.23</time>
   <energy>
    <i name="e_fr_energy">     -5.64197863 </i>
    <i name="e_wo_entrp">     -5.64197863 </i>
    <i name="e_0_energy">     -5.64197863 </i>
   </energy>
  </scstep>
  <scstep>
   <time name="dav">    0.10    0.10</time>
   <time name="total">    0.22    0.22</time>
   <energy>
    <i name="e_fr_energy">     -5.64253600 </i>
    <i name="e_wo_entrp">     -5.64253600 </i>
    <i name="e_0_energy">     -5.64253600 </i>
   </energy>
  </scstep>
  <scstep>
   <time name="dav">    0.10    0.11</time>
   <time name="total">    0.22    0.22</time>
   <energy>
    <i name="e_fr_energy">     -5.64282688 </i>
    <i name="e_wo_entrp">     -5.64282688 </i>
    <i name="e_0_energy">     -5.64282688 </i>
   </energy>
  </scstep>
  <scstep>
   <time name="dav">    0.10    0.10</time>
   <time name="total">    0.22    0.22</time>
   <energy>
    <i name="e_fr_energy">     -5.64307237 </i>
    <i name="e_wo_entrp">     -5.64307237 </i>
    <i name="e_0_energy">     -5.64307237 </i>
   </energy>
  </scstep>
  <scstep>
   <time name="dav">    0.10    0.10</time>
   <time name="total">    0.22    0.22</time>
   <energy>
    <i name="e_fr_energy">     -5.64326179 </i>
    <i name="e_wo_entrp">     -5.64326179 </i>
    <i name="e_0_energy">     -5.64326179 </i>
   </energy>
  </scstep>
  <scstep>
   <time name="dav">    0.11    0.11</time>
   <time name="total">    0.22    0.23</time>
   <energy>
    <i name="e_fr_energy">     -5.64338774 </i>
    <i name="e_wo_entrp">     -5.64338774 </i>
    <i name="e_0_energy">     -5.64338774 </i>
   </energy>
  </scstep>
  <scstep>
   <time name="dav">    0.10    0.10</time>
   <time name="total">    0.20    0.20</time>
   <energy>
    <i name="alphaZ">      4.85849764 </i>
    <i name="ewald">   2099.64835896 </i>
    <i name="hartreedc">  -7053.09341195 </i>
    <i name="XCdc">    -57.71852700 </i>
    <i name="pawpsdc">   5450.43357441 </i>
    <i name="pawaedc">  -5228.21336142 </i>
    <i name="eentropy">      0.00000000 </i>
    <i name="bandstr">   -407.55174001 </i>
    <i name="atom">   5185.99315043 </i>
    <i name="e_fr_energy">     -5.64345894 </i>
    <i name="e_wo_entrp">     -5.64345894 </i>
    <i name="e_0_energy">     -5.64345894 </i>
   </energy>
  </scstep>
  <structure>
   <crystal>
    <varray name="basis" >
     <v>      16.35751766       0.00000000       0.00000000 </v>
     <v>       0.00000000      16.35751766       0.00000000 </v>
     <v>       0.00000000       0.00000000      16.35751766 </v>
    </varray>
    <i name="volume">   4376.75456898 </i>
    <varray name="rec_basis" >
     <v>       0.06113397       0.00000000       0.00000000 </v>
     <v>       0.00000000       0.06113397       0.00000000 </v>
     <v>       0.00000000       0.00000000       0.06113397 </v>
    </varray>
   </crystal>
   <varray name="positions" >
    <v>       0.59896161       0.53382370       0.60100998 </v>
    <v>       0.56385742       0.41513319       0.52055528 </v>
    <v>       0.52000475       0.63033280       0.50985857 </v>
    <v>       0.42353449       0.39818382       0.46997804 </v>
    <v>       0.42835740       0.55723515       0.43331005 </v>
   </varray>
  </structure>
  <varray name="forces" >
   <v>       0.96576105       1.26137383       1.58406171 </v>
   <v>       0.55869383      -1.11954988      -0.78129505 </v>
   <v>       2.37358463       2.55609279       1.85801867 </v>
   <v>      -1.41830550      -0.40647869      -0.61201024 </v>
   <v>      -2.47973401      -2.29143805      -2.04877509 </v>
  </varray>
  <varray name="stress" >
   <v>       2.20593577       1.82165628       2.07115587 </v>
   <v>       1.82165628       1.68497691       1.79559880 </v>
   <v>       2.07115587       1.79559881       1.32267630 </v>
  </varray>
  <energy>
   <i name="e_fr_energy">     -5.64345894 </i>
   <i name="e_wo_entrp">     -5.64345894 </i>
   <i name="e_0_energy">      0.00000000 </i>
  </energy>
  <time name="totalsc">    3.10    3.18</time>
 </calculation>
 <calculation>
  <scstep>
   <time name="dav">    0.13    0.13</time>
   <time name="total">    0.24    0.29</time>
   <energy>
    <i name="alphaZ">      4.85849764 </i>
    <i name="ewald">   2051.94510260 </i>
    <i name="hartreedc">  -7005.88702723 </i>
    <i name="XCdc">    -57.85142908 </i>
    <i name="pawpsdc">   5450.43894147 </i>
    <i name="pawaedc">  -5228.21877645 </i>
    <i name="eentropy">      0.00000000 </i>
    <i name="bandstr">   -406.95331722 </i>
    <i name="atom">   5185.99315043 </i>
    <i name="e_fr_energy">     -5.67485783 </i>
    <i name="e_wo_entrp">     -5.67485783 </i>
    <i name="e_0_energy">     -5.67485783 </i>
   </energy>
  </scstep>
  <scstep>
   <time name="dav">    0.14    0.14</time>
   <time name="total">    0.25    0.25</time>
   <energy>
    <i name="e_fr_energy">     -5.68608323 </i>
    <i name="e_wo_entrp">     -5.68608323 </i>
    <i name="e_0_energy">     -5.68608323 </i>
   </energy>
  </scstep>
  <scstep>
   <time name="dav">    0.14    0.14</time>
   <time name="total">    0.25    0.27</time>
   <energy>
    <i name="e_fr_energy">     -5.68596499 </i>
    <i name="e_wo_entrp">     -5.68596499 </i>
    <i name="e_0_energy">     -5.68596499 </i>
   </energy>
  </scstep>
  <scstep>
   <time name="dav">    0.13    0.13</time>
   <time name="total">    0.23    0.24</time>
   <energy>
    <i name="alphaZ">      4.85849764 </i>
    <i name="ewald">   2051.94510260 </i>
    <i name="hartreedc">  -7006.84593471 </i>
    <i name="XCdc">    -57.82459188 </i>
    <i name="pawpsdc">   5432.46960714 </i>
    <i name="pawaedc">  -5209.95899356 </i>
    <i name="eentropy">      0.00000000 </i>
    <i name="bandstr">   -406.32282246 </i>
    <i name="atom">   5185.99315043 </i>
    <i name="e_fr_energy">     -5.68598481 </i>
    <i name="e_wo_entrp">     -5.68598481 </i>
    <i name="e_0_energy">     -5.68598481 </i>
   </energy>
  </scstep>
  <structure>
   <crystal>
    <varray name="basis" >
     <v>      16.35751766       0.00000000       0.00000000 </v>
     <v>       0.00000000      16.35751766       0.00000000 </v>
     <v>       0.00000000       0.00000000      16.35751766 </v>
    </varray>
    <i name="volume">   4376.75456898 </i>
    <varray name="rec_basis" >
     <v>       0.06113397       0.00000000       0.00000000 </v>
     <v>       0.00000000       0.06113397       0.00000000 </v>
     <v>       0.00000000       0.00000000       0.06113397 </v>
    </varray>
   </crystal>
   <varray name="positions" >
    <v>       0.59914078       0.53397905       0.60126610 </v>
    <v>       0.56483306       0.41489342       0.52082990 </v>
    <v>       0.52025955       0.63074577       0.51003634 </v>
    <v>       0.42248256       0.39576844       0.47010163 </v>
    <v>       0.42799971       0.55932199       0.43247795 </v>
   </varray>
  </structure>
  <varray name="forces" >
   <v>       0.92606834       1.26636822       1.55020909 </v>
   <v>       0.22301111      -1.14580475      -0.89944832 </v>
   <v>       2.37115381       2.48598947       1.86990806 </v>
   <v>      -1.04882158      -0.15376040      -0.52902174 </v>
   <v>      -2.47141169      -2.45279254      -1.99164709 </v>
  </varray>
  <varray name="stress" >
   <v>       1.87776202       1.74825897       1.95700533 </v>
   <v>       1.74825896       1.38136935       1.81560803 </v>
   <v>       1.95700533       1.81560803       1.22814133 </v>
  </varray>
  <energy>
   <i name="e_fr_energy">     -5.68598481 </i>
   <i name="e_wo_entrp">     -5.68598481 </i>
   <i name="e_0_energy">      0.00000000 </i>
  </energy>
  <time name="totalsc">    1.30    1.58</time>
 </calculation>
 <calculation>
  <scstep>
   <time name="dav">    0.13    0.13</time>
   <time name="total">    0.24    0.25</time>
   <energy>
    <i name="alphaZ">      4.85849764 </i>
    <i name="ewald">   1999.11905998 </i>
    <i name="hartreedc">  -6954.46922851 </i>
    <i name="XCdc">    -57.96411465 </i>
    <i name="pawpsdc">   5430.73928140 </i>
    <i name="pawaedc">  -5208.19780253 </i>
    <i name="eentropy">      0.00000000 </i>
    <i name="bandstr">   -405.76782061 </i>
    <i name="atom">   5185.99315043 </i>
    <i name="e_fr_energy">     -5.68897685 </i>
    <i name="e_wo_entrp">     -5.68897685 </i>
    <i name="e_0_energy">     -5.68897685 </i>
   </energy>
  </scstep>
  <scstep>
   <time name="dav">    0.13    0.13</time>
   <time name="total">    0.24    0.25</time>
   <energy>
    <i name="e_fr_energy">     -5.70278750 </i>
    <i name="e_wo_entrp">     -5.70278750 </i>
    <i name="e_0_energy">     -5.70278750 </i>
   </energy>
  </scstep>
  <scstep>
   <time name="dav">    0.14    0.14</time>
   <time name="total">    0.25    0.25</time>
   <energy>
    <i name="e_fr_energy">     -5.70290610 </i>
    <i name="e_wo_entrp">     -5.70290610 </i>
    <i name="e_0_energy">     -5.70290610 </i>
   </energy>
  </scstep>
  <scstep>
   <time name="dav">    0.13    0.13</time>
   <time name="total">    0.25    0.26</time>
   <energy>
    <i name="e_fr_energy">     -5.70320940 </i>
    <i name="e_wo_entrp">     -5.70320940 </i>
    <i name="e_0_energy">     -5.70320940 </i>
   </energy>
  </scstep>
  <scstep>
   <time name="dav">    0.11    0.11</time>
   <time name="total">    0.22    0.23</time>
   <energy>
    <i name="e_fr_energy">     -5.70356194 </i>
    <i name="e_wo_entrp">     -5.70356194 </i>
    <i name="e_0_energy">     -5.70356194 </i>
   </energy>
  </scstep>
  <scstep>
   <time name="dav">    0.10    0.10</time>
   <time name="total">    0.22    0.23</time>
   <energy>
    <i name="e_fr_energy">     -5.70379202 </i>
    <i name="e_wo_entrp">     -5.70379202 </i>
    <i name="e_0_energy">     -5.70379202 </i>
   </energy>
  </scstep>
  <scstep>
   <time name="dav">    0.10    0.10</time>
   <time name="total">    0.22    0.22</time>
   <energy>
    <i name="e_fr_energy">     -5.70403732 </i>
    <i name="e_wo_entrp">     -5.70403732 </i>
    <i name="e_0_energy">     -5.70403732 </i>
   </energy>
  </scstep>
  <scstep>
   <time name="dav">    0.10    0.10</time>
   <time name="total">    0.22    0.22</time>
   <energy>
    <i name="e_fr_energy">     -5.70417935 </i>
    <i name="e_wo_entrp">     -5.70417935 </i>
    <i name="e_0_energy">     -5.70417935 </i>
   </energy>
  </scstep>
  <scstep>
   <time name="dav">    0.11    0.11</time>
   <time name="total">    0.22    0.23</time>
   <energy>
    <i name="e_fr_energy">     -5.70430716 </i>
    <i name="e_wo_entrp">     -5.70430716 </i>
    <i name="e_0_energy">     -5.70430716 </i>
   </energy>
  </scstep>
  <scstep>
   <time name="dav">    0.10    0.10</time>
   <time name="total">    0.22    0.68</time>
   <energy>
    <i name="e_fr_energy">     -5.70440730 </i>
    <i name="e_wo_entrp">     -5.70440730 </i>
    <i name="e_0_energy">     -5.70440730 </i>
   </energy>
  </scstep>
  <scstep>
   <time name="dav">    0.11    0.11</time>
   <time name="total">    0.21    0.24</time>
   <energy>
    <i name="alphaZ">      4.85849764 </i>
    <i name="ewald">   1999.11905998 </i>
    <i name="hartreedc">  -6955.56472212 </i>
    <i name="XCdc">    -57.93320650 </i>
    <i name="pawpsdc">   5411.13554795 </i>
    <i name="pawaedc">  -5188.25997572 </i>
    <i name="eentropy">      0.00000000 </i>
    <i name="bandstr">   -405.05280466 </i>
    <i name="atom">   5185.99315043 </i>
    <i name="e_fr_energy">     -5.70445301 </i>
    <i name="e_wo_entrp">     -5.70445301 </i>
    <i name="e_0_energy">     -5.70445301 </i>
   </energy>
  </scstep>
  <structure>
   <crystal>
    <varray name="basis" >
     <v>      16.35751766       0.00000000       0.00000000 </v>
     <v>       0.00000000      16.35751766       0.00000000 </v>
     <v>       0.00000000       0.00000000      16.35751766 </v>
    </varray>
    <i name="volume">   4376.75456898 </i>
    <varray name="rec_basis" >
     <v>       0.06113397       0.00000000       0.00000000 </v>
     <v>       0.00000000       0.06113397       0.00000000 </v>
     <v>       0.00000000       0.00000000       0.06113397 </v>
    </varray>
   </crystal>
   <varray name="positions" >
    <v>       0.59934520       0.53415627       0.60155830 </v>
    <v>       0.56594615       0.41461987       0.52114321 </v>
    <v>       0.52055025       0.63121692       0.51023915 </v>
    <v>       0.42128244       0.39301278       0.47024264 </v>
    <v>       0.42759163       0.56170282       0.43152862 </v>
   </varray>
  </structure>
  <varray name="forces" >
   <v>       0.87808446       1.26216520       1.51275573 </v>
   <v>      -0.10102366      -1.18787897      -1.00844205 </v>
   <v>       2.35384143       2.39384791       1.87401094 </v>
   <v>      -0.68529530       0.07390996      -0.43618903 </v>
   <v>      -2.44560693      -2.54204411      -1.94213559 </v>
  </varray>
  <varray name="stress" >
   <v>       1.57648690       1.65707025       1.82396464 </v>
   <v>       1.65707025       1.16762395       1.81188433 </v>
   <v>       1.82396464       1.81188432       1.18883564 </v>
  </varray>
  <energy>
   <i name="e_fr_energy">     -5.70445301 </i>
   <i name="e_wo_entrp">     -5.70445301 </i>
   <i name="e_0_energy">      0.00000000 </i>
  </energy>
  <time name="totalsc">    2.84    3.41</time>
 </calculation>
 <calculation>
  <scstep>
   <time name="dav">    0.13    0.13</time>
   <time name="total">    0.24    0.25</time>
   <energy>
    <i name="alphaZ">      4.85849764 </i>
    <i name="ewald">   1929.14970868 </i>
    <i name="hartreedc">  -6887.32685595 </i>
    <i name="XCdc">    -58.17228254 </i>
    <i name="pawpsdc">   5411.12242343 </i>
    <i name="pawaedc">  -5188.24670361 </i>
    <i name="eentropy">      0.00000000 </i>
    <i name="bandstr">   -403.45814352 </i>
    <i name="atom">   5185.99315043 </i>
    <i name="e_fr_energy">     -6.08020545 </i>
    <i name="e_wo_entrp">     -6.08020545 </i>
    <i name="e_0_energy">     -6.08020545 </i>
   </energy>
  </scstep>
  <scstep>
   <time name="dav">    0.14    0.14</time>
   <time name="total">    0.25    0.25</time>
   <energy>
    <i name="e_fr_energy">     -6.10090538 </i>
    <i name="e_wo_entrp">     -6.10090538 </i>
    <i name="e_0_energy">     -6.10090538 </i>
   </energy>
  </scstep>
  <scstep>
   <time name="dav">    0.14    0.14</time>
   <time name="total">    0.25    0.25</time>
   <energy>
    <i name="e_fr_energy">     -6.09926340 </i>
    <i name="e_wo_entrp">     -6.09926340 </i>
    <i name="e_0_energy">     -6.09926340 </i>
   </energy>
  </scstep>
  <scstep>
   <time name="dav">    0.13    0.13</time>
   <time name="total">    0.24    0.27</time>
   <energy>
    <i name="e_fr_energy">     -6.10081978 </i>
    <i name="e_wo_entrp">     -6.10081978 </i>
    <i name="e_0_energy">     -6.10081978 </i>
   </energy>
  </scstep>
  <scstep>
   <time name="dav">    0.11    0.11</time>
   <time name="total">    0.22    0.22</time>
   <energy>
    <i name="e_fr_energy">     -6.10152205 </i>
    <i name="e_wo_entrp">     -6.10152205 </i>
    <i name="e_0_energy">     -6.10152205 </i>
   </energy>
  </scstep>
  <scstep>
   <time name="dav">    0.10    0.10</time>
   <time name="total">    0.21    0.22</time>
   <energy>
    <i name="e_fr_energy">     -6.10204485 </i>
    <i name="e_wo_entrp">     -6.10204485 </i>
    <i name="e_0_energy">     -6.10204485 </i>
   </energy>
  </scstep>
  <scstep>
   <time name="dav">    0.10    0.10</time>
   <time name="total">    0.22    0.24</time>
   <energy>
    <i name="e_fr_energy">     -6.10227340 </i>
    <i name="e_wo_entrp">     -6.10227340 </i>
    <i name="e_0_energy">     -6.10227340 </i>
   </energy>
  </scstep>
  <scstep>
   <time name="dav">    0.11    0.11</time>
   <time name="total">    0.22    0.23</time>
   <energy>
    <i name="e_fr_energy">     -6.10241170 </i>
    <i name="e_wo_entrp">     -6.10241170 </i>
    <i name="e_0_energy">     -6.10241170 </i>
   </energy>
  </scstep>
  <scstep>
   <time name="dav">    0.10    0.10</time>
   <time name="total">    0.22    0.22</time>
   <energy>
    <i name="e_fr_energy">     -6.10253192 </i>
    <i name="e_wo_entrp">     -6.10253192 </i>
    <i name="e_0_energy">     -6.10253192 </i>
   </energy>
  </scstep>
  <scstep>
   <time name="dav">    0.11    0.11</time>
   <time name="total">    0.20    0.22</time>
   <energy>
    <i name="alphaZ">      4.85849764 </i>
    <i name="ewald">   1929.14970868 </i>
    <i name="hartreedc">  -6889.12172581 </i>
    <i name="XCdc">    -58.13275761 </i>
    <i name="pawpsdc">   5364.06587458 </i>
    <i name="pawaedc">  -5140.51234110 </i>
    <i name="eentropy">      0.00000000 </i>
    <i name="bandstr">   -402.40301286 </i>
    <i name="atom">   5185.99315043 </i>
    <i name="e_fr_energy">     -6.10260605 </i>
    <i name="e_wo_entrp">     -6.10260605 </i>
    <i name="e_0_energy">     -6.10260605 </i>
   </energy>
  </scstep>
  <structure>
   <crystal>
    <varray name="basis" >
     <v>      16.35751766       0.00000000       0.00000000 </v>
     <v>       0.00000000      16.35751766       0.00000000 </v>
     <v>       0.00000000       0.00000000      16.35751766 </v>
    </varray>
    <i name="volume">   4376.75456898 </i>
    <varray name="rec_basis" >
     <v>       0.06113397       0.00000000       0.00000000 </v>
     <v>       0.00000000       0.06113397       0.00000000 </v>
     <v>       0.00000000       0.00000000       0.06113397 </v>
    </varray>
   </crystal>
   <varray name="positions" >
    <v>       0.60008744       0.53519447       0.60282227 </v>
    <v>       0.56614058       0.41361649       0.52042571 </v>
    <v>       0.52247661       0.63321923       0.51176577 </v>
    <v>       0.42044698       0.39239260       0.46993364 </v>
    <v>       0.42556407       0.56028587       0.42976453 </v>
   </varray>
  </structure>
  <varray name="forces" >
   <v>       0.76835265       0.80997260       1.26681645 </v>
   <v>      -0.04756125      -0.76757493      -0.74152079 </v>
   <v>       1.24894802       1.56261559       0.92754728 </v>
   <v>      -0.61893510       0.12428962      -0.41527687 </v>
   <v>      -1.35080431      -1.72930288      -1.03756607 </v>
  </varray>
  <varray name="stress" >
   <v>       0.92182867       1.12729800       1.26493262 </v>
   <v>       1.12729800       0.48938770       1.24145826 </v>
   <v>       1.26493262       1.24145826       0.65338472 </v>
  </varray>
  <energy>
   <i name="e_fr_energy">     -6.10260605 </i>
   <i name="e_wo_entrp">     -6.10260605 </i>
   <i name="e_0_energy">      0.00000000 </i>
  </energy>
  <time name="totalsc">    2.62    2.84</time>
 </calculation>
 <calculation>
  <scstep>
   <time name="dav">    0.13    0.13</time>
   <time name="total">    0.24    0.25</time>
   <energy>
    <i name="alphaZ">      4.85849764 </i>
    <i name="ewald">   1824.00806546 </i>
    <i name="hartreedc">  -6785.84962354 </i>
    <i name="XCdc">    -58.45764536 </i>
    <i name="pawpsdc">   5364.05173723 </i>
    <i name="pawaedc">  -5140.49803467 </i>
    <i name="eentropy">      0.00000000 </i>
    <i name="bandstr">   -400.47579946 </i>
    <i name="atom">   5185.99315043 </i>
    <i name="e_fr_energy">     -6.36965227 </i>
    <i name="e_wo_entrp">     -6.36965227 </i>
    <i name="e_0_energy">     -6.36965227 </i>
   </energy>
  </scstep>
  <scstep>
   <time name="dav">    0.14    0.14</time>
   <time name="total">    0.25    0.25</time>
   <energy>
    <i name="e_fr_energy">     -6.42843031 </i>
    <i name="e_wo_entrp">     -6.42843031 </i>
    <i name="e_0_energy">     -6.42843031 </i>
   </energy>
  </scstep>
  <scstep>
   <time name="dav">    0.13    0.14</time>
   <time name="total">    0.25    0.25</time>
   <energy>
    <i name="e_fr_energy">     -6.42831168 </i>
    <i name="e_wo_entrp">     -6.42831168 </i>
    <i name="e_0_energy">     -6.42831168 </i>
   </energy>
  </scstep>
  <scstep>
   <time name="dav">    0.14    0.13</time>
   <time name="total">    0.25    0.25</time>
   <energy>
    <i name="e_fr_energy">     -6.42828545 </i>
    <i name="e_wo_entrp">     -6.42828545 </i>
    <i name="e_0_energy">     -6.42828545 </i>
   </energy>
  </scstep>
  <scstep>
   <time name="dav">    0.10    0.11</time>
   <time name="total">    0.22    1.37</time>
   <energy>
    <i name="e_fr_energy">     -6.42878378 </i>
    <i name="e_wo_entrp">     -6.42878378 </i>
    <i name="e_0_energy">     -6.42878378 </i>
   </energy>
  </scstep>
  <scstep>
   <time name="dav">    0.10    0.10</time>
   <time name="total">    0.22    0.22</time>
   <energy>
    <i name="e_fr_energy">     -6.42904079 </i>
    <i name="e_wo_entrp">     -6.42904079 </i>
    <i name="e_0_energy">     -6.42904079 </i>
   </energy>
  </scstep>
  <scstep>
   <time name="dav">    0.10    0.10</time>
   <time name="total">    0.22    2.02</time>
   <energy>
    <i name="e_fr_energy">     -6.42925216 </i>
    <i name="e_wo_entrp">     -6.42925216 </i>
    <i name="e_0_energy">     -6.42925216 </i>
   </energy>
  </scstep>
  <scstep>
   <time name="dav">    0.10    0.11</time>
   <time name="total">    0.22    0.22</time>
   <energy>
    <i name="e_fr_energy">     -6.42940304 </i>
    <i name="e_wo_entrp">     -6.42940304 </i>
    <i name="e_0_energy">     -6.42940304 </i>
   </energy>
  </scstep>
  <scstep>
   <time name="dav">    0.10    0.11</time>
   <time name="total">    0.22    0.23</time>
   <energy>
    <i name="e_fr_energy">     -6.42951873 </i>
    <i name="e_wo_entrp">     -6.42951873 </i>
    <i name="e_0_energy">     -6.42951873 </i>
   </energy>
  </scstep>
  <scstep>
   <time name="dav">    0.11    0.11</time>
   <time name="total">    0.20    0.24</time>
   <energy>
    <i name="alphaZ">      4.85849764 </i>
    <i name="ewald">   1824.00806546 </i>
    <i name="hartreedc">  -6788.45966955 </i>
    <i name="XCdc">    -58.39379137 </i>
    <i name="pawpsdc">   5309.05961230 </i>
    <i name="pawaedc">  -5084.64256892 </i>
    <i name="eentropy">      0.00000000 </i>
    <i name="bandstr">   -398.85289844 </i>
    <i name="atom">   5185.99315043 </i>
    <i name="e_fr_energy">     -6.42960245 </i>
    <i name="e_wo_entrp">     -6.42960245 </i>
    <i name="e_0_energy">     -6.42960245 </i>
   </energy>
  </scstep>
  <structure>
   <crystal>
    <varray name="basis" >
     <v>      16.35751766       0.00000000       0.00000000 </v>
     <v>       0.00000000      16.35751766       0.00000000 </v>
     <v>       0.00000000       0.00000000      16.35751766 </v>
    </varray>
    <i name="volume">   4376.75456898 </i>
    <varray name="rec_basis" >
     <v>       0.06113397       0.00000000       0.00000000 </v>
     <v>       0.00000000       0.06113397       0.00000000 </v>
     <v>       0.00000000       0.00000000       0.06113397 </v>
    </varray>
   </crystal>
   <varray name="positions" >
    <v>       0.60127653       0.53685770       0.60484718 </v>
    <v>       0.56645205       0.41200905       0.51927625 </v>
    <v>       0.52556269       0.63642698       0.51421147 </v>
    <v>       0.41910855       0.39139907       0.46943862 </v>
    <v>       0.42231584       0.55801586       0.42693841 </v>
   </varray>
  </structure>
  <varray name="forces" >
   <v>       0.60939487       0.25960188       0.92527981 </v>
   <v>      -0.02485573      -0.27035379      -0.40323018 </v>
   <v>       0.24909021       0.76157620       0.04027796 </v>
   <v>      -0.50732134       0.18119791      -0.35859381 </v>
   <v>      -0.32630801      -0.93202221      -0.20373379 </v>
  </varray>
  <varray name="stress" >
   <v>       0.20945571       0.54643491       0.66026063 </v>
   <v>       0.54643491      -0.24156654       0.60034002 </v>
   <v>       0.66026063       0.60034002       0.08851004 </v>
  </varray>
  <energy>
   <i name="e_fr_energy">     -6.42960245 </i>
   <i name="e_wo_entrp">     -6.42960245 </i>
   <i name="e_0_energy">      0.00000000 </i>
  </energy>
  <time name="totalsc">    2.63    5.65</time>
 </calculation>
 <calculation>
  <scstep>
   <time name="dav">    0.13    0.13</time>
   <time name="total">    0.24    0.25</time>
   <energy>
    <i name="alphaZ">      4.85849764 </i>
    <i name="ewald">   1635.04894172 </i>
    <i name="hartreedc">  -6601.29907351 </i>
    <i name="XCdc">    -58.87569764 </i>
    <i name="pawpsdc">   5309.04073721 </i>
    <i name="pawaedc">  -5084.62357475 </i>
    <i name="eentropy">      0.00000000 </i>
    <i name="bandstr">   -396.38760022 </i>
    <i name="atom">   5185.99315043 </i>
    <i name="e_fr_energy">     -6.24461912 </i>
    <i name="e_wo_entrp">     -6.24461912 </i>
    <i name="e_0_energy">     -6.24461912 </i>
   </energy>
  </scstep>
  <scstep>
   <time name="dav">    0.14    0.13</time>
   <time name="total">    0.25    0.25</time>
   <energy>
    <i name="e_fr_energy">     -6.50720054 </i>
    <i name="e_wo_entrp">     -6.50720054 </i>
    <i name="e_0_energy">     -6.50720054 </i>
   </energy>
  </scstep>
  <scstep>
   <time name="dav">    0.14    0.14</time>
   <time name="total">    0.25    0.25</time>
   <energy>
    <i name="e_fr_energy">     -6.51080966 </i>
    <i name="e_wo_entrp">     -6.51080966 </i>
    <i name="e_0_energy">     -6.51080966 </i>
   </energy>
  </scstep>
  <scstep>
   <time name="dav">    0.14    0.13</time>
   <time name="total">    0.25    0.25</time>
   <energy>
    <i name="e_fr_energy">     -6.50970631 </i>
    <i name="e_wo_entrp">     -6.50970631 </i>
    <i name="e_0_energy">     -6.50970631 </i>
   </energy>
  </scstep>
  <scstep>
   <time name="dav">    0.13    0.13</time>
   <time name="total">    0.25    0.25</time>
   <energy>
    <i name="e_fr_energy">     -6.51045271 </i>
    <i name="e_wo_entrp">     -6.51045271 </i>
    <i name="e_0_energy">     -6.51045271 </i>
   </energy>
  </scstep>
  <scstep>
   <time name="dav">    0.11    0.11</time>
   <time name="total">    0.23    0.23</time>
   <energy>
    <i name="e_fr_energy">     -6.51064946 </i>
    <i name="e_wo_entrp">     -6.51064946 </i>
    <i name="e_0_energy">     -6.51064946 </i>
   </energy>
  </scstep>
  <scstep>
   <time name="dav">    0.12    0.11</time>
   <time name="total">    0.23    0.25</time>
   <energy>
    <i name="e_fr_energy">     -6.51101069 </i>
    <i name="e_wo_entrp">     -6.51101069 </i>
    <i name="e_0_energy">     -6.51101069 </i>
   </energy>
  </scstep>
  <scstep>
   <time name="dav">    0.10    0.10</time>
   <time name="total">    0.22    0.22</time>
   <energy>
    <i name="e_fr_energy">     -6.51137671 </i>
    <i name="e_wo_entrp">     -6.51137671 </i>
    <i name="e_0_energy">     -6.51137671 </i>
   </energy>
  </scstep>
  <scstep>
   <time name="dav">    0.10    0.10</time>
   <time name="total">    0.22    0.23</time>
   <energy>
    <i name="e_fr_energy">     -6.51160537 </i>
    <i name="e_wo_entrp">     -6.51160537 </i>
    <i name="e_0_energy">     -6.51160537 </i>
   </energy>
  </scstep>
  <scstep>
   <time name="dav">    0.11    0.11</time>
   <time name="total">    0.22    0.23</time>
   <energy>
    <i name="e_fr_energy">     -6.51173454 </i>
    <i name="e_wo_entrp">     -6.51173454 </i>
    <i name="e_0_energy">     -6.51173454 </i>
   </energy>
  </scstep>
  <scstep>
   <time name="dav">    0.10    0.10</time>
   <time name="total">    0.22    0.22</time>
   <energy>
    <i name="e_fr_energy">     -6.51191875 </i>
    <i name="e_wo_entrp">     -6.51191875 </i>
    <i name="e_0_energy">     -6.51191875 </i>
   </energy>
  </scstep>
  <scstep>
   <time name="dav">    0.11    0.11</time>
   <time name="total">    0.20    0.21</time>
   <energy>
    <i name="alphaZ">      4.85849764 </i>
    <i name="ewald">   1635.04894172 </i>
    <i name="hartreedc">  -6605.60717454 </i>
    <i name="XCdc">    -58.76173602 </i>
    <i name="pawpsdc">   5245.18781881 </i>
    <i name="pawaedc">  -5019.58217067 </i>
    <i name="eentropy">      0.00000000 </i>
    <i name="bandstr">   -393.64929633 </i>
    <i name="atom">   5185.99315043 </i>
    <i name="e_fr_energy">     -6.51196896 </i>
    <i name="e_wo_entrp">     -6.51196896 </i>
    <i name="e_0_energy">     -6.51196896 </i>
   </energy>
  </scstep>
  <structure>
   <crystal>
    <varray name="basis" >
     <v>      16.35751766       0.00000000       0.00000000 </v>
     <v>       0.00000000      16.35751766       0.00000000 </v>
     <v>       0.00000000       0.00000000      16.35751766 </v>
    </varray>
    <i name="volume">   4376.75456898 </i>
    <varray name="rec_basis" >
     <v>       0.06113397       0.00000000       0.00000000 </v>
     <v>       0.00000000       0.06113397       0.00000000 </v>
     <v>       0.00000000       0.00000000       0.06113397 </v>
    </varray>
   </crystal>
   <varray name="positions" >
    <v>       0.60365472       0.54018415       0.60889699 </v>
    <v>       0.56707501       0.40879418       0.51697732 </v>
    <v>       0.53173485       0.64284250       0.51910286 </v>
    <v>       0.41643168       0.38941199       0.46844857 </v>
    <v>       0.41581940       0.55347585       0.42128617 </v>
   </varray>
  </structure>
  <varray name="forces" >
   <v>       0.42598176      -0.34424385       0.44117893 </v>
   <v>      -0.04987897       0.30798630      -0.01187652 </v>
   <v>      -0.49396785       0.18149007      -0.57845151 </v>
   <v>      -0.26644718       0.25835894      -0.27100237 </v>
   <v>       0.38431224      -0.40359146       0.42015148 </v>
  </varray>
  <varray name="stress" >
   <v>      -0.49842363      -0.00258316       0.09803253 </v>
   <v>      -0.00258316      -0.98931037      -0.05688843 </v>
   <v>       0.09803253      -0.05688843      -0.46566952 </v>
  </varray>
  <energy>
   <i name="e_fr_energy">     -6.51196896 </i>
   <i name="e_wo_entrp">     -6.51196896 </i>
   <i name="e_0_energy">      0.00000000 </i>
  </energy>
  <time name="totalsc">    3.13    3.69</time>
 </calculation>
 <calculation>
  <scstep>
   <time name="dav">    0.13    0.13</time>
   <time name="total">    0.24    0.26</time>
   <energy>
    <i name="alphaZ">      4.85849764 </i>
    <i name="ewald">   1674.69838282 </i>
    <i name="hartreedc">  -6645.07231984 </i>
    <i name="XCdc">    -58.66918425 </i>
    <i name="pawpsdc">   5245.17497237 </i>
    <i name="pawaedc">  -5019.56975288 </i>
    <i name="eentropy">      0.00000000 </i>
    <i name="bandstr">   -393.93155139 </i>
    <i name="atom">   5185.99315043 </i>
    <i name="e_fr_energy">     -6.51780510 </i>
    <i name="e_wo_entrp">     -6.51780510 </i>
    <i name="e_0_energy">     -6.51780510 </i>
   </energy>
  </scstep>
  <scstep>
   <time name="dav">    0.14    0.14</time>
   <time name="total">    0.26    0.26</time>
   <energy>
    <i name="e_fr_energy">     -6.52959521 </i>
    <i name="e_wo_entrp">     -6.52959521 </i>
    <i name="e_0_energy">     -6.52959521 </i>
   </energy>
  </scstep>
  <scstep>
   <time name="dav">    0.14    0.14</time>
   <time name="total">    0.25    0.25</time>
   <energy>
    <i name="e_fr_energy">     -6.52961722 </i>
    <i name="e_wo_entrp">     -6.52961722 </i>
    <i name="e_0_energy">     -6.52961722 </i>
   </energy>
  </scstep>
  <scstep>
   <time name="dav">    0.12    0.12</time>
   <time name="total">    0.22    0.23</time>
   <energy>
    <i name="alphaZ">      4.85849764 </i>
    <i name="ewald">   1674.69838282 </i>
    <i name="hartreedc">  -6644.24083416 </i>
    <i name="XCdc">    -58.69210500 </i>
    <i name="pawpsdc">   5254.96866904 </i>
    <i name="pawaedc">  -5029.55663558 </i>
    <i name="eentropy">     -0.00000000 </i>
    <i name="bandstr">   -394.55870382 </i>
    <i name="atom">   5185.99315043 </i>
    <i name="e_fr_energy">     -6.52957863 </i>
    <i name="e_wo_entrp">     -6.52957863 </i>
    <i name="e_0_energy">     -6.52957863 </i>
   </energy>
  </scstep>
  <structure>
   <crystal>
    <varray name="basis" >
     <v>      16.35751766       0.00000000       0.00000000 </v>
     <v>       0.00000000      16.35751766       0.00000000 </v>
     <v>       0.00000000       0.00000000      16.35751766 </v>
    </varray>
    <i name="volume">   4376.75456898 </i>
    <varray name="rec_basis" >
     <v>       0.06113397       0.00000000       0.00000000 </v>
     <v>       0.00000000       0.06113397       0.00000000 </v>
     <v>       0.00000000       0.00000000       0.06113397 </v>
    </varray>
   </crystal>
   <varray name="positions" >
    <v>       0.60312857       0.53944820       0.60800101 </v>
    <v>       0.56693718       0.40950544       0.51748594 </v>
    <v>       0.53036932       0.64142312       0.51802068 </v>
    <v>       0.41702391       0.38985161       0.46866761 </v>
    <v>       0.41725668       0.55448029       0.42253667 </v>
   </varray>
  </structure>
  <varray name="forces" >
   <v>       0.46038145      -0.24670190       0.52309482 </v>
   <v>      -0.04012978       0.21915416      -0.07374789 </v>
   <v>      -0.42189326       0.23660977      -0.51724149 </v>
   <v>      -0.31726730       0.24444337      -0.28940873 </v>
   <v>       0.31890889      -0.45350540       0.35730328 </v>
  </varray>
  <varray name="stress" >
   <v>      -0.37790213       0.07239145       0.17240164 </v>
   <v>       0.07239145      -0.87187045       0.03917640 </v>
   <v>       0.17240164       0.03917640      -0.37112870 </v>
  </varray>
  <energy>
   <i name="e_fr_energy">     -6.52957863 </i>
   <i name="e_wo_entrp">     -6.52957863 </i>
   <i name="e_0_energy">     -0.00000000 </i>
  </energy>
  <time name="totalsc">    1.30    1.38</time>
 </calculation>
 <calculation>
  <scstep>
   <time name="dav">    0.13    0.13</time>
   <time name="total">    0.24    0.26</time>
   <energy>
    <i name="alphaZ">      4.85849764 </i>
    <i name="ewald">   1707.49477565 </i>
    <i name="hartreedc">  -6676.78816309 </i>
    <i name="XCdc">    -58.61295494 </i>
    <i name="pawpsdc">   5255.82692078 </i>
    <i name="pawaedc">  -5030.43758115 </i>
    <i name="eentropy">      0.00000000 </i>
    <i name="bandstr">   -394.86021979 </i>
    <i name="atom">   5185.99315043 </i>
    <i name="e_fr_energy">     -6.52557447 </i>
    <i name="e_wo_entrp">     -6.52557447 </i>
    <i name="e_0_energy">     -6.52557447 </i>
   </energy>
  </scstep>
  <scstep>
   <time name="dav">    0.14    0.14</time>
   <time name="total">    0.26    0.29</time>
   <energy>
    <i name="e_fr_energy">     -6.53306935 </i>
    <i name="e_wo_entrp">     -6.53306935 </i>
    <i name="e_0_energy">     -6.53306935 </i>
   </energy>
  </scstep>
  <scstep>
   <time name="dav">    0.14    0.14</time>
   <time name="total">    0.25    0.25</time>
   <energy>
    <i name="e_fr_energy">     -6.53311227 </i>
    <i name="e_wo_entrp">     -6.53311227 </i>
    <i name="e_0_energy">     -6.53311227 </i>
   </energy>
  </scstep>
  <scstep>
   <time name="dav">    0.10    0.11</time>
   <time name="total">    0.20    0.21</time>
   <energy>
    <i name="alphaZ">      4.85849764 </i>
    <i name="ewald">   1707.49477565 </i>
    <i name="hartreedc">  -6676.09501034 </i>
    <i name="XCdc">    -58.63230300 </i>
    <i name="pawpsdc">   5264.78653787 </i>
    <i name="pawaedc">  -5039.56962020 </i>
    <i name="eentropy">      0.00000000 </i>
    <i name="bandstr">   -395.36916702 </i>
    <i name="atom">   5185.99315043 </i>
    <i name="e_fr_energy">     -6.53313897 </i>
    <i name="e_wo_entrp">     -6.53313897 </i>
    <i name="e_0_energy">     -6.53313897 </i>
   </energy>
  </scstep>
  <structure>
   <crystal>
    <varray name="basis" >
     <v>      16.35751766       0.00000000       0.00000000 </v>
     <v>       0.00000000      16.35751766       0.00000000 </v>
     <v>       0.00000000       0.00000000      16.35751766 </v>
    </varray>
    <i name="volume">   4376.75456898 </i>
    <varray name="rec_basis" >
     <v>       0.06113397       0.00000000       0.00000000 </v>
     <v>       0.00000000       0.06113397       0.00000000 </v>
     <v>       0.00000000       0.00000000       0.06113397 </v>
    </varray>
   </crystal>
   <varray name="positions" >
    <v>       0.60270452       0.53885507       0.60727890 </v>
    <v>       0.56682611       0.41007867       0.51789585 </v>
    <v>       0.52926878       0.64027919       0.51714851 </v>
    <v>       0.41750122       0.39020592       0.46884414 </v>
    <v>       0.41841504       0.55528980       0.42354451 </v>
   </varray>
  </structure>
  <varray name="forces" >
   <v>       0.49367536      -0.16356727       0.60111501 </v>
   <v>      -0.03331510       0.13112377      -0.13530097 </v>
   <v>      -0.32977731       0.30600117      -0.44045045 </v>
   <v>      -0.36115135       0.23182884      -0.30643025 </v>
   <v>       0.23056840      -0.50538651       0.28106667 </v>
  </varray>
  <varray name="stress" >
   <v>      -0.27462900       0.14906020       0.25088315 </v>
   <v>       0.14906020      -0.76526212       0.13427958 </v>
   <v>       0.25088315       0.13427959      -0.29041562 </v>
  </varray>
  <energy>
   <i name="e_fr_energy">     -6.53313897 </i>
   <i name="e_wo_entrp">     -6.53313897 </i>
   <i name="e_0_energy">      0.00000000 </i>
  </energy>
  <time name="totalsc">    1.29    1.43</time>
 </calculation>
 <calculation>
  <scstep>
   <time name="dav">    0.13    0.13</time>
   <time name="total">    0.25    0.26</time>
   <energy>
    <i name="alphaZ">      4.85849764 </i>
    <i name="ewald">   1699.01391174 </i>
    <i name="hartreedc">  -6667.74543905 </i>
    <i name="XCdc">    -58.66629247 </i>
    <i name="pawpsdc">   5265.54934907 </i>
    <i name="pawaedc">  -5040.35182955 </i>
    <i name="eentropy">      0.00000000 </i>
    <i name="bandstr">   -395.21627279 </i>
    <i name="atom">   5185.99315043 </i>
    <i name="e_fr_energy">     -6.56492498 </i>
    <i name="e_wo_entrp">     -6.56492498 </i>
    <i name="e_0_energy">     -6.56492498 </i>
   </energy>
  </scstep>
  <scstep>
   <time name="dav">    0.14    0.14</time>
   <time name="total">    0.25    0.25</time>
   <energy>
    <i name="e_fr_energy">     -6.56780075 </i>
    <i name="e_wo_entrp">     -6.56780075 </i>
    <i name="e_0_energy">     -6.56780075 </i>
   </energy>
  </scstep>
  <scstep>
   <time name="dav">    0.14    0.14</time>
   <time name="total">    0.24    0.26</time>
   <energy>
    <i name="alphaZ">      4.85849764 </i>
    <i name="ewald">   1699.01391174 </i>
    <i name="hartreedc">  -6667.90412135 </i>
    <i name="XCdc">    -58.66196972 </i>
    <i name="pawpsdc">   5261.77478707 </i>
    <i name="pawaedc">  -5036.52120198 </i>
    <i name="eentropy">      0.00000000 </i>
    <i name="bandstr">   -395.12088499 </i>
    <i name="atom">   5185.99315043 </i>
    <i name="e_fr_energy">     -6.56783116 </i>
    <i name="e_wo_entrp">     -6.56783116 </i>
    <i name="e_0_energy">     -6.56783116 </i>
   </energy>
  </scstep>
  <structure>
   <crystal>
    <varray name="basis" >
     <v>      16.35751766       0.00000000       0.00000000 </v>
     <v>       0.00000000      16.35751766       0.00000000 </v>
     <v>       0.00000000       0.00000000      16.35751766 </v>
    </varray>
    <i name="volume">   4376.75456898 </i>
    <varray name="rec_basis" >
     <v>       0.06113397       0.00000000       0.00000000 </v>
     <v>       0.00000000       0.06113397       0.00000000 </v>
     <v>       0.00000000       0.00000000       0.06113397 </v>
    </varray>
   </crystal>
   <varray name="positions" >
    <v>       0.60339744       0.53867668       0.60813697 </v>
    <v>       0.56678909       0.41021487       0.51768546 </v>
    <v>       0.52890245       0.64077016       0.51661755 </v>
    <v>       0.41698265       0.39049270       0.46842009 </v>
    <v>       0.41864403       0.55455426       0.42385185 </v>
   </varray>
  </structure>
  <varray name="forces" >
   <v>       0.39198772      -0.06918058       0.45121040 </v>
   <v>      -0.06565171       0.17149500      -0.11930578 </v>
   <v>      -0.22334706       0.17697273      -0.31134729 </v>
   <v>      -0.32421508       0.20517183      -0.28375720 </v>
   <v>       0.22122612      -0.48445898       0.26319987 </v>
  </varray>
  <varray name="stress" >
   <v>      -0.36284639       0.20671813       0.18707770 </v>
   <v>       0.20671814      -0.85556458       0.18147854 </v>
   <v>       0.18707769       0.18147854      -0.37394297 </v>
  </varray>
  <energy>
   <i name="e_fr_energy">     -6.56783116 </i>
   <i name="e_wo_entrp">     -6.56783116 </i>
   <i name="e_0_energy">      0.00000000 </i>
  </energy>
  <time name="totalsc">    1.07    1.23</time>
 </calculation>
 <calculation>
  <scstep>
   <time name="dav">    0.13    0.13</time>
   <time name="total">    0.24    0.25</time>
   <energy>
    <i name="alphaZ">      4.85849764 </i>
    <i name="ewald">   1674.57190433 </i>
    <i name="hartreedc">  -6643.91324697 </i>
    <i name="XCdc">    -58.74779596 </i>
    <i name="pawpsdc">   5259.71224289 </i>
    <i name="pawaedc">  -5034.42691126 </i>
    <i name="eentropy">     -0.00000000 </i>
    <i name="bandstr">   -394.65495077 </i>
    <i name="atom">   5185.99315043 </i>
    <i name="e_fr_energy">     -6.60710967 </i>
    <i name="e_wo_entrp">     -6.60710967 </i>
    <i name="e_0_energy">     -6.60710967 </i>
   </energy>
  </scstep>
  <scstep>
   <time name="dav">    0.14    0.14</time>
   <time name="total">    0.25    0.27</time>
   <energy>
    <i name="e_fr_energy">     -6.63247947 </i>
    <i name="e_wo_entrp">     -6.63247947 </i>
    <i name="e_0_energy">     -6.63247947 </i>
   </energy>
  </scstep>
  <scstep>
   <time name="dav">    0.14    0.14</time>
   <time name="total">    0.25    0.28</time>
   <energy>
    <i name="e_fr_energy">     -6.63271269 </i>
    <i name="e_wo_entrp">     -6.63271269 </i>
    <i name="e_0_energy">     -6.63271269 </i>
   </energy>
  </scstep>
  <scstep>
   <time name="dav">    0.14    0.14</time>
   <time name="total">    0.25    0.25</time>
   <energy>
    <i name="e_fr_energy">     -6.63278294 </i>
    <i name="e_wo_entrp">     -6.63278294 </i>
    <i name="e_0_energy">     -6.63278294 </i>
   </energy>
  </scstep>
  <scstep>
   <time name="dav">    0.11    0.11</time>
   <time name="total">    0.22    0.25</time>
   <energy>
    <i name="e_fr_energy">     -6.63298123 </i>
    <i name="e_wo_entrp">     -6.63298123 </i>
    <i name="e_0_energy">     -6.63298123 </i>
   </energy>
  </scstep>
  <scstep>
   <time name="dav">    0.10    0.10</time>
   <time name="total">    0.22    0.24</time>
   <energy>
    <i name="e_fr_energy">     -6.63310909 </i>
    <i name="e_wo_entrp">     -6.63310909 </i>
    <i name="e_0_energy">     -6.63310909 </i>
   </energy>
  </scstep>
  <scstep>
   <time name="dav">    0.10    0.10</time>
   <time name="total">    0.22    0.22</time>
   <energy>
    <i name="e_fr_energy">     -6.63327873 </i>
    <i name="e_wo_entrp">     -6.63327873 </i>
    <i name="e_0_energy">     -6.63327873 </i>
   </energy>
  </scstep>
  <scstep>
   <time name="dav">    0.11    0.11</time>
   <time name="total">    0.22    0.24</time>
   <energy>
    <i name="e_fr_energy">     -6.63339549 </i>
    <i name="e_wo_entrp">     -6.63339549 </i>
    <i name="e_0_energy">     -6.63339549 </i>
   </energy>
  </scstep>
  <scstep>
   <time name="dav">    0.10    0.10</time>
   <time name="total">    0.20    0.20</time>
   <energy>
    <i name="alphaZ">      4.85849764 </i>
    <i name="ewald">   1674.57190433 </i>
    <i name="hartreedc">  -6644.57630181 </i>
    <i name="XCdc">    -58.72904071 </i>
    <i name="pawpsdc">   5244.63218199 </i>
    <i name="pawaedc">  -5019.09859159 </i>
    <i name="eentropy">      0.00000000 </i>
    <i name="bandstr">   -394.28528325 </i>
    <i name="atom">   5185.99315043 </i>
    <i name="e_fr_energy">     -6.63348296 </i>
    <i name="e_wo_entrp">     -6.63348296 </i>
    <i name="e_0_energy">     -6.63348296 </i>
   </energy>
  </scstep>
  <structure>
   <crystal>
    <varray name="basis" >
     <v>      16.35751766       0.00000000       0.00000000 </v>
     <v>       0.00000000      16.35751766       0.00000000 </v>
     <v>       0.00000000       0.00000000      16.35751766 </v>
    </varray>
    <i name="volume">   4376.75456898 </i>
[...]
       <r>    -2.1301     0.0000    30.0000 </r>
       <r>    -2.0972     0.0000    30.0000 </r>
       <r>    -2.0643     0.0000    30.0000 </r>
       <r>    -2.0313     0.0000    30.0000 </r>
       <r>    -1.9984     0.0000    30.0000 </r>
       <r>    -1.9655     0.0000    30.0000 </r>
       <r>    -1.9326     0.0000    30.0000 </r>
       <r>    -1.8996     0.0000    30.0000 </r>
       <r>    -1.8667     0.0000    30.0000 </r>
       <r>    -1.8338     0.0000    30.0000 </r>
       <r>    -1.8008     0.0000    30.0000 </r>
       <r>    -1.7679     0.0000    31.0000 </r>
       <r>    -1.7350     0.0000    31.0000 </r>
       <r>    -1.7020     0.0000    31.0000 </r>
       <r>    -1.6691     0.0000    31.0000 </r>
       <r>    -1.6362     0.0000    31.0000 </r>
       <r>    -1.6033     0.0000    31.0000 </r>
       <r>    -1.5703     0.0000    31.0000 </r>
       <r>    -1.5374     0.0000    31.0000 </r>
       <r>    -1.5045     0.0000    31.0000 </r>
       <r>    -1.4715     0.0000    31.0000 </r>
       <r>    -1.4386     0.0000    31.0000 </r>
       <r>    -1.4057     0.0000    31.0000 </r>
       <r>    -1.3728     0.0000    31.0000 </r>
       <r>    -1.3398     0.0000    31.0000 </r>
       <r>    -1.3069     0.0000    31.0000 </r>
       <r>    -1.2740     0.0000    31.0000 </r>
       <r>    -1.2410     0.0000    32.0000 </r>
       <r>    -1.2081     0.0000    32.0000 </r>
       <r>    -1.1752     0.0000    32.0000 </r>
       <r>    -1.1422     0.0000    32.0000 </r>
       <r>    -1.1093     0.0000    32.0000 </r>
       <r>    -1.0764     0.0000    32.0000 </r>
       <r>    -1.0435     0.0000    32.0000 </r>
       <r>    -1.0105     0.0000    32.0000 </r>
       <r>    -0.9776     0.0000    32.0000 </r>
       <r>    -0.9447     0.0000    32.0000 </r>
       <r>    -0.9117     0.0000    32.0000 </r>
       <r>    -0.8788     0.0000    32.0000 </r>
       <r>    -0.8459     0.0000    32.0000 </r>
       <r>    -0.8129     0.0000    32.0000 </r>
       <r>    -0.7800     0.0000    33.0000 </r>
       <r>    -0.7471     0.0000    33.0000 </r>
       <r>    -0.7142     0.0000    33.0000 </r>
       <r>    -0.6812     0.0000    33.0000 </r>
       <r>    -0.6483     0.0000    33.0000 </r>
       <r>    -0.6154     0.0000    33.0000 </r>
       <r>    -0.5824     0.0000    33.0000 </r>
       <r>    -0.5495     0.0000    33.0000 </r>
       <r>    -0.5166     0.0000    34.0000 </r>
       <r>    -0.4836     0.0000    34.0000 </r>
       <r>    -0.4507     0.0000    34.0000 </r>
       <r>    -0.4178     0.0000    34.0000 </r>
       <r>    -0.3849     0.0000    34.0000 </r>
       <r>    -0.3519     0.0000    35.0000 </r>
       <r>    -0.3190     0.0000    35.0000 </r>
       <r>    -0.2861     0.0000    35.0000 </r>
       <r>    -0.2531     0.0000    35.0000 </r>
       <r>    -0.2202     0.0000    35.0000 </r>
       <r>    -0.1873     0.0000    35.0000 </r>
       <r>    -0.1543     0.0000    35.0000 </r>
       <r>    -0.1214     0.0000    35.0000 </r>
       <r>    -0.0885     0.0000    35.0000 </r>
       <r>    -0.0556     0.0000    35.0000 </r>
       <r>    -0.0226     0.0000    35.0000 </r>
       <r>     0.0103     0.0000    35.0000 </r>
       <r>     0.0432     0.0000    36.0000 </r>
       <r>     0.0762     0.0000    36.0000 </r>
       <r>     0.1091     0.0000    36.0000 </r>
       <r>     0.1420     0.0000    36.0000 </r>
       <r>     0.1750     0.0000    36.0000 </r>
       <r>     0.2079     0.0000    36.0000 </r>
       <r>     0.2408     0.0000    36.0000 </r>
       <r>     0.2737     0.0000    36.0000 </r>
       <r>     0.3067     0.0000    36.0000 </r>
       <r>     0.3396     0.0000    36.0000 </r>
       <r>     0.3725     0.0000    36.0000 </r>
       <r>     0.4055     0.0000    36.0000 </r>
       <r>     0.4384     0.0000    36.0000 </r>
       <r>     0.4713     0.0000    36.0000 </r>
       <r>     0.5043     0.0000    36.0000 </r>
       <r>     0.5372     0.0000    36.0000 </r>
       <r>     0.5701     0.0000    36.0000 </r>
       <r>     0.6030     0.0000    36.0000 </r>
       <r>     0.6360     0.0000    36.0000 </r>
      </set>
      <set comment="spin 2">
       <r>    -9.2430     0.0000     0.0000 </r>
       <r>    -9.2101     0.0000     0.0000 </r>
       <r>    -9.1771     0.0000     0.0000 </r>
       <r>    -9.1442     0.0000     0.0000 </r>
       <r>    -9.1113     0.0000     0.0000 </r>
       <r>    -9.0784     0.0000     0.0000 </r>
       <r>    -9.0454     0.0000     0.0000 </r>
       <r>    -9.0125     0.0000     0.0000 </r>
       <r>    -8.9796     0.0000     0.0000 </r>
       <r>    -8.9466     0.0000     0.0000 </r>
       <r>    -8.9137     0.0000     0.0000 </r>
       <r>    -8.8808     0.0000     0.0000 </r>
       <r>    -8.8478     0.0000     0.0000 </r>
       <r>    -8.8149     0.0000     0.0000 </r>
       <r>    -8.7820     0.0000     0.0000 </r>
       <r>    -8.7491     0.0000     1.0000 </r>
       <r>    -8.7161     0.0000     1.0000 </r>
       <r>    -8.6832     0.0000     1.0000 </r>
       <r>    -8.6503     0.0000     1.0000 </r>
       <r>    -8.6173     0.0000     1.0000 </r>
       <r>    -8.5844     0.0000     1.0000 </r>
       <r>    -8.5515     0.0000     2.0000 </r>
       <r>    -8.5185     0.0000     2.0000 </r>
       <r>    -8.4856     0.0000     2.0000 </r>
       <r>    -8.4527     0.0000     3.0000 </r>
       <r>    -8.4198     0.0000     3.0000 </r>
       <r>    -8.3868     0.0000     3.0000 </r>
       <r>    -8.3539     0.0000     3.0000 </r>
       <r>    -8.3210     0.0000     3.0000 </r>
       <r>    -8.2880     0.0000     3.0000 </r>
       <r>    -8.2551     0.0000     3.0000 </r>
       <r>    -8.2222     0.0000     3.0000 </r>
       <r>    -8.1892     0.0000     4.0000 </r>
       <r>    -8.1563     0.0000     4.0000 </r>
       <r>    -8.1234     0.0000     4.0000 </r>
       <r>    -8.0905     0.0000     4.0000 </r>
       <r>    -8.0575     0.0000     4.0000 </r>
       <r>    -8.0246     0.0000     5.0000 </r>
       <r>    -7.9917     0.0000     5.0000 </r>
       <r>    -7.9587     0.0000     5.0000 </r>
       <r>    -7.9258     0.0000     6.0000 </r>
       <r>    -7.8929     0.0000     7.0000 </r>
       <r>    -7.8599     0.0000     7.0000 </r>
       <r>    -7.8270     0.0000     8.0000 </r>
       <r>    -7.7941     0.0000     8.0000 </r>
       <r>    -7.7612     0.0000     8.0000 </r>
       <r>    -7.7282     0.0000     9.0000 </r>
       <r>    -7.6953     0.0000     9.0000 </r>
       <r>    -7.6624     0.0000     9.0000 </r>
       <r>    -7.6294     0.0000     9.0000 </r>
       <r>    -7.5965     0.0000     9.0000 </r>
       <r>    -7.5636     0.0000     9.0000 </r>
       <r>    -7.5306     0.0000     9.0000 </r>
       <r>    -7.4977     0.0000     9.0000 </r>
       <r>    -7.4648     0.0000     9.0000 </r>
       <r>    -7.4319     0.0000    10.0000 </r>
       <r>    -7.3989     0.0000    10.0000 </r>
       <r>    -7.3660     0.0000    11.0000 </r>
       <r>    -7.3331     0.0000    11.0000 </r>
       <r>    -7.3001     0.0000    11.0000 </r>
       <r>    -7.2672     0.0000    12.0000 </r>
       <r>    -7.2343     0.0000    13.0000 </r>
       <r>    -7.2013     0.0000    13.0000 </r>
       <r>    -7.1684     0.0000    13.0000 </r>
       <r>    -7.1355     0.0000    14.0000 </r>
       <r>    -7.1026     0.0000    14.0000 </r>
       <r>    -7.0696     0.0000    14.0000 </r>
       <r>    -7.0367     0.0000    15.0000 </r>
       <r>    -7.0038     0.0000    16.0000 </r>
       <r>    -6.9708     0.0000    16.0000 </r>
       <r>    -6.9379     0.0000    17.0000 </r>
       <r>    -6.9050     0.0000    17.0000 </r>
       <r>    -6.8720     0.0000    19.0000 </r>
       <r>    -6.8391     0.0000    20.0000 </r>
       <r>    -6.8062     0.0000    20.0000 </r>
       <r>    -6.7733     0.0000    21.0000 </r>
       <r>    -6.7403     0.0000    22.0000 </r>
       <r>    -6.7074     0.0000    22.0000 </r>
       <r>    -6.6745     0.0000    22.0000 </r>
       <r>    -6.6415     0.0000    23.0000 </r>
       <r>    -6.6086     0.0000    23.0000 </r>
       <r>    -6.5757     0.0000    23.0000 </r>
       <r>    -6.5428     0.0000    23.0000 </r>
       <r>    -6.5098     0.0000    23.0000 </r>
       <r>    -6.4769     0.0000    24.0000 </r>
       <r>    -6.4440     0.0000    25.0000 </r>
       <r>    -6.4110     0.0000    25.0000 </r>
       <r>    -6.3781     0.0000    25.0000 </r>
       <r>    -6.3452     0.0000    25.0000 </r>
       <r>    -6.3122     0.0000    25.0000 </r>
       <r>    -6.2793     0.0000    25.0000 </r>
       <r>    -6.2464     0.0000    26.0000 </r>
       <r>    -6.2135     0.0000    26.0000 </r>
       <r>    -6.1805     0.0000    26.0000 </r>
       <r>    -6.1476     0.0000    26.0000 </r>
       <r>    -6.1147     0.0000    26.0000 </r>
       <r>    -6.0817     0.0000    26.0000 </r>
       <r>    -6.0488     0.0000    26.0000 </r>
       <r>    -6.0159     0.0000    26.0000 </r>
       <r>    -5.9829     0.0000    26.0000 </r>
       <r>    -5.9500     0.0000    26.0000 </r>
       <r>    -5.9171     0.0000    26.0000 </r>
       <r>    -5.8842     0.0000    26.0000 </r>
       <r>    -5.8512     0.0000    26.0000 </r>
       <r>    -5.8183     0.0000    26.0000 </r>
       <r>    -5.7854     0.0000    26.0000 </r>
       <r>    -5.7524     0.0000    26.0000 </r>
       <r>    -5.7195     0.0000    26.0000 </r>
       <r>    -5.6866     0.0000    26.0000 </r>
       <r>    -5.6536     0.0000    26.0000 </r>
       <r>    -5.6207     0.0000    26.0000 </r>
       <r>    -5.5878     0.0000    26.0000 </r>
       <r>    -5.5549     0.0000    26.0000 </r>
       <r>    -5.5219     0.0000    26.0000 </r>
       <r>    -5.4890     0.0000    26.0000 </r>
       <r>    -5.4561     0.0000    26.0000 </r>
       <r>    -5.4231     0.0000    26.0000 </r>
       <r>    -5.3902     0.0000    26.0000 </r>
       <r>    -5.3573     0.0000    26.0000 </r>
       <r>    -5.3243     0.0000    26.0000 </r>
       <r>    -5.2914     0.0000    26.0000 </r>
       <r>    -5.2585     0.0000    26.0000 </r>
       <r>    -5.2256     0.0000    26.0000 </r>
       <r>    -5.1926     0.0000    26.0000 </r>
       <r>    -5.1597     0.0000    26.0000 </r>
       <r>    -5.1268     0.0000    26.0000 </r>
       <r>    -5.0938     0.0000    26.0000 </r>
       <r>    -5.0609     0.0000    26.0000 </r>
       <r>    -5.0280     0.0000    26.0000 </r>
       <r>    -4.9950     0.0000    26.0000 </r>
       <r>    -4.9621     0.0000    26.0000 </r>
       <r>    -4.9292     0.0000    26.0000 </r>
       <r>    -4.8963     0.0000    26.0000 </r>
       <r>    -4.8633     0.0000    27.0000 </r>
       <r>    -4.8304     0.0000    27.0000 </r>
       <r>    -4.7975     0.0000    27.0000 </r>
       <r>    -4.7645     0.0000    27.0000 </r>
       <r>    -4.7316     0.0000    27.0000 </r>
       <r>    -4.6987     0.0000    27.0000 </r>
       <r>    -4.6657     0.0000    27.0000 </r>
       <r>    -4.6328     0.0000    27.0000 </r>
       <r>    -4.5999     0.0000    27.0000 </r>
       <r>    -4.5670     0.0000    27.0000 </r>
       <r>    -4.5340     0.0000    27.0000 </r>
       <r>    -4.5011     0.0000    27.0000 </r>
       <r>    -4.4682     0.0000    27.0000 </r>
       <r>    -4.4352     0.0000    27.0000 </r>
       <r>    -4.4023     0.0000    27.0000 </r>
       <r>    -4.3694     0.0000    27.0000 </r>
       <r>    -4.3364     0.0000    27.0000 </r>
       <r>    -4.3035     0.0000    27.0000 </r>
       <r>    -4.2706     0.0000    27.0000 </r>
       <r>    -4.2377     0.0000    27.0000 </r>
       <r>    -4.2047     0.0000    27.0000 </r>
       <r>    -4.1718     0.0000    27.0000 </r>
       <r>    -4.1389     0.0000    27.0000 </r>
       <r>    -4.1059     0.0000    27.0000 </r>
       <r>    -4.0730     0.0000    27.0000 </r>
       <r>    -4.0401     0.0000    27.0000 </r>
       <r>    -4.0071     0.0000    27.0000 </r>
       <r>    -3.9742     0.0000    27.0000 </r>
       <r>    -3.9413     0.0000    27.0000 </r>
       <r>    -3.9084     0.0000    27.0000 </r>
       <r>    -3.8754     0.0000    27.0000 </r>
       <r>    -3.8425     0.0000    27.0000 </r>
       <r>    -3.8096     0.0000    27.0000 </r>
       <r>    -3.7766     0.0000    27.0000 </r>
       <r>    -3.7437     0.0000    27.0000 </r>
       <r>    -3.7108     0.0000    27.0000 </r>
       <r>    -3.6778     0.0000    27.0000 </r>
       <r>    -3.6449     0.0000    28.0000 </r>
       <r>    -3.6120     0.0000    28.0000 </r>
       <r>    -3.5791     0.0000    28.0000 </r>
       <r>    -3.5461     0.0000    28.0000 </r>
       <r>    -3.5132     0.0000    28.0000 </r>
       <r>    -3.4803     0.0000    28.0000 </r>
       <r>    -3.4473     0.0000    28.0000 </r>
       <r>    -3.4144     0.0000    28.0000 </r>
       <r>    -3.3815     0.0000    28.0000 </r>
       <r>    -3.3485     0.0000    28.0000 </r>
       <r>    -3.3156     0.0000    28.0000 </r>
       <r>    -3.2827     0.0000    28.0000 </r>
       <r>    -3.2498     0.0000    28.0000 </r>
       <r>    -3.2168     0.0000    28.0000 </r>
       <r>    -3.1839     0.0000    28.0000 </r>
       <r>    -3.1510     0.0000    28.0000 </r>
       <r>    -3.1180     0.0000    28.0000 </r>
       <r>    -3.0851     0.0000    28.0000 </r>
       <r>    -3.0522     0.0000    28.0000 </r>
       <r>    -3.0192     0.0000    28.0000 </r>
       <r>    -2.9863     0.0000    28.0000 </r>
       <r>    -2.9534     0.0000    28.0000 </r>
       <r>    -2.9205     0.0000    28.0000 </r>
       <r>    -2.8875     0.0000    28.0000 </r>
       <r>    -2.8546     0.0000    28.0000 </r>
       <r>    -2.8217     0.0000    28.0000 </r>
       <r>    -2.7887     0.0000    28.0000 </r>
       <r>    -2.7558     0.0000    28.0000 </r>
       <r>    -2.7229     0.0000    28.0000 </r>
       <r>    -2.6899     0.0000    28.0000 </r>
       <r>    -2.6570     0.0000    28.0000 </r>
       <r>    -2.6241     0.0000    28.0000 </r>
       <r>    -2.5912     0.0000    28.0000 </r>
       <r>    -2.5582     0.0000    28.0000 </r>
       <r>    -2.5253     0.0000    29.0000 </r>
       <r>    -2.4924     0.0000    29.0000 </r>
       <r>    -2.4594     0.0000    29.0000 </r>
       <r>    -2.4265     0.0000    29.0000 </r>
       <r>    -2.3936     0.0000    29.0000 </r>
       <r>    -2.3606     0.0000    29.0000 </r>
       <r>    -2.3277     0.0000    29.0000 </r>
       <r>    -2.2948     0.0000    29.0000 </r>
       <r>    -2.2619     0.0000    29.0000 </r>
       <r>    -2.2289     0.0000    29.0000 </r>
       <r>    -2.1960     0.0000    29.0000 </r>
       <r>    -2.1631     0.0000    29.0000 </r>
       <r>    -2.1301     0.0000    30.0000 </r>
       <r>    -2.0972     0.0000    30.0000 </r>
       <r>    -2.0643     0.0000    30.0000 </r>
       <r>    -2.0313     0.0000    30.0000 </r>
       <r>    -1.9984     0.0000    30.0000 </r>
       <r>    -1.9655     0.0000    30.0000 </r>
       <r>    -1.9326     0.0000    30.0000 </r>
       <r>    -1.8996     0.0000    30.0000 </r>
       <r>    -1.8667     0.0000    30.0000 </r>
       <r>    -1.8338     0.0000    30.0000 </r>
       <r>    -1.8008     0.0000    30.0000 </r>
       <r>    -1.7679     0.0000    30.0000 </r>
       <r>    -1.7350     0.0000    30.0000 </r>
       <r>    -1.7020     0.0000    30.0000 </r>
       <r>    -1.6691     0.0000    30.0000 </r>
       <r>    -1.6362     0.0000    31.0000 </r>
       <r>    -1.6033     0.0000    31.0000 </r>
       <r>    -1.5703     0.0000    31.0000 </r>
       <r>    -1.5374     0.0000    31.0000 </r>
       <r>    -1.5045     0.0000    31.0000 </r>
       <r>    -1.4715     0.0000    31.0000 </r>
       <r>    -1.4386     0.0000    31.0000 </r>
       <r>    -1.4057     0.0000    31.0000 </r>
       <r>    -1.3728     0.0000    31.0000 </r>
       <r>    -1.3398     0.0000    31.0000 </r>
       <r>    -1.3069     0.0000    31.0000 </r>
       <r>    -1.2740     0.0000    31.0000 </r>
       <r>    -1.2410     0.0000    31.0000 </r>
       <r>    -1.2081     0.0000    31.0000 </r>
       <r>    -1.1752     0.0000    31.0000 </r>
       <r>    -1.1422     0.0000    31.0000 </r>
       <r>    -1.1093     0.0000    31.0000 </r>
       <r>    -1.0764     0.0000    31.0000 </r>
       <r>    -1.0435     0.0000    31.0000 </r>
       <r>    -1.0105     0.0000    31.0000 </r>
       <r>    -0.9776     0.0000    31.0000 </r>
       <r>    -0.9447     0.0000    31.0000 </r>
       <r>    -0.9117     0.0000    32.0000 </r>
       <r>    -0.8788     0.0000    32.0000 </r>
       <r>    -0.8459     0.0000    32.0000 </r>
       <r>    -0.8129     0.0000    32.0000 </r>
       <r>    -0.7800     0.0000    32.0000 </r>
       <r>    -0.7471     0.0000    32.0000 </r>
       <r>    -0.7142     0.0000    32.0000 </r>
       <r>    -0.6812     0.0000    32.0000 </r>
       <r>    -0.6483     0.0000    33.0000 </r>
       <r>    -0.6154     0.0000    33.0000 </r>
       <r>    -0.5824     0.0000    33.0000 </r>
       <r>    -0.5495     0.0000    33.0000 </r>
       <r>    -0.5166     0.0000    33.0000 </r>
       <r>    -0.4836     0.0000    33.0000 </r>
       <r>    -0.4507     0.0000    33.0000 </r>
       <r>    -0.4178     0.0000    34.0000 </r>
       <r>    -0.3849     0.0000    34.0000 </r>
       <r>    -0.3519     0.0000    34.0000 </r>
       <r>    -0.3190     0.0000    34.0000 </r>
       <r>    -0.2861     0.0000    34.0000 </r>
       <r>    -0.2531     0.0000    34.0000 </r>
       <r>    -0.2202     0.0000    34.0000 </r>
       <r>    -0.1873     0.0000    34.0000 </r>
       <r>    -0.1543     0.0000    34.0000 </r>
       <r>    -0.1214     0.0000    35.0000 </r>
       <r>    -0.0885     0.0000    35.0000 </r>
       <r>    -0.0556     0.0000    35.0000 </r>
       <r>    -0.0226     0.0000    35.0000 </r>
       <r>     0.0103     0.0000    35.0000 </r>
       <r>     0.0432     0.0000    35.0000 </r>
       <r>     0.0762     0.0000    35.0000 </r>
       <r>     0.1091     0.0000    35.0000 </r>
       <r>     0.1420     0.0000    35.0000 </r>
       <r>     0.1750     0.0000    35.0000 </r>
       <r>     0.2079     0.0000    36.0000 </r>
       <r>     0.2408     0.0000    36.0000 </r>
       <r>     0.2737     0.0000    36.0000 </r>
       <r>     0.3067     0.0000    36.0000 </r>
       <r>     0.3396     0.0000    36.0000 </r>
       <r>     0.3725     0.0000    36.0000 </r>
       <r>     0.4055     0.0000    36.0000 </r>
       <r>     0.4384     0.0000    36.0000 </r>
       <r>     0.4713     0.0000    36.0000 </r>
       <r>     0.5043     0.0000    36.0000 </r>
       <r>     0.5372     0.0000    36.0000 </r>
       <r>     0.5701     0.0000    36.0000 </r>
       <r>     0.6030     0.0000    36.0000 </r>
       <r>     0.6360     0.0000    36.0000 </r>
      </set>
     </set>
    </array>
   </total>
  </dos>
 </calculation>
 <structure name="finalpos" >
  <crystal>
   <varray name="basis" >
    <v>      16.35751766       0.00000000       0.00000000 </v>
    <v>       0.00000000      16.35751766       0.00000000 </v>
    <v>       0.00000000       0.00000000      16.35751766 </v>
   </varray>
   <i name="volume">   4376.75456898 </i>
   <varray name="rec_basis" >
    <v>       0.06113397       0.00000000       0.00000000 </v>
    <v>       0.00000000       0.06113397       0.00000000 </v>
    <v>       0.00000000       0.00000000       0.06113397 </v>
   </varray>
  </crystal>
  <varray name="positions" >
   <v>       0.63691171       0.54498760       0.61689373 </v>
   <v>       0.52786817       0.45650434       0.53133902 </v>
   <v>       0.53500609       0.62365465       0.51356044 </v>
   <v>       0.41045762       0.37388373       0.44981194 </v>
   <v>       0.42447208       0.53567835       0.42310679 </v>
  </varray>
 </structure>
</modeling>
