 vasp.5.3.5 31Mar14 (build Feb 01 2018 12:10:03) gamma-only                     
  
 executed on             LinuxIFC date 2019.03.21  16:35:15
 running on   32 total cores
 distrk:  each k-point on   32 cores,    1 groups
 distr:  one band on NCORES_PER_BAND=   8 cores,    4 groups


--------------------------------------------------------------------------------------------------------


 INCAR:
 POTCAR:    PAW_PBE Ag 02Apr2005                  
 POTCAR:    PAW_PBE Ag 02Apr2005                  
   VRHFIN =Ag : s1 d10                                                          
   LEXCH  = PE                                                                  
   EATOM  =  1037.2675 eV,   76.2370 Ry                                         
                                                                                
   TITEL  = PAW_PBE Ag 02Apr2005                                                
   LULTRA =        F    use ultrasoft PP ?                                      
   IUNSCR =        1    unscreen: 0-lin 1-nonlin 2-no                           
   RPACOR =    2.000    partial core radius                                     
   POMASS =  107.868; ZVAL   =   11.000    mass and valenz                      
   RCORE  =    2.500    outmost cutoff radius                                   
   RWIGS  =    2.840; RWIGS  =    1.503    wigner-seitz radius (au A)           
   ENMAX  =  249.844; ENMIN  =  187.383 eV                                      
   ICORE  =        3    local potential                                         
   LCOR   =        T    correct aug charges                                     
   LPAW   =        T    paw PP                                                  
   EAUG   =  412.496                                                            
   DEXC   =    0.000                                                            
   RMAX   =    2.560    core radius for proj-oper                               
   RAUG   =    1.300    factor for augmentation sphere                          
   RDEP   =    2.576    radius for radial grids                                 
   RDEPT  =    2.072    core radius for aug-charge                              
                                                                                
   Atomic configuration                                                         
   12 entries                                                                   
     n  l   j            E        occ.                                          
     1  0  0.50    -25324.9161   2.0000                                         
     2  0  0.50     -3728.5341   2.0000                                         
     2  1  1.50     -3344.0404   6.0000                                         
     3  0  0.50      -683.5581   2.0000                                         
     3  1  1.50      -557.3225   6.0000                                         
     3  2  2.50      -358.3853  10.0000                                         
     4  0  0.50       -95.0341   2.0000                                         
     4  1  1.50       -58.5511   6.0000                                         
     4  2  2.50        -7.4440  10.0000                                         
     5  0  0.50        -4.4045   1.0000                                         
     5  1  0.50        -1.3606   0.0000                                         
     4  3  2.50        -1.3606   0.0000                                         
   Description                                                                  
     l       E           TYP  RCUT    TYP  RCUT                                 
     2     -7.4439781     23  2.400                                             
     2     -8.8045607     23  2.400                                             
     0     -4.4044681     23  2.400                                             
     0      1.9520038     23  2.400                                             
     1     -1.3605826     23  2.500                                             
     1     27.2116520     23  2.500                                             
     3     -4.0817478     23  2.400                                             
  local pseudopotential read in
  partial core-charges read in
  partial kinetic energy density read in
  atomic valenz-charges read in
  non local Contribution for L=           2  read in
    real space projection operators read in
  non local Contribution for L=           2  read in
    real space projection operators read in
  non local Contribution for L=           0  read in
    real space projection operators read in
  non local Contribution for L=           0  read in
    real space projection operators read in
  non local Contribution for L=           1  read in
    real space projection operators read in
  non local Contribution for L=           1  read in
    real space projection operators read in
    PAW grid and wavefunctions read in
 
   number of l-projection  operators is LMAX  =           6
   number of lm-projection operators is LMMAX =          18
 
  PAW_PBE Ag 02Apr2005                  :
 energy of atom  1       EATOM=-1037.2675
 kinetic energy error for atom=    0.0689 (will be added to EATOM!!)
 
 
 POSCAR: Li11, -14.25965705 <s> Ag </s>          
  positions in direct lattice
  No initial velocities read in
 exchange correlation table for  LEXCH =        8
   RHO(1)=    0.500       N(1)  =     2000
   RHO(2)=  100.500       N(2)  =     4000
 


--------------------------------------------------------------------------------------------------------


 ion  position               nearest neighbor table
   1  0.562  0.306  0.549-   5 2.83   3 2.84   2 3.06
   2  0.450  0.360  0.450-   3 2.73   5 2.73   7 2.92   1 3.06   6 3.11   4 3.11
   3  0.577  0.422  0.458-   7 2.59   2 2.73   8 2.79   1 2.84   5 3.04   4 3.39  10 3.54
   4  0.453  0.488  0.352-   7 2.44   9 2.97   6 3.06   2 3.11  10 3.36   3 3.39
   5  0.473  0.420  0.577-   7 2.58   2 2.73   8 2.78   1 2.83   3 3.04   6 3.35  11 3.45
   6  0.350  0.485  0.472-   7 2.45   9 2.96   4 3.06   2 3.11  11 3.30   5 3.35
   7  0.475  0.508  0.475-   4 2.44  11 2.44  10 2.44   6 2.45   5 2.58   3 2.59   8 2.77   9 2.80
                             2 2.92
   8  0.583  0.513  0.570-   7 2.77   5 2.78   3 2.79  11 3.09  10 3.10
   9  0.401  0.618  0.416-   7 2.80  10 2.93  11 2.94   6 2.96   4 2.97
  10  0.551  0.603  0.440-   7 2.44   9 2.93  11 3.09   8 3.10   4 3.36   3 3.54
  11  0.446  0.596  0.561-   7 2.44   9 2.94  10 3.09   8 3.09   6 3.30   5 3.45
 
  LATTYP: Found a simple cubic cell.
 ALAT       =    19.2551554440
  
  Lattice vectors:
  
 A1 = (  19.2551554440,   0.0000000000,   0.0000000000)
 A2 = (   0.0000000000,  19.2551554440,   0.0000000000)
 A3 = (   0.0000000000,   0.0000000000,  19.2551554440)


Analysis of symmetry for initial positions (statically):
=====================================================================
 Subroutine PRICEL returns:
 Original cell was already a primitive cell.
 

 Routine SETGRP: Setting up the symmetry group for a 
 simple cubic supercell.


 Subroutine GETGRP returns: Found  1 space group operations
 (whereof  1 operations were pure point group operations)
 out of a pool of 48 trial point group operations.


The static configuration has the point symmetry C_1 .


Analysis of symmetry for dynamics (positions and initial velocities):
=====================================================================
 Subroutine PRICEL returns:
 Original cell was already a primitive cell.
 

 Routine SETGRP: Setting up the symmetry group for a 
 simple cubic supercell.


 Subroutine GETGRP returns: Found  1 space group operations
 (whereof  1 operations were pure point group operations)
 out of a pool of 48 trial point group operations.


The dynamic configuration has the point symmetry C_1 .


Analysis of magnetic symmetry:
=====================================================================
 Subroutine PRICEL returns:
 Original cell was already a primitive cell.
 

 Subroutine MAGSYM returns: Found  1 space group operations
 (whereof  1 operations were pure point group operations)
 out of a pool of  1 trial space group operations
 (whereof  1 operations were pure point group operations)
 and found also     1 'primitive' translations


The magnetic configuration has the point symmetry C_1 .
 
 
 KPOINTS: Gamma-point only                        
  k-points in reciprocal lattice
Space group operators:
 irot       det(A)        alpha          n_x          n_y          n_z        tau_x        tau_y        tau_z
    1     1.000000     0.000001     1.000000     0.000000     0.000000     0.000000     0.000000     0.000000


--------------------------------------------------------------------------------------------------------




 Dimension of arrays:
   k-points           NKPTS =      1   k-points in BZ     NKDIM =      1   number of bands    NBANDS=     80
   number of dos      NEDOS =    301   number of ions     NIONS =     11
   non local maximal  LDIM  =      6   non local SUM 2l+1 LMDIM =     18
   total plane-waves  NPLWV = 512000
   max r-space proj   IRMAX =      1   max aug-charges    IRDMAX=   3725
   dimension x,y,z NGX =    80 NGY =   80 NGZ =   80
   dimension x,y,z NGXF=   160 NGYF=  160 NGZF=  160
   support grid    NGXF=   160 NGYF=  160 NGZF=  160
   ions per type =              11
 NGX,Y,Z   is equivalent  to a cutoff of   6.91,  6.91,  6.91 a.u.
 NGXF,Y,Z  is equivalent  to a cutoff of  13.81, 13.81, 13.81 a.u.


 I would recommend the setting:
   dimension x,y,z NGX =    74 NGY =   74 NGZ =   74
 SYSTEM =  unknown system                          
 POSCAR =  Li11, -14.25965705 <s> Ag </s>          

 Startparameter for this run:
   NWRITE =      2    write-flag & timer
   PREC   = normal    normal or accurate (medium, high low for compatibility)
   ISTART =      0    job   : 0-new  1-cont  2-samecut
   ICHARG =      2    charge: 1-file 2-atom 10-const
   ISPIN  =      2    spin polarized calculation?
   LNONCOLLINEAR =      F non collinear calculations
   LSORBIT =      F    spin-orbit coupling
   INIWAV =      1    electr: 0-lowe 1-rand  2-diag
   LASPH  =      F    aspherical Exc in radial PAW
   METAGGA=      F    non-selfconsistent MetaGGA calc.

 Electronic Relaxation 1
   ENCUT  =  249.8 eV  18.36 Ry    4.29 a.u.  24.82 24.82 24.82*2*pi/ulx,y,z
   ENINI  =  249.8     initial cutoff
   ENAUG  =  412.5 eV  augmentation charge cutoff
   NELM   =     60;   NELMIN=  2; NELMDL= -5     # of ELM steps 
   EDIFF  = 0.1E-03   stopping-criterion for ELM
   LREAL  =      F    real-space projection
   NLSPLINE    = F    spline interpolate recip. space projectors
   LCOMPAT=      F    compatible to vasp.4.4
   GGA_COMPAT  = T    GGA compatible to vasp.4.4-vasp.4.6
   LMAXPAW     = -100 max onsite density
   LMAXMIX     =    2 max onsite mixed and CHGCAR
   VOSKOWN=      0    Vosko Wilk Nusair interpolation
   ROPT   =    0.00000
 Ionic relaxation
   EDIFFG = 0.1E-02   stopping-criterion for IOM
   NSW    =   1000    number of steps for IOM
   NBLOCK =      1;   KBLOCK =   1000    inner block; outer block 
   IBRION =      2    ionic relax: 0-MD 1-quasi-New 2-CG
   NFREE  =      1    steps in history (QN), initial steepest desc. (CG)
   ISIF   =      2    stress and relaxation
   IWAVPR =     11    prediction:  0-non 1-charg 2-wave 3-comb
   ISYM   =      2    0-nonsym 1-usesym 2-fastsym
   LCORR  =      T    Harris-Foulkes like correction to forces

   POTIM  = 0.1000    time-step for ionic-motion
   TEIN   =    0.0    initial temperature
   TEBEG  =    0.0;   TEEND  =   0.0 temperature during run
   SMASS  =  -3.00    Nose mass-parameter (am)
   estimated Nose-frequenzy (Omega)   =  0.10E-29 period in steps =****** mass=  -0.847E-26a.u.
   SCALEE = 1.0000    scale energy and forces
   NPACO  =    256;   APACO  = 16.0  distance and # of slots for P.C.
   PSTRESS=    0.0 pullay stress

  Mass of Ions in am
   POMASS = 107.87
  Ionic Valenz
   ZVAL   =  11.00
  Atomic Wigner-Seitz radii
   RWIGS  =  -1.00
  virtual crystal weights 
   VCA    =   1.00
   NELECT =     121.0000    total number of electrons
   NUPDOWN=      -1.0000    fix difference up-down

 DOS related values:
   EMIN   =  10.00;   EMAX   =-10.00  energy-range for DOS
   EFERMI =   0.00
   ISMEAR =     0;   SIGMA  =   0.00  broadening in eV -4-tet -1-fermi 0-gaus

 Electronic relaxation 2 (details)
   IALGO  =     38    algorithm
   LDIAG  =      T    sub-space diagonalisation (order eigenvalues)
   LSUBROT=      F    optimize rotation matrix (better conditioning)
   TURBO    =      0    0=normal 1=particle mesh
   IRESTART =      0    0=no restart 2=restart with 2 vectors
   NREBOOT  =      0    no. of reboots
   NMIN     =      0    reboot dimension
   EREF     =   0.00    reference energy to select bands
   IMIX   =      4    mixing-type and parameters
     AMIX     =   0.40;   BMIX     =  1.00
     AMIX_MAG =   1.60;   BMIX_MAG =  1.00
     AMIN     =   0.10
     WC   =   100.;   INIMIX=   1;  MIXPRE=   1;  MAXMIX= -45

 Intra band minimization:
   WEIMIN = 0.0010     energy-eigenvalue tresh-hold
   EBREAK =  0.31E-06  absolut break condition
   DEPER  =   0.30     relativ break condition  

   TIME   =   0.40     timestep for ELM

  volume/ion in A,a.u.               =     649.01      4379.71
  Fermi-wavevector in a.u.,A,eV,Ry     =   0.420523  0.794673  2.406047  0.176839
  Thomas-Fermi vector in A             =   1.382766
 
 Write flags
   LWAVE  =      F    write WAVECAR
   LCHARG =      F    write CHGCAR
   LVTOT  =      F    write LOCPOT, total local potential
   LVHAR  =      F    write LOCPOT, Hartree potential only
   LELF   =      F    write electronic localiz. function (ELF)
   LORBIT =      0    0 simple, 1 ext, 2 COOP (PROOUT)


 Dipole corrections
   LMONO  =      F    monopole corrections only (constant potential shift)
   LDIPOL =      F    correct potential (dipole corrections)
   IDIPOL =      0    1-x, 2-y, 3-z, 4-all directions 
   EPSILON=  1.0000000 bulk dielectric constant

 Exchange correlation treatment:
   GGA     =    PE    GGA type
   LEXCH   =     8    internal setting for exchange type
   VOSKOWN=      0    Vosko Wilk Nusair interpolation
   LHFCALC =     F    Hartree Fock is set to
   LHFONE  =     F    Hartree Fock one center treatment
   AEXX    =    0.0000 exact exchange contribution

 Linear response parameters
   LEPSILON=     F    determine dielectric tensor
   LRPA    =     F    only Hartree local field effects (RPA)
   LNABLA  =     F    use nabla operator in PAW spheres
   LVEL    =     F    velocity operator in full k-point grid
   LINTERFAST=   F  fast interpolation
   KINTER  =     0    interpolate to denser k-point grid
   CSHIFT  =0.1000    complex shift for real part using Kramers Kronig
   OMEGAMAX=  -1.0    maximum frequency
   DEG_THRESHOLD= 0.2000000E-02 threshold for treating states as degnerate
   RTIME   =    0.100 relaxation time in fs

 Orbital magnetization related:
   ORBITALMAG=     F  switch on orbital magnetization
   LCHIMAG   =     F  perturbation theory with respect to B field
   DQ        =  0.001000  dq finite difference perturbation B field



--------------------------------------------------------------------------------------------------------


 conjugate gradient relaxation of ions
 charge density and potential will be updated during run
 spin polarized calculation
 Variant of blocked Davidson
 Davidson routine will perform the subspace rotation
 perform sub-space diagonalisation
    after iterative eigenvector-optimisation
 modified Broyden-mixing scheme, WC =      100.0
 initial mixing is a Kerker type mixing with AMIX =  0.4000 and BMIX =      1.0000
 Hartree-type preconditioning will be used
 using additional bands           19
 reciprocal scheme for non local part
 use partial core corrections
 calculate Harris-corrections to forces 
   (improved forces if not selfconsistent)
 use gradient corrections 
 use of overlap-Matrix (Vanderbilt PP)
 Gauss-broadening in eV      SIGMA  =   0.00


--------------------------------------------------------------------------------------------------------


  energy-cutoff  :      249.84
  volume of cell :     7139.06
      direct lattice vectors                 reciprocal lattice vectors
    19.255155444  0.000000000  0.000000000     0.051934143  0.000000000  0.000000000
     0.000000000 19.255155444  0.000000000     0.000000000  0.051934143  0.000000000
     0.000000000  0.000000000 19.255155444     0.000000000  0.000000000  0.051934143

  length of vectors
    19.255155444 19.255155444 19.255155444     0.051934143  0.051934143  0.051934143


 
 k-points in units of 2pi/SCALE and weight: Gamma-point only                        
   0.00000000  0.00000000  0.00000000       1.000
 
 k-points in reciprocal lattice and weights: Gamma-point only                        
   0.00000000  0.00000000  0.00000000       1.000
 
 position of ions in fractional coordinates (direct lattice) 
   0.56198752  0.30642601  0.54866287
   0.44953230  0.35999943  0.45015792
   0.57682879  0.42153044  0.45800474
   0.45347707  0.48833355  0.35180393
   0.47267827  0.41984783  0.57657874
   0.34959001  0.48519986  0.47208357
   0.47471275  0.50762224  0.47505517
   0.58270797  0.51325450  0.57030397
   0.40148307  0.61847243  0.41627727
   0.55117444  0.60272426  0.44014564
   0.44553547  0.59629711  0.56063384
 
 position of ions in cartesian coordinates  (Angst):
  10.82115709  5.90028052 10.56458880
   8.65581426  6.93184504  8.66786072
  11.10692794  8.11663406  8.81895248
   8.73177154  9.40293848  6.77403927
   9.10149365  8.08423531 11.10211324
   6.73141007  9.34259864  9.09004251
   9.14066781  9.77434510  9.14726122
  11.22013248  9.88279509 10.98129156
   7.73061899 11.90878270  8.01548356
  10.61294945 11.60554941  8.47507281
   8.57885467 11.48179358 10.79509177
 


--------------------------------------------------------------------------------------------------------


 use parallel FFT for wavefunctions z direction half grid
 k-point  1 :   0.0000 0.0000 0.0000  plane waves:   31995

 maximum and minimum number of plane-waves per node :      4005     3993

 maximum number of plane-waves:     31995
 maximum index in each direction: 
   IXMAX=   24   IYMAX=   24   IZMAX=   24
   IXMIN=  -24   IYMIN=  -24   IZMIN=    0

 WARNING: aliasing errors must be expected set NGX to  98 to avoid them
 WARNING: aliasing errors must be expected set NGY to  98 to avoid them
 WARNING: aliasing errors must be expected set NGZ to  98 to avoid them
 aliasing errors are usually negligible using standard VASP settings
 and one can safely disregard these warnings

 parallel 3D FFT for wavefunctions:
    minimum data exchange during FFTs selected (reduces bandwidth)
 parallel 3D FFT for charge:
    minimum data exchange during FFTs selected (reduces bandwidth)


 total amount of memory used by VASP on root node    54093. kBytes
========================================================================

   base      :      30000. kBytes
   nonl-proj :       1278. kBytes
   fftplans  :       5765. kBytes
   grid      :      14451. kBytes
   one-center:         31. kBytes
   wavefun   :       2568. kBytes
 
     INWAV:  cpu time    0.00: real time    0.00
 Broyden mixing: mesh for mixing (old mesh)
   NGX = 49   NGY = 49   NGZ = 49
  (NGX  =160   NGY  =160   NGZ  =160)
  gives a total of 117649 points

 initial charge density was supplied:
 charge density of overlapping atoms calculated
 number of electron     121.0000000 magnetization      11.0000000
 keeping initial charge density in first step


--------------------------------------------------------------------------------------------------------


 Maximum index for augmentation-charges          274 (set IRDMAX)


--------------------------------------------------------------------------------------------------------


 First call to EWALD:  gamma=   0.092
 Maximum number of real-space cells 3x 3x 3
 Maximum number of reciprocal cells 3x 3x 3

 FEWALD executed in parallel
    FEWALD:  cpu time    0.00: real time    0.00


----------------------------------------- Iteration    1(   1)  ---------------------------------------


    POTLOK:  cpu time    0.23: real time    0.23
    SETDIJ:  cpu time    0.01: real time    0.01
     EDDAV:  cpu time    0.72: real time    0.72
       DOS:  cpu time    0.00: real time    0.00
    --------------------------------------------
      LOOP:  cpu time    0.96: real time    0.98

 eigenvalue-minimisations  :   320
 total energy-change (2. order) : 0.1072961E+04  (-0.1817123E+04)
 number of electron     121.0000000 magnetization      11.0000000
 augmentation part      121.0000000 magnetization      11.0000000

 Free energy of the ion-electron system (eV)
  ---------------------------------------------------
  alpha Z        PSCENC =        14.41645445
  Ewald energy   TEWEN  =     12380.42331195
  -Hartree energ DENC   =    -23283.91202012
  -exchange      EXHF   =         0.00000000
  -V(xc)+E(xc)   XCENC  =      -122.74560217
  PAW double counting   =     11037.09395877   -10529.91069767
  entropy T*S    EENTRO =         0.00000000
  eigenvalues    EBANDS =       168.41029228
  atomic energy  EATOM  =     11409.18493095
  ---------------------------------------------------
  free energy    TOTEN  =      1072.96062845 eV

  energy without entropy =     1072.96062845  energy(sigma->0) =     1072.96062845


--------------------------------------------------------------------------------------------------------




----------------------------------------- Iteration    1(   2)  ---------------------------------------


     EDDAV:  cpu time    1.18: real time    1.18
       DOS:  cpu time    0.00: real time    0.00
    --------------------------------------------
      LOOP:  cpu time    1.18: real time    1.19

 eigenvalue-minimisations  :   600
 total energy-change (2. order) :-0.6612048E+03  (-0.5779349E+03)
 number of electron     121.0000000 magnetization      11.0000000
 augmentation part      121.0000000 magnetization      11.0000000

 Free energy of the ion-electron system (eV)
  ---------------------------------------------------
  alpha Z        PSCENC =        14.41645445
  Ewald energy   TEWEN  =     12380.42331195
  -Hartree energ DENC   =    -23283.91202012
  -exchange      EXHF   =         0.00000000
  -V(xc)+E(xc)   XCENC  =      -122.74560217
  PAW double counting   =     11037.09395877   -10529.91069767
  entropy T*S    EENTRO =        -0.00000000
  eigenvalues    EBANDS =      -492.79447472
  atomic energy  EATOM  =     11409.18493095
  ---------------------------------------------------
  free energy    TOTEN  =       411.75586145 eV

  energy without entropy =      411.75586145  energy(sigma->0) =      411.75586145


--------------------------------------------------------------------------------------------------------




----------------------------------------- Iteration    1(   3)  ---------------------------------------


     EDDAV:  cpu time    0.99: real time    0.99
       DOS:  cpu time    0.00: real time    0.00
    --------------------------------------------
      LOOP:  cpu time    0.99: real time    0.99

 eigenvalue-minimisations  :   472
 total energy-change (2. order) :-0.3839756E+03  (-0.3569189E+03)
 number of electron     121.0000000 magnetization      11.0000000
 augmentation part      121.0000000 magnetization      11.0000000

 Free energy of the ion-electron system (eV)
  ---------------------------------------------------
  alpha Z        PSCENC =        14.41645445
  Ewald energy   TEWEN  =     12380.42331195
  -Hartree energ DENC   =    -23283.91202012
  -exchange      EXHF   =         0.00000000
  -V(xc)+E(xc)   XCENC  =      -122.74560217
  PAW double counting   =     11037.09395877   -10529.91069767
  entropy T*S    EENTRO =         0.00000000
  eigenvalues    EBANDS =      -876.77007965
  atomic energy  EATOM  =     11409.18493095
  ---------------------------------------------------
  free energy    TOTEN  =        27.78025652 eV

  energy without entropy =       27.78025652  energy(sigma->0) =       27.78025652


--------------------------------------------------------------------------------------------------------




----------------------------------------- Iteration    1(   4)  ---------------------------------------


     EDDAV:  cpu time    0.81: real time    0.81
       DOS:  cpu time    0.00: real time    0.00
    --------------------------------------------
      LOOP:  cpu time    0.81: real time    0.82

 eigenvalue-minimisations  :   368
 total energy-change (2. order) :-0.4512506E+02  (-0.4446520E+02)
 number of electron     121.0000000 magnetization      11.0000000
 augmentation part      121.0000000 magnetization      11.0000000

 Free energy of the ion-electron system (eV)
  ---------------------------------------------------
  alpha Z        PSCENC =        14.41645445
  Ewald energy   TEWEN  =     12380.42331195
  -Hartree energ DENC   =    -23283.91202012
  -exchange      EXHF   =         0.00000000
  -V(xc)+E(xc)   XCENC  =      -122.74560217
  PAW double counting   =     11037.09395877   -10529.91069767
  entropy T*S    EENTRO =         0.00000000
  eigenvalues    EBANDS =      -921.89514234
  atomic energy  EATOM  =     11409.18493095
  ---------------------------------------------------
  free energy    TOTEN  =       -17.34480618 eV

  energy without entropy =      -17.34480618  energy(sigma->0) =      -17.34480618


--------------------------------------------------------------------------------------------------------




----------------------------------------- Iteration    1(   5)  ---------------------------------------


     EDDAV:  cpu time    0.74: real time    0.74
       DOS:  cpu time    0.00: real time    0.00
    CHARGE:  cpu time    0.06: real time    0.05
    MIXING:  cpu time    0.00: real time    0.01
    --------------------------------------------
      LOOP:  cpu time    0.80: real time    0.81

 eigenvalue-minimisations  :   328
 total energy-change (2. order) :-0.7168843E+00  (-0.7161226E+00)
 number of electron     121.0000050 magnetization       9.4602780
 augmentation part       57.4158640 magnetization       8.6895055

 Broyden mixing:
  rms(total) = 0.20243E+01    rms(broyden)= 0.20240E+01
  rms(prec ) = 0.20606E+01
  weight for this iteration     100.00

 Free energy of the ion-electron system (eV)
  ---------------------------------------------------
  alpha Z        PSCENC =        14.41645445
  Ewald energy   TEWEN  =     12380.42331195
  -Hartree energ DENC   =    -23283.91202012
  -exchange      EXHF   =         0.00000000
  -V(xc)+E(xc)   XCENC  =      -122.74560217
  PAW double counting   =     11037.09395877   -10529.91069767
  entropy T*S    EENTRO =         0.00000000
  eigenvalues    EBANDS =      -922.61202660
  atomic energy  EATOM  =     11409.18493095
  ---------------------------------------------------
  free energy    TOTEN  =       -18.06169044 eV

  energy without entropy =      -18.06169044  energy(sigma->0) =      -18.06169044


--------------------------------------------------------------------------------------------------------




----------------------------------------- Iteration    1(   6)  ---------------------------------------


    POTLOK:  cpu time    0.22: real time    0.22
    SETDIJ:  cpu time    0.01: real time    0.01
     EDDAV:  cpu time    0.73: real time    0.73
       DOS:  cpu time    0.00: real time    0.00
    CHARGE:  cpu time    0.05: real time    0.05
    MIXING:  cpu time    0.01: real time    0.01
    --------------------------------------------
      LOOP:  cpu time    1.02: real time    1.03

 eigenvalue-minimisations  :   320
 total energy-change (2. order) : 0.1554412E+02  (-0.4248880E+01)
 number of electron     121.0000054 magnetization       8.4778709
 augmentation part       58.4220993 magnetization       4.6613147

 Broyden mixing:
  rms(total) = 0.10369E+01    rms(broyden)= 0.10368E+01
  rms(prec ) = 0.10560E+01
  weight for this iteration     100.00

 eigenvalues of (default mixing * dielectric matrix)
  average eigenvalue GAMMA=   0.8659
  0.8659

 Free energy of the ion-electron system (eV)
  ---------------------------------------------------
  alpha Z        PSCENC =        14.41645445
  Ewald energy   TEWEN  =     12380.42331195
  -Hartree energ DENC   =    -23258.43075975
  -exchange      EXHF   =         0.00000000
  -V(xc)+E(xc)   XCENC  =      -114.68603057
  PAW double counting   =     11409.79437886   -10909.65289688
  entropy T*S    EENTRO =         0.00000000
  eigenvalues    EBANDS =      -933.56696194
  atomic energy  EATOM  =     11409.18493095
  ---------------------------------------------------
  free energy    TOTEN  =        -2.51757292 eV

  energy without entropy =       -2.51757292  energy(sigma->0) =       -2.51757292


--------------------------------------------------------------------------------------------------------




----------------------------------------- Iteration    1(   7)  ---------------------------------------


    POTLOK:  cpu time    0.22: real time    0.22
    SETDIJ:  cpu time    0.01: real time    0.01
     EDDAV:  cpu time    0.77: real time    0.77
       DOS:  cpu time    0.00: real time    0.00
    CHARGE:  cpu time    0.05: real time    0.05
    MIXING:  cpu time    0.00: real time    0.01
    --------------------------------------------
      LOOP:  cpu time    1.06: real time    4.12

 eigenvalue-minimisations  :   344
 total energy-change (2. order) : 0.1847381E+01  (-0.3115382E+00)
 number of electron     121.0000054 magnetization       7.1788049
 augmentation part       58.3554736 magnetization       3.5036890

 Broyden mixing:
  rms(total) = 0.54343E+00    rms(broyden)= 0.54341E+00
  rms(prec ) = 0.55363E+00
  weight for this iteration     100.00

 eigenvalues of (default mixing * dielectric matrix)
  average eigenvalue GAMMA=   1.0209
  0.7476  1.2942

 Free energy of the ion-electron system (eV)
  ---------------------------------------------------
  alpha Z        PSCENC =        14.41645445
  Ewald energy   TEWEN  =     12380.42331195
  -Hartree energ DENC   =    -23285.26917543
  -exchange      EXHF   =         0.00000000
  -V(xc)+E(xc)   XCENC  =      -112.81546286
  PAW double counting   =     11641.59479347   -11146.08677918
  entropy T*S    EENTRO =         0.00000000
  eigenvalues    EBANDS =      -902.11826557
  atomic energy  EATOM  =     11409.18493095
  ---------------------------------------------------
  free energy    TOTEN  =        -0.67019223 eV

  energy without entropy =       -0.67019223  energy(sigma->0) =       -0.67019223


--------------------------------------------------------------------------------------------------------




----------------------------------------- Iteration    1(   8)  ---------------------------------------


    POTLOK:  cpu time    0.22: real time    0.22
    SETDIJ:  cpu time    0.01: real time    0.01
     EDDAV:  cpu time    0.81: real time    0.81
       DOS:  cpu time    0.00: real time    0.00
    CHARGE:  cpu time    0.05: real time    0.05
    MIXING:  cpu time    0.00: real time    0.01
    --------------------------------------------
      LOOP:  cpu time    1.10: real time    1.10

 eigenvalue-minimisations  :   368
 total energy-change (2. order) :-0.2604881E+01  (-0.1573601E+00)
 number of electron     121.0000055 magnetization       6.3781757
 augmentation part       58.2687342 magnetization       2.8086481

 Broyden mixing:
  rms(total) = 0.25485E+00    rms(broyden)= 0.25484E+00
  rms(prec ) = 0.25882E+00
  weight for this iteration     100.00

 eigenvalues of (default mixing * dielectric matrix)
  average eigenvalue GAMMA=   1.2018
  2.0706  0.9082  0.6264

 Free energy of the ion-electron system (eV)
  ---------------------------------------------------
  alpha Z        PSCENC =        14.41645445
  Ewald energy   TEWEN  =     12380.42331195
  -Hartree energ DENC   =    -23309.47465189
  -exchange      EXHF   =         0.00000000
  -V(xc)+E(xc)   XCENC  =      -114.57301807
  PAW double counting   =     11864.20068859   -11372.83082967
  entropy T*S    EENTRO =         0.00000000
  eigenvalues    EBANDS =      -874.62195996
  atomic energy  EATOM  =     11409.18493095
  ---------------------------------------------------
  free energy    TOTEN  =        -3.27507365 eV

  energy without entropy =       -3.27507365  energy(sigma->0) =       -3.27507365


--------------------------------------------------------------------------------------------------------




----------------------------------------- Iteration    1(   9)  ---------------------------------------


    POTLOK:  cpu time    0.22: real time    0.22
    SETDIJ:  cpu time    0.01: real time    0.01
     EDDAV:  cpu time    0.78: real time    0.78
       DOS:  cpu time    0.00: real time    0.00
    CHARGE:  cpu time    0.05: real time    0.05
    MIXING:  cpu time    0.01: real time    0.01
    --------------------------------------------
      LOOP:  cpu time    1.08: real time    1.08

 eigenvalue-minimisations  :   352
 total energy-change (2. order) :-0.2552922E+01  (-0.7414985E-01)
 number of electron     121.0000054 magnetization       6.3631973
 augmentation part       58.2611957 magnetization       4.8682085

 Broyden mixing:
  rms(total) = 0.27131E+00    rms(broyden)= 0.27117E+00
  rms(prec ) = 0.28931E+00
  weight for this iteration     100.00

 eigenvalues of (default mixing * dielectric matrix)
  average eigenvalue GAMMA=   0.9092
  2.0732  0.9079  0.6261  0.0298

 Free energy of the ion-electron system (eV)
  ---------------------------------------------------
  alpha Z        PSCENC =        14.41645445
  Ewald energy   TEWEN  =     12380.42331195
  -Hartree energ DENC   =    -23314.09999096
  -exchange      EXHF   =         0.00000000
  -V(xc)+E(xc)   XCENC  =      -116.45544427
  PAW double counting   =     11929.60884526   -11439.45125362
  entropy T*S    EENTRO =         0.00000000
  eigenvalues    EBANDS =      -869.45484898
  atomic energy  EATOM  =     11409.18493095
  ---------------------------------------------------
  free energy    TOTEN  =        -5.82799522 eV

  energy without entropy =       -5.82799522  energy(sigma->0) =       -5.82799522


--------------------------------------------------------------------------------------------------------




----------------------------------------- Iteration    1(  10)  ---------------------------------------


    POTLOK:  cpu time    0.23: real time    0.22
    SETDIJ:  cpu time    0.00: real time    0.01
     EDDAV:  cpu time    0.82: real time    0.82
       DOS:  cpu time    0.00: real time    0.00
    CHARGE:  cpu time    0.05: real time    0.05
    MIXING:  cpu time    0.01: real time    0.01
    --------------------------------------------
      LOOP:  cpu time    1.11: real time    1.12

 eigenvalue-minimisations  :   376
 total energy-change (2. order) : 0.8526961E-01  (-0.1695792E-02)
 number of electron     121.0000054 magnetization       6.4135755
 augmentation part       58.2566273 magnetization       4.9242574

 Broyden mixing:
  rms(total) = 0.26857E+00    rms(broyden)= 0.26856E+00
  rms(prec ) = 0.28656E+00
  weight for this iteration     100.00

 eigenvalues of (default mixing * dielectric matrix)
  average eigenvalue GAMMA=   0.8010
  2.0929  0.9060  0.6264  0.1657  0.2137

 Free energy of the ion-electron system (eV)
  ---------------------------------------------------
  alpha Z        PSCENC =        14.41645445
  Ewald energy   TEWEN  =     12380.42331195
  -Hartree energ DENC   =    -23314.18765631
  -exchange      EXHF   =         0.00000000
  -V(xc)+E(xc)   XCENC  =      -116.37067373
  PAW double counting   =     11930.05708160   -11439.91064610
  entropy T*S    EENTRO =         0.00000000
  eigenvalues    EBANDS =      -869.35552843
  atomic energy  EATOM  =     11409.18493095
  ---------------------------------------------------
  free energy    TOTEN  =        -5.74272561 eV

  energy without entropy =       -5.74272561  energy(sigma->0) =       -5.74272561


--------------------------------------------------------------------------------------------------------




----------------------------------------- Iteration    1(  11)  ---------------------------------------


    POTLOK:  cpu time    0.22: real time    0.22
    SETDIJ:  cpu time    0.00: real time    0.01
     EDDAV:  cpu time    0.79: real time    0.79
       DOS:  cpu time    0.00: real time    0.00
    CHARGE:  cpu time    0.05: real time    0.05
    MIXING:  cpu time    0.00: real time    0.01
    --------------------------------------------
      LOOP:  cpu time    1.08: real time    1.08

 eigenvalue-minimisations  :   352
 total energy-change (2. order) : 0.9462929E-01  (-0.7445726E-03)
 number of electron     121.0000054 magnetization       5.5380557
 augmentation part       58.2506117 magnetization       4.0422686

 Broyden mixing:
  rms(total) = 0.27560E+00    rms(broyden)= 0.27560E+00
  rms(prec ) = 0.29431E+00
  weight for this iteration     100.00

 eigenvalues of (default mixing * dielectric matrix)
  average eigenvalue GAMMA=   0.9216
  2.0291  0.8010  0.8010  0.9269  0.6382  0.3331

 Free energy of the ion-electron system (eV)
  ---------------------------------------------------
  alpha Z        PSCENC =        14.41645445
  Ewald energy   TEWEN  =     12380.42331195
  -Hartree energ DENC   =    -23314.61102319
  -exchange      EXHF   =         0.00000000
  -V(xc)+E(xc)   XCENC  =      -116.29027954
  PAW double counting   =     11935.52556468   -11445.39842735
  entropy T*S    EENTRO =         0.00000000
  eigenvalues    EBANDS =      -868.89862829
  atomic energy  EATOM  =     11409.18493095
  ---------------------------------------------------
  free energy    TOTEN  =        -5.64809633 eV

  energy without entropy =       -5.64809633  energy(sigma->0) =       -5.64809633


--------------------------------------------------------------------------------------------------------




----------------------------------------- Iteration    1(  12)  ---------------------------------------


    POTLOK:  cpu time    0.22: real time    0.23
    SETDIJ:  cpu time    0.01: real time    0.01
     EDDAV:  cpu time    0.76: real time    0.75
       DOS:  cpu time    0.00: real time    0.00
    CHARGE:  cpu time    0.05: real time    0.05
    MIXING:  cpu time    0.01: real time    0.01
    --------------------------------------------
      LOOP:  cpu time    1.05: real time    1.05

 eigenvalue-minimisations  :   336
 total energy-change (2. order) :-0.2035003E+01  (-0.9044674E-01)
 number of electron     121.0000053 magnetization       3.9604421
 augmentation part       58.2782600 magnetization       2.5619205

 Broyden mixing:
  rms(total) = 0.21417E+00    rms(broyden)= 0.21416E+00
  rms(prec ) = 0.22513E+00
  weight for this iteration     100.00

 eigenvalues of (default mixing * dielectric matrix)
  average eigenvalue GAMMA=   1.0577
  2.3103  1.2480  1.2480  0.9515  0.5994  0.5233  0.5233

 Free energy of the ion-electron system (eV)
  ---------------------------------------------------
  alpha Z        PSCENC =        14.41645445
  Ewald energy   TEWEN  =     12380.42331195
  -Hartree energ DENC   =    -23314.66481156
  -exchange      EXHF   =         0.00000000
  -V(xc)+E(xc)   XCENC  =      -117.75841368
  PAW double counting   =     11900.09011330   -11410.19071042
  entropy T*S    EENTRO =         0.00000000
  eigenvalues    EBANDS =      -869.18397409
  atomic energy  EATOM  =     11409.18493095
  ---------------------------------------------------
  free energy    TOTEN  =        -7.68309910 eV

  energy without entropy =       -7.68309910  energy(sigma->0) =       -7.68309910


--------------------------------------------------------------------------------------------------------




----------------------------------------- Iteration    1(  13)  ---------------------------------------


    POTLOK:  cpu time    0.22: real time    0.22
    SETDIJ:  cpu time    0.01: real time    0.01
     EDDAV:  cpu time    0.74: real time    0.75
       DOS:  cpu time    0.00: real time    0.00
    CHARGE:  cpu time    0.05: real time    0.05
    MIXING:  cpu time    0.01: real time    0.01
    --------------------------------------------
      LOOP:  cpu time    1.04: real time    1.04

 eigenvalue-minimisations  :   328
 total energy-change (2. order) :-0.3943121E+01  (-0.2155976E+00)
 number of electron     121.0000053 magnetization       2.9395411
 augmentation part       58.2795477 magnetization       1.7080990

 Broyden mixing:
  rms(total) = 0.13969E+00    rms(broyden)= 0.13969E+00
  rms(prec ) = 0.14396E+00
  weight for this iteration     100.00

 eigenvalues of (default mixing * dielectric matrix)
  average eigenvalue GAMMA=   1.1344
  2.7488  1.2988  1.2988  1.2392  0.6992  0.6992  0.6577  0.4336

 Free energy of the ion-electron system (eV)
  ---------------------------------------------------
  alpha Z        PSCENC =        14.41645445
  Ewald energy   TEWEN  =     12380.42331195
  -Hartree energ DENC   =    -23318.55883749
  -exchange      EXHF   =         0.00000000
  -V(xc)+E(xc)   XCENC  =      -120.63346864
  PAW double counting   =     11886.49611918   -11397.12790848
  entropy T*S    EENTRO =         0.00000000
  eigenvalues    EBANDS =      -865.82682190
  atomic energy  EATOM  =     11409.18493095
  ---------------------------------------------------
  free energy    TOTEN  =       -11.62621997 eV

  energy without entropy =      -11.62621997  energy(sigma->0) =      -11.62621997


--------------------------------------------------------------------------------------------------------




----------------------------------------- Iteration    1(  14)  ---------------------------------------


    POTLOK:  cpu time    0.22: real time    0.22
    SETDIJ:  cpu time    0.01: real time    0.01
     EDDAV:  cpu time    0.73: real time    0.73
       DOS:  cpu time    0.00: real time    0.00
    CHARGE:  cpu time    0.05: real time    0.05
    MIXING:  cpu time    0.01: real time    0.01
    --------------------------------------------
      LOOP:  cpu time    1.02: real time    1.02

 eigenvalue-minimisations  :   320
 total energy-change (2. order) :-0.2439787E+01  (-0.9724212E-01)
 number of electron     121.0000054 magnetization       2.1479294
 augmentation part       58.2725087 magnetization       1.0141642

 Broyden mixing:
  rms(total) = 0.97931E-01    rms(broyden)= 0.97924E-01
  rms(prec ) = 0.10109E+00
  weight for this iteration     100.00

 eigenvalues of (default mixing * dielectric matrix)
  average eigenvalue GAMMA=   1.2537
  3.3821  1.7428  1.3432  1.3432  0.9200  0.7338  0.7338  0.6407  0.4438

 Free energy of the ion-electron system (eV)
  ---------------------------------------------------
  alpha Z        PSCENC =        14.41645445
  Ewald energy   TEWEN  =     12380.42331195
  -Hartree energ DENC   =    -23318.14148362
  -exchange      EXHF   =         0.00000000
  -V(xc)+E(xc)   XCENC  =      -122.52652501
  PAW double counting   =     11880.18334969   -11390.76990806
  entropy T*S    EENTRO =         0.00000000
  eigenvalues    EBANDS =      -866.83613704
  atomic energy  EATOM  =     11409.18493095
  ---------------------------------------------------
  free energy    TOTEN  =       -14.06600669 eV

  energy without entropy =      -14.06600669  energy(sigma->0) =      -14.06600669


--------------------------------------------------------------------------------------------------------




----------------------------------------- Iteration    1(  15)  ---------------------------------------


    POTLOK:  cpu time    0.22: real time    0.22
    SETDIJ:  cpu time    0.00: real time    0.01
     EDDAV:  cpu time    0.73: real time    0.73
       DOS:  cpu time    0.00: real time    0.00
    CHARGE:  cpu time    0.05: real time    0.05
    MIXING:  cpu time    0.01: real time    0.01
    --------------------------------------------
      LOOP:  cpu time    1.02: real time    1.03

 eigenvalue-minimisations  :   320
 total energy-change (2. order) :-0.1881667E+01  (-0.5362542E-01)
 number of electron     121.0000054 magnetization       1.7099110
 augmentation part       58.2650461 magnetization       0.6204323

 Broyden mixing:
  rms(total) = 0.49932E-01    rms(broyden)= 0.49925E-01
  rms(prec ) = 0.53016E-01
  weight for this iteration     100.00

 eigenvalues of (default mixing * dielectric matrix)
  average eigenvalue GAMMA=   1.3564
  3.9181  2.1482  1.7317  1.2057  1.2057  0.4430  0.8521  0.7126  0.7126  0.6344

 Free energy of the ion-electron system (eV)
  ---------------------------------------------------
  alpha Z        PSCENC =        14.41645445
  Ewald energy   TEWEN  =     12380.42331195
  -Hartree energ DENC   =    -23313.45331773
  -exchange      EXHF   =         0.00000000
  -V(xc)+E(xc)   XCENC  =      -124.19161120
  PAW double counting   =     11887.49630828   -11397.76231963
  entropy T*S    EENTRO =         0.00000000
  eigenvalues    EBANDS =      -872.06143058
  atomic energy  EATOM  =     11409.18493095
  ---------------------------------------------------
  free energy    TOTEN  =       -15.94767351 eV

  energy without entropy =      -15.94767351  energy(sigma->0) =      -15.94767351


--------------------------------------------------------------------------------------------------------




----------------------------------------- Iteration    1(  16)  ---------------------------------------


    POTLOK:  cpu time    0.22: real time    0.22
    SETDIJ:  cpu time    0.01: real time    0.01
     EDDAV:  cpu time    0.76: real time    0.76
       DOS:  cpu time    0.00: real time    0.00
    CHARGE:  cpu time    0.05: real time    0.05
    MIXING:  cpu time    0.01: real time    0.01
    --------------------------------------------
      LOOP:  cpu time    1.05: real time    1.05

 eigenvalue-minimisations  :   336
 total energy-change (2. order) :-0.1005881E+01  (-0.2214561E-01)
 number of electron     121.0000054 magnetization       1.4597269
 augmentation part       58.2582460 magnetization       0.3762055

 Broyden mixing:
  rms(total) = 0.34631E-01    rms(broyden)= 0.34623E-01
  rms(prec ) = 0.37364E-01
  weight for this iteration     100.00

 eigenvalues of (default mixing * dielectric matrix)
  average eigenvalue GAMMA=   1.3836
  4.3576  2.6208  1.2729  1.2729  1.4372  1.0642  0.7327  0.7327  0.4430  0.6260
  0.6598

 Free energy of the ion-electron system (eV)
  ---------------------------------------------------
  alpha Z        PSCENC =        14.41645445
  Ewald energy   TEWEN  =     12380.42331195
  -Hartree energ DENC   =    -23306.76706330
  -exchange      EXHF   =         0.00000000
  -V(xc)+E(xc)   XCENC  =      -125.18536775
  PAW double counting   =     11896.35800749   -11406.22972382
  entropy T*S    EENTRO =         0.00000000
  eigenvalues    EBANDS =      -879.15410425
  atomic energy  EATOM  =     11409.18493095
  ---------------------------------------------------
  free energy    TOTEN  =       -16.95355427 eV

  energy without entropy =      -16.95355427  energy(sigma->0) =      -16.95355427


--------------------------------------------------------------------------------------------------------




----------------------------------------- Iteration    1(  17)  ---------------------------------------


    POTLOK:  cpu time    0.22: real time    0.22
    SETDIJ:  cpu time    0.00: real time    0.01
     EDDAV:  cpu time    0.81: real time    0.81
       DOS:  cpu time    0.00: real time    0.00
    CHARGE:  cpu time    0.05: real time    0.05
    MIXING:  cpu time    0.01: real time    0.01
    --------------------------------------------
      LOOP:  cpu time    1.11: real time    1.11

 eigenvalue-minimisations  :   368
 total energy-change (2. order) :-0.2563073E+00  (-0.2407345E-02)
 number of electron     121.0000054 magnetization       1.2302479
 augmentation part       58.2687076 magnetization       0.1627527

 Broyden mixing:
  rms(total) = 0.17646E-01    rms(broyden)= 0.17642E-01
  rms(prec ) = 0.20000E-01
  weight for this iteration     100.00

 eigenvalues of (default mixing * dielectric matrix)
  average eigenvalue GAMMA=   1.4270
  5.0455  2.4434  1.7530  1.3384  1.3384  0.9859  0.9859  0.4429  0.7381  0.7381
  0.6864  0.6275

 Free energy of the ion-electron system (eV)
  ---------------------------------------------------
  alpha Z        PSCENC =        14.41645445
  Ewald energy   TEWEN  =     12380.42331195
  -Hartree energ DENC   =    -23303.56444919
  -exchange      EXHF   =         0.00000000
  -V(xc)+E(xc)   XCENC  =      -125.47020977
  PAW double counting   =     11888.92750966   -11398.76347145
  entropy T*S    EENTRO =         0.00000000
  eigenvalues    EBANDS =      -882.36393819
  atomic energy  EATOM  =     11409.18493095
  ---------------------------------------------------
  free energy    TOTEN  =       -17.20986159 eV

  energy without entropy =      -17.20986159  energy(sigma->0) =      -17.20986159


--------------------------------------------------------------------------------------------------------




----------------------------------------- Iteration    1(  18)  ---------------------------------------


    POTLOK:  cpu time    0.22: real time    0.23
    SETDIJ:  cpu time    0.01: real time    0.01
     EDDAV:  cpu time    0.73: real time    0.73
       DOS:  cpu time    0.00: real time    0.00
    CHARGE:  cpu time    0.05: real time    0.05
    MIXING:  cpu time    0.01: real time    0.01
    --------------------------------------------
      LOOP:  cpu time    1.02: real time    1.03

 eigenvalue-minimisations  :   320
 total energy-change (2. order) :-0.2535422E+00  (-0.1324489E-02)
 number of electron     121.0000054 magnetization       1.1436750
 augmentation part       58.2746816 magnetization       0.0848655

 Broyden mixing:
  rms(total) = 0.88716E-02    rms(broyden)= 0.88685E-02
  rms(prec ) = 0.11044E-01
  weight for this iteration     100.00

 eigenvalues of (default mixing * dielectric matrix)
  average eigenvalue GAMMA=   1.4825
  5.3021  2.8624  2.2123  1.3626  1.3626  1.0267  1.0267  0.4428  0.8970  0.7455
  0.7455  0.6484  0.6384

 Free energy of the ion-electron system (eV)
  ---------------------------------------------------
  alpha Z        PSCENC =        14.41645445
  Ewald energy   TEWEN  =     12380.42331195
  -Hartree energ DENC   =    -23300.39905266
  -exchange      EXHF   =         0.00000000
  -V(xc)+E(xc)   XCENC  =      -125.75727862
  PAW double counting   =     11886.09430181   -11395.95788509
  entropy T*S    EENTRO =         0.00000000
  eigenvalues    EBANDS =      -885.46818658
  atomic energy  EATOM  =     11409.18493095
  ---------------------------------------------------
  free energy    TOTEN  =       -17.46340379 eV

  energy without entropy =      -17.46340379  energy(sigma->0) =      -17.46340379


--------------------------------------------------------------------------------------------------------




----------------------------------------- Iteration    1(  19)  ---------------------------------------


    POTLOK:  cpu time    0.23: real time    0.23
    SETDIJ:  cpu time    0.00: real time    0.01
     EDDAV:  cpu time    0.77: real time    0.77
       DOS:  cpu time    0.00: real time    0.00
    CHARGE:  cpu time    0.05: real time    0.05
    MIXING:  cpu time    0.01: real time    0.01
    --------------------------------------------
      LOOP:  cpu time    1.06: real time    1.07

 eigenvalue-minimisations  :   344
 total energy-change (2. order) :-0.1391806E+00  (-0.5147563E-03)
 number of electron     121.0000054 magnetization       1.0599525
 augmentation part       58.2725701 magnetization       0.0006595

 Broyden mixing:
  rms(total) = 0.53721E-02    rms(broyden)= 0.53710E-02
  rms(prec ) = 0.71014E-02
  weight for this iteration     100.00

 eigenvalues of (default mixing * dielectric matrix)
  average eigenvalue GAMMA=   1.5103
  5.7750  3.1927  1.8595  1.8595  1.3175  1.3175  0.9520  0.9520  0.4429  0.7139
  0.7139  0.7843  0.6320  0.6320

 Free energy of the ion-electron system (eV)
  ---------------------------------------------------
  alpha Z        PSCENC =        14.41645445
  Ewald energy   TEWEN  =     12380.42331195
  -Hartree energ DENC   =    -23298.13570811
  -exchange      EXHF   =         0.00000000
  -V(xc)+E(xc)   XCENC  =      -125.91403442
  PAW double counting   =     11885.62137873   -11395.48114928
  entropy T*S    EENTRO =         0.00000000
  eigenvalues    EBANDS =      -887.71776862
  atomic energy  EATOM  =     11409.18493095
  ---------------------------------------------------
  free energy    TOTEN  =       -17.60258434 eV

  energy without entropy =      -17.60258434  energy(sigma->0) =      -17.60258434


--------------------------------------------------------------------------------------------------------




----------------------------------------- Iteration    1(  20)  ---------------------------------------


    POTLOK:  cpu time    0.22: real time    0.23
    SETDIJ:  cpu time    0.01: real time    0.01
     EDDAV:  cpu time    0.73: real time    0.73
       DOS:  cpu time    0.00: real time    0.00
    CHARGE:  cpu time    0.05: real time    0.05
    MIXING:  cpu time    0.01: real time    0.01
    --------------------------------------------
      LOOP:  cpu time    1.03: real time    1.03

 eigenvalue-minimisations  :   320
 total energy-change (2. order) :-0.4411651E-01  (-0.2236607E-03)
 number of electron     121.0000054 magnetization       1.0209899
 augmentation part       58.2753501 magnetization      -0.0358491

 Broyden mixing:
  rms(total) = 0.31137E-02    rms(broyden)= 0.31131E-02
  rms(prec ) = 0.46508E-02
  weight for this iteration     100.00

 eigenvalues of (default mixing * dielectric matrix)
  average eigenvalue GAMMA=   1.5346
  6.1291  3.1399  2.4345  1.7527  1.3402  1.3402  0.9972  0.9972  1.0194  0.4429
  0.7299  0.7299  0.6879  0.6600  0.6184

 Free energy of the ion-electron system (eV)
  ---------------------------------------------------
  alpha Z        PSCENC =        14.41645445
  Ewald energy   TEWEN  =     12380.42331195
  -Hartree energ DENC   =    -23296.50694414
  -exchange      EXHF   =         0.00000000
  -V(xc)+E(xc)   XCENC  =      -125.97585460
  PAW double counting   =     11884.90609092   -11394.75914675
  entropy T*S    EENTRO =         0.00000000
  eigenvalues    EBANDS =      -889.33554364
  atomic energy  EATOM  =     11409.18493095
  ---------------------------------------------------
  free energy    TOTEN  =       -17.64670085 eV

  energy without entropy =      -17.64670085  energy(sigma->0) =      -17.64670085


--------------------------------------------------------------------------------------------------------




----------------------------------------- Iteration    1(  21)  ---------------------------------------


    POTLOK:  cpu time    0.22: real time    0.22
    SETDIJ:  cpu time    0.00: real time    0.01
     EDDAV:  cpu time    0.66: real time    0.65
       DOS:  cpu time    0.00: real time    0.00
    CHARGE:  cpu time    0.05: real time    0.05
    MIXING:  cpu time    0.01: real time    0.01
    --------------------------------------------
      LOOP:  cpu time    0.95: real time    0.95

 eigenvalue-minimisations  :   272
 total energy-change (2. order) :-0.1610038E-01  (-0.1043507E-03)
 number of electron     121.0000054 magnetization       1.0063984
 augmentation part       58.2746750 magnetization      -0.0497943

 Broyden mixing:
  rms(total) = 0.16753E-02    rms(broyden)= 0.16749E-02
  rms(prec ) = 0.29573E-02
  weight for this iteration     100.00

 eigenvalues of (default mixing * dielectric matrix)
  average eigenvalue GAMMA=   1.5451
  6.2703  3.1237  3.0034  1.7587  1.3468  1.3468  1.2285  1.0161  1.0161  0.4429
  0.7607  0.7607  0.6951  0.6951  0.6186  0.6374

 Free energy of the ion-electron system (eV)
  ---------------------------------------------------
  alpha Z        PSCENC =        14.41645445
  Ewald energy   TEWEN  =     12380.42331195
  -Hartree energ DENC   =    -23295.47440202
  -exchange      EXHF   =         0.00000000
  -V(xc)+E(xc)   XCENC  =      -125.99840188
  PAW double counting   =     11886.25259346   -11396.12682279
  entropy T*S    EENTRO =         0.00000000
  eigenvalues    EBANDS =      -890.34046535
  atomic energy  EATOM  =     11409.18493095
  ---------------------------------------------------
  free energy    TOTEN  =       -17.66280123 eV

  energy without entropy =      -17.66280123  energy(sigma->0) =      -17.66280123


--------------------------------------------------------------------------------------------------------




----------------------------------------- Iteration    1(  22)  ---------------------------------------


    POTLOK:  cpu time    0.22: real time    0.22
    SETDIJ:  cpu time    0.01: real time    0.01
     EDDAV:  cpu time    0.60: real time    0.60
       DOS:  cpu time    0.00: real time    0.00
    CHARGE:  cpu time    0.05: real time    0.05
    MIXING:  cpu time    0.01: real time    0.01
    --------------------------------------------
      LOOP:  cpu time    0.90: real time    0.91

 eigenvalue-minimisations  :   240
 total energy-change (2. order) :-0.2216845E-02  (-0.4477817E-04)
 number of electron     121.0000054 magnetization       1.0005797
 augmentation part       58.2747773 magnetization      -0.0554389

 Broyden mixing:
  rms(total) = 0.14619E-02    rms(broyden)= 0.14618E-02
  rms(prec ) = 0.22525E-02
  weight for this iteration     100.00

 eigenvalues of (default mixing * dielectric matrix)
  average eigenvalue GAMMA=   1.5772
  6.4048  3.5845  3.0313  2.1410  1.3459  1.3459  1.3098  1.3098  0.8922  0.8922
  0.4429  0.7907  0.7110  0.7110  0.6418  0.6286  0.6286

 Free energy of the ion-electron system (eV)
  ---------------------------------------------------
  alpha Z        PSCENC =        14.41645445
  Ewald energy   TEWEN  =     12380.42331195
  -Hartree energ DENC   =    -23294.64782220
  -exchange      EXHF   =         0.00000000
  -V(xc)+E(xc)   XCENC  =      -126.00502909
  PAW double counting   =     11886.80343102   -11396.68249104
  entropy T*S    EENTRO =         0.00000000
  eigenvalues    EBANDS =      -891.15780412
  atomic energy  EATOM  =     11409.18493095
  ---------------------------------------------------
  free energy    TOTEN  =       -17.66501807 eV

  energy without entropy =      -17.66501807  energy(sigma->0) =      -17.66501807


--------------------------------------------------------------------------------------------------------




----------------------------------------- Iteration    1(  23)  ---------------------------------------


    POTLOK:  cpu time    0.22: real time    0.22
    SETDIJ:  cpu time    0.01: real time    0.01
     EDDAV:  cpu time    0.62: real time    0.62
       DOS:  cpu time    0.00: real time    0.00
    CHARGE:  cpu time    0.05: real time    0.05
    MIXING:  cpu time    0.01: real time    0.01
    --------------------------------------------
      LOOP:  cpu time    0.91: real time    0.92

 eigenvalue-minimisations  :   248
 total energy-change (2. order) :-0.3876284E-03  (-0.2435153E-04)
 number of electron     121.0000054 magnetization       1.0025235
 augmentation part       58.2753073 magnetization      -0.0535386

 Broyden mixing:
  rms(total) = 0.11185E-02    rms(broyden)= 0.11184E-02
  rms(prec ) = 0.15864E-02
  weight for this iteration     100.00

 eigenvalues of (default mixing * dielectric matrix)
  average eigenvalue GAMMA=   1.6015
  6.4509  4.1279  2.9815  2.1011  1.7537  1.3368  1.3368  1.3643  0.9869  0.9869
  0.4429  0.8059  0.8059  0.7207  0.7207  0.6215  0.6215  0.6617

 Free energy of the ion-electron system (eV)
  ---------------------------------------------------
  alpha Z        PSCENC =        14.41645445
  Ewald energy   TEWEN  =     12380.42331195
  -Hartree energ DENC   =    -23293.90883339
  -exchange      EXHF   =         0.00000000
  -V(xc)+E(xc)   XCENC  =      -126.01034374
  PAW double counting   =     11887.01797137   -11396.89029261
  entropy T*S    EENTRO =         0.00000000
  eigenvalues    EBANDS =      -891.89860468
  atomic energy  EATOM  =     11409.18493095
  ---------------------------------------------------
  free energy    TOTEN  =       -17.66540570 eV

  energy without entropy =      -17.66540570  energy(sigma->0) =      -17.66540570


--------------------------------------------------------------------------------------------------------




----------------------------------------- Iteration    1(  24)  ---------------------------------------


    POTLOK:  cpu time    0.22: real time    0.22
    SETDIJ:  cpu time    0.00: real time    0.01
     EDDAV:  cpu time    0.60: real time    0.60
       DOS:  cpu time    0.00: real time    0.00
    CHARGE:  cpu time    0.05: real time    0.05
    MIXING:  cpu time    0.01: real time    0.01
    --------------------------------------------
      LOOP:  cpu time    0.90: real time    0.90

 eigenvalue-minimisations  :   240
 total energy-change (2. order) :-0.1760674E-02  (-0.1158604E-04)
 number of electron     121.0000054 magnetization       1.0037384
 augmentation part       58.2754117 magnetization      -0.0525448

 Broyden mixing:
  rms(total) = 0.67097E-03    rms(broyden)= 0.67092E-03
  rms(prec ) = 0.95951E-03
  weight for this iteration     100.00

 eigenvalues of (default mixing * dielectric matrix)
  average eigenvalue GAMMA=   1.6401
  6.3715  4.8250  2.7640  2.3938  2.3938  1.3489  1.3489  1.2388  1.2388  0.8961
  0.8961  0.9417  0.4429  0.7196  0.7196  0.7099  0.6653  0.6215  0.6256

 Free energy of the ion-electron system (eV)
  ---------------------------------------------------
  alpha Z        PSCENC =        14.41645445
  Ewald energy   TEWEN  =     12380.42331195
  -Hartree energ DENC   =    -23293.30532133
  -exchange      EXHF   =         0.00000000
  -V(xc)+E(xc)   XCENC  =      -126.01609086
  PAW double counting   =     11887.34166805   -11397.20858021
  entropy T*S    EENTRO =         0.00000000
  eigenvalues    EBANDS =      -892.50353938
  atomic energy  EATOM  =     11409.18493095
  ---------------------------------------------------
  free energy    TOTEN  =       -17.66716637 eV

  energy without entropy =      -17.66716637  energy(sigma->0) =      -17.66716637


--------------------------------------------------------------------------------------------------------




----------------------------------------- Iteration    1(  25)  ---------------------------------------


    POTLOK:  cpu time    0.22: real time    0.22
    SETDIJ:  cpu time    0.00: real time    0.01
     EDDAV:  cpu time    0.58: real time    0.58
       DOS:  cpu time    0.00: real time    0.00
    CHARGE:  cpu time    0.05: real time    0.05
    MIXING:  cpu time    0.02: real time    0.01
    --------------------------------------------
      LOOP:  cpu time    0.88: real time    1.35

 eigenvalue-minimisations  :   224
 total energy-change (2. order) :-0.1163662E-02  (-0.5212609E-05)
 number of electron     121.0000054 magnetization       1.0011688
 augmentation part       58.2755639 magnetization      -0.0549963

 Broyden mixing:
  rms(total) = 0.60286E-03    rms(broyden)= 0.60283E-03
  rms(prec ) = 0.74468E-03
  weight for this iteration     100.00

 eigenvalues of (default mixing * dielectric matrix)
  average eigenvalue GAMMA=   1.6853
  6.0268  6.0268  2.6958  2.6958  2.6054  1.3396  1.3396  1.4363  1.4363  0.9684
  0.9684  0.9207  0.4429  0.7470  0.7470  0.7118  0.7118  0.6238  0.6238  0.6388

 Free energy of the ion-electron system (eV)
  ---------------------------------------------------
  alpha Z        PSCENC =        14.41645445
  Ewald energy   TEWEN  =     12380.42331195
  -Hartree energ DENC   =    -23292.98071661
  -exchange      EXHF   =         0.00000000
  -V(xc)+E(xc)   XCENC  =      -126.01942717
  PAW double counting   =     11887.32788031   -11397.19490956
  entropy T*S    EENTRO =         0.00000000
  eigenvalues    EBANDS =      -892.82585436
  atomic energy  EATOM  =     11409.18493095
  ---------------------------------------------------
  free energy    TOTEN  =       -17.66833004 eV

  energy without entropy =      -17.66833004  energy(sigma->0) =      -17.66833004


--------------------------------------------------------------------------------------------------------




----------------------------------------- Iteration    1(  26)  ---------------------------------------


    POTLOK:  cpu time    0.22: real time    0.22
    SETDIJ:  cpu time    0.00: real time    0.01
     EDDAV:  cpu time    0.60: real time    0.61
       DOS:  cpu time    0.00: real time    0.00
    --------------------------------------------
      LOOP:  cpu time    0.84: real time    0.84

 eigenvalue-minimisations  :   240
 total energy-change (2. order) :-0.9591547E-04  (-0.1335309E-05)
 number of electron     121.0000054 magnetization       1.0011688
 augmentation part       58.2755639 magnetization      -0.0549963

 Free energy of the ion-electron system (eV)
  ---------------------------------------------------
  alpha Z        PSCENC =        14.41645445
  Ewald energy   TEWEN  =     12380.42331195
  -Hartree energ DENC   =    -23292.84398921
  -exchange      EXHF   =         0.00000000
  -V(xc)+E(xc)   XCENC  =      -126.02043457
  PAW double counting   =     11887.16123034   -11397.03062480
  entropy T*S    EENTRO =        -0.00000000
  eigenvalues    EBANDS =      -892.95930507
  atomic energy  EATOM  =     11409.18493095
  ---------------------------------------------------
  free energy    TOTEN  =       -17.66842595 eV

  energy without entropy =      -17.66842595  energy(sigma->0) =      -17.66842595


--------------------------------------------------------------------------------------------------------




 average (electrostatic) potential at core
  the test charge radii are     1.1249
  (the norm of the test charge is              1.0000)
       1 -81.7213       2 -82.2532       3 -82.3766       4 -82.2951       5 -82.3861
       6 -82.3036       7 -83.3522       8 -82.2660       9 -82.0266      10 -82.2474
      11 -82.2824
 
 
 
 E-fermi :  -3.3016     XC(G=0):  -0.7019     alpha+bet : -0.3537


 spin component 1

 k-point     1 :       0.0000    0.0000    0.0000
  band No.  band energies     occupation 
      1      -9.9080      1.00000
      2      -9.8600      1.00000
      3      -9.8383      1.00000
      4      -9.7917      1.00000
      5      -9.7634      1.00000
      6      -9.4760      1.00000
      7      -8.6574      1.00000
      8      -8.5195      1.00000
      9      -8.4116      1.00000
     10      -8.2968      1.00000
     11      -8.2542      1.00000
     12      -8.1409      1.00000
     13      -8.0801      1.00000
     14      -8.0679      1.00000
     15      -8.0560      1.00000
     16      -8.0098      1.00000
     17      -7.9197      1.00000
     18      -7.9024      1.00000
     19      -7.8737      1.00000
     20      -7.8078      1.00000
     21      -7.7336      1.00000
     22      -7.6396      1.00000
     23      -7.6233      1.00000
     24      -7.6109      1.00000
     25      -7.5892      1.00000
     26      -7.4605      1.00000
     27      -7.4197      1.00000
     28      -7.3740      1.00000
     29      -7.3633      1.00000
     30      -7.3210      1.00000
     31      -7.2613      1.00000
     32      -7.2522      1.00000
     33      -7.2240      1.00000
     34      -7.2118      1.00000
     35      -7.1433      1.00000
     36      -7.0781      1.00000
     37      -7.0766      1.00000
     38      -7.0211      1.00000
     39      -6.9282      1.00000
     40      -6.9251      1.00000
     41      -6.9132      1.00000
     42      -6.8927      1.00000
     43      -6.8024      1.00000
     44      -6.7953      1.00000
     45      -6.7881      1.00000
     46      -6.7775      1.00000
     47      -6.7309      1.00000
     48      -6.7232      1.00000
     49      -6.7157      1.00000
     50      -6.6589      1.00000
     51      -6.5937      1.00000
     52      -6.5214      1.00000
     53      -6.5105      1.00000
     54      -6.4948      1.00000
     55      -6.3840      1.00000
     56      -6.2641      1.00000
     57      -5.9199      1.00000
     58      -5.4021      1.00000
     59      -4.8441      1.00000
     60      -3.9395      1.00000
     61      -3.3029      1.00000
     62      -2.9689      0.00000
     63      -2.7812      0.00000
     64      -2.7519      0.00000
     65      -2.1584      0.00000
     66      -1.9442      0.00000
     67      -1.0966      0.00000
     68      -1.0063      0.00000
     69      -0.9702      0.00000
     70      -0.7437      0.00000
     71      -0.7318      0.00000
     72      -0.5721      0.00000
     73      -0.5701      0.00000
     74      -0.4481      0.00000
     75      -0.3468      0.00000
     76       0.2548      0.00000
     77       0.3371      0.00000
     78       0.4359      0.00000
     79       0.4991      0.00000
     80       0.6908      0.00000

 spin component 2

 k-point     1 :       0.0000    0.0000    0.0000
  band No.  band energies     occupation 
      1      -9.8961      1.00000
      2      -9.8317      1.00000
      3      -9.8242      1.00000
      4      -9.7754      1.00000
      5      -9.7542      1.00000
      6      -9.4683      1.00000
      7      -8.6372      1.00000
      8      -8.5012      1.00000
      9      -8.3899      1.00000
     10      -8.2614      1.00000
     11      -8.2244      1.00000
     12      -8.1224      1.00000
     13      -8.0538      1.00000
     14      -8.0481      1.00000
     15      -8.0218      1.00000
     16      -7.9842      1.00000
     17      -7.8986      1.00000
     18      -7.8709      1.00000
     19      -7.8469      1.00000
     20      -7.7720      1.00000
     21      -7.7137      1.00000
     22      -7.6094      1.00000
     23      -7.5995      1.00000
     24      -7.5936      1.00000
     25      -7.5624      1.00000
     26      -7.4457      1.00000
     27      -7.3877      1.00000
     28      -7.3563      1.00000
     29      -7.3292      1.00000
     30      -7.2966      1.00000
     31      -7.2391      1.00000
     32      -7.2204      1.00000
     33      -7.2021      1.00000
     34      -7.1928      1.00000
     35      -7.1164      1.00000
     36      -7.0598      1.00000
     37      -7.0501      1.00000
     38      -6.9930      1.00000
     39      -6.9150      1.00000
     40      -6.8971      1.00000
     41      -6.8942      1.00000
     42      -6.8708      1.00000
     43      -6.7850      1.00000
     44      -6.7792      1.00000
     45      -6.7658      1.00000
     46      -6.7548      1.00000
     47      -6.7149      1.00000
     48      -6.7082      1.00000
     49      -6.7054      1.00000
     50      -6.6417      1.00000
     51      -6.5600      1.00000
     52      -6.5044      1.00000
     53      -6.5020      1.00000
     54      -6.4703      1.00000
     55      -6.3686      1.00000
     56      -6.2445      1.00000
     57      -5.8403      1.00000
     58      -5.3171      1.00000
     59      -4.8096      1.00000
     60      -3.8928      1.00000
     61      -3.0839      0.00000
     62      -2.9023      0.00000
     63      -2.6998      0.00000
     64      -2.6394      0.00000
     65      -2.0869      0.00000
     66      -1.9027      0.00000
     67      -0.9582      0.00000
     68      -0.9473      0.00000
     69      -0.8211      0.00000
     70      -0.6263      0.00000
     71      -0.5961      0.00000
     72      -0.5134      0.00000
     73      -0.5054      0.00000
     74      -0.3542      0.00000
     75      -0.2498      0.00000
     76       0.2557      0.00000
     77       0.3763      0.00000
     78       0.5107      0.00000
     79       0.5254      0.00000
     80       0.6989      0.00000


--------------------------------------------------------------------------------------------------------


 soft charge-density along one line, spin component           1
         0         1         2         3         4         5         6         7         8         9
 total charge-density along one line
 
 soft charge-density along one line, spin component           2
         0         1         2         3         4         5         6         7         8         9
 total charge-density along one line
 
 pseudopotential strength for first ion, spin component:           1
-10.064   0.012  -0.015   0.009   0.001 -10.049   0.012  -0.014
  0.012 -10.067   0.008   0.011  -0.011   0.012 -10.052   0.008
 -0.015   0.008 -10.057   0.003  -0.005  -0.014   0.008 -10.043
  0.009   0.011   0.003 -10.057   0.004   0.008   0.011   0.002
  0.001  -0.011  -0.005   0.004 -10.062   0.001  -0.010  -0.005
-10.049   0.012  -0.014   0.008   0.001 -10.010   0.011  -0.013
  0.012 -10.052   0.008   0.011  -0.010   0.011 -10.013   0.007
 -0.014   0.008 -10.043   0.002  -0.005  -0.013   0.007 -10.003
  0.008   0.011   0.002 -10.042   0.004   0.008   0.010   0.002
  0.001  -0.010  -0.005   0.004 -10.047   0.001  -0.010  -0.004
 -0.006  -0.005  -0.001  -0.002  -0.002  -0.005  -0.005  -0.001
 -0.009  -0.008  -0.002  -0.003  -0.004  -0.009  -0.008  -0.002
  0.014   0.012   0.013  -0.000   0.022   0.013   0.012   0.012
 -0.000  -0.022   0.015   0.014   0.000  -0.000  -0.021   0.014
 -0.022  -0.000  -0.008   0.013   0.015  -0.021  -0.000  -0.008
  0.017   0.015   0.015  -0.000   0.026   0.016   0.014   0.015
 -0.000  -0.026   0.018   0.017   0.000  -0.000  -0.026   0.017
 -0.026  -0.000  -0.010   0.015   0.018  -0.026  -0.000  -0.010
 pseudopotential strength for first ion, spin component:           2
-10.063   0.012  -0.015   0.007   0.000 -10.048   0.012  -0.015
  0.012 -10.066   0.007   0.010  -0.012   0.012 -10.051   0.007
 -0.015   0.007 -10.056   0.004  -0.004  -0.015   0.007 -10.041
  0.007   0.010   0.004 -10.053   0.006   0.007   0.010   0.003
  0.000  -0.012  -0.004   0.006 -10.058   0.000  -0.011  -0.004
-10.048   0.012  -0.015   0.007   0.000 -10.009   0.011  -0.014
  0.012 -10.051   0.007   0.010  -0.011   0.011 -10.012   0.007
 -0.015   0.007 -10.041   0.003  -0.004  -0.014   0.007 -10.002
  0.007   0.010   0.003 -10.039   0.006   0.007   0.009   0.003
  0.000  -0.011  -0.004   0.006 -10.043   0.000  -0.011  -0.003
 -0.006  -0.005  -0.001  -0.003  -0.002  -0.005  -0.005  -0.001
 -0.009  -0.008  -0.001  -0.004  -0.003  -0.009  -0.008  -0.001
  0.014   0.012   0.013  -0.000   0.023   0.013   0.012   0.013
 -0.000  -0.022   0.015   0.015   0.001  -0.000  -0.022   0.014
 -0.022  -0.000  -0.008   0.013   0.015  -0.022  -0.000  -0.008
  0.017   0.015   0.016  -0.000   0.027   0.016   0.014   0.015
 -0.000  -0.027   0.018   0.019   0.001  -0.000  -0.026   0.018
 -0.027  -0.000  -0.010   0.016   0.019  -0.026  -0.000  -0.010
 total augmentation occupancy for first ion, spin component:           1
  2.325   0.136   0.023  -0.065   0.017  -0.357  -0.069  -0.078   0.068  -0.007   0.375  -0.088   0.049  -0.027  -0.053   0.004
  0.136   2.286   0.016  -0.056   0.014  -0.069  -0.335   0.023   0.075  -0.058   0.324  -0.075   0.042  -0.045  -0.027   0.003
  0.023   0.016   2.285   0.015   0.071  -0.078   0.023  -0.248  -0.026  -0.076   0.091  -0.029   0.036   0.009  -0.007   0.006
 -0.065  -0.056   0.015   2.252   0.035   0.068   0.075  -0.026  -0.241  -0.057   0.023  -0.003   0.003   0.026   0.027   0.000
  0.017   0.014   0.071   0.035   2.381  -0.007  -0.058  -0.076  -0.057  -0.358   0.156  -0.049   0.062   0.003   0.013   0.010
 -0.357  -0.069  -0.078   0.068  -0.007   0.361   0.015   0.124  -0.072   0.000  -0.307   0.064  -0.063   0.012   0.083   0.005
 -0.069  -0.335   0.023   0.075  -0.058   0.015   0.353  -0.055  -0.091   0.095  -0.264   0.055  -0.054   0.078   0.012   0.005
 -0.078   0.023  -0.248  -0.026  -0.076   0.124  -0.055   0.195   0.034   0.081  -0.081   0.026  -0.046  -0.025   0.020   0.003
  0.068   0.075  -0.026  -0.241  -0.057  -0.072  -0.091   0.034   0.209   0.073  -0.004  -0.013  -0.010  -0.039  -0.037   0.000
 -0.007  -0.058  -0.076  -0.057  -0.358   0.000   0.095   0.081   0.073   0.317  -0.135   0.039  -0.081   0.001  -0.027   0.005
  0.375   0.324   0.091   0.023   0.156  -0.307  -0.264  -0.081  -0.004  -0.135   1.657  -0.140   0.166  -0.079  -0.093  -0.015
 -0.088  -0.075  -0.029  -0.003  -0.049   0.064   0.055   0.026  -0.013   0.039  -0.140   0.029  -0.031   0.014   0.016   0.002
  0.049   0.042   0.036   0.003   0.062  -0.063  -0.054  -0.046  -0.010  -0.081   0.166  -0.031   0.043  -0.009  -0.011  -0.004
 -0.027  -0.045   0.009   0.026   0.003   0.012   0.078  -0.025  -0.039   0.001  -0.079   0.014  -0.009   0.024   0.009   0.001
 -0.053  -0.027  -0.007   0.027   0.013   0.083   0.012   0.020  -0.037  -0.027  -0.093   0.016  -0.011   0.009   0.027   0.001
  0.004   0.003   0.006   0.000   0.010   0.005   0.005   0.003   0.000   0.005  -0.015   0.002  -0.004   0.001   0.001   0.000
  0.002  -0.010   0.008   0.007   0.001  -0.001  -0.006   0.001   0.002  -0.001   0.007  -0.001   0.001  -0.002  -0.000  -0.000
 -0.010   0.002  -0.004   0.006   0.009  -0.006  -0.001  -0.002   0.002   0.001   0.009  -0.001   0.001  -0.000  -0.002  -0.000
 total augmentation occupancy for first ion, spin component:           2
  0.002   0.003  -0.008  -0.029  -0.026  -0.003  -0.003   0.007   0.021   0.020  -0.011  -0.001  -0.006  -0.006  -0.007   0.000
  0.003   0.000  -0.010  -0.025  -0.020  -0.003  -0.002   0.007   0.018   0.016  -0.010  -0.001  -0.005  -0.005  -0.006   0.000
 -0.008  -0.010   0.004   0.021   0.026   0.007   0.007  -0.005  -0.016  -0.020   0.006   0.000   0.005   0.007   0.007  -0.000
 -0.029  -0.025   0.021   0.046   0.051   0.021   0.018  -0.016  -0.037  -0.040  -0.000   0.003   0.011   0.016   0.018  -0.000
 -0.026  -0.020   0.026   0.051   0.052   0.020   0.016  -0.020  -0.040  -0.041   0.010   0.001   0.012   0.016   0.019  -0.000
 -0.003  -0.003   0.007   0.021   0.020   0.005   0.003  -0.006  -0.015  -0.015   0.011   0.000   0.005   0.005   0.005  -0.000
 -0.003  -0.002   0.007   0.018   0.016   0.003   0.003  -0.005  -0.013  -0.013   0.009   0.000   0.004   0.004   0.005  -0.000
  0.007   0.007  -0.005  -0.016  -0.020  -0.006  -0.005   0.006   0.013   0.014  -0.004  -0.000  -0.004  -0.005  -0.006   0.000
  0.021   0.018  -0.016  -0.037  -0.040  -0.015  -0.013   0.013   0.031   0.032   0.000  -0.002  -0.009  -0.012  -0.013   0.000
  0.020   0.016  -0.020  -0.040  -0.041  -0.015  -0.013   0.014   0.032   0.033  -0.007  -0.001  -0.009  -0.012  -0.014   0.000
 -0.011  -0.010   0.006  -0.000   0.010   0.011   0.009  -0.004   0.000  -0.007   0.001  -0.002   0.004   0.004   0.005  -0.000
 -0.001  -0.001   0.000   0.003   0.001   0.000   0.000  -0.000  -0.002  -0.001  -0.002   0.000   0.000   0.000   0.000   0.000
 -0.006  -0.005   0.005   0.011   0.012   0.005   0.004  -0.004  -0.009  -0.009   0.004   0.000   0.003   0.003   0.004  -0.000
 -0.006  -0.005   0.007   0.016   0.016   0.005   0.004  -0.005  -0.012  -0.012   0.004   0.000   0.003   0.004   0.005  -0.000
 -0.007  -0.006   0.007   0.018   0.019   0.005   0.005  -0.006  -0.013  -0.014   0.005   0.000   0.004   0.005   0.005  -0.000
  0.000   0.000  -0.000  -0.000  -0.000  -0.000  -0.000   0.000   0.000   0.000  -0.000   0.000  -0.000  -0.000  -0.000   0.000
  0.000   0.000  -0.000  -0.000  -0.000  -0.000  -0.000   0.000   0.000   0.000  -0.000  -0.000  -0.000  -0.000  -0.000   0.000
  0.000   0.000  -0.000  -0.000  -0.000  -0.000  -0.000   0.000   0.000   0.000  -0.000  -0.000  -0.000  -0.000  -0.000   0.000


------------------------ aborting loop because EDIFF is reached ----------------------------------------


[...]
     26      -7.5508      1.00000
     27      -7.5038      1.00000
     28      -7.4787      1.00000
     29      -7.3921      1.00000
     30      -7.3325      1.00000
     31      -7.3221      1.00000
     32      -7.2759      1.00000
     33      -7.2426      1.00000
     34      -7.2168      1.00000
     35      -7.1842      1.00000
     36      -7.1244      1.00000
     37      -7.0968      1.00000
     38      -7.0825      1.00000
     39      -7.0682      1.00000
     40      -7.0328      1.00000
     41      -7.0111      1.00000
     42      -6.9846      1.00000
     43      -6.9593      1.00000
     44      -6.9236      1.00000
     45      -6.9051      1.00000
     46      -6.8583      1.00000
     47      -6.8209      1.00000
     48      -6.7890      1.00000
     49      -6.7749      1.00000
     50      -6.7411      1.00000
     51      -6.6881      1.00000
     52      -6.6784      1.00000
     53      -6.6171      1.00000
     54      -6.5900      1.00000
     55      -6.5436      1.00000
     56      -6.4824      1.00000
     57      -6.0025      1.00000
     58      -5.6513      1.00000
     59      -4.6033      1.00000
     60      -4.2258      1.00000
     61      -3.5945      1.00000
     62      -3.1285      0.00000
     63      -2.7684      0.00000
     64      -2.6520      0.00000
     65      -2.1378      0.00000
     66      -1.8958      0.00000
     67      -1.5643      0.00000
     68      -1.1831      0.00000
     69      -1.0665      0.00000
     70      -0.9071      0.00000
     71      -0.5921      0.00000
     72      -0.4525      0.00000
     73      -0.4365      0.00000
     74      -0.0859      0.00000
     75      -0.0285      0.00000
     76       0.2273      0.00000
     77       0.2456      0.00000
     78       0.5006      0.00000
     79       0.5253      0.00000
     80       0.5633      0.00000

 spin component 2

 k-point     1 :       0.0000    0.0000    0.0000
  band No.  band energies     occupation 
      1      -9.2842      1.00000
      2      -9.0244      1.00000
      3      -9.0163      1.00000
      4      -8.9572      1.00000
      5      -8.9301      1.00000
      6      -8.8557      1.00000
      7      -8.7624      1.00000
      8      -8.5619      1.00000
      9      -8.5392      1.00000
     10      -8.4868      1.00000
     11      -8.4713      1.00000
     12      -8.3778      1.00000
     13      -8.3657      1.00000
     14      -8.2311      1.00000
     15      -8.2051      1.00000
     16      -8.1397      1.00000
     17      -8.1038      1.00000
     18      -8.0882      1.00000
     19      -8.0103      1.00000
     20      -7.9395      1.00000
     21      -7.8749      1.00000
     22      -7.8360      1.00000
     23      -7.7284      1.00000
     24      -7.6755      1.00000
     25      -7.6476      1.00000
     26      -7.5270      1.00000
     27      -7.4847      1.00000
     28      -7.4582      1.00000
     29      -7.3743      1.00000
     30      -7.3134      1.00000
     31      -7.2945      1.00000
     32      -7.2581      1.00000
     33      -7.2202      1.00000
     34      -7.1954      1.00000
     35      -7.1679      1.00000
     36      -7.0983      1.00000
     37      -7.0724      1.00000
     38      -7.0593      1.00000
     39      -7.0382      1.00000
     40      -7.0147      1.00000
     41      -6.9933      1.00000
     42      -6.9678      1.00000
     43      -6.9435      1.00000
     44      -6.9054      1.00000
     45      -6.8855      1.00000
     46      -6.8387      1.00000
     47      -6.8014      1.00000
     48      -6.7682      1.00000
     49      -6.7518      1.00000
     50      -6.7232      1.00000
     51      -6.6676      1.00000
     52      -6.6438      1.00000
     53      -6.5792      1.00000
     54      -6.5732      1.00000
     55      -6.5294      1.00000
     56      -6.4590      1.00000
     57      -5.9399      1.00000
     58      -5.5542      1.00000
     59      -4.5656      1.00000
     60      -4.1693      1.00000
     61      -3.3641      0.00000
     62      -3.0635      0.00000
     63      -2.6921      0.00000
     64      -2.5888      0.00000
     65      -2.0732      0.00000
     66      -1.8082      0.00000
     67      -1.4517      0.00000
     68      -1.0420      0.00000
     69      -0.9871      0.00000
     70      -0.8340      0.00000
     71      -0.5014      0.00000
     72      -0.4016      0.00000
     73      -0.3172      0.00000
     74      -0.0040      0.00000
     75       0.0627      0.00000
     76       0.2605      0.00000
     77       0.3337      0.00000
     78       0.5324      0.00000
     79       0.5358      0.00000
     80       0.6019      0.00000


--------------------------------------------------------------------------------------------------------


 soft charge-density along one line, spin component           1
         0         1         2         3         4         5         6         7         8         9
 total charge-density along one line
 
 soft charge-density along one line, spin component           2
         0         1         2         3         4         5         6         7         8         9
 total charge-density along one line
 
 pseudopotential strength for first ion, spin component:           1
-10.240   0.000   0.003   0.013  -0.002 -10.218   0.000   0.002
  0.000 -10.248   0.009   0.004  -0.007   0.000 -10.225   0.008
  0.003   0.009 -10.233  -0.004  -0.014   0.002   0.008 -10.211
  0.013   0.004  -0.004 -10.224  -0.002   0.013   0.004  -0.004
 -0.002  -0.007  -0.014  -0.002 -10.234  -0.002  -0.006  -0.013
-10.218   0.000   0.002   0.013  -0.002 -10.172   0.000   0.002
  0.000 -10.225   0.008   0.004  -0.006   0.000 -10.178   0.008
  0.002   0.008 -10.211  -0.004  -0.013   0.002   0.008 -10.165
  0.013   0.004  -0.004 -10.202  -0.001   0.012   0.004  -0.004
 -0.002  -0.006  -0.013  -0.001 -10.212  -0.002  -0.006  -0.013
  0.000  -0.006  -0.001   0.001  -0.006   0.000  -0.006  -0.001
  0.000  -0.009  -0.002   0.002  -0.009   0.000  -0.009  -0.002
  0.001   0.016   0.016   0.000   0.028   0.001   0.015   0.016
  0.000  -0.028   0.019  -0.000   0.000   0.000  -0.027   0.018
 -0.028   0.000  -0.001   0.016   0.000  -0.027   0.000  -0.001
  0.001   0.019   0.019   0.000   0.034   0.001   0.018   0.019
  0.000  -0.034   0.023  -0.000   0.000   0.000  -0.032   0.022
 -0.034   0.000  -0.001   0.019   0.000  -0.032   0.000  -0.001
 pseudopotential strength for first ion, spin component:           2
-10.235   0.002  -0.000   0.011  -0.003 -10.213   0.002  -0.000
  0.002 -10.245   0.008   0.003  -0.007   0.002 -10.223   0.007
 -0.000   0.008 -10.230  -0.003  -0.013  -0.000   0.007 -10.208
  0.011   0.003  -0.003 -10.220  -0.001   0.010   0.003  -0.003
 -0.003  -0.007  -0.013  -0.001 -10.232  -0.003  -0.007  -0.013
-10.213   0.002  -0.000   0.010  -0.003 -10.167   0.002  -0.000
  0.002 -10.223   0.007   0.003  -0.007   0.002 -10.176   0.007
 -0.000   0.007 -10.208  -0.003  -0.013  -0.000   0.007 -10.162
  0.010   0.003  -0.003 -10.199  -0.001   0.010   0.003  -0.003
 -0.003  -0.007  -0.013  -0.001 -10.210  -0.003  -0.007  -0.012
 -0.000  -0.005  -0.001   0.000  -0.006  -0.000  -0.005  -0.001
 -0.001  -0.008  -0.002   0.001  -0.009  -0.001  -0.008  -0.002
  0.000   0.016   0.017  -0.000   0.028   0.000   0.015   0.016
 -0.000  -0.029   0.020   0.000   0.000  -0.000  -0.028   0.019
 -0.029  -0.000  -0.000   0.017   0.000  -0.028  -0.000  -0.000
  0.000   0.020   0.020  -0.000   0.034   0.000   0.019   0.019
 -0.000  -0.035   0.024   0.000   0.001  -0.000  -0.033   0.023
 -0.036  -0.000  -0.000   0.021   0.001  -0.034  -0.000  -0.000
 total augmentation occupancy for first ion, spin component:           1
  2.449   0.037  -0.026  -0.076  -0.059  -0.507  -0.018   0.056   0.135   0.030  -0.009  -0.000  -0.013  -0.012  -0.078   0.001
  0.037   2.409   0.007  -0.002   0.136  -0.018  -0.475   0.042   0.036  -0.127   0.441  -0.089   0.065  -0.064  -0.009   0.004
 -0.026   0.007   2.367  -0.001   0.099   0.056   0.042  -0.361  -0.042  -0.138   0.123  -0.036   0.054   0.019   0.020   0.006
 -0.076  -0.002  -0.001   2.292   0.003   0.135   0.036  -0.042  -0.279  -0.015  -0.069   0.010  -0.002   0.017   0.036   0.001
 -0.059   0.136   0.099   0.003   2.474   0.030  -0.127  -0.138  -0.015  -0.464   0.407  -0.107   0.102  -0.020   0.009   0.009
 -0.507  -0.018   0.056   0.135   0.030   0.536   0.003  -0.081  -0.186  -0.008   0.013  -0.003   0.011   0.008   0.117  -0.000
 -0.018  -0.475   0.042   0.036  -0.127   0.003   0.510  -0.083  -0.064   0.122  -0.372   0.069  -0.075   0.107   0.007   0.006
  0.056   0.042  -0.361  -0.042  -0.138  -0.081  -0.083   0.334   0.078   0.171  -0.112   0.034  -0.070  -0.043  -0.026   0.005
  0.135   0.036  -0.042  -0.279  -0.015  -0.186  -0.064   0.078   0.248   0.024   0.065  -0.010   0.000  -0.028  -0.057  -0.000
  0.030  -0.127  -0.138  -0.015  -0.464  -0.008   0.122   0.171   0.024   0.435  -0.341   0.083  -0.129   0.013  -0.005   0.010
 -0.009   0.441   0.123  -0.069   0.407   0.013  -0.372  -0.112   0.065  -0.341   1.772  -0.167   0.232  -0.112  -0.003  -0.020
 -0.000  -0.089  -0.036   0.010  -0.107  -0.003   0.069   0.034  -0.010   0.083  -0.167   0.033  -0.042   0.016   0.001   0.003
 -0.013   0.065   0.054  -0.002   0.102   0.011  -0.075  -0.070   0.000  -0.129   0.232  -0.042   0.060  -0.014   0.003  -0.005
 -0.012  -0.064   0.019   0.017  -0.020   0.008   0.107  -0.043  -0.028   0.013  -0.112   0.016  -0.014   0.030   0.006   0.001
 -0.078  -0.009   0.020   0.036   0.009   0.117   0.007  -0.026  -0.057  -0.005  -0.003   0.001   0.003   0.006   0.032  -0.000
  0.001   0.004   0.006   0.001   0.009  -0.000   0.006   0.005  -0.000   0.010  -0.020   0.003  -0.005   0.001  -0.000   0.001
  0.000  -0.012   0.011  -0.001   0.002  -0.000  -0.008   0.002   0.002  -0.001   0.009  -0.001   0.001  -0.003  -0.000  -0.000
 -0.014   0.001  -0.002   0.008   0.001  -0.007  -0.000   0.002   0.003  -0.000   0.000  -0.000  -0.000  -0.000  -0.002  -0.000
 total augmentation occupancy for first ion, spin component:           2
  0.071   0.032  -0.054  -0.053  -0.020  -0.056  -0.026   0.042   0.040   0.015  -0.007   0.001  -0.009  -0.017  -0.027   0.000
  0.032   0.012  -0.027  -0.029  -0.011  -0.026  -0.009   0.020   0.021   0.009   0.001  -0.001  -0.005  -0.008  -0.013   0.000
 -0.054  -0.027   0.035   0.035   0.017   0.042   0.020  -0.029  -0.027  -0.012   0.000  -0.000   0.006   0.013   0.019  -0.000
 -0.053  -0.029   0.035   0.027   0.007   0.040   0.021  -0.027  -0.024  -0.007  -0.012   0.002   0.004   0.013   0.018  -0.000
 -0.020  -0.011   0.017   0.007  -0.005   0.015   0.009  -0.012  -0.007   0.002  -0.007  -0.000   0.001   0.005   0.007   0.000
 -0.056  -0.026   0.042   0.040   0.015   0.044   0.021  -0.032  -0.029  -0.011   0.006  -0.000   0.007   0.013   0.020  -0.000
 -0.026  -0.009   0.020   0.021   0.009   0.021   0.008  -0.015  -0.016  -0.008   0.002  -0.000   0.004   0.006   0.010  -0.000
  0.042   0.020  -0.029  -0.027  -0.012  -0.032  -0.015   0.024   0.022   0.008  -0.000   0.000  -0.005  -0.010  -0.015   0.000
  0.040   0.021  -0.027  -0.024  -0.007  -0.029  -0.016   0.022   0.021   0.007   0.011  -0.001  -0.003  -0.010  -0.014   0.000
  0.015   0.009  -0.012  -0.007   0.002  -0.011  -0.008   0.008   0.007   0.001   0.007  -0.001  -0.001  -0.004  -0.005  -0.000
 -0.007   0.001   0.000  -0.012  -0.007   0.006   0.002  -0.000   0.011   0.007   0.002  -0.003   0.000  -0.001   0.000  -0.000
  0.001  -0.001  -0.000   0.002  -0.000  -0.000  -0.000   0.000  -0.001  -0.001  -0.003   0.000  -0.000   0.000   0.000   0.000
 -0.009  -0.005   0.006   0.004   0.001   0.007   0.004  -0.005  -0.003  -0.001   0.000  -0.000   0.001   0.002   0.003  -0.000
 -0.017  -0.008   0.013   0.013   0.005   0.013   0.006  -0.010  -0.010  -0.004  -0.001   0.000   0.002   0.004   0.006  -0.000
 -0.027  -0.013   0.019   0.018   0.007   0.020   0.010  -0.015  -0.014  -0.005   0.000   0.000   0.003   0.006   0.009  -0.000
  0.000   0.000  -0.000  -0.000   0.000  -0.000  -0.000   0.000   0.000  -0.000  -0.000   0.000  -0.000  -0.000  -0.000   0.000
  0.000   0.000  -0.000  -0.000  -0.000  -0.000  -0.000   0.000   0.000   0.000   0.000  -0.000  -0.000  -0.000  -0.000   0.000
  0.000   0.000  -0.000  -0.000  -0.000  -0.000  -0.000   0.000   0.000   0.000  -0.000  -0.000  -0.000  -0.000  -0.000   0.000


------------------------ aborting loop because EDIFF is reached ----------------------------------------


    CHARGE:  cpu time    0.05: real time    0.05
    FORLOC:  cpu time    0.01: real time    0.01
    FORNL :  cpu time    0.29: real time    0.29
    STRESS:  cpu time    0.34: real time    0.34
    FORCOR:  cpu time    0.22: real time    0.23
    FORHAR:  cpu time    0.03: real time    0.03
    MIXING:  cpu time    0.01: real time    0.01
    OFIELD:  cpu time    0.00: real time    0.00

  FORCE on cell =-STRESS in cart. coord.  units (eV):
  Direction    XX          YY          ZZ          XY          YZ          ZX
  --------------------------------------------------------------------------------------
  Alpha Z    14.41645    14.41645    14.41645
  Ewald    2809.05967  6978.13573  2320.55335  -413.47405  -568.01823  1752.25730
  Hartree  6582.13789 10289.57282  6146.72080  -375.17017  -501.14572  1479.94623
  E(xc)    -637.80020  -636.55845  -637.91870    -0.06757    -0.20693     0.76324
  Local  -11167.19443-19041.49591-10242.87915   789.22596  1069.74514 -3225.02793
  n-local  -125.44403  -123.45611  -125.60129    -0.49182    -0.56245    -0.71986
  augment  1010.65265  1008.83640  1010.60343     0.02977     0.12213    -2.09239
  Kinetic  1510.20862  1506.47102  1510.14976    -0.02931     0.03519    -5.09658
  Fock        0.00000     0.00000     0.00000     0.00000     0.00000     0.00000
  -------------------------------------------------------------------------------------
  Total      -3.96338    -4.07804    -3.95535     0.02281    -0.03087     0.03002
  in kB      -0.88948    -0.91521    -0.88768     0.00512    -0.00693     0.00674
  external pressure =       -0.90 kB  Pullay stress =        0.00 kB


 VOLUME and BASIS-vectors are now :
 -----------------------------------------------------------------------------
  energy-cutoff  :      249.84
  volume of cell :     7139.06
      direct lattice vectors                 reciprocal lattice vectors
    19.255155444  0.000000000  0.000000000     0.051934143  0.000000000  0.000000000
     0.000000000 19.255155444  0.000000000     0.000000000  0.051934143  0.000000000
     0.000000000  0.000000000 19.255155444     0.000000000  0.000000000  0.051934143

  length of vectors
    19.255155444 19.255155444 19.255155444     0.051934143  0.051934143  0.051934143


 FORCES acting on ions
    electron-ion (+dipol)            ewald-force                    non-local-force                 convergence-correction
 -----------------------------------------------------------------------------------------------
   -.831E+02 0.824E+03 -.297E+03   0.829E+02 -.818E+03 0.294E+03   0.692E-01 -.585E+01 0.317E+01   0.161E-01 0.742E-04 -.117E-01
   0.191E+03 0.741E+03 0.448E+03   -.191E+03 -.739E+03 -.446E+03   -.559E-01 -.227E+01 -.173E+01   -.934E-02 -.256E-01 0.123E-02
   -.850E+03 0.389E+03 0.348E+02   0.846E+03 -.387E+03 -.329E+02   0.404E+01 -.201E+01 -.182E+01   -.224E-02 0.105E-02 0.185E-02
   0.348E+03 0.129E+03 0.900E+03   -.345E+03 -.129E+03 -.893E+03   -.281E+01 -.398E-01 -.638E+01   -.271E-02 -.575E-03 -.111E-02
   0.174E+03 0.297E+03 -.829E+03   -.175E+03 -.295E+03 0.826E+03   0.538E+00 -.188E+01 0.321E+01   -.624E-02 -.407E-02 0.249E-04
   0.953E+03 0.136E+03 -.140E+03   -.948E+03 -.135E+03 0.141E+03   -.480E+01 -.107E+01 -.786E+00   -.435E-02 0.383E-02 0.381E-02
   -.452E+03 -.118E+03 0.557E+03   0.452E+03 0.118E+03 -.557E+03   -.163E+00 0.736E+00 -.454E+00   0.476E-02 -.104E-01 -.493E-04
   -.765E+03 -.306E+03 -.509E+03   0.761E+03 0.304E+03 0.505E+03   0.392E+01 0.273E+01 0.417E+01   0.285E-02 0.355E-02 0.857E-02
   0.504E+03 -.683E+03 0.444E+03   -.501E+03 0.681E+03 -.442E+03   -.292E+01 0.238E+01 -.189E+01   0.279E-03 0.409E-02 -.609E-02
   -.381E+03 -.858E+03 0.107E+03   0.377E+03 0.854E+03 -.106E+03   0.342E+01 0.434E+01 -.934E+00   0.443E-02 0.120E-02 -.393E-02
   0.360E+03 -.551E+03 -.715E+03   -.359E+03 0.548E+03 0.712E+03   -.991E+00 0.338E+01 0.287E+01   -.180E-02 0.151E-01 0.105E-01
 -----------------------------------------------------------------------------------------------
   -.250E+00 -.455E+00 0.587E+00   0.114E-12 -.227E-12 0.114E-12   0.231E+00 0.454E+00 -.579E+00   0.171E-02 -.117E-01 0.306E-02
 
 
 POSITION                                       TOTAL-FORCE (eV/Angst)
 -----------------------------------------------------------------------------------
      9.92740      5.60524     10.43781        -0.019817      0.008935      0.006813
      8.88011      7.11311      8.42898         0.016684      0.013892      0.004288
     11.48082      7.73563      9.64728         0.002189     -0.010471     -0.002002
      7.94534      9.08981      6.69244         0.002075     -0.002211     -0.008245
      9.16442      8.31416     11.02458         0.010981     -0.004133      0.004761
      7.11785      9.18768      9.34323        -0.006029     -0.009840     -0.004009
      9.92431      9.80193      8.40526         0.002067      0.012497     -0.008100
     11.32546     10.33065     10.64512         0.003050     -0.002645     -0.007872
      7.84478     11.66246      7.99552        -0.007944      0.003317      0.008348
     10.24327     12.54268      9.09251        -0.000695      0.004274      0.007282
      8.57804     11.04844     10.71906        -0.002561     -0.013615     -0.001265
 -----------------------------------------------------------------------------------
    total drift:                               -0.016661     -0.012373      0.010937


--------------------------------------------------------------------------------------------------------



  FREE ENERGIE OF THE ION-ELECTRON SYSTEM (eV)
  ---------------------------------------------------
  free  energy   TOTEN  =       -19.73613508 eV

  energy  without entropy=      -19.73613508  energy(sigma->0) =      -19.73613508
 
 d Force =-0.2562158E-04[-0.796E-04, 0.283E-04]  d Energy = 0.3719273E-05-0.293E-04
 d Force = 0.2527566E+01[ 0.253E+01, 0.253E+01]  d Ewald  = 0.2527567E+01-0.616E-06


--------------------------------------------------------------------------------------------------------


    POTLOK:  cpu time    0.24: real time    0.24


--------------------------------------------------------------------------------------------------------




--------------------------------------------------------------------------------------------------------


  
 reached required accuracy - stopping structural energy minimisation
     LOOP+:  cpu time    3.07: real time    3.15
    4ORBIT:  cpu time    0.00: real time    0.00

 total amount of memory used by VASP on root node    54093. kBytes
========================================================================

   base      :      30000. kBytes
   nonl-proj :       1278. kBytes
   fftplans  :       5765. kBytes
   grid      :      14451. kBytes
   one-center:         31. kBytes
   wavefun   :       2568. kBytes
 
  
  
 General timing and accounting informations for this job:
 ========================================================
  
                  Total CPU time used (sec):      484.658
                            User time (sec):      476.366
                          System time (sec):        8.293
                         Elapsed time (sec):      508.652
  
                   Maximum memory used (kb):       61304.
                   Average memory used (kb):           0.
  
                          Minor page faults:      1419387
                          Major page faults:            0
                 Voluntary context switches:        11862
