unknown system                          
           1
    19.217893    0.000000    0.000000
     0.000000   19.217893    0.000000
     0.000000    0.000000   19.217893
   Ag
   6
Direct configuration=     1
   0.34072853  0.40772955  0.51233679
   0.55259757  0.50157313  0.46239263
   0.41888231  0.50868989  0.44897292
   0.60509201  0.57824912  0.57952458
   0.47668062  0.59591886  0.54251036
   0.67282165  0.47478304  0.52125161
Direct configuration=     2
   0.34086796  0.40783958  0.51218109
   0.55280066  0.50165508  0.46262467
   0.41840984  0.50855334  0.44904531
   0.60519619  0.57822875  0.57946939
   0.47641745  0.59607579  0.54244836
   0.67311058  0.47459104  0.52122008
Direct configuration=     3
   0.34128625  0.40816967  0.51171397
   0.55340991  0.50190093  0.46332078
   0.41699244  0.50814368  0.44926249
   0.60550874  0.57816766  0.57930380
   0.47562794  0.59654660  0.54226234
   0.67397739  0.47401506  0.52112551
Direct configuration=     4
   0.34212284  0.40882985  0.51077975
   0.55462843  0.50239263  0.46471301
   0.41415763  0.50732435  0.44969686
   0.60613385  0.57804547  0.57897262
   0.47404892  0.59748821  0.54189031
   0.67571102  0.47286308  0.52093635
Direct configuration=     5
   0.34379600  0.41015022  0.50891129
   0.55706545  0.50337602  0.46749745
   0.40848801  0.50568569  0.45056559
   0.60738406  0.57780108  0.57831026
   0.47089089  0.59937143  0.54114626
   0.67917827  0.47055914  0.52055804
Direct configuration=     6
   0.34283974  0.40939559  0.50997917
   0.55567262  0.50281398  0.46590606
   0.41172836  0.50662223  0.45006908
   0.60666953  0.57794075  0.57868882
   0.47269580  0.59829511  0.54157151
   0.67719664  0.47187591  0.52077426
Direct configuration=     7
   0.34278727  0.40898052  0.50983002
   0.55527744  0.50333471  0.46689257
   0.41159128  0.50701890  0.45017044
   0.60655819  0.57770550  0.57811750
   0.47232575  0.59860203  0.54121018
   0.67826275  0.47130192  0.52076819
Direct configuration=     8
   0.34262986  0.40773530  0.50938259
   0.55409188  0.50489690  0.46985211
   0.41118004  0.50820890  0.45047450
   0.60622419  0.57699975  0.57640353
   0.47121561  0.59952279  0.54012618
   0.68146110  0.46957995  0.52074997
Direct configuration=     9
   0.34258522  0.40738218  0.50925571
   0.55375568  0.50533990  0.47069137
   0.41106342  0.50854635  0.45056073
   0.60612947  0.57679962  0.57591750
   0.47090081  0.59978389  0.53981879
   0.68236808  0.46909164  0.52074480
Direct configuration=    10
   0.34259407  0.40689090  0.50889697
   0.55350960  0.50491745  0.47137887
   0.41107727  0.50873942  0.45073152
   0.60651303  0.57656337  0.57563963
   0.47076605  0.60063058  0.53972394
   0.68234266  0.46920188  0.52061796
Direct configuration=    11
   0.34262061  0.40541706  0.50782077
   0.55277137  0.50365007  0.47344138
   0.41111880  0.50931862  0.45124391
   0.60766370  0.57585461  0.57480601
   0.47036179  0.60317063  0.53943938
   0.68226641  0.46953259  0.52023745
Direct configuration=    12
   0.34267369  0.40246937  0.50566836
   0.55129492  0.50111533  0.47756639
   0.41120187  0.51047702  0.45226867
   0.60996504  0.57443710  0.57313879
   0.46955326  0.60825075  0.53887027
   0.68211390  0.47019403  0.51947642
Direct configuration=    13
   0.34299570  0.40266561  0.50528256
   0.55048378  0.50075908  0.47726493
   0.41103929  0.51027128  0.45271164
   0.60969567  0.57537300  0.57371881
   0.47016690  0.60808263  0.53871291
   0.68242135  0.46979197  0.51929803
Direct configuration=    14
   0.34349058  0.40296721  0.50468964
   0.54923717  0.50021158  0.47680164
   0.41078942  0.50995510  0.45339244
   0.60928167  0.57681137  0.57461023
   0.47110998  0.60782425  0.53847108
   0.68289385  0.46917407  0.51902388
Direct configuration=    15
   0.34373977  0.40289444  0.50431328
   0.54922758  0.50000904  0.47717083
   0.41052194  0.51003496  0.45379726
   0.60900740  0.57700925  0.57448228
   0.47176520  0.60774790  0.53829404
   0.68254079  0.46924800  0.51893119
Direct configuration=    16
   0.34393139  0.40283848  0.50402387
   0.54922021  0.49985330  0.47745473
   0.41031626  0.51009636  0.45410856
   0.60879651  0.57716141  0.57438390
   0.47226902  0.60768919  0.53815790
   0.68226930  0.46930485  0.51885993
Direct configuration=    17
   0.34431461  0.40272655  0.50344506
   0.54920545  0.49954182  0.47802252
   0.40990490  0.51021918  0.45473114
   0.60837471  0.57746573  0.57418714
   0.47327668  0.60757176  0.53788563
   0.68172632  0.46941855  0.51871739
Direct configuration=    18
   0.34508107  0.40250271  0.50228745
   0.54917595  0.49891885  0.47915810
   0.40908218  0.51046480  0.45597632
   0.60753112  0.57807436  0.57379361
   0.47529200  0.60733691  0.53734109
   0.68064036  0.46964595  0.51843232
Direct configuration=    19
   0.34474959  0.40259952  0.50278809
   0.54918871  0.49918827  0.47866698
   0.40943799  0.51035857  0.45543781
   0.60789596  0.57781114  0.57396381
   0.47442042  0.60743848  0.53757659
   0.68111001  0.46954760  0.51855561
Direct configuration=    20
   0.34496440  0.40203782  0.50227688
   0.54887061  0.49855537  0.47900887
   0.40934798  0.51091202  0.45597026
   0.60800104  0.57811621  0.57394478
   0.47489826  0.60769227  0.53731107
   0.68072039  0.46962989  0.51847702
Direct configuration=    21
   0.34560881  0.40035275  0.50074326
   0.54791630  0.49665665  0.48003453
   0.40907796  0.51257238  0.45756763
   0.60831630  0.57903142  0.57388770
   0.47633179  0.60845363  0.53651449
   0.67955152  0.46987676  0.51824127
Direct configuration=    22
   0.34689763  0.39698259  0.49767602
   0.54600769  0.49285923  0.48208586
   0.40853792  0.51589309  0.46076238
   0.60894681  0.58086183  0.57377354
   0.47919885  0.60997636  0.53492134
   0.67721378  0.47037049  0.51776975
Direct configuration=    23
   0.34644884  0.39815614  0.49874409
   0.54667231  0.49418156  0.48137155
   0.40872597  0.51473676  0.45964991
   0.60872726  0.58022445  0.57381329
   0.47820049  0.60944612  0.53547611
   0.67802782  0.47019856  0.51793394
Direct configuration=    24
   0.34688945  0.39772411  0.49805058
   0.54617419  0.49353859  0.48186373
   0.40840771  0.51502916  0.46025675
   0.60902534  0.58037196  0.57366222
   0.47847205  0.61008871  0.53525326
   0.67783395  0.47019105  0.51790235
Direct configuration=    25
   0.34821128  0.39642804  0.49597006
   0.54467982  0.49160968  0.48334025
   0.40745292  0.51590639  0.46207725
   0.60991959  0.58081450  0.57320902
   0.47928674  0.61201648  0.53458473
   0.67725233  0.47016849  0.51780758
Direct configuration=    26
   0.35085495  0.39383590  0.49180901
   0.54169110  0.48775186  0.48629329
   0.40554335  0.51766083  0.46571825
   0.61170809  0.58169958  0.57230263
   0.48091611  0.61587203  0.53324767
   0.67608909  0.47012339  0.51761804
Direct configuration=    27
   0.35614229  0.38865161  0.48348692
   0.53571365  0.48003621  0.49219938
   0.40172419  0.52116973  0.47300026
   0.61528509  0.58346975  0.57048983
   0.48417486  0.62358311  0.53057355
   0.67376261  0.47003317  0.51723896
Direct configuration=    28
   0.35350200  0.39124043  0.48764263
   0.53869854  0.48388909  0.48925012
   0.40363132  0.51941753  0.46936392
   0.61349888  0.58258580  0.57139507
   0.48254757  0.61973251  0.53190890
   0.67492436  0.47007822  0.51742826
Direct configuration=    29
   0.35530599  0.39067004  0.48566248
   0.53723559  0.48317770  0.49125620
   0.40280823  0.51980796  0.47121275
   0.61354106  0.58243450  0.57031072
   0.48322772  0.62121210  0.53122482
   0.67468408  0.46964128  0.51732191
Direct configuration=    30
   0.36071797  0.38895884  0.47972202
   0.53284672  0.48104353  0.49727446
   0.40033896  0.52097926  0.47675925
   0.61366761  0.58198059  0.56705770
   0.48526817  0.62565088  0.52917261
   0.67396325  0.46833048  0.51700285
Direct configuration=    31
   0.37154191  0.38553646  0.46784110
   0.52406899  0.47677519  0.50931098
   0.39540042  0.52332187  0.48785224
   0.61392071  0.58107277  0.56055165
   0.48934907  0.63452843  0.52506818
   0.67252158  0.46570886  0.51636473
Direct configuration=    32
   0.37908392  0.38730687  0.46376156
   0.52243595  0.47653813  0.51461486
   0.39418794  0.52464467  0.49293755
   0.61189503  0.57991031  0.55706334
   0.48896738  0.63564745  0.52280471
   0.67023245  0.46289615  0.51580687
Direct configuration=    33
   0.39673393  0.39145005  0.45421451
   0.51861428  0.47598335  0.52702713
   0.39135048  0.52774034  0.50483831
   0.60715449  0.57718988  0.54889992
   0.48807415  0.63826619  0.51750768
   0.66487537  0.45631377  0.51450134
Direct configuration=    34
   0.40720113  0.39731491  0.45287906
   0.51563730  0.47334556  0.52938171
   0.39131363  0.52833376  0.50914726
   0.60715814  0.57722035  0.54586486
   0.48497706  0.63805135  0.51535574
   0.66051541  0.45267766  0.51436026
Direct configuration=    35
   0.42052420  0.40477994  0.45117924
   0.51184808  0.46998806  0.53237872
   0.39126674  0.52908908  0.51463187
   0.60716280  0.57725913  0.54200172
   0.48103498  0.63777789  0.51261667
   0.65496588  0.44804948  0.51418068
Direct configuration=    36
   0.41462047  0.40147203  0.45193247
   0.51352716  0.47147584  0.53105068
   0.39128752  0.52875438  0.51220152
   0.60716073  0.57724195  0.54371356
   0.48278180  0.63789906  0.51383041
   0.65742500  0.45010033  0.51426025
Direct configuration=    37
   0.41748722  0.40395776  0.45402691
   0.51660653  0.47045877  0.52891738
   0.39008225  0.52957671  0.51174220
   0.60623876  0.57688788  0.54295102
   0.48212511  0.63651327  0.51443949
   0.65426281  0.44954919  0.51491190
Direct configuration=    38
   0.41795659  0.40436474  0.45436982
   0.51711071  0.47029225  0.52856810
   0.38988491  0.52971135  0.51166699
   0.60608781  0.57682991  0.54282617
   0.48201759  0.63628637  0.51453921
   0.65374507  0.44945896  0.51501860
Direct configuration=    39
   0.41868491  0.40469114  0.45587030
   0.51661377  0.47087153  0.52630838
   0.39022166  0.52982983  0.51114527
   0.60585541  0.57792087  0.54285045
   0.48178640  0.63547315  0.51547977
   0.65364053  0.44815706  0.51533473
Direct configuration=    40
   0.41878856  0.40473759  0.45608383
   0.51654305  0.47095397  0.52598680
   0.39026958  0.52984669  0.51107102
   0.60582234  0.57807613  0.54285391
   0.48175350  0.63535743  0.51561362
   0.65362565  0.44797179  0.51537972
Direct configuration=    41
   0.41855027  0.40389100  0.45681424
   0.51701852  0.47234910  0.52429655
   0.39014246  0.53005751  0.51063319
   0.60609609  0.57835770  0.54289138
   0.48152800  0.63502600  0.51655663
   0.65346734  0.44726228  0.51579691
Direct configuration=    42
   0.41783539  0.40135123  0.45900546
   0.51844495  0.47653448  0.51922580
   0.38976107  0.53068999  0.50931969
   0.60691736  0.57920242  0.54300381
   0.48085150  0.63403171  0.51938565
   0.65299241  0.44513375  0.51704848
Direct configuration=    43
   0.41640563  0.39627169  0.46338790
   0.52129781  0.48490524  0.50908432
   0.38899830  0.53195494  0.50669270
   0.60855990  0.58089185  0.54322866
   0.47949849  0.63204315  0.52504371
   0.65204255  0.44087671  0.51955161
Direct configuration=    44
   0.41739424  0.39978395  0.46035765
   0.51932519  0.47911725  0.51609668
   0.38952572  0.53108029  0.50850914
   0.60742416  0.57972369  0.54307319
   0.48043403  0.63341815  0.52113143
   0.65269934  0.44382026  0.51782081
Direct configuration=    45
   0.41729094  0.39938454  0.46090882
   0.51929073  0.47984991  0.51494596
   0.38929833  0.53092379  0.50814947
   0.60791387  0.57985925  0.54312688
   0.48040007  0.63337444  0.52174938
   0.65260873  0.44355165  0.51810837
Direct configuration=    46
   0.41698106  0.39818630  0.46256234
   0.51918736  0.48204787  0.51149382
   0.38861615  0.53045429  0.50707048
   0.60938299  0.58026594  0.54328796
   0.48029819  0.63324333  0.52360322
   0.65233693  0.44274585  0.51897107
Direct configuration=    47
   0.41636130  0.39578982  0.46586938
   0.51898060  0.48644380  0.50458953
   0.38725180  0.52951530  0.50491249
   0.61232123  0.58107932  0.54361013
   0.48009443  0.63298110  0.52731090
   0.65179332  0.44113423  0.52069645
Direct configuration=    48
   0.41662267  0.39599152  0.46645428
   0.51897838  0.48658157  0.50379247
   0.38685213  0.52917614  0.50449957
   0.61281079  0.58065195  0.54356317
   0.48038846  0.63280221  0.52775982
   0.65115024  0.44174019  0.52091957
Direct configuration=    49
   0.41730039  0.39651450  0.46797085
   0.51897263  0.48693879  0.50172579
   0.38581585  0.52829673  0.50342892
   0.61408015  0.57954384  0.54344141
   0.48115084  0.63233836  0.52892383
   0.64948283  0.44331137  0.52149809
Direct configuration=    50
   0.41762928  0.39640873  0.46817914
   0.51861934  0.48717834  0.50155720
   0.38580766  0.52866601  0.50327502
   0.61399404  0.57936542  0.54338147
   0.48145391  0.63166146  0.52904628
   0.64929845  0.44366363  0.52154979
Direct configuration=    51
   0.41776171  0.39636613  0.46826301
   0.51847709  0.48727480  0.50148931
   0.38580437  0.52881471  0.50321304
   0.61395936  0.57929358  0.54335734
   0.48157594  0.63138888  0.52909559
   0.64922421  0.44380547  0.52157060
Direct configuration=    52
   0.41782368  0.39625679  0.46824762
   0.51845196  0.48730713  0.50161113
   0.38571212  0.52899837  0.50315416
   0.61391749  0.57940768  0.54338450
   0.48163477  0.63122654  0.52908856
   0.64926265  0.44374707  0.52150293
Direct configuration=    53
   0.41791822  0.39608997  0.46822412
   0.51841363  0.48735645  0.50179698
   0.38557139  0.52927857  0.50306431
   0.61385361  0.57958175  0.54342594
   0.48172453  0.63097886  0.52907784
   0.64932130  0.44365797  0.52139970
Direct configuration=    54
   0.41805250  0.39613808  0.46830731
   0.51827277  0.48737366  0.50185927
   0.38553958  0.52932076  0.50292576
   0.61389932  0.57952781  0.54343176
   0.48179512  0.63080112  0.52910921
   0.64924339  0.44378216  0.52135558
Direct configuration=    55
   0.41832811  0.39623683  0.46847808
   0.51798364  0.48740898  0.50198715
   0.38547428  0.52940737  0.50264135
   0.61399315  0.57941708  0.54344370
   0.48194003  0.63043627  0.52917360
   0.64908346  0.44403707  0.52126501
Direct configuration=    56
   0.41842288  0.39614801  0.46857124
   0.51804506  0.48751829  0.50214362
   0.38527449  0.52949194  0.50239010
   0.61407676  0.57938553  0.54346473
   0.48201365  0.63027570  0.52925484
   0.64896985  0.44412411  0.52116437
Direct configuration=    57
   0.41851358  0.39606302  0.46866040
   0.51810383  0.48762290  0.50229337
   0.38508328  0.52957288  0.50214964
   0.61415677  0.57935534  0.54348485
   0.48208411  0.63012204  0.52933258
   0.64886112  0.44420741  0.52106805
