<?xml version="1.0" encoding="ISO-8859-1"?>
<modeling>
 <generator>
  <i name="program" type="string">vasp </i>
  <i name="version" type="string">5.3.5  </i>
  <i name="subversion" type="string">31Mar14 (build Feb 01 2018 12:10:03) gamma-only                       parallel </i>
  <i name="platform" type="string">LinuxIFC </i>
  <i name="date" type="string">2019 03 23 </i>
  <i name="time" type="string">04:39:20 </i>
 </generator>
 <incar>
  <i type="string" name="PREC">normal</i>
  <i type="int" name="ISPIN">     2</i>
  <i type="int" name="IBRION">     2</i>
  <i type="int" name="NSW">  1000</i>
  <i type="int" name="ISIF">     2</i>
  <i name="POTIM">      0.10000000</i>
  <i type="logical" name="LPLANE"> T  </i>
  <i type="int" name="ISMEAR">     0</i>
  <i name="SIGMA">      0.00010000</i>
  <i type="logical" name="LWAVE"> F  </i>
  <i type="logical" name="LCHARG"> F  </i>
  <i type="logical" name="LVTOT"> F  </i>
  <i type="string" name="GGA"> PE</i>
 </incar>
 <kpoints>
  <varray name="kpointlist" >
   <v>       0.00000000       0.00000000       0.00000000 </v>
  </varray>
  <varray name="weights" >
   <v>       1.00000000 </v>
  </varray>
 </kpoints>
 <parameters>
  <separator name="general" >
   <i type="string" name="SYSTEM">unknown system</i>
   <i type="logical" name="LCOMPAT"> F  </i>
  </separator>
  <separator name="electronic" >
   <i type="string" name="PREC">normal</i>
   <i name="ENMAX">    249.84400000</i>
   <i name="ENAUG">    412.49600000</i>
   <i name="EDIFF">      0.00010000</i>
   <i type="int" name="IALGO">    38</i>
   <i type="int" name="IWAVPR">    11</i>
   <i type="int" name="NBANDS">   272</i>
   <i name="NELECT">    418.00000000</i>
   <i type="int" name="TURBO">     0</i>
   <i type="int" name="IRESTART">     0</i>
   <i type="int" name="NREBOOT">     0</i>
   <i type="int" name="NMIN">     0</i>
   <i name="EREF">      0.00000000</i>
   <separator name="electronic smearing" >
    <i type="int" name="ISMEAR">     0</i>
    <i name="SIGMA">      0.00010000</i>
    <i name="KSPACING">      0.50000000</i>
    <i type="logical" name="KGAMMA"> T  </i>
   </separator>
   <separator name="electronic projectors" >
    <i type="logical" name="LREAL"> F  </i>
    <v name="ROPT">      0.00000000</v>
    <i type="int" name="LMAXPAW">  -100</i>
    <i type="int" name="LMAXMIX">     2</i>
    <i type="logical" name="NLSPLINE"> F  </i>
   </separator>
   <separator name="electronic startup" >
    <i type="int" name="ISTART">     0</i>
    <i type="int" name="ICHARG">     2</i>
    <i type="int" name="INIWAV">     1</i>
   </separator>
   <separator name="electronic spin" >
    <i type="int" name="ISPIN">     2</i>
    <i type="logical" name="LNONCOLLINEAR"> F  </i>
    <v name="MAGMOM">      1.00000000      1.00000000      1.00000000      1.00000000      1.00000000      1.00000000      1.00000000      1.00000000      1.00000000      1.00000000      1.00000000      1.00000000      1.00000000      1.00000000      1.00000000      1.00000000      1.00000000      1.00000000      1.00000000      1.00000000
      1.00000000      1.00000000      1.00000000      1.00000000      1.00000000      1.00000000      1.00000000      1.00000000      1.00000000      1.00000000      1.00000000      1.00000000      1.00000000      1.00000000      1.00000000      1.00000000      1.00000000      1.00000000</v>
    <i name="NUPDOWN">     -1.00000000</i>
    <i type="logical" name="LSORBIT"> F  </i>
    <v name="SAXIS">      0.00000000      0.00000000      1.00000000</v>
    <i type="logical" name="LSPIRAL"> F  </i>
    <v name="QSPIRAL">      0.00000000      0.00000000      0.00000000</v>
    <i type="logical" name="LZEROZ"> F  </i>
   </separator>
   <separator name="electronic exchange-correlation" >
    <i type="logical" name="LASPH"> F  </i>
    <i type="logical" name="LMETAGGA"> F  </i>
   </separator>
   <separator name="electronic convergence" >
    <i type="int" name="NELM">    60</i>
    <i type="int" name="NELMDL">    -5</i>
    <i type="int" name="NELMIN">     2</i>
    <i name="ENINI">    249.84400000</i>
    <separator name="electronic convergence detail" >
     <i type="logical" name="LDIAG"> T  </i>
     <i type="logical" name="LSUBROT"> F  </i>
     <i name="WEIMIN">      0.00100000</i>
     <i name="EBREAK">      0.00000009</i>
     <i name="DEPER">      0.30000000</i>
     <i type="int" name="NRMM">     4</i>
     <i name="TIME">      0.40000000</i>
    </separator>
   </separator>
   <separator name="electronic mixer" >
    <i name="AMIX">      0.40000000</i>
    <i name="BMIX">      1.00000000</i>
    <i name="AMIN">      0.10000000</i>
    <i name="AMIX_MAG">      1.60000000</i>
    <i name="BMIX_MAG">      1.00000000</i>
    <separator name="electronic mixer details" >
     <i type="int" name="IMIX">     4</i>
     <i type="int" name="MAXMIX">   -45</i>
     <i name="WC">    100.00000000</i>
     <i type="int" name="INIMIX">     1</i>
     <i type="int" name="MIXPRE">     1</i>
     <i type="int" name="MREMOVE">     5</i>
    </separator>
   </separator>
   <separator name="electronic dipolcorrection" >
    <i type="logical" name="LDIPOL"> F  </i>
    <i type="logical" name="LMONO"> F  </i>
    <i type="int" name="IDIPOL">     0</i>
    <i name="EPSILON">      1.00000000</i>
    <v name="DIPOL">   -100.00000000   -100.00000000   -100.00000000</v>
    <i name="EFIELD">      0.00000000</i>
   </separator>
  </separator>
  <separator name="grids" >
   <i type="int" name="NGX">    90</i>
   <i type="int" name="NGY">    90</i>
   <i type="int" name="NGZ">    90</i>
   <i type="int" name="NGXF">   180</i>
   <i type="int" name="NGYF">   180</i>
   <i type="int" name="NGZF">   180</i>
   <i type="logical" name="ADDGRID"> F  </i>
  </separator>
  <separator name="ionic" >
   <i type="int" name="NSW">  1000</i>
   <i type="int" name="IBRION">     2</i>
   <i type="int" name="ISIF">     2</i>
   <i name="PSTRESS">      0.00000000</i>
   <i name="EDIFFG">      0.00100000</i>
   <i type="int" name="NFREE">     1</i>
   <i name="POTIM">      0.10000000</i>
   <i name="SMASS">     -3.00000000</i>
   <i name="SCALEE">      1.00000000</i>
  </separator>
  <separator name="ionic md" >
   <i name="TEBEG">      0.00010000</i>
   <i name="TEEND">      0.00010000</i>
   <i type="int" name="NBLOCK">     1</i>
   <i type="int" name="KBLOCK">  1000</i>
   <i type="int" name="NPACO">   256</i>
   <i name="APACO">     16.00000000</i>
  </separator>
  <separator name="symmetry" >
   <i type="int" name="ISYM">     2</i>
   <i name="SYMPREC">      0.00001000</i>
  </separator>
  <separator name="dos" >
   <i type="logical" name="LORBIT"> F  </i>
   <v name="RWIGS">     -1.00000000</v>
   <i type="int" name="NEDOS">   301</i>
   <i name="EMIN">     10.00000000</i>
   <i name="EMAX">    -10.00000000</i>
   <i name="EFERMI">      0.00000000</i>
  </separator>
  <separator name="writing" >
   <i type="int" name="NWRITE">     2</i>
   <i type="logical" name="LWAVE"> F  </i>
   <i type="logical" name="LCHARG"> F  </i>
   <i type="logical" name="LPARD"> F  </i>
   <i type="logical" name="LVTOT"> F  </i>
   <i type="logical" name="LVHAR"> F  </i>
   <i type="logical" name="LELF"> F  </i>
   <i type="logical" name="LOPTICS"> F  </i>
   <v name="STM">      0.00000000      0.00000000      0.00000000      0.00000000      0.00000000      0.00000000      0.00000000</v>
  </separator>
  <separator name="performance" >
   <i type="int" name="NPAR">     4</i>
   <i type="int" name="NSIM">     4</i>
   <i type="int" name="NBLK">    -1</i>
   <i type="logical" name="LPLANE"> T  </i>
   <i type="logical" name="LSCALAPACK"> T  </i>
   <i type="logical" name="LSCAAWARE"> F  </i>
   <i type="logical" name="LSCALU"> F  </i>
   <i type="logical" name="LASYNC"> F  </i>
   <i type="logical" name="LORBITALREAL"> F  </i>
  </separator>
  <separator name="miscellaneous" >
   <i type="int" name="IDIOT">     3</i>
   <i type="logical" name="LMUSIC"> F  </i>
   <v name="POMASS">    107.86800000</v>
   <v name="DARWINR">      0.00000000</v>
   <v name="DARWINV">      1.00000000</v>
   <i type="logical" name="LCORR"> T  </i>
  </separator>
  <i type="logical" name="GGA_COMPAT"> T  </i>
  <i type="logical" name="LBERRY"> F  </i>
  <i type="int" name="ICORELEVEL">     0</i>
  <i type="logical" name="LDAU"> F  </i>
  <i type="int" name="I_CONSTRAINED_M">     0</i>
  <separator name="electronic exchange-correlation" >
   <i type="string" name="GGA">PE</i>
   <i type="int" name="VOSKOWN">     0</i>
   <i type="logical" name="LHFCALC"> F  </i>
   <i type="string" name="PRECFOCK"></i>
   <i type="logical" name="LSYMGRAD"> F  </i>
   <i type="logical" name="LHFONE"> F  </i>
   <i type="logical" name="LRHFCALC"> F  </i>
   <i type="logical" name="LTHOMAS"> F  </i>
   <i type="logical" name="LMODELHF"> F  </i>
   <i name="ENCUT4O">     -1.00000000</i>
   <i type="int" name="EXXOEP">     0</i>
   <i type="int" name="FOURORBIT">     0</i>
   <i name="AEXX">      0.00000000</i>
   <i name="HFALPHA">      0.00000000</i>
   <i name="MCALPHA">      0.00000000</i>
   <i name="ALDAX">      1.00000000</i>
   <i name="AGGAX">      1.00000000</i>
   <i name="ALDAC">      1.00000000</i>
   <i name="AGGAC">      1.00000000</i>
   <i type="int" name="NKREDX">     1</i>
   <i type="int" name="NKREDY">     1</i>
   <i type="int" name="NKREDZ">     1</i>
   <i type="logical" name="SHIFTRED"> F  </i>
   <i type="logical" name="ODDONLY"> F  </i>
   <i type="logical" name="EVENONLY"> F  </i>
   <i type="int" name="LMAXFOCK">     0</i>
   <i type="int" name="NMAXFOCKAE">     0</i>
   <i type="logical" name="LFOCKAEDFT"> F  </i>
   <i name="HFSCREEN">      0.00000000</i>
   <i name="HFSCREENC">      0.00000000</i>
   <i type="int" name="NBANDSGWLOW">     0</i>
  </separator>
  <separator name="vdW DFT" >
   <i type="logical" name="LUSE_VDW"> F  </i>
   <i name="Zab_VDW">     -0.84910000</i>
   <i name="PARAM1">      0.12340000</i>
   <i name="PARAM2">      1.00000000</i>
   <i name="PARAM3">      0.00000000</i>
  </separator>
  <separator name="model GW" >
   <i type="int" name="MODEL_GW">     0</i>
   <i name="MODEL_EPS0">    174.52683550</i>
   <i name="MODEL_ALPHA">      1.00000000</i>
  </separator>
  <separator name="linear response parameters" >
   <i type="logical" name="LEPSILON"> F  </i>
   <i type="logical" name="LRPA"> F  </i>
   <i type="logical" name="LNABLA"> F  </i>
   <i type="logical" name="LVEL"> F  </i>
   <i type="int" name="KINTER">     0</i>
   <i name="CSHIFT">      0.10000000</i>
   <i name="OMEGAMAX">     -1.00000000</i>
   <i name="DEG_THRESHOLD">      0.00200000</i>
  </separator>
  <separator name="orbital magnetization" >
   <i type="logical" name="NUCIND"> F  </i>
   <v name="MAGPOS">      0.00000000      0.00000000      0.00000000</v>
   <i type="logical" name="LNICSALL"> T  </i>
   <i type="logical" name="ORBITALMAG"> F  </i>
   <i type="logical" name="LMAGBLOCH"> F  </i>
   <i type="logical" name="LCHIMAG"> F  </i>
   <i type="logical" name="LGAUGE"> T  </i>
   <i type="int" name="MAGATOM">     0</i>
   <v name="MAGDIPOL">      0.00000000      0.00000000      0.00000000</v>
   <v name="AVECCONST">      0.00000000      0.00000000      0.00000000</v>
  </separator>
  <separator name="response functions" >
   <i type="logical" name="LADDER"> F  </i>
   <i type="logical" name="LFXC"> F  </i>
   <i type="logical" name="LHARTREE"> T  </i>
   <i type="int" name="IBSE">     0</i>
   <i type="logical" name="LTCTE"> F  </i>
   <i type="logical" name="LTETE"> F  </i>
   <i type="logical" name="LTRIPLET"> F  </i>
   <i type="logical" name="LFXCEPS"> F  </i>
   <i type="logical" name="LFXHEG"> F  </i>
   <i type="logical" name="L2ORDER"> F  </i>
   <i type="logical" name="LUSEW"> F  </i>
   <i name="ENCUTGW">     -2.00000000</i>
   <i name="ENCUTGWSOFT">     -2.00000000</i>
   <i name="ENCUTLF">     -1.00000000</i>
   <i type="int" name="LMAXMP2">    -1</i>
   <i name="SCISSOR">      0.00000000</i>
   <i type="int" name="NOMEGA">     0</i>
   <i type="int" name="NOMEGAR">     0</i>
   <i type="int" name="NBANDSGW">    -1</i>
   <i type="int" name="NBANDSO">    -1</i>
   <i type="int" name="NBANDSV">    -1</i>
   <i type="int" name="NELM">     1</i>
   <i type="int" name="DIM">     3</i>
   <i type="int" name="ANTIRES">     0</i>
   <i name="OMEGAMAX">    -30.00000000</i>
   <i name="OMEGAMIN">    -30.00000000</i>
   <i name="OMEGATL">   -200.00000000</i>
   <i type="int" name="OMEGAGRID">     0</i>
   <i name="CSHIFT">     -0.10000000</i>
   <i type="logical" name="SELFENERGY"> F  </i>
   <i type="logical" name="LSPECTRAL"> F  </i>
   <i type="logical" name="ODDONLYGW"> F  </i>
   <i type="logical" name="EVENONLYGW"> F  </i>
   <i type="int" name="NKREDLFX">     1</i>
   <i type="int" name="NKREDLFY">     1</i>
   <i type="int" name="NKREDLFZ">     1</i>
   <i type="int" name="MAXMEM">  1800</i>
   <i type="int" name="TELESCOPE">     0</i>
   <i type="int" name="TAUPAR">     1</i>
  </separator>
  <separator name="External order field" >
   <i name="OFIELD_KAPPA">      0.00000000</i>
   <v name="OFIELD_K">      0.00000000      0.00000000      0.00000000</v>
   <i name="OFIELD_Q6_NEAR">      0.00000000</i>
   <i name="OFIELD_Q6_FAR">      0.00000000</i>
   <i name="OFIELD_A">      0.00000000</i>
  </separator>
 </parameters>
 <atominfo>
  <atoms>      38 </atoms>
  <types>       1 </types>
  <array name="atoms" >
   <dimension dim="1">ion</dimension>
   <field type="string">element</field>
   <field type="int">atomtype</field>
   <set>
    <rc><c>Ag</c><c>   1</c></rc>
    <rc><c>Ag</c><c>   1</c></rc>
    <rc><c>Ag</c><c>   1</c></rc>
    <rc><c>Ag</c><c>   1</c></rc>
    <rc><c>Ag</c><c>   1</c></rc>
    <rc><c>Ag</c><c>   1</c></rc>
    <rc><c>Ag</c><c>   1</c></rc>
    <rc><c>Ag</c><c>   1</c></rc>
    <rc><c>Ag</c><c>   1</c></rc>
    <rc><c>Ag</c><c>   1</c></rc>
    <rc><c>Ag</c><c>   1</c></rc>
    <rc><c>Ag</c><c>   1</c></rc>
    <rc><c>Ag</c><c>   1</c></rc>
    <rc><c>Ag</c><c>   1</c></rc>
    <rc><c>Ag</c><c>   1</c></rc>
    <rc><c>Ag</c><c>   1</c></rc>
    <rc><c>Ag</c><c>   1</c></rc>
    <rc><c>Ag</c><c>   1</c></rc>
    <rc><c>Ag</c><c>   1</c></rc>
    <rc><c>Ag</c><c>   1</c></rc>
    <rc><c>Ag</c><c>   1</c></rc>
    <rc><c>Ag</c><c>   1</c></rc>
    <rc><c>Ag</c><c>   1</c></rc>
    <rc><c>Ag</c><c>   1</c></rc>
    <rc><c>Ag</c><c>   1</c></rc>
    <rc><c>Ag</c><c>   1</c></rc>
    <rc><c>Ag</c><c>   1</c></rc>
    <rc><c>Ag</c><c>   1</c></rc>
    <rc><c>Ag</c><c>   1</c></rc>
    <rc><c>Ag</c><c>   1</c></rc>
    <rc><c>Ag</c><c>   1</c></rc>
    <rc><c>Ag</c><c>   1</c></rc>
    <rc><c>Ag</c><c>   1</c></rc>
    <rc><c>Ag</c><c>   1</c></rc>
    <rc><c>Ag</c><c>   1</c></rc>
    <rc><c>Ag</c><c>   1</c></rc>
    <rc><c>Ag</c><c>   1</c></rc>
    <rc><c>Ag</c><c>   1</c></rc>
   </set>
  </array>
  <array name="atomtypes" >
   <dimension dim="1">type</dimension>
   <field type="int">atomspertype</field>
   <field type="string">element</field>
   <field>mass</field>
   <field>valence</field>
   <field type="string">pseudopotential</field>
   <set>
    <rc><c>  38</c><c>Ag</c><c>    107.86800000</c><c>     11.00000000</c><c>  PAW_PBE Ag 02Apr2005                  </c></rc>
   </set>
  </array>
 </atominfo>
 <structure name="initialpos" >
  <crystal>
   <varray name="basis" >
    <v>      22.27570820       0.00000000       0.00000000 </v>
    <v>       0.00000000      22.27570820       0.00000000 </v>
    <v>       0.00000000       0.00000000      22.27570820 </v>
   </varray>
   <i name="volume">  11053.36624823 </i>
   <varray name="rec_basis" >
    <v>       0.04489195       0.00000000       0.00000000 </v>
    <v>       0.00000000       0.04489195       0.00000000 </v>
    <v>       0.00000000       0.00000000       0.04489195 </v>
   </varray>
  </crystal>
  <varray name="positions" >
   <v>       0.66420219       0.53318568       0.44006792 </v>
   <v>       0.70406999       0.61996517       0.52189778 </v>
   <v>       0.69114925       0.50623461       0.56188555 </v>
   <v>       0.65614094       0.41682138       0.48482733 </v>
   <v>       0.68363729       0.39351909       0.60374144 </v>
   <v>       0.62633145       0.65685667       0.43177805 </v>
   <v>       0.59602878       0.44768284       0.38028849 </v>
   <v>       0.56891426       0.56721320       0.36687377 </v>
   <v>       0.58622052       0.33733639       0.55391798 </v>
   <v>       0.57368149       0.58175029       0.51373424 </v>
   <v>       0.58756531       0.32867277       0.43118987 </v>
   <v>       0.63221268       0.60181357       0.62405825 </v>
   <v>       0.61880845       0.70511937       0.55061534 </v>
   <v>       0.49225523       0.48772383       0.31625787 </v>
   <v>       0.52651932       0.68157571       0.36512035 </v>
   <v>       0.49548035       0.37475702       0.36255667 </v>
   <v>       0.61815767       0.48385127       0.65995577 </v>
   <v>       0.51572152       0.70061733       0.48611202 </v>
   <v>       0.58552150       0.36405050       0.67356260 </v>
   <v>       0.44381093       0.58331316       0.37596713 </v>
   <v>       0.54264329       0.46617821       0.48680602 </v>
   <v>       0.41359832       0.69368065       0.41993725 </v>
   <v>       0.42076389       0.45975694       0.41203635 </v>
   <v>       0.51557158       0.51066377       0.59494160 </v>
   <v>       0.51648250       0.65663345       0.60392348 </v>
   <v>       0.45712761       0.55251190       0.49529574 </v>
   <v>       0.53721213       0.57438844       0.69688111 </v>
   <v>       0.48330067       0.36103739       0.48562384 </v>
   <v>       0.50961159       0.44688624       0.71735306 </v>
   <v>       0.48459904       0.38772686       0.60609144 </v>
   <v>       0.43418370       0.53494078       0.75135473 </v>
   <v>       0.34200984       0.59976912       0.44628199 </v>
   <v>       0.31169637       0.48498238       0.46071917 </v>
   <v>       0.39815695       0.43305148       0.53383547 </v>
   <v>       0.41101280       0.65648210       0.53899277 </v>
   <v>       0.40404887       0.47551240       0.64862165 </v>
   <v>       0.41616723       0.60143102       0.64809705 </v>
   <v>       0.34829135       0.54521382       0.56170566 </v>
  </varray>
 </structure>
 <calculation>
  <scstep>
   <time name="dav">    3.49    3.50</time>
   <time name="total">    3.73    3.76</time>
   <energy>
    <i name="alphaZ">    111.11861347 </i>
    <i name="ewald">  98565.30284359 </i>
    <i name="hartreedc">-136412.43849619 </i>
    <i name="XCdc">   -412.79920287 </i>
    <i name="pawpsdc">  38128.14276665 </i>
    <i name="pawaedc"> -36376.05513740 </i>
    <i name="eentropy">      0.00000000 </i>
    <i name="bandstr">    531.49467118 </i>
    <i name="atom">  39413.54794328 </i>
    <i name="e_fr_energy">   3548.31400169 </i>
    <i name="e_wo_entrp">   3548.31400169 </i>
    <i name="e_0_energy">   3548.31400169 </i>
   </energy>
  </scstep>
  <scstep>
   <time name="dav">    5.08    5.08</time>
   <time name="total">    5.08    5.44</time>
   <energy>
    <i name="e_fr_energy">    614.61531229 </i>
    <i name="e_wo_entrp">    614.61531229 </i>
    <i name="e_0_energy">    614.61531229 </i>
   </energy>
  </scstep>
  <scstep>
   <time name="dav">    4.14    4.14</time>
   <time name="total">    4.14    4.50</time>
   <energy>
    <i name="e_fr_energy">    -53.39901014 </i>
    <i name="e_wo_entrp">    -53.39901014 </i>
    <i name="e_0_energy">    -53.39901014 </i>
   </energy>
  </scstep>
  <scstep>
   <time name="dav">    3.68    3.69</time>
   <time name="total">    3.68    3.69</time>
   <energy>
    <i name="e_fr_energy">    -80.67730328 </i>
    <i name="e_wo_entrp">    -80.67730328 </i>
    <i name="e_0_energy">    -80.67730328 </i>
   </energy>
  </scstep>
  <scstep>
   <time name="dav">    3.85    3.85</time>
   <time name="total">    3.96    3.97</time>
   <energy>
    <i name="e_fr_energy">    -81.07995162 </i>
    <i name="e_wo_entrp">    -81.07995162 </i>
    <i name="e_0_energy">    -81.07995162 </i>
   </energy>
  </scstep>
  <scstep>
   <time name="dav">    3.54    3.55</time>
   <time name="total">    3.88    4.36</time>
   <energy>
    <i name="e_fr_energy">    -37.23919946 </i>
    <i name="e_wo_entrp">    -37.23919946 </i>
    <i name="e_0_energy">    -37.23919946 </i>
   </energy>
  </scstep>
  <scstep>
   <time name="dav">    3.65    3.65</time>
   <time name="total">    3.99    3.99</time>
   <energy>
    <i name="e_fr_energy">    -26.35877759 </i>
    <i name="e_wo_entrp">    -26.35877759 </i>
    <i name="e_0_energy">    -26.35877759 </i>
   </energy>
  </scstep>
  <scstep>
   <time name="dav">    3.62    3.62</time>
   <time name="total">    3.96    3.96</time>
   <energy>
    <i name="e_fr_energy">    -26.31354962 </i>
    <i name="e_wo_entrp">    -26.31354962 </i>
    <i name="e_0_energy">    -26.31354962 </i>
   </energy>
  </scstep>
  <scstep>
   <time name="dav">    3.67    3.67</time>
   <time name="total">    4.00    7.24</time>
   <energy>
    <i name="e_fr_energy">    -30.63842275 </i>
    <i name="e_wo_entrp">    -30.63842275 </i>
    <i name="e_0_energy">    -30.63842275 </i>
   </energy>
  </scstep>
  <scstep>
   <time name="dav">    3.66    3.67</time>
   <time name="total">    4.00    4.03</time>
   <energy>
    <i name="e_fr_energy">    -33.77848676 </i>
    <i name="e_wo_entrp">    -33.77848676 </i>
    <i name="e_0_energy">    -33.77848676 </i>
   </energy>
  </scstep>
  <scstep>
   <time name="dav">    3.58    3.59</time>
   <time name="total">    3.92    3.95</time>
   <energy>
    <i name="e_fr_energy">    -45.99006148 </i>
    <i name="e_wo_entrp">    -45.99006148 </i>
    <i name="e_0_energy">    -45.99006148 </i>
   </energy>
  </scstep>
  <scstep>
   <time name="dav">    3.58    3.58</time>
   <time name="total">    3.91    3.92</time>
   <energy>
    <i name="e_fr_energy">    -54.14099528 </i>
    <i name="e_wo_entrp">    -54.14099528 </i>
    <i name="e_0_energy">    -54.14099528 </i>
   </energy>
  </scstep>
  <scstep>
   <time name="dav">    3.58    3.58</time>
   <time name="total">    3.91    3.92</time>
   <energy>
    <i name="e_fr_energy">    -63.63730921 </i>
    <i name="e_wo_entrp">    -63.63730921 </i>
    <i name="e_0_energy">    -63.63730921 </i>
   </energy>
  </scstep>
  <scstep>
   <time name="dav">    3.62    3.62</time>
   <time name="total">    3.96    3.96</time>
   <energy>
    <i name="e_fr_energy">    -69.62203878 </i>
    <i name="e_wo_entrp">    -69.62203878 </i>
    <i name="e_0_energy">    -69.62203878 </i>
   </energy>
  </scstep>
  <scstep>
   <time name="dav">    3.55    3.56</time>
   <time name="total">    3.90    3.91</time>
   <energy>
    <i name="e_fr_energy">    -73.77616898 </i>
    <i name="e_wo_entrp">    -73.77616898 </i>
    <i name="e_0_energy">    -73.77616898 </i>
   </energy>
  </scstep>
  <scstep>
   <time name="dav">    3.53    3.54</time>
   <time name="total">    3.87    3.88</time>
   <energy>
    <i name="e_fr_energy">    -77.18865968 </i>
    <i name="e_wo_entrp">    -77.18865968 </i>
    <i name="e_0_energy">    -77.18865968 </i>
   </energy>
  </scstep>
  <scstep>
   <time name="dav">    3.81    3.82</time>
   <time name="total">    4.15    4.16</time>
   <energy>
    <i name="e_fr_energy">    -77.26785859 </i>
    <i name="e_wo_entrp">    -77.26785859 </i>
    <i name="e_0_energy">    -77.26785859 </i>
   </energy>
  </scstep>
  <scstep>
   <time name="dav">    3.66    3.66</time>
   <time name="total">    4.00    4.00</time>
   <energy>
    <i name="e_fr_energy">    -77.51139031 </i>
    <i name="e_wo_entrp">    -77.51139031 </i>
    <i name="e_0_energy">    -77.51139031 </i>
   </energy>
  </scstep>
  <scstep>
   <time name="dav">    3.65    3.66</time>
   <time name="total">    3.99    4.00</time>
   <energy>
    <i name="e_fr_energy">    -77.94968839 </i>
    <i name="e_wo_entrp">    -77.94968839 </i>
    <i name="e_0_energy">    -77.94968839 </i>
   </energy>
  </scstep>
  <scstep>
   <time name="dav">    3.56    3.56</time>
   <time name="total">    3.90    4.22</time>
   <energy>
    <i name="e_fr_energy">    -78.92688775 </i>
    <i name="e_wo_entrp">    -78.92688775 </i>
    <i name="e_0_energy">    -78.92688775 </i>
   </energy>
  </scstep>
  <scstep>
   <time name="dav">    3.66    3.67</time>
   <time name="total">    4.00    4.02</time>
   <energy>
    <i name="e_fr_energy">    -79.21105415 </i>
    <i name="e_wo_entrp">    -79.21105415 </i>
    <i name="e_0_energy">    -79.21105415 </i>
   </energy>
  </scstep>
  <scstep>
   <time name="dav">    3.59    3.59</time>
   <time name="total">    3.93    4.85</time>
   <energy>
    <i name="e_fr_energy">    -79.43400318 </i>
    <i name="e_wo_entrp">    -79.43400318 </i>
    <i name="e_0_energy">    -79.43400318 </i>
   </energy>
  </scstep>
  <scstep>
   <time name="dav">    3.47    3.48</time>
   <time name="total">    3.82    3.82</time>
   <energy>
    <i name="e_fr_energy">    -79.54316349 </i>
    <i name="e_wo_entrp">    -79.54316349 </i>
    <i name="e_0_energy">    -79.54316349 </i>
   </energy>
  </scstep>
  <scstep>
   <time name="dav">    2.76    2.77</time>
   <time name="total">    3.10    3.15</time>
   <energy>
    <i name="e_fr_energy">    -79.56863369 </i>
    <i name="e_wo_entrp">    -79.56863369 </i>
    <i name="e_0_energy">    -79.56863369 </i>
   </energy>
  </scstep>
  <scstep>
   <time name="dav">    2.78    2.78</time>
   <time name="total">    3.12    3.13</time>
   <energy>
    <i name="e_fr_energy">    -79.58263747 </i>
    <i name="e_wo_entrp">    -79.58263747 </i>
    <i name="e_0_energy">    -79.58263747 </i>
   </energy>
  </scstep>
  <scstep>
   <time name="dav">    2.74    2.74</time>
   <time name="total">    3.08    3.10</time>
   <energy>
    <i name="e_fr_energy">    -79.59087050 </i>
    <i name="e_wo_entrp">    -79.59087050 </i>
    <i name="e_0_energy">    -79.59087050 </i>
   </energy>
  </scstep>
  <scstep>
   <time name="dav">    2.77    2.78</time>
   <time name="total">    3.13    3.13</time>
   <energy>
    <i name="e_fr_energy">    -79.59491934 </i>
    <i name="e_wo_entrp">    -79.59491934 </i>
    <i name="e_0_energy">    -79.59491934 </i>
   </energy>
  </scstep>
  <scstep>
   <time name="dav">    2.73    2.73</time>
   <time name="total">    3.07    3.29</time>
   <energy>
    <i name="e_fr_energy">    -79.59807003 </i>
    <i name="e_wo_entrp">    -79.59807003 </i>
    <i name="e_0_energy">    -79.59807003 </i>
   </energy>
  </scstep>
  <scstep>
   <time name="dav">    2.77    2.78</time>
   <time name="total">    3.12    3.14</time>
   <energy>
    <i name="e_fr_energy">    -79.59938459 </i>
    <i name="e_wo_entrp">    -79.59938459 </i>
    <i name="e_0_energy">    -79.59938459 </i>
   </energy>
  </scstep>
  <scstep>
   <time name="dav">    2.64    2.64</time>
   <time name="total">    2.98    7.14</time>
   <energy>
    <i name="e_fr_energy">    -79.60014015 </i>
    <i name="e_wo_entrp">    -79.60014015 </i>
    <i name="e_0_energy">    -79.60014015 </i>
   </energy>
  </scstep>
  <scstep>
   <time name="dav">    2.63    2.64</time>
   <time name="total">    2.98    2.99</time>
   <energy>
    <i name="e_fr_energy">    -79.60039069 </i>
    <i name="e_wo_entrp">    -79.60039069 </i>
    <i name="e_0_energy">    -79.60039069 </i>
   </energy>
  </scstep>
  <scstep>
   <time name="dav">    2.65    2.66</time>
   <time name="total">    2.87    5.65</time>
   <energy>
    <i name="alphaZ">    111.11861347 </i>
    <i name="ewald">  98565.30284359 </i>
    <i name="hartreedc">-136323.93274281 </i>
    <i name="XCdc">   -427.97176806 </i>
    <i name="pawpsdc">  41581.08774583 </i>
    <i name="pawaedc"> -39907.39317453 </i>
    <i name="eentropy">      0.00000000 </i>
    <i name="bandstr">  -3091.35986823 </i>
    <i name="atom">  39413.54794328 </i>
    <i name="e_fr_energy">    -79.60040747 </i>
    <i name="e_wo_entrp">    -79.60040747 </i>
    <i name="e_0_energy">    -79.60040747 </i>
   </energy>
  </scstep>
  <structure>
   <crystal>
    <varray name="basis" >
     <v>      22.27570820       0.00000000       0.00000000 </v>
     <v>       0.00000000      22.27570820       0.00000000 </v>
     <v>       0.00000000       0.00000000      22.27570820 </v>
    </varray>
    <i name="volume">  11053.36624823 </i>
    <varray name="rec_basis" >
     <v>       0.04489195       0.00000000       0.00000000 </v>
     <v>       0.00000000       0.04489195       0.00000000 </v>
     <v>       0.00000000       0.00000000       0.04489195 </v>
    </varray>
   </crystal>
   <varray name="positions" >
    <v>       0.66420219       0.53318568       0.44006792 </v>
    <v>       0.70406999       0.61996517       0.52189778 </v>
    <v>       0.69114925       0.50623461       0.56188555 </v>
    <v>       0.65614094       0.41682138       0.48482733 </v>
    <v>       0.68363729       0.39351909       0.60374144 </v>
    <v>       0.62633145       0.65685667       0.43177805 </v>
    <v>       0.59602878       0.44768284       0.38028849 </v>
    <v>       0.56891426       0.56721320       0.36687377 </v>
    <v>       0.58622052       0.33733639       0.55391798 </v>
    <v>       0.57368149       0.58175029       0.51373424 </v>
    <v>       0.58756531       0.32867277       0.43118987 </v>
    <v>       0.63221268       0.60181357       0.62405825 </v>
    <v>       0.61880845       0.70511937       0.55061534 </v>
    <v>       0.49225523       0.48772383       0.31625787 </v>
    <v>       0.52651932       0.68157571       0.36512035 </v>
    <v>       0.49548035       0.37475702       0.36255667 </v>
    <v>       0.61815767       0.48385127       0.65995577 </v>
    <v>       0.51572152       0.70061733       0.48611202 </v>
    <v>       0.58552150       0.36405050       0.67356260 </v>
    <v>       0.44381093       0.58331316       0.37596713 </v>
    <v>       0.54264329       0.46617821       0.48680602 </v>
    <v>       0.41359832       0.69368065       0.41993725 </v>
    <v>       0.42076389       0.45975694       0.41203635 </v>
    <v>       0.51557158       0.51066377       0.59494160 </v>
    <v>       0.51648250       0.65663345       0.60392348 </v>
    <v>       0.45712761       0.55251190       0.49529574 </v>
    <v>       0.53721213       0.57438844       0.69688111 </v>
    <v>       0.48330067       0.36103739       0.48562384 </v>
    <v>       0.50961159       0.44688624       0.71735306 </v>
    <v>       0.48459904       0.38772686       0.60609144 </v>
    <v>       0.43418370       0.53494078       0.75135473 </v>
    <v>       0.34200984       0.59976912       0.44628199 </v>
    <v>       0.31169637       0.48498238       0.46071917 </v>
    <v>       0.39815695       0.43305148       0.53383547 </v>
    <v>       0.41101280       0.65648210       0.53899277 </v>
    <v>       0.40404887       0.47551240       0.64862165 </v>
    <v>       0.41616723       0.60143102       0.64809705 </v>
    <v>       0.34829135       0.54521382       0.56170566 </v>
   </varray>
  </structure>
  <varray name="forces" >
   <v>       0.24502531      -0.04641720      -0.06722759 </v>
   <v>       0.06857360       0.08417481      -0.06088456 </v>
   <v>       0.11128577       0.21125203      -0.07399601 </v>
   <v>       0.53758806      -0.24604339      -0.05737334 </v>
   <v>       0.26434778      -0.18046318       0.20702944 </v>
   <v>       0.27236949       0.39196791      -0.15685752 </v>
   <v>       0.13719913      -0.21462520      -0.60354161 </v>
   <v>       0.10812072      -0.03898516       0.13606425 </v>
   <v>      -0.04672454      -0.16292457      -0.10189303 </v>
   <v>       0.44449290       0.41666322       0.00323195 </v>
   <v>       0.22711728      -0.20232606      -0.31853747 </v>
   <v>       0.16730587       0.18922288       0.11659073 </v>
   <v>       0.23245425       0.12759908       0.16714496 </v>
   <v>      -0.04822107      -0.05371655      -0.37780966 </v>
   <v>      -0.21457242       0.12286803      -0.26577345 </v>
   <v>      -0.07942391      -0.31519100      -0.20243349 </v>
   <v>       0.22589625      -0.10115072       0.34062869 </v>
   <v>       0.09856247       0.03670894       0.03317492 </v>
   <v>       0.19014417      -0.27446075       0.16606865 </v>
   <v>       0.01372338      -0.04622724      -0.35427504 </v>
   <v>      -0.03637300      -0.14233340      -0.26029534 </v>
   <v>      -0.12479143       0.50064012      -0.16684723 </v>
   <v>       0.06170770      -0.05560084       0.09330004 </v>
   <v>      -0.34371826       0.02081229       0.52821471 </v>
   <v>       0.15802886       0.04975761       0.08775710 </v>
   <v>      -0.52981144       0.03416321      -0.14970444 </v>
   <v>      -0.13963919       0.10494011       0.44610423 </v>
   <v>      -0.51670019      -0.44848964      -0.21141161 </v>
   <v>      -0.07099499       0.10533465      -0.15073932 </v>
   <v>       0.05139668      -0.13699434       0.31862547 </v>
   <v>      -0.35160423       0.34210722       0.46952279 </v>
   <v>       0.00108807       0.03321645       0.11624329 </v>
   <v>      -0.29682032      -0.44092461      -0.11568852 </v>
   <v>      -0.18630155       0.09775468      -0.24117771 </v>
   <v>      -0.37387600       0.34999892       0.03539571 </v>
   <v>      -0.11179726      -0.13900798       0.26918773 </v>
   <v>       0.12657187      -0.09441044       0.32671102 </v>
   <v>      -0.27162982       0.12111012       0.07547127 </v>
  </varray>
  <varray name="stress" >
   <v>      -0.07730662       0.01931660      -0.17254050 </v>
   <v>       0.01931661       0.03632126       0.42109679 </v>
   <v>      -0.17254050       0.42109679       0.38609684 </v>
  </varray>
  <energy>
   <i name="e_fr_energy">    -79.60040747 </i>
   <i name="e_wo_entrp">    -79.60040747 </i>
   <i name="e_0_energy">      0.00000000 </i>
  </energy>
  <time name="totalsc">  125.60  138.77</time>
 </calculation>
 <calculation>
  <scstep>
   <time name="dav">    3.60    3.61</time>
   <time name="total">    3.94    3.97</time>
   <energy>
    <i name="alphaZ">    111.11861347 </i>
    <i name="ewald">  98408.69366914 </i>
    <i name="hartreedc">-136168.16014988 </i>
    <i name="XCdc">   -428.13279460 </i>
    <i name="pawpsdc">  41581.09538283 </i>
    <i name="pawaedc"> -39907.40133363 </i>
    <i name="eentropy">      0.00000000 </i>
    <i name="bandstr">  -3090.42106324 </i>
    <i name="atom">  39413.54794328 </i>
    <i name="e_fr_energy">    -79.65973263 </i>
    <i name="e_wo_entrp">    -79.65973263 </i>
    <i name="e_0_energy">    -79.65973263 </i>
   </energy>
  </scstep>
  <scstep>
   <time name="dav">    3.63    3.64</time>
   <time name="total">    3.97    3.98</time>
   <energy>
    <i name="e_fr_energy">    -79.66164741 </i>
    <i name="e_wo_entrp">    -79.66164741 </i>
    <i name="e_0_energy">    -79.66164741 </i>
   </energy>
  </scstep>
  <scstep>
   <time name="dav">    3.52    3.53</time>
   <time name="total">    3.74    3.75</time>
   <energy>
    <i name="alphaZ">    111.11861347 </i>
    <i name="ewald">  98408.69366914 </i>
    <i name="hartreedc">-136169.17272871 </i>
    <i name="XCdc">   -428.11046377 </i>
    <i name="pawpsdc">  41567.04137818 </i>
    <i name="pawaedc"> -39893.11953388 </i>
    <i name="eentropy">      0.00000000 </i>
    <i name="bandstr">  -3089.66046816 </i>
    <i name="atom">  39413.54794328 </i>
    <i name="e_fr_energy">    -79.66159046 </i>
    <i name="e_wo_entrp">    -79.66159046 </i>
    <i name="e_0_energy">    -79.66159046 </i>
   </energy>
  </scstep>
  <structure>
   <crystal>
    <varray name="basis" >
     <v>      22.27570820       0.00000000       0.00000000 </v>
     <v>       0.00000000      22.27570820       0.00000000 </v>
     <v>       0.00000000       0.00000000      22.27570820 </v>
    </varray>
    <i name="volume">  11053.36624823 </i>
    <varray name="rec_basis" >
     <v>       0.04489195       0.00000000       0.00000000 </v>
     <v>       0.00000000       0.04489195       0.00000000 </v>
     <v>       0.00000000       0.00000000       0.04489195 </v>
    </varray>
   </crystal>
   <varray name="positions" >
    <v>       0.66430832       0.53316558       0.44003880 </v>
    <v>       0.70409969       0.62000163       0.52187141 </v>
    <v>       0.69119746       0.50632611       0.56185350 </v>
    <v>       0.65637379       0.41671481       0.48480248 </v>
    <v>       0.68375179       0.39344093       0.60383111 </v>
    <v>       0.62644943       0.65702645       0.43171011 </v>
    <v>       0.59608820       0.44758987       0.38002707 </v>
    <v>       0.56896109       0.56719632       0.36693271 </v>
    <v>       0.58620028       0.33726582       0.55387385 </v>
    <v>       0.57387402       0.58193077       0.51373564 </v>
    <v>       0.58766368       0.32858514       0.43105190 </v>
    <v>       0.63228514       0.60189553       0.62410875 </v>
    <v>       0.61890914       0.70517464       0.55068773 </v>
    <v>       0.49223435       0.48770057       0.31609423 </v>
    <v>       0.52642638       0.68162893       0.36500523 </v>
    <v>       0.49544595       0.37462050       0.36246899 </v>
    <v>       0.61825551       0.48380746       0.66010331 </v>
    <v>       0.51576421       0.70063323       0.48612639 </v>
    <v>       0.58560386       0.36393162       0.67363453 </v>
    <v>       0.44381687       0.58329314       0.37581368 </v>
    <v>       0.54262753       0.46611656       0.48669328 </v>
    <v>       0.41354427       0.69389749       0.41986499 </v>
    <v>       0.42079062       0.45973286       0.41207676 </v>
    <v>       0.51542271       0.51067279       0.59517040 </v>
    <v>       0.51655095       0.65665501       0.60396149 </v>
    <v>       0.45689812       0.55252670       0.49523090 </v>
    <v>       0.53715165       0.57443389       0.69707434 </v>
    <v>       0.48307686       0.36084313       0.48553227 </v>
    <v>       0.50958084       0.44693186       0.71728777 </v>
    <v>       0.48462130       0.38766752       0.60622945 </v>
    <v>       0.43403141       0.53508896       0.75155810 </v>
    <v>       0.34201031       0.59978350       0.44633233 </v>
    <v>       0.31156780       0.48479140       0.46066906 </v>
    <v>       0.39807625       0.43309382       0.53373101 </v>
    <v>       0.41085086       0.65663370       0.53900810 </v>
    <v>       0.40400044       0.47545219       0.64873825 </v>
    <v>       0.41622205       0.60139013       0.64823856 </v>
    <v>       0.34817369       0.54526628       0.56173835 </v>
   </varray>
  </structure>
  <varray name="forces" >
   <v>       0.23051840      -0.05152967      -0.06978623 </v>
   <v>       0.06898258       0.08613865      -0.06213698 </v>
   <v>       0.10081617       0.18494738      -0.06176905 </v>
   <v>       0.50775558      -0.23504564      -0.06303085 </v>
   <v>       0.24824341      -0.16387941       0.19300472 </v>
   <v>       0.25901117       0.38225292      -0.16050266 </v>
   <v>       0.13699327      -0.20738915      -0.56727487 </v>
   <v>       0.09882095      -0.03766698       0.13719373 </v>
   <v>      -0.04589286      -0.14765364      -0.10459523 </v>
   <v>       0.38812338       0.36608649       0.00908610 </v>
   <v>       0.20851607      -0.18453671      -0.29932377 </v>
   <v>       0.15578250       0.17213908       0.12604579 </v>
   <v>       0.22301283       0.12733794       0.15940027 </v>
   <v>      -0.04355694      -0.05695450      -0.35666983 </v>
   <v>      -0.20376228       0.11187067      -0.24938474 </v>
   <v>      -0.07578190      -0.29841494      -0.19715801 </v>
   <v>       0.21898927      -0.08810288       0.32511011 </v>
   <v>       0.09044898       0.02945004       0.02759129 </v>
   <v>       0.18306229      -0.26242283       0.15766985 </v>
   <v>       0.00811041      -0.03239919      -0.33831500 </v>
   <v>      -0.03636568      -0.11986104      -0.23671781 </v>
   <v>      -0.11971985       0.47170617      -0.15907853 </v>
   <v>       0.06749791      -0.05518464       0.07759542 </v>
   <v>      -0.31998580       0.03297460       0.46223822 </v>
   <v>       0.14234391       0.04301833       0.08212220 </v>
   <v>      -0.46920341       0.03410019      -0.12654469 </v>
   <v>      -0.12542563       0.10311785       0.42908767 </v>
   <v>      -0.48435856      -0.43034292      -0.19682583 </v>
   <v>      -0.07200301       0.10914577      -0.14031153 </v>
   <v>       0.03983406      -0.13199530       0.28358754 </v>
   <v>      -0.33697415       0.31882396       0.45412675 </v>
   <v>       0.00697011       0.02504437       0.10817521 </v>
   <v>      -0.28355834      -0.41351822      -0.11191299 </v>
   <v>      -0.16510421       0.09187347      -0.20868288 </v>
   <v>      -0.34879922       0.33542595       0.04428599 </v>
   <v>      -0.11578754      -0.13365451       0.25737245 </v>
   <v>       0.12395162      -0.08751041       0.29901944 </v>
   <v>      -0.26150552       0.11260877       0.07730869 </v>
  </varray>
  <varray name="stress" >
   <v>      -0.18818469       0.01742836      -0.17318267 </v>
   <v>       0.01742836      -0.07962039       0.41307236 </v>
   <v>      -0.17318267       0.41307236       0.27219377 </v>
  </varray>
  <energy>
   <i name="e_fr_energy">    -79.66159046 </i>
   <i name="e_wo_entrp">    -79.66159046 </i>
   <i name="e_0_energy">      0.00000000 </i>
  </energy>
  <time name="totalsc">   18.11   18.36</time>
 </calculation>
 <calculation>
  <scstep>
   <time name="dav">    3.56    3.56</time>
   <time name="total">    3.90    3.92</time>
   <energy>
    <i name="alphaZ">    111.11861347 </i>
    <i name="ewald">  97940.50570875 </i>
    <i name="hartreedc">-135703.79577251 </i>
    <i name="XCdc">   -428.58191206 </i>
    <i name="pawpsdc">  41558.19081194 </i>
    <i name="pawaedc"> -39884.12832654 </i>
    <i name="eentropy">      0.00000000 </i>
    <i name="bandstr">  -3086.66456590 </i>
    <i name="atom">  39413.54794328 </i>
    <i name="e_fr_energy">    -79.80749957 </i>
    <i name="e_wo_entrp">    -79.80749957 </i>
    <i name="e_0_energy">    -79.80749957 </i>
   </energy>
  </scstep>
  <scstep>
   <time name="dav">    3.65    3.66</time>
   <time name="total">    3.99    5.13</time>
   <energy>
    <i name="e_fr_energy">    -79.82440794 </i>
    <i name="e_wo_entrp">    -79.82440794 </i>
    <i name="e_0_energy">    -79.82440794 </i>
   </energy>
  </scstep>
  <scstep>
   <time name="dav">    3.64    3.65</time>
   <time name="total">    3.99    4.01</time>
   <energy>
    <i name="e_fr_energy">    -79.82387297 </i>
    <i name="e_wo_entrp">    -79.82387297 </i>
    <i name="e_0_energy">    -79.82387297 </i>
   </energy>
  </scstep>
  <scstep>
   <time name="dav">    3.66    3.66</time>
   <time name="total">    4.00    4.04</time>
   <energy>
    <i name="e_fr_energy">    -79.82351059 </i>
    <i name="e_wo_entrp">    -79.82351059 </i>
    <i name="e_0_energy">    -79.82351059 </i>
   </energy>
  </scstep>
  <scstep>
   <time name="dav">    2.69    2.70</time>
   <time name="total">    2.92    3.59</time>
   <energy>
    <i name="alphaZ">    111.11861347 </i>
    <i name="ewald">  97940.50570875 </i>
    <i name="hartreedc">-135707.60572961 </i>
    <i name="XCdc">   -428.49624561 </i>
    <i name="pawpsdc">  41488.97442410 </i>
    <i name="pawaedc"> -39813.78605035 </i>
    <i name="eentropy">      0.00000000 </i>
    <i name="bandstr">  -3084.08218206 </i>
    <i name="atom">  39413.54794328 </i>
    <i name="e_fr_energy">    -79.82351803 </i>
    <i name="e_wo_entrp">    -79.82351803 </i>
    <i name="e_0_energy">    -79.82351803 </i>
   </energy>
  </scstep>
  <structure>
   <crystal>
    <varray name="basis" >
     <v>      22.27570820       0.00000000       0.00000000 </v>
     <v>       0.00000000      22.27570820       0.00000000 </v>
     <v>       0.00000000       0.00000000      22.27570820 </v>
    </varray>
    <i name="volume">  11053.36624823 </i>
    <varray name="rec_basis" >
     <v>       0.04489195       0.00000000       0.00000000 </v>
     <v>       0.00000000       0.04489195       0.00000000 </v>
     <v>       0.00000000       0.00000000       0.04489195 </v>
    </varray>
   </crystal>
   <varray name="positions" >
    <v>       0.66462671       0.53310526       0.43995144 </v>
    <v>       0.70418880       0.62011101       0.52179230 </v>
    <v>       0.69134206       0.50660062       0.56175735 </v>
    <v>       0.65707235       0.41639509       0.48472793 </v>
    <v>       0.68409529       0.39320643       0.60410013 </v>
    <v>       0.62680335       0.65753578       0.43150628 </v>
    <v>       0.59626648       0.44731098       0.37924281 </v>
    <v>       0.56910158       0.56714566       0.36710951 </v>
    <v>       0.58613956       0.33705411       0.55374145 </v>
    <v>       0.57445160       0.58247219       0.51373984 </v>
    <v>       0.58795880       0.32832223       0.43063798 </v>
    <v>       0.63250254       0.60214141       0.62426025 </v>
    <v>       0.61921120       0.70534045       0.55090493 </v>
    <v>       0.49217169       0.48763076       0.31560329 </v>
    <v>       0.52614755       0.68178859       0.36465988 </v>
    <v>       0.49534274       0.37421093       0.36220594 </v>
    <v>       0.61854905       0.48367602       0.66054593 </v>
    <v>       0.51589229       0.70068093       0.48616949 </v>
    <v>       0.58585093       0.36357498       0.67385032 </v>
    <v>       0.44383470       0.58323307       0.37535333 </v>
    <v>       0.54258027       0.46593161       0.48635504 </v>
    <v>       0.41338211       0.69454804       0.41964818 </v>
    <v>       0.42087080       0.45966061       0.41219800 </v>
    <v>       0.51497607       0.51069983       0.59585677 </v>
    <v>       0.51675630       0.65671966       0.60407553 </v>
    <v>       0.45620967       0.55257109       0.49503637 </v>
    <v>       0.53697020       0.57457025       0.69765402 </v>
    <v>       0.48240545       0.36026035       0.48525756 </v>
    <v>       0.50948859       0.44706873       0.71709190 </v>
    <v>       0.48468809       0.38748951       0.60664348 </v>
    <v>       0.43357452       0.53553350       0.75216821 </v>
    <v>       0.34201173       0.59982667       0.44648338 </v>
    <v>       0.31118211       0.48421845       0.46051873 </v>
    <v>       0.39783417       0.43322085       0.53341762 </v>
    <v>       0.41036503       0.65708849       0.53905410 </v>
    <v>       0.40385517       0.47527156       0.64908804 </v>
    <v>       0.41638652       0.60126745       0.64866310 </v>
    <v>       0.34782073       0.54542365       0.56183642 </v>
   </varray>
  </structure>
  <varray name="forces" >
   <v>       0.19518281      -0.06761225      -0.07796642 </v>
   <v>       0.07288096       0.09640134      -0.06836539 </v>
   <v>       0.07449245       0.11623152      -0.02946773 </v>
   <v>       0.43683747      -0.21217690      -0.07998834 </v>
   <v>       0.21114011      -0.12402180       0.16188099 </v>
   <v>       0.22801897       0.36379282      -0.17260906 </v>
   <v>       0.13759382      -0.19156995      -0.47849746 </v>
   <v>       0.07553183      -0.03478737       0.14209191 </v>
   <v>      -0.04570477      -0.11012961      -0.11382175 </v>
   <v>       0.25101628       0.24169494       0.02332964 </v>
   <v>       0.16191433      -0.13988564      -0.25372174 </v>
   <v>       0.12696960       0.12928953       0.15432137 </v>
   <v>       0.20332437       0.13105884       0.14315843 </v>
   <v>      -0.03134128      -0.06781354      -0.30904571 </v>
   <v>      -0.18110611       0.08454582      -0.21119806 </v>
   <v>      -0.06698613      -0.25842971      -0.18539681 </v>
   <v>       0.20439489      -0.05475095       0.28989449 </v>
   <v>       0.06967592       0.01051631       0.01337182 </v>
   <v>       0.16951183      -0.23508283       0.13737520 </v>
   <v>      -0.00593404       0.00296382      -0.30187814 </v>
   <v>      -0.03909058      -0.06372374      -0.18345100 </v>
   <v>      -0.10846348       0.40696112      -0.14264788 </v>
   <v>       0.08481045      -0.05626715       0.03575845 </v>
   <v>      -0.26419109       0.06560873       0.29700773 </v>
   <v>       0.10656350       0.02559809       0.06942362 </v>
   <v>      -0.32059749       0.03381231      -0.06815651 </v>
   <v>      -0.09123801       0.10162457       0.39271115 </v>
   <v>      -0.40108229      -0.38719807      -0.16279880 </v>
   <v>      -0.07580159       0.12213188      -0.11445980 </v>
   <v>       0.00922177      -0.12212962       0.19447789 </v>
   <v>      -0.30278625       0.26324563       0.42095157 </v>
   <v>       0.02229375       0.00397477       0.08954801 </v>
   <v>      -0.25698194      -0.35262524      -0.10414216 </v>
   <v>      -0.11158357       0.07646823      -0.12360512 </v>
   <v>      -0.28796182       0.30217554       0.06820521 </v>
   <v>      -0.12991693      -0.12205707       0.23112923 </v>
   <v>       0.11903303      -0.06989377       0.23208408 </v>
   <v>      -0.23964074       0.09205940       0.08449707 </v>
  </varray>
  <varray name="stress" >
   <v>      -0.46434143       0.01352857      -0.17601099 </v>
   <v>       0.01352856      -0.36504778       0.38782685 </v>
   <v>      -0.17601099       0.38782686      -0.00975388 </v>
  </varray>
  <energy>
   <i name="e_fr_energy">    -79.82351803 </i>
   <i name="e_wo_entrp">    -79.82351803 </i>
   <i name="e_0_energy">      0.00000000 </i>
  </energy>
  <time name="totalsc">   25.25   28.56</time>
 </calculation>
 <calculation>
  <scstep>
   <time name="dav">    3.50    3.50</time>
   <time name="total">    3.84    3.86</time>
   <energy>
    <i name="alphaZ">    111.11861347 </i>
    <i name="ewald">  97011.43512060 </i>
    <i name="hartreedc">-134783.04081467 </i>
    <i name="XCdc">   -429.41310045 </i>
    <i name="pawpsdc">  41489.57891960 </i>
    <i name="pawaedc"> -39814.39962969 </i>
    <i name="eentropy">      0.00000000 </i>
    <i name="bandstr">  -3078.82103699 </i>
    <i name="atom">  39413.54794328 </i>
    <i name="e_fr_energy">    -79.99398485 </i>
    <i name="e_wo_entrp">    -79.99398485 </i>
    <i name="e_0_energy">    -79.99398485 </i>
   </energy>
  </scstep>
  <scstep>
   <time name="dav">    3.64    3.65</time>
   <time name="total">    3.98    3.99</time>
   <energy>
    <i name="e_fr_energy">    -80.06117843 </i>
    <i name="e_wo_entrp">    -80.06117843 </i>
    <i name="e_0_energy">    -80.06117843 </i>
   </energy>
  </scstep>
  <scstep>
   <time name="dav">    3.63    3.64</time>
   <time name="total">    3.97    3.98</time>
   <energy>
    <i name="e_fr_energy">    -80.05949962 </i>
    <i name="e_wo_entrp">    -80.05949962 </i>
    <i name="e_0_energy">    -80.05949962 </i>
   </energy>
  </scstep>
  <scstep>
   <time name="dav">    3.65    3.65</time>
   <time name="total">    3.99    4.00</time>
   <energy>
    <i name="e_fr_energy">    -80.05778458 </i>
    <i name="e_wo_entrp">    -80.05778458 </i>
    <i name="e_0_energy">    -80.05778458 </i>
   </energy>
  </scstep>
  <scstep>
   <time name="dav">    2.81    2.82</time>
   <time name="total">    3.04    3.04</time>
   <energy>
    <i name="alphaZ">    111.11861347 </i>
    <i name="ewald">  97011.43512060 </i>
    <i name="hartreedc">-134790.75406400 </i>
    <i name="XCdc">   -429.24621087 </i>
    <i name="pawpsdc">  41362.01594672 </i>
    <i name="pawaedc"> -39684.71222756 </i>
    <i name="eentropy">      0.00000000 </i>
    <i name="bandstr">  -3073.46300114 </i>
    <i name="atom">  39413.54794328 </i>
    <i name="e_fr_energy">    -80.05787950 </i>
    <i name="e_wo_entrp">    -80.05787950 </i>
    <i name="e_0_energy">    -80.05787950 </i>
   </energy>
  </scstep>
  <structure>
   <crystal>
    <varray name="basis" >
     <v>      22.27570820       0.00000000       0.00000000 </v>
     <v>       0.00000000      22.27570820       0.00000000 </v>
     <v>       0.00000000       0.00000000      22.27570820 </v>
    </varray>
    <i name="volume">  11053.36624823 </i>
    <varray name="rec_basis" >
     <v>       0.04489195       0.00000000       0.00000000 </v>
     <v>       0.00000000       0.04489195       0.00000000 </v>
     <v>       0.00000000       0.00000000       0.04489195 </v>
    </varray>
   </crystal>
   <varray name="positions" >
    <v>       0.66526350       0.53298463       0.43977673 </v>
    <v>       0.70436701       0.62032977       0.52163407 </v>
    <v>       0.69163128       0.50714963       0.56156505 </v>
    <v>       0.65846946       0.41575567       0.48457882 </v>
    <v>       0.68478229       0.39273743       0.60463817 </v>
    <v>       0.62751120       0.65855445       0.43109863 </v>
    <v>       0.59662304       0.44675321       0.37767430 </v>
    <v>       0.56938257       0.56704434       0.36746312 </v>
    <v>       0.58601813       0.33663069       0.55347664 </v>
    <v>       0.57560677       0.58355504       0.51374824 </v>
    <v>       0.58854905       0.32779641       0.42981015 </v>
    <v>       0.63293735       0.60263317       0.62456325 </v>
    <v>       0.61981531       0.70567206       0.55133931 </v>
    <v>       0.49204637       0.48749116       0.31462142 </v>
    <v>       0.52558991       0.68210790       0.36396917 </v>
    <v>       0.49513633       0.37339180       0.36167985 </v>
    <v>       0.61913612       0.48341315       0.66143118 </v>
    <v>       0.51614844       0.70077633       0.48625571 </v>
    <v>       0.58634509       0.36286170       0.67428191 </v>
    <v>       0.44387037       0.58311293       0.37443262 </v>
    <v>       0.54248574       0.46556171       0.48567858 </v>
    <v>       0.41305780       0.69584912       0.41921457 </v>
    <v>       0.42103117       0.45951611       0.41244047 </v>
    <v>       0.51408280       0.51075392       0.59722952 </v>
    <v>       0.51716699       0.65684898       0.60430360 </v>
    <v>       0.45483277       0.55265988       0.49464731 </v>
    <v>       0.53660730       0.57484297       0.69881337 </v>
    <v>       0.48106262       0.35909480       0.48470813 </v>
    <v>       0.50930409       0.44734248       0.71670015 </v>
    <v>       0.48482166       0.38713348       0.60747154 </v>
    <v>       0.43266076       0.53642259       0.75338843 </v>
    <v>       0.34201455       0.59991299       0.44678548 </v>
    <v>       0.31041072       0.48307255       0.46021807 </v>
    <v>       0.39735000       0.43347490       0.53279083 </v>
    <v>       0.40939339       0.65799809       0.53914609 </v>
    <v>       0.40356463       0.47491030       0.64978762 </v>
    <v>       0.41671546       0.60102209       0.64951217 </v>
    <v>       0.34711481       0.54573840       0.56203256 </v>
   </varray>
  </structure>
  <varray name="forces" >
   <v>       0.12670596      -0.09718885      -0.09239206 </v>
   <v>       0.08083749       0.11863786      -0.08149274 </v>
   <v>       0.02439295      -0.01767136       0.03500755 </v>
   <v>       0.30231360      -0.16167808      -0.10517976 </v>
   <v>       0.13498749      -0.04663275       0.09884854 </v>
   <v>       0.16153247       0.32407010      -0.19348085 </v>
   <v>       0.13225128      -0.15565870      -0.30198457 </v>
   <v>       0.02921180      -0.02868414       0.14955546 </v>
   <v>      -0.04428803      -0.03847551      -0.12885460 </v>
   <v>       0.01634015       0.02252168       0.04054877 </v>
   <v>       0.07016116      -0.05252044      -0.16190153 </v>
   <v>       0.07229575       0.04573361       0.20690589 </v>
   <v>       0.16226186       0.13769106       0.10902005 </v>
   <v>      -0.00590698      -0.08713173      -0.21154092 </v>
   <v>      -0.13518897       0.03079527      -0.13466865 </v>
   <v>      -0.04671018      -0.18697826      -0.15861385 </v>
   <v>       0.17107340       0.00730595       0.21788641 </v>
   <v>       0.02672438      -0.02567839      -0.01459608 </v>
   <v>       0.14192585      -0.17688637       0.09396585 </v>
   <v>      -0.03166656       0.06683878      -0.22726978 </v>
   <v>      -0.04485642       0.03209748      -0.09615804 </v>
   <v>      -0.08303582       0.27444754      -0.10729524 </v>
   <v>       0.11659063      -0.05567743      -0.05172361 </v>
   <v>      -0.15951503       0.12282397       0.00528739 </v>
   <v>       0.03138283      -0.00945461       0.04512998 </v>
   <v>      -0.05238563       0.03131023       0.03852979 </v>
   <v>      -0.02705076       0.09889807       0.31314395 </v>
   <v>      -0.24272620      -0.30068048      -0.10029524 </v>
   <v>      -0.07805147       0.14196084      -0.05531708 </v>
   <v>      -0.04597013      -0.10549195       0.02490231 </v>
   <v>      -0.23240627       0.16047793       0.35800646 </v>
   <v>       0.04943951      -0.02977696       0.04702263 </v>
   <v>      -0.20482926      -0.23286194      -0.08992364 </v>
   <v>      -0.00764317       0.04492467       0.04366493 </v>
   <v>      -0.16513572       0.23081927       0.10846581 </v>
   <v>      -0.15916804      -0.09783121       0.17662739 </v>
   <v>       0.10754930      -0.03666234       0.09994250 </v>
   <v>      -0.19144322       0.05226716       0.10022660 </v>
  </varray>
  <varray name="stress" >
   <v>      -0.99729076       0.00738537      -0.18039634 </v>
   <v>       0.00738536      -0.91355461       0.33681245 </v>
   <v>      -0.18039634       0.33681244      -0.55566329 </v>
  </varray>
  <energy>
   <i name="e_fr_energy">    -80.05787950 </i>
   <i name="e_wo_entrp">    -80.05787950 </i>
   <i name="e_0_energy">      0.00000000 </i>
  </energy>
  <time name="totalsc">   25.26   25.45</time>
 </calculation>
 <calculation>
  <scstep>
   <time name="dav">    3.49    3.49</time>
   <time name="total">    3.84    4.20</time>
   <energy>
    <i name="alphaZ">    111.11861347 </i>
    <i name="ewald">  95181.92966912 </i>
    <i name="hartreedc">-132969.25788082 </i>
    <i name="XCdc">   -430.94687269 </i>
    <i name="pawpsdc">  41362.92447046 </i>
    <i name="pawaedc"> -39685.63453338 </i>
    <i name="eentropy">      0.00000000 </i>
    <i name="bandstr">  -3063.64053379 </i>
    <i name="atom">  39413.54794328 </i>
    <i name="e_fr_energy">    -79.95912434 </i>
    <i name="e_wo_entrp">    -79.95912434 </i>
    <i name="e_0_energy">    -79.95912434 </i>
   </energy>
  </scstep>
  <scstep>
   <time name="dav">    3.64    3.64</time>
   <time name="total">    3.98    4.01</time>
   <energy>
    <i name="e_fr_energy">    -80.23098973 </i>
    <i name="e_wo_entrp">    -80.23098973 </i>
    <i name="e_0_energy">    -80.23098973 </i>
   </energy>
  </scstep>
  <scstep>
   <time name="dav">    3.72    3.72</time>
   <time name="total">    4.05    4.06</time>
   <energy>
    <i name="e_fr_energy">    -80.22744143 </i>
    <i name="e_wo_entrp">    -80.22744143 </i>
    <i name="e_0_energy">    -80.22744143 </i>
   </energy>
  </scstep>
  <scstep>
   <time name="dav">    3.64    3.64</time>
   <time name="total">    3.97    4.02</time>
   <energy>
    <i name="e_fr_energy">    -80.21910375 </i>
    <i name="e_wo_entrp">    -80.21910375 </i>
    <i name="e_0_energy">    -80.21910375 </i>
   </energy>
  </scstep>
  <scstep>
   <time name="dav">    3.70    3.70</time>
   <time name="total">    4.04    4.04</time>
   <energy>
    <i name="e_fr_energy">    -80.21957380 </i>
    <i name="e_wo_entrp">    -80.21957380 </i>
    <i name="e_0_energy">    -80.21957380 </i>
   </energy>
  </scstep>
  <scstep>
   <time name="dav">    2.86    2.86</time>
   <time name="total">    3.21    3.70</time>
   <energy>
    <i name="e_fr_energy">    -80.22011003 </i>
    <i name="e_wo_entrp">    -80.22011003 </i>
    <i name="e_0_energy">    -80.22011003 </i>
   </energy>
  </scstep>
  <scstep>
   <time name="dav">    3.07    3.07</time>
   <time name="total">    3.40    3.41</time>
   <energy>
    <i name="e_fr_energy">    -80.22090139 </i>
    <i name="e_wo_entrp">    -80.22090139 </i>
    <i name="e_0_energy">    -80.22090139 </i>
   </energy>
  </scstep>
  <scstep>
   <time name="dav">    2.74    2.75</time>
   <time name="total">    3.08    3.08</time>
   <energy>
    <i name="e_fr_energy">    -80.22144161 </i>
    <i name="e_wo_entrp">    -80.22144161 </i>
    <i name="e_0_energy">    -80.22144161 </i>
   </energy>
  </scstep>
  <scstep>
   <time name="dav">    2.74    2.75</time>
   <time name="total">    3.08    3.80</time>
   <energy>
    <i name="e_fr_energy">    -80.22178701 </i>
    <i name="e_wo_entrp">    -80.22178701 </i>
    <i name="e_0_energy">    -80.22178701 </i>
   </energy>
  </scstep>
  <scstep>
   <time name="dav">    2.69    2.69</time>
   <time name="total">    3.02    3.04</time>
   <energy>
    <i name="e_fr_energy">    -80.22208428 </i>
    <i name="e_wo_entrp">    -80.22208428 </i>
    <i name="e_0_energy">    -80.22208428 </i>
   </energy>
  </scstep>
  <scstep>
   <time name="dav">    2.68    2.68</time>
   <time name="total">    3.02    3.02</time>
   <energy>
    <i name="e_fr_energy">    -80.22251524 </i>
    <i name="e_wo_entrp">    -80.22251524 </i>
    <i name="e_0_energy">    -80.22251524 </i>
   </energy>
  </scstep>
  <scstep>
   <time name="dav">    2.72    2.72</time>
   <time name="total">    3.06    3.06</time>
   <energy>
    <i name="e_fr_energy">    -80.22282324 </i>
    <i name="e_wo_entrp">    -80.22282324 </i>
    <i name="e_0_energy">    -80.22282324 </i>
   </energy>
  </scstep>
  <scstep>
   <time name="dav">    2.68    2.68</time>
   <time name="total">    3.02    3.06</time>
   <energy>
    <i name="e_fr_energy">    -80.22299415 </i>
    <i name="e_wo_entrp">    -80.22299415 </i>
    <i name="e_0_energy">    -80.22299415 </i>
   </energy>
  </scstep>
  <scstep>
   <time name="dav">    2.68    2.69</time>
   <time name="total">    3.03    3.05</time>
   <energy>
    <i name="e_fr_energy">    -80.22311690 </i>
    <i name="e_wo_entrp">    -80.22311690 </i>
    <i name="e_0_energy">    -80.22311690 </i>
   </energy>
  </scstep>
  <scstep>
   <time name="dav">    2.65    2.65</time>
   <time name="total">    2.87    2.90</time>
   <energy>
    <i name="alphaZ">    111.11861347 </i>
    <i name="ewald">  95181.92966912 </i>
    <i name="hartreedc">-132985.09645267 </i>
    <i name="XCdc">   -430.61318543 </i>
    <i name="pawpsdc">  41142.32130452 </i>
    <i name="pawaedc"> -39461.20134485 </i>
    <i name="eentropy">      0.00000000 </i>
    <i name="bandstr">  -3052.22974166 </i>
    <i name="atom">  39413.54794328 </i>
    <i name="e_fr_energy">    -80.22319423 </i>
    <i name="e_wo_entrp">    -80.22319423 </i>
    <i name="e_0_energy">    -80.22319423 </i>
   </energy>
  </scstep>
  <structure>
   <crystal>
    <varray name="basis" >
     <v>      22.27570820       0.00000000       0.00000000 </v>
     <v>       0.00000000      22.27570820       0.00000000 </v>
     <v>       0.00000000       0.00000000      22.27570820 </v>
    </varray>
    <i name="volume">  11053.36624823 </i>
    <varray name="rec_basis" >
     <v>       0.04489195       0.00000000       0.00000000 </v>
     <v>       0.00000000       0.04489195       0.00000000 </v>
     <v>       0.00000000       0.00000000       0.04489195 </v>
    </varray>
   </crystal>
   <varray name="positions" >
    <v>       0.66653706       0.53274337       0.43942730 </v>
    <v>       0.70472344       0.62076728       0.52131761 </v>
    <v>       0.69220971       0.50824765       0.56118044 </v>
    <v>       0.66126368       0.41447681       0.48428062 </v>
    <v>       0.68615629       0.39179944       0.60571424 </v>
    <v>       0.62892689       0.66059178       0.43028333 </v>
    <v>       0.59733616       0.44563765       0.37453727 </v>
    <v>       0.56994455       0.56684171       0.36817034 </v>
    <v>       0.58577527       0.33578386       0.55294703 </v>
    <v>       0.57791711       0.58572072       0.51376504 </v>
    <v>       0.58972953       0.32674479       0.42815449 </v>
    <v>       0.63380695       0.60361670       0.62516925 </v>
    <v>       0.62102354       0.70633528       0.55220808 </v>
    <v>       0.49179573       0.48721196       0.31265768 </v>
    <v>       0.52447463       0.68274653       0.36258776 </v>
    <v>       0.49472351       0.37175353       0.36062766 </v>
    <v>       0.62031026       0.48288740       0.66320166 </v>
    <v>       0.51666073       0.70096713       0.48642814 </v>
    <v>       0.58733340       0.36143513       0.67514509 </v>
    <v>       0.44394170       0.58287266       0.37259121 </v>
    <v>       0.54229669       0.46482190       0.48432564 </v>
    <v>       0.41240917       0.69845130       0.41834735 </v>
    <v>       0.42135191       0.45922711       0.41292542 </v>
    <v>       0.51229626       0.51086210       0.59997502 </v>
    <v>       0.51798837       0.65710760       0.60475973 </v>
    <v>       0.45207897       0.55283745       0.49386919 </v>
    <v>       0.53588150       0.57538842       0.70113209 </v>
    <v>       0.47837697       0.35676368       0.48360928 </v>
    <v>       0.50893507       0.44788998       0.71591665 </v>
    <v>       0.48508881       0.38642142       0.60912766 </v>
    <v>       0.43083323       0.53820076       0.75582886 </v>
    <v>       0.34202021       0.60008564       0.44738968 </v>
    <v>       0.30886794       0.48078076       0.45961676 </v>
    <v>       0.39638166       0.43398300       0.53153726 </v>
    <v>       0.40745009       0.65981728       0.53933006 </v>
    <v>       0.40298354       0.47418777       0.65118677 </v>
    <v>       0.41737334       0.60053138       0.65121032 </v>
    <v>       0.34570296       0.54636789       0.56242483 </v>
   </varray>
  </structure>
  <varray name="forces" >
   <v>       0.00343059      -0.14907629      -0.11480378 </v>
   <v>       0.10448825       0.17928306      -0.11308811 </v>
   <v>      -0.06147339      -0.26048333       0.15757231 </v>
   <v>       0.09088312      -0.08021312      -0.11841765 </v>
   <v>      -0.01207640       0.08479827      -0.01231621 </v>
   <v>       0.03876878       0.24613626      -0.22056973 </v>
   <v>       0.10069991      -0.08223291      -0.01779988 </v>
   <v>      -0.04919140      -0.01838445       0.16250353 </v>
   <v>      -0.04265539       0.07617673      -0.14835345 </v>
   <v>      -0.32898167      -0.28484847       0.03894654 </v>
   <v>      -0.08740067       0.10525343      -0.00869239 </v>
   <v>      -0.01809178      -0.10859790       0.29979409 </v>
   <v>       0.09146751       0.14577314       0.04967654 </v>
   <v>       0.04415194      -0.11284859      -0.02250693 </v>
   <v>      -0.06301815      -0.06956476       0.00056322 </v>
   <v>      -0.00423731      -0.05587448      -0.09663620 </v>
   <v>       0.11657837       0.11160412       0.07461386 </v>
   <v>      -0.05389434      -0.09144050      -0.05806666 </v>
   <v>       0.09738047      -0.08013305      -0.00027027 </v>
   <v>      -0.06773220       0.16555134      -0.11715818 </v>
   <v>      -0.05644984       0.15980040       0.00022862 </v>
   <v>      -0.02223256       0.05017794      -0.04746021 </v>
   <v>       0.16957960      -0.05423901      -0.22843316 </v>
   <v>       0.00502329       0.21969881      -0.43467776 </v>
   <v>      -0.09479966      -0.07907908       0.00405731 </v>
   <v>       0.34527010       0.02430405       0.22095122 </v>
   <v>       0.07527891       0.09614574       0.15859328 </v>
   <v>       0.03798333      -0.13887936       0.01953076 </v>
   <v>      -0.06898304       0.16531265       0.09009771 </v>
   <v>      -0.13138376      -0.09863953      -0.25801969 </v>
   <v>      -0.11993400      -0.02066115       0.24086438 </v>
   <v>       0.08948247      -0.06800019      -0.04369183 </v>
   <v>      -0.10929723      -0.02532014      -0.06460876 </v>
   <v>       0.16732523      -0.01763131       0.35042434 </v>
   <v>       0.04496893       0.11107838       0.16622099 </v>
   <v>      -0.22401367      -0.05511155       0.08099129 </v>
   <v>       0.08701613       0.02556637      -0.13199752 </v>
   <v>      -0.09393046      -0.01540150       0.14193840 </v>
  </varray>
  <varray name="stress" >
   <v>      -1.89868559       0.00714394      -0.18625827 </v>
   <v>       0.00714394      -1.81730806       0.22592721 </v>
   <v>      -0.18625827       0.22592721      -1.45871407 </v>
  </varray>
  <energy>
   <i name="e_fr_energy">    -80.22319423 </i>
   <i name="e_wo_entrp">    -80.22319423 </i>
   <i name="e_0_energy">      0.00000000 </i>
  </energy>
  <time name="totalsc">   57.12   58.92</time>
 </calculation>
 <calculation>
  <scstep>
   <time name="dav">    3.50    3.51</time>
   <time name="total">    3.84    3.86</time>
   <energy>
    <i name="alphaZ">    111.11861347 </i>
    <i name="ewald">  94807.09036457 </i>
    <i name="hartreedc">-132612.51984153 </i>
    <i name="XCdc">   -431.06464955 </i>
    <i name="pawpsdc">  41142.31064678 </i>
    <i name="pawaedc"> -39461.19071563 </i>
    <i name="eentropy">      0.00000000 </i>
    <i name="bandstr">  -3049.57804448 </i>
    <i name="atom">  39413.54794328 </i>
    <i name="e_fr_energy">    -80.28568308 </i>
    <i name="e_wo_entrp">    -80.28568308 </i>
    <i name="e_0_energy">    -80.28568308 </i>
   </energy>
  </scstep>
  <scstep>
   <time name="dav">    3.63    3.63</time>
   <time name="total">    3.97    3.98</time>
   <energy>
    <i name="e_fr_energy">    -80.30601627 </i>
    <i name="e_wo_entrp">    -80.30601627 </i>
    <i name="e_0_energy">    -80.30601627 </i>
   </energy>
  </scstep>
  <scstep>
   <time name="dav">    3.73    3.74</time>
   <time name="total">    4.08    4.20</time>
   <energy>
    <i name="e_fr_energy">    -80.30535058 </i>
    <i name="e_wo_entrp">    -80.30535058 </i>
    <i name="e_0_energy">    -80.30535058 </i>
   </energy>
  </scstep>
  <scstep>
   <time name="dav">    3.67    3.68</time>
   <time name="total">    4.02    4.05</time>
   <energy>
    <i name="e_fr_energy">    -80.30435686 </i>
    <i name="e_wo_entrp">    -80.30435686 </i>
    <i name="e_0_energy">    -80.30435686 </i>
   </energy>
  </scstep>
  <scstep>
   <time name="dav">    2.73    2.74</time>
   <time name="total">    2.96    2.97</time>
   <energy>
    <i name="alphaZ">    111.11861347 </i>
    <i name="ewald">  94807.09036457 </i>
    <i name="hartreedc">-132616.06836372 </i>
    <i name="XCdc">   -430.97245720 </i>
    <i name="pawpsdc">  41082.28162161 </i>
    <i name="pawaedc"> -39400.18104899 </i>
    <i name="eentropy">      0.00000000 </i>
    <i name="bandstr">  -3047.12108724 </i>
    <i name="atom">  39413.54794328 </i>
    <i name="e_fr_energy">    -80.30441422 </i>
    <i name="e_wo_entrp">    -80.30441422 </i>
    <i name="e_0_energy">    -80.30441422 </i>
   </energy>
  </scstep>
  <structure>
   <crystal>
    <varray name="basis" >
     <v>      22.27570820       0.00000000       0.00000000 </v>
     <v>       0.00000000      22.27570820       0.00000000 </v>
     <v>       0.00000000       0.00000000      22.27570820 </v>
    </varray>
    <i name="volume">  11053.36624823 </i>
    <varray name="rec_basis" >
     <v>       0.04489195       0.00000000       0.00000000 </v>
     <v>       0.00000000       0.04489195       0.00000000 </v>
     <v>       0.00000000       0.00000000       0.04489195 </v>
    </varray>
   </crystal>
   <varray name="positions" >
    <v>       0.66672684       0.53237311       0.43911877 </v>
    <v>       0.70500973       0.62123363       0.52101766 </v>
    <v>       0.69215393       0.50781791       0.56148037 </v>
    <v>       0.66186779       0.41411334       0.48397127 </v>
    <v>       0.68632549       0.39185636       0.60584032 </v>
    <v>       0.62921657       0.66143738       0.42967000 </v>
    <v>       0.59766491       0.44529297       0.37404877 </v>
    <v>       0.56991409       0.56677134       0.36863745 </v>
    <v>       0.58564448       0.33583439       0.55253719 </v>
    <v>       0.57750638       0.58538872       0.51385516 </v>
    <v>       0.58970142       0.32683153       0.42789825 </v>
    <v>       0.63389051       0.60351268       0.62593111 </v>
    <v>       0.62140226       0.70675841       0.55244415 </v>
    <v>       0.49185935       0.48691788       0.31232629 </v>
    <v>       0.52417327       0.68268114       0.36239157 </v>
    <v>       0.49465496       0.37139350       0.36025960 </v>
    <v>       0.62074067       0.48306362       0.66362279 </v>
    <v>       0.51661257       0.70078845       0.48632201 </v>
    <v>       0.58769401       0.36105073       0.67526786 </v>
    <v>       0.44379934       0.58321119       0.37206411 </v>
    <v>       0.54214252       0.46507608       0.48413276 </v>
    <v>       0.41226638       0.69893628       0.41811649 </v>
    <v>       0.42177970       0.45906364       0.41248023 </v>
    <v>       0.51205220       0.51137240       0.59938843 </v>
    <v>       0.51789226       0.65696646       0.60483407 </v>
    <v>       0.45246300       0.55291757       0.49425562 </v>
    <v>       0.53594730       0.57568294       0.70182074 </v>
    <v>       0.47807863       0.35611767       0.48349619 </v>
    <v>       0.50872695       0.44834058       0.71600759 </v>
    <v>       0.48483107       0.38609747       0.60878324 </v>
    <v>       0.43030186       0.53840840       0.75672021 </v>
    <v>       0.34222256       0.59995716       0.44737764 </v>
    <v>       0.30840123       0.48039614       0.45938528 </v>
    <v>       0.39662011       0.43401591       0.53214735 </v>
    <v>       0.40727360       0.66032750       0.53973075 </v>
    <v>       0.40239592       0.47396037       0.65156919 </v>
    <v>       0.41766337       0.60051881       0.65115575 </v>
    <v>       0.34528958       0.54642318       0.56280060 </v>
   </varray>
  </structure>
  <varray name="forces" >
   <v>      -0.00394278      -0.10087627      -0.05150348 </v>
   <v>       0.01473405       0.08725797      -0.09514640 </v>
   <v>      -0.06884723      -0.13626287       0.09788928 </v>
   <v>       0.06454983      -0.06282283      -0.11415352 </v>
   <v>      -0.03695761       0.05428293      -0.01748461 </v>
   <v>       0.00984013       0.15629373      -0.12537697 </v>
   <v>       0.07430692      -0.06329341       0.01293274 </v>
   <v>      -0.06839824      -0.02952015       0.16217780 </v>
   <v>      -0.02826103       0.08284974      -0.11354945 </v>
   <v>      -0.18281052      -0.17296756      -0.00664739 </v>
   <v>      -0.09657660       0.11324414       0.00027347 </v>
   <v>      -0.01383583      -0.08863250       0.19367268 </v>
   <v>       0.04634118       0.07198793       0.03239104 </v>
   <v>       0.06278758      -0.06472699       0.00691783 </v>
   <v>      -0.05104830      -0.06252681       0.00202413 </v>
   <v>       0.00552719      -0.06165457      -0.08368799 </v>
   <v>       0.05730290       0.09078414       0.07852013 </v>
   <v>      -0.03318702      -0.10358448      -0.03370622 </v>
   <v>       0.03596626      -0.02017155      -0.04314463 </v>
   <v>      -0.06266622       0.12743607      -0.09260183 </v>
   <v>      -0.03176173       0.08364269      -0.05672363 </v>
   <v>      -0.01814248       0.01756711      -0.03298285 </v>
   <v>       0.10432094      -0.02640577      -0.11792337 </v>
   <v>       0.00000880       0.18084601      -0.26654060 </v>
   <v>      -0.03599371      -0.06809166      -0.01893006 </v>
   <v>       0.23965561       0.05866870       0.16018436 </v>
   <v>       0.02784946       0.05027034       0.10295795 </v>
   <v>       0.04748830      -0.08894072       0.00830906 </v>
   <v>      -0.05531307       0.14500012       0.01851346 </v>
   <v>      -0.07971862      -0.06132139      -0.17432227 </v>
   <v>      -0.08980791      -0.03211406       0.15708411 </v>
   <v>       0.12953159      -0.08620010      -0.01804095 </v>
   <v>      -0.00926660      -0.02241648      -0.02746173 </v>
   <v>       0.14000951       0.02815960       0.22778071 </v>
   <v>       0.04410611       0.08016728       0.11853878 </v>
   <v>      -0.15915328      -0.02471943       0.10205309 </v>
   <v>       0.07856085      -0.02566453      -0.08522911 </v>
   <v>      -0.05719842      -0.02554436       0.09293646 </v>
  </varray>
  <varray name="stress" >
   <v>      -2.12445013       0.01872099      -0.18875309 </v>
   <v>       0.01872100      -2.05670367       0.19326344 </v>
   <v>      -0.18875309       0.19326344      -1.73961434 </v>
  </varray>
  <energy>
   <i name="e_fr_energy">    -80.30441422 </i>
   <i name="e_wo_entrp">    -80.30441422 </i>
   <i name="e_0_energy">      0.00000000 </i>
  </energy>
  <time name="totalsc">   25.30   25.64</time>
 </calculation>
 <calculation>
  <scstep>
   <time name="dav">    3.49    3.49</time>
   <time name="total">    3.83    3.85</time>
   <energy>
    <i name="alphaZ">    111.11861347 </i>
    <i name="ewald">  94106.00510277 </i>
    <i name="hartreedc">-131918.81691382 </i>
    <i name="XCdc">   -431.78040625 </i>
    <i name="pawpsdc">  41082.47607689 </i>
    <i name="pawaedc"> -39400.37678203 </i>
    <i name="eentropy">     -0.00000000 </i>
    <i name="bandstr">  -3042.46832569 </i>
    <i name="atom">  39413.54794328 </i>
    <i name="e_fr_energy">    -80.29469139 </i>
    <i name="e_wo_entrp">    -80.29469139 </i>
    <i name="e_0_energy">    -80.29469139 </i>
   </energy>
  </scstep>
  <scstep>
   <time name="dav">    3.62    3.62</time>
   <time name="total">    3.96    3.97</time>
   <energy>
    <i name="e_fr_energy">    -80.36934608 </i>
    <i name="e_wo_entrp">    -80.36934608 </i>
    <i name="e_0_energy">    -80.36934608 </i>
   </energy>
  </scstep>
  <scstep>
   <time name="dav">    3.74    3.74</time>
   <time name="total">    4.07    4.13</time>
   <energy>
    <i name="e_fr_energy">    -80.36802292 </i>
    <i name="e_wo_entrp">    -80.36802292 </i>
    <i name="e_0_energy">    -80.36802292 </i>
   </energy>
  </scstep>
  <scstep>
   <time name="dav">    3.66    3.66</time>
   <time name="total">    4.00    4.16</time>
   <energy>
    <i name="e_fr_energy">    -80.36562298 </i>
    <i name="e_wo_entrp">    -80.36562298 </i>
    <i name="e_0_energy">    -80.36562298 </i>
   </energy>
  </scstep>
  <scstep>
   <time name="dav">    3.64    3.65</time>
   <time name="total">    3.99    3.99</time>
   <energy>
    <i name="e_fr_energy">    -80.36592179 </i>
    <i name="e_wo_entrp">    -80.36592179 </i>
    <i name="e_0_energy">    -80.36592179 </i>
   </energy>
  </scstep>
  <scstep>
   <time name="dav">    2.80    2.80</time>
   <time name="total">    3.13    3.53</time>
   <energy>
    <i name="e_fr_energy">    -80.36632911 </i>
    <i name="e_wo_entrp">    -80.36632911 </i>
    <i name="e_0_energy">    -80.36632911 </i>
   </energy>
  </scstep>
  <scstep>
   <time name="dav">    2.72    2.73</time>
   <time name="total">    3.06    3.48</time>
   <energy>
    <i name="e_fr_energy">    -80.36692380 </i>
    <i name="e_wo_entrp">    -80.36692380 </i>
    <i name="e_0_energy">    -80.36692380 </i>
   </energy>
  </scstep>
  <scstep>
   <time name="dav">    2.80    2.80</time>
   <time name="total">    3.13    3.16</time>
   <energy>
    <i name="e_fr_energy">    -80.36744493 </i>
    <i name="e_wo_entrp">    -80.36744493 </i>
    <i name="e_0_energy">    -80.36744493 </i>
   </energy>
  </scstep>
  <scstep>
   <time name="dav">    2.72    2.73</time>
   <time name="total">    3.07    3.08</time>
   <energy>
    <i name="e_fr_energy">    -80.36776887 </i>
    <i name="e_wo_entrp">    -80.36776887 </i>
    <i name="e_0_energy">    -80.36776887 </i>
   </energy>
  </scstep>
  <scstep>
   <time name="dav">    2.70    2.71</time>
   <time name="total">    3.06    3.06</time>
   <energy>
    <i name="e_fr_energy">    -80.36820878 </i>
    <i name="e_wo_entrp">    -80.36820878 </i>
[...]
       <r>     0.2209     0.0000   243.0000 </r>
       <r>     0.2614     0.0000   243.0000 </r>
       <r>     0.3018     0.0000   243.0000 </r>
       <r>     0.3423     0.0000   243.0000 </r>
       <r>     0.3828     0.0000   243.0000 </r>
       <r>     0.4232     0.0000   244.0000 </r>
       <r>     0.4637     0.0000   244.0000 </r>
       <r>     0.5041     0.0000   245.0000 </r>
       <r>     0.5446     0.0000   245.0000 </r>
       <r>     0.5850     0.0000   246.0000 </r>
       <r>     0.6255     0.0000   247.0000 </r>
       <r>     0.6660     0.0000   248.0000 </r>
       <r>     0.7064     0.0000   249.0000 </r>
       <r>     0.7469     0.0000   249.0000 </r>
       <r>     0.7873     0.0000   250.0000 </r>
       <r>     0.8278     0.0000   251.0000 </r>
       <r>     0.8683     0.0000   252.0000 </r>
       <r>     0.9087     0.0000   253.0000 </r>
       <r>     0.9492     0.0000   254.0000 </r>
       <r>     0.9896     0.0000   255.0000 </r>
       <r>     1.0301     0.0000   257.0000 </r>
       <r>     1.0705     0.0000   258.0000 </r>
       <r>     1.1110     0.0000   260.0000 </r>
       <r>     1.1515     0.0000   262.0000 </r>
       <r>     1.1919    18.0570   265.7306 </r>
       <r>     1.2324    24.7167   268.0000 </r>
       <r>     1.2728     0.0000   269.0000 </r>
       <r>     1.3133     0.0000   269.0000 </r>
       <r>     1.3538     0.0000   271.0000 </r>
       <r>     1.3942     0.0000   272.0000 </r>
       <r>     1.4347     0.0000   272.0000 </r>
       <r>     1.4751     0.0000   272.0000 </r>
       <r>     1.5156     0.0000   272.0000 </r>
       <r>     1.5561     0.0000   272.0000 </r>
       <r>     1.5965     0.0000   272.0000 </r>
       <r>     1.6370     0.0000   272.0000 </r>
       <r>     1.6774     0.0000   272.0000 </r>
       <r>     1.7179     0.0000   272.0000 </r>
       <r>     1.7583     0.0000   272.0000 </r>
       <r>     1.7988     0.0000   272.0000 </r>
       <r>     1.8393     0.0000   272.0000 </r>
       <r>     1.8797     0.0000   272.0000 </r>
       <r>     1.9202     0.0000   272.0000 </r>
      </set>
      <set comment="spin 2">
       <r>   -10.2174     0.0000     0.0000 </r>
       <r>   -10.1769     0.0000     0.0000 </r>
       <r>   -10.1364     0.0000     0.0000 </r>
       <r>   -10.0960     0.0000     0.0000 </r>
       <r>   -10.0555     0.0000     0.0000 </r>
       <r>   -10.0151     0.0000     0.0000 </r>
       <r>    -9.9746     0.0000     0.0000 </r>
       <r>    -9.9341     0.0000     0.0000 </r>
       <r>    -9.8937     0.0000     0.0000 </r>
       <r>    -9.8532     0.0000     0.0000 </r>
       <r>    -9.8128     0.0000     0.0000 </r>
       <r>    -9.7723     0.0000     0.0000 </r>
       <r>    -9.7319     0.0000     0.0000 </r>
       <r>    -9.6914     0.0000     0.0000 </r>
       <r>    -9.6509     0.0000     1.0000 </r>
       <r>    -9.6105     0.0000     1.0000 </r>
       <r>    -9.5700     0.0000     1.0000 </r>
       <r>    -9.5296     0.0000     1.0000 </r>
       <r>    -9.4891     0.0000     1.0000 </r>
       <r>    -9.4486     0.0000     1.0000 </r>
       <r>    -9.4082     0.0000     1.0000 </r>
       <r>    -9.3677     0.0000     1.0000 </r>
       <r>    -9.3273     0.0000     1.0000 </r>
       <r>    -9.2868     0.0000     1.0000 </r>
       <r>    -9.2464     0.0000     1.0000 </r>
       <r>    -9.2059     0.0000     1.0000 </r>
       <r>    -9.1654     0.0000     2.0000 </r>
       <r>    -9.1250     0.0000     2.0000 </r>
       <r>    -9.0845     0.0000     3.0000 </r>
       <r>    -9.0441     0.0000     4.0000 </r>
       <r>    -9.0036     0.0000     5.0000 </r>
       <r>    -8.9631     0.0000     6.0000 </r>
       <r>    -8.9227     0.0000     7.0000 </r>
       <r>    -8.8822     0.0000     9.0000 </r>
       <r>    -8.8418     0.0000    10.0000 </r>
       <r>    -8.8013     0.0000    12.0000 </r>
       <r>    -8.7609     0.0000    14.0000 </r>
       <r>    -8.7204     0.0000    17.0000 </r>
       <r>    -8.6799     0.0000    19.0000 </r>
       <r>    -8.6395     0.0000    22.0000 </r>
       <r>    -8.5990     0.0000    24.0000 </r>
       <r>    -8.5586     0.0000    27.0000 </r>
       <r>    -8.5181     0.0000    30.0000 </r>
       <r>    -8.4776     0.0000    31.0000 </r>
       <r>    -8.4372     0.0000    33.0000 </r>
       <r>    -8.3967     0.0000    37.0000 </r>
       <r>    -8.3563    24.7167    39.0000 </r>
       <r>    -8.3158    24.7167    42.0000 </r>
       <r>    -8.2754     0.0000    44.0000 </r>
       <r>    -8.2349     0.0000    46.0000 </r>
       <r>    -8.1944     0.0000    50.0000 </r>
       <r>    -8.1540     0.0000    51.0000 </r>
       <r>    -8.1135     0.0000    54.0000 </r>
       <r>    -8.0731    24.7141    55.9999 </r>
       <r>    -8.0326     0.0000    58.0000 </r>
       <r>    -7.9921     0.0000    59.0000 </r>
       <r>    -7.9517     0.0000    64.0000 </r>
       <r>    -7.9112     0.0000    66.0000 </r>
       <r>    -7.8708     0.0000    68.0000 </r>
       <r>    -7.8303     0.0000    71.0000 </r>
       <r>    -7.7899     0.0000    73.0000 </r>
       <r>    -7.7494     0.0000    75.0000 </r>
       <r>    -7.7089     0.0000    77.0000 </r>
       <r>    -7.6685     0.0000    79.0000 </r>
       <r>    -7.6280     0.0000    82.0000 </r>
       <r>    -7.5876     0.0000    84.0000 </r>
       <r>    -7.5471     0.0000    86.0000 </r>
       <r>    -7.5066    24.7167    89.0000 </r>
       <r>    -7.4662     0.0000    91.0000 </r>
       <r>    -7.4257     0.0000    93.0000 </r>
       <r>    -7.3853     0.0000    96.0000 </r>
       <r>    -7.3448     0.0000    98.0000 </r>
       <r>    -7.3043     0.0000   102.0000 </r>
       <r>    -7.2639     0.0000   104.0000 </r>
       <r>    -7.2234     0.0000   106.0000 </r>
       <r>    -7.1830     0.0000   109.0000 </r>
       <r>    -7.1425     0.0000   111.0000 </r>
       <r>    -7.1021     0.0000   114.0000 </r>
       <r>    -7.0616     0.0000   116.0000 </r>
       <r>    -7.0211     0.0000   119.0000 </r>
       <r>    -6.9807     0.0000   124.0000 </r>
       <r>    -6.9402     0.0000   126.0000 </r>
       <r>    -6.8998     0.0000   130.0000 </r>
       <r>    -6.8593     0.0000   134.0000 </r>
       <r>    -6.8188     0.0000   136.0000 </r>
       <r>    -6.7784     0.0000   140.0000 </r>
       <r>    -6.7379     0.0000   145.0000 </r>
       <r>    -6.6975     0.0000   149.0000 </r>
       <r>    -6.6570     0.0000   153.0000 </r>
       <r>    -6.6166     0.0000   157.0000 </r>
       <r>    -6.5761     0.0000   160.0000 </r>
       <r>    -6.5356     0.0000   165.0000 </r>
       <r>    -6.4952     0.0000   168.0000 </r>
       <r>    -6.4547     0.0000   171.0000 </r>
       <r>    -6.4143     0.0000   176.0000 </r>
       <r>    -6.3738     0.0000   180.0000 </r>
       <r>    -6.3333     0.0000   182.0000 </r>
       <r>    -6.2929     0.0000   184.0000 </r>
       <r>    -6.2524     0.0026   186.0001 </r>
       <r>    -6.2120     0.0000   190.0000 </r>
       <r>    -6.1715     0.0000   191.0000 </r>
       <r>    -6.1311     0.0000   193.0000 </r>
       <r>    -6.0906     0.0000   194.0000 </r>
       <r>    -6.0501     0.0000   194.0000 </r>
       <r>    -6.0097     0.0000   194.0000 </r>
       <r>    -5.9692     0.0000   195.0000 </r>
       <r>    -5.9288     0.0000   196.0000 </r>
       <r>    -5.8883     0.0000   196.0000 </r>
       <r>    -5.8478     0.0000   196.0000 </r>
       <r>    -5.8074     0.0000   196.0000 </r>
       <r>    -5.7669     0.0000   196.0000 </r>
       <r>    -5.7265     0.0000   196.0000 </r>
       <r>    -5.6860     0.0000   197.0000 </r>
       <r>    -5.6456     0.0000   197.0000 </r>
       <r>    -5.6051     0.0000   198.0000 </r>
       <r>    -5.5646     0.0000   199.0000 </r>
       <r>    -5.5242     0.0000   199.0000 </r>
       <r>    -5.4837     0.0000   199.0000 </r>
       <r>    -5.4433     0.0000   199.0000 </r>
       <r>    -5.4028     0.0000   199.0000 </r>
       <r>    -5.3623     0.0000   199.0000 </r>
       <r>    -5.3219     0.0000   199.0000 </r>
       <r>    -5.2814     0.0000   199.0000 </r>
       <r>    -5.2410     0.0000   199.0000 </r>
       <r>    -5.2005     0.0000   200.0000 </r>
       <r>    -5.1601     0.0000   200.0000 </r>
       <r>    -5.1196     0.0000   200.0000 </r>
       <r>    -5.0791     0.0000   200.0000 </r>
       <r>    -5.0387     0.0000   200.0000 </r>
       <r>    -4.9982     0.0000   200.0000 </r>
       <r>    -4.9578     0.0000   200.0000 </r>
       <r>    -4.9173     0.0000   200.0000 </r>
       <r>    -4.8768     0.0000   200.0000 </r>
       <r>    -4.8364     0.0000   200.0000 </r>
       <r>    -4.7959     0.0000   200.0000 </r>
       <r>    -4.7555     0.0000   201.0000 </r>
       <r>    -4.7150     0.0000   201.0000 </r>
       <r>    -4.6746     0.0000   201.0000 </r>
       <r>    -4.6341     0.0000   201.0000 </r>
       <r>    -4.5936     0.0000   201.0000 </r>
       <r>    -4.5532     0.0000   202.0000 </r>
       <r>    -4.5127     0.0000   202.0000 </r>
       <r>    -4.4723     0.0000   203.0000 </r>
       <r>    -4.4318     0.0000   203.0000 </r>
       <r>    -4.3913     0.0000   203.0000 </r>
       <r>    -4.3509     0.0000   203.0000 </r>
       <r>    -4.3104     0.0000   204.0000 </r>
       <r>    -4.2700     0.0000   204.0000 </r>
       <r>    -4.2295     0.0000   204.0000 </r>
       <r>    -4.1890     0.0000   205.0000 </r>
       <r>    -4.1486     0.0000   205.0000 </r>
       <r>    -4.1081     0.0000   205.0000 </r>
       <r>    -4.0677     0.0000   206.0000 </r>
       <r>    -4.0272     0.0000   206.0000 </r>
       <r>    -3.9868     0.0000   206.0000 </r>
       <r>    -3.9463     0.0000   206.0000 </r>
       <r>    -3.9058     0.0000   207.0000 </r>
       <r>    -3.8654     0.0000   207.0000 </r>
       <r>    -3.8249     0.0000   207.0000 </r>
       <r>    -3.7845     0.0000   207.0000 </r>
       <r>    -3.7440     0.0000   207.0000 </r>
       <r>    -3.7035     0.0000   207.0000 </r>
       <r>    -3.6631     0.0000   207.0000 </r>
       <r>    -3.6226     0.0000   207.0000 </r>
       <r>    -3.5822     0.0000   207.0000 </r>
       <r>    -3.5417     0.0000   207.0000 </r>
       <r>    -3.5013     0.0000   208.0000 </r>
       <r>    -3.4608     0.0000   208.0000 </r>
       <r>    -3.4203     0.0000   208.0000 </r>
       <r>    -3.3799     0.0000   209.0000 </r>
       <r>    -3.3394     0.0000   209.0000 </r>
       <r>    -3.2990     0.0000   209.0000 </r>
       <r>    -3.2585     0.0000   209.0000 </r>
       <r>    -3.2180     0.0000   209.0000 </r>
       <r>    -3.1776     0.0000   209.0000 </r>
       <r>    -3.1371     0.0000   209.0000 </r>
       <r>    -3.0967     0.0000   210.0000 </r>
       <r>    -3.0562     0.0000   210.0000 </r>
       <r>    -3.0158     0.0000   210.0000 </r>
       <r>    -2.9753     0.0000   212.0000 </r>
       <r>    -2.9348     0.0000   212.0000 </r>
       <r>    -2.8944     0.0000   212.0000 </r>
       <r>    -2.8539     0.0000   212.0000 </r>
       <r>    -2.8135     0.0000   212.0000 </r>
       <r>    -2.7730     0.0000   213.0000 </r>
       <r>    -2.7325     0.0000   213.0000 </r>
       <r>    -2.6921     0.0000   213.0000 </r>
       <r>    -2.6516     0.0000   213.0000 </r>
       <r>    -2.6112     0.0000   214.0000 </r>
       <r>    -2.5707     0.0000   215.0000 </r>
       <r>    -2.5303     0.0000   215.0000 </r>
       <r>    -2.4898     0.0000   216.0000 </r>
       <r>    -2.4493     0.0000   216.0000 </r>
       <r>    -2.4089     0.0000   216.0000 </r>
       <r>    -2.3684     0.0000   217.0000 </r>
       <r>    -2.3280     0.0000   217.0000 </r>
       <r>    -2.2875     0.0000   217.0000 </r>
       <r>    -2.2470     0.0000   217.0000 </r>
       <r>    -2.2066     0.0000   218.0000 </r>
       <r>    -2.1661     0.0000   218.0000 </r>
       <r>    -2.1257     0.0000   218.0000 </r>
       <r>    -2.0852     0.0000   218.0000 </r>
       <r>    -2.0448     0.0000   219.0000 </r>
       <r>    -2.0043     0.0000   220.0000 </r>
       <r>    -1.9638     0.0000   220.0000 </r>
       <r>    -1.9234     0.0000   220.0000 </r>
       <r>    -1.8829     0.0000   220.0000 </r>
       <r>    -1.8425     0.0000   220.0000 </r>
       <r>    -1.8020     0.0000   220.0000 </r>
       <r>    -1.7615     0.0000   222.0000 </r>
       <r>    -1.7211     0.0000   223.0000 </r>
       <r>    -1.6806     0.0000   223.0000 </r>
       <r>    -1.6402     0.0000   223.0000 </r>
       <r>    -1.5997     0.0000   223.0000 </r>
       <r>    -1.5592     0.0080   223.0003 </r>
       <r>    -1.5188     0.0000   225.0000 </r>
       <r>    -1.4783     0.0000   225.0000 </r>
       <r>    -1.4379     0.0000   225.0000 </r>
       <r>    -1.3974     0.0000   225.0000 </r>
       <r>    -1.3570     0.0000   225.0000 </r>
       <r>    -1.3165     0.0000   226.0000 </r>
       <r>    -1.2760     0.0000   226.0000 </r>
       <r>    -1.2356     0.0000   226.0000 </r>
       <r>    -1.1951     0.0000   226.0000 </r>
       <r>    -1.1547     0.0000   227.0000 </r>
       <r>    -1.1142     0.0000   227.0000 </r>
       <r>    -1.0737     0.0000   227.0000 </r>
       <r>    -1.0333     0.0000   228.0000 </r>
       <r>    -0.9928     0.0000   228.0000 </r>
       <r>    -0.9524     0.0000   228.0000 </r>
       <r>    -0.9119     0.0000   228.0000 </r>
       <r>    -0.8715     0.0000   229.0000 </r>
       <r>    -0.8310     0.0000   230.0000 </r>
       <r>    -0.7905     0.0000   230.0000 </r>
       <r>    -0.7501     0.0000   230.0000 </r>
       <r>    -0.7096     0.0000   231.0000 </r>
       <r>    -0.6692     0.0000   232.0000 </r>
       <r>    -0.6287     0.0000   232.0000 </r>
       <r>    -0.5882     0.0000   233.0000 </r>
       <r>    -0.5478     0.0000   233.0000 </r>
       <r>    -0.5073     0.0000   233.0000 </r>
       <r>    -0.4669     0.0000   234.0000 </r>
       <r>    -0.4264     0.0000   235.0000 </r>
       <r>    -0.3860     0.0000   235.0000 </r>
       <r>    -0.3455     0.0000   236.0000 </r>
       <r>    -0.3050     0.0000   236.0000 </r>
       <r>    -0.2646     0.0000   237.0000 </r>
       <r>    -0.2241     0.0000   237.0000 </r>
       <r>    -0.1837     0.0000   238.0000 </r>
       <r>    -0.1432     0.0000   238.0000 </r>
       <r>    -0.1027     0.0000   239.0000 </r>
       <r>    -0.0623     0.0000   239.0000 </r>
       <r>    -0.0218     0.0000   240.0000 </r>
       <r>     0.0186     0.0000   240.0000 </r>
       <r>     0.0591     0.0000   240.0000 </r>
       <r>     0.0995     0.0000   242.0000 </r>
       <r>     0.1400     0.0000   242.0000 </r>
       <r>     0.1805     0.0000   242.0000 </r>
       <r>     0.2209     0.0000   243.0000 </r>
       <r>     0.2614     0.0000   243.0000 </r>
       <r>     0.3018     0.0000   243.0000 </r>
       <r>     0.3423     0.0000   243.0000 </r>
       <r>     0.3828     0.0000   243.0000 </r>
       <r>     0.4232     0.0000   244.0000 </r>
       <r>     0.4637     0.0000   244.0000 </r>
       <r>     0.5041     0.0000   245.0000 </r>
       <r>     0.5446     0.0000   245.0000 </r>
       <r>     0.5850     0.0000   246.0000 </r>
       <r>     0.6255     0.0000   247.0000 </r>
       <r>     0.6660     0.0000   248.0000 </r>
       <r>     0.7064     0.0000   249.0000 </r>
       <r>     0.7469     0.0000   249.0000 </r>
       <r>     0.7873     0.0000   250.0000 </r>
       <r>     0.8278     0.0000   251.0000 </r>
       <r>     0.8683     0.0000   252.0000 </r>
       <r>     0.9087     0.0000   253.0000 </r>
       <r>     0.9492     0.0000   254.0000 </r>
       <r>     0.9896     0.0000   255.0000 </r>
       <r>     1.0301     0.0000   257.0000 </r>
       <r>     1.0705     0.0000   258.0000 </r>
       <r>     1.1110     0.0000   260.0000 </r>
       <r>     1.1515     0.0000   262.0000 </r>
       <r>     1.1919    17.8945   265.7240 </r>
       <r>     1.2324    24.7167   268.0000 </r>
       <r>     1.2728     0.0000   269.0000 </r>
       <r>     1.3133     0.0000   269.0000 </r>
       <r>     1.3538     0.0000   271.0000 </r>
       <r>     1.3942     0.0000   272.0000 </r>
       <r>     1.4347     0.0000   272.0000 </r>
       <r>     1.4751     0.0000   272.0000 </r>
       <r>     1.5156     0.0000   272.0000 </r>
       <r>     1.5561     0.0000   272.0000 </r>
       <r>     1.5965     0.0000   272.0000 </r>
       <r>     1.6370     0.0000   272.0000 </r>
       <r>     1.6774     0.0000   272.0000 </r>
       <r>     1.7179     0.0000   272.0000 </r>
       <r>     1.7583     0.0000   272.0000 </r>
       <r>     1.7988     0.0000   272.0000 </r>
       <r>     1.8393     0.0000   272.0000 </r>
       <r>     1.8797     0.0000   272.0000 </r>
       <r>     1.9202     0.0000   272.0000 </r>
      </set>
     </set>
    </array>
   </total>
  </dos>
 </calculation>
 <structure name="finalpos" >
  <crystal>
   <varray name="basis" >
    <v>      22.27570820       0.00000000       0.00000000 </v>
    <v>       0.00000000      22.27570820       0.00000000 </v>
    <v>       0.00000000       0.00000000      22.27570820 </v>
   </varray>
   <i name="volume">  11053.36624823 </i>
   <varray name="rec_basis" >
    <v>       0.04489195       0.00000000       0.00000000 </v>
    <v>       0.00000000       0.04489195       0.00000000 </v>
    <v>       0.00000000       0.00000000       0.04489195 </v>
   </varray>
  </crystal>
  <varray name="positions" >
   <v>       0.67340156       0.53143310       0.43510230 </v>
   <v>       0.71218376       0.62532962       0.51379185 </v>
   <v>       0.68890378       0.51049581       0.55913035 </v>
   <v>       0.66503276       0.41214629       0.47843707 </v>
   <v>       0.67990462       0.39477909       0.60144143 </v>
   <v>       0.63161342       0.66808951       0.42744431 </v>
   <v>       0.60059115       0.44208190       0.37387322 </v>
   <v>       0.56235809       0.56129300       0.38829393 </v>
   <v>       0.57826634       0.34491956       0.54544784 </v>
   <v>       0.59282299       0.58696513       0.51699226 </v>
   <v>       0.58404722       0.32829058       0.42390851 </v>
   <v>       0.63838013       0.60713012       0.63165036 </v>
   <v>       0.62736467       0.70827705       0.55267873 </v>
   <v>       0.50138965       0.48357709       0.30876992 </v>
   <v>       0.52165939       0.67650237       0.36517575 </v>
   <v>       0.49029379       0.36724459       0.35342625 </v>
   <v>       0.61638568       0.48719346       0.66065235 </v>
   <v>       0.52047225       0.69807219       0.48870453 </v>
   <v>       0.57884852       0.36572129       0.66915183 </v>
   <v>       0.43819788       0.57874229       0.35607104 </v>
   <v>       0.54209315       0.46983743       0.48270886 </v>
   <v>       0.41032954       0.67742368       0.43008632 </v>
   <v>       0.42264063       0.46102798       0.40607804 </v>
   <v>       0.50899221       0.52265954       0.59587090 </v>
   <v>       0.52012823       0.65173484       0.60493886 </v>
   <v>       0.47421210       0.57757611       0.48320196 </v>
   <v>       0.53440638       0.57823958       0.70766501 </v>
   <v>       0.47108497       0.36308144       0.47818204 </v>
   <v>       0.50230749       0.45597155       0.70957465 </v>
   <v>       0.47869914       0.39188305       0.60256411 </v>
   <v>       0.42079875       0.53175088       0.76435684 </v>
   <v>       0.35505143       0.56350820       0.45085892 </v>
   <v>       0.30754741       0.45320159       0.47873923 </v>
   <v>       0.41661344       0.46702396       0.52911363 </v>
   <v>       0.40342658       0.65492710       0.55180597 </v>
   <v>       0.39165889       0.47178962       0.65479725 </v>
   <v>       0.41818842       0.59497678       0.65879583 </v>
   <v>       0.33261041       0.54800946       0.57342458 </v>
  </varray>
 </structure>
</modeling>
