       N       E                     dE             d eps       ncg     rms          rms(c)
DAV:   1     0.306960139398E+04    0.30696E+04   -0.66534E+04   912   0.601E+02
DAV:   2     0.634332159367E+03   -0.24353E+04   -0.21895E+04  1560   0.150E+02
DAV:   3    -0.332152523299E+02   -0.66755E+03   -0.60512E+03  1168   0.871E+01
DAV:   4    -0.670558691663E+02   -0.33841E+02   -0.33493E+02  1016   0.214E+01
DAV:   5    -0.675390083472E+02   -0.48314E+00   -0.48268E+00  1024   0.303E+00    0.322E+01
DAV:   6    -0.276225134644E+02    0.39916E+02   -0.11992E+02   916   0.158E+01    0.170E+01
DAV:   7    -0.223393809796E+02    0.52831E+01   -0.69675E+00   988   0.491E+00    0.106E+01
DAV:   8    -0.176402331715E+02    0.46991E+01   -0.22783E+00   960   0.377E+00    0.566E+00
DAV:   9    -0.231101881205E+02   -0.54700E+01   -0.12507E+00   992   0.185E+00    0.363E+00
DAV:  10    -0.342711232954E+02   -0.11161E+02   -0.33269E+00   932   0.266E+00    0.338E+00
DAV:  11    -0.394455383993E+02   -0.51744E+01   -0.15286E+00   976   0.223E+00    0.256E+00
DAV:  12    -0.494884403694E+02   -0.10043E+02   -0.46638E+00   920   0.262E+00    0.232E+00
DAV:  13    -0.525790382034E+02   -0.30906E+01   -0.78374E-01   976   0.149E+00    0.175E+00
DAV:  14    -0.573522799275E+02   -0.47732E+01   -0.14273E+00   920   0.146E+00    0.124E+00
DAV:  15    -0.614428555540E+02   -0.40906E+01   -0.10234E+00   952   0.104E+00    0.859E-01
DAV:  16    -0.634874390171E+02   -0.20446E+01   -0.34009E-01   940   0.791E-01    0.609E-01
DAV:  17    -0.647537903515E+02   -0.12664E+01   -0.15000E-01   936   0.523E-01    0.457E-01
DAV:  18    -0.656411543187E+02   -0.88736E+00   -0.61721E-02   952   0.465E-01    0.316E-01
DAV:  19    -0.660766386717E+02   -0.43548E+00   -0.17017E-02   976   0.270E-01    0.168E-01
DAV:  20    -0.664091249604E+02   -0.33249E+00   -0.12938E-02   960   0.142E-01    0.912E-02
DAV:  21    -0.665062998133E+02   -0.97175E-01   -0.20893E-03   820   0.570E-02    0.578E-02
DAV:  22    -0.665634107235E+02   -0.57111E-01   -0.17935E-03   820   0.455E-02    0.309E-02
DAV:  23    -0.665725500394E+02   -0.91393E-02   -0.56413E-04   672   0.235E-02    0.190E-02
DAV:  24    -0.665767236524E+02   -0.41736E-02   -0.25380E-04   652   0.140E-02    0.136E-02
DAV:  25    -0.665812977644E+02   -0.45741E-02   -0.20962E-04   636   0.128E-02    0.797E-03
DAV:  26    -0.665846124226E+02   -0.33147E-02   -0.67178E-05   632   0.888E-03    0.534E-03
DAV:  27    -0.665860669097E+02   -0.14545E-02   -0.15165E-05   608   0.495E-03    0.314E-03
DAV:  28    -0.665864941394E+02   -0.42723E-03   -0.89898E-06   596   0.379E-03    0.198E-03
DAV:  29    -0.665864934533E+02    0.68619E-06   -0.29086E-06   608   0.249E-03
   1 F= -.66586493E+02 E0= -.66586493E+02  d E =-.665865E+02  mag=     2.0009
       N       E                     dE             d eps       ncg     rms          rms(c)
DAV:   1    -0.666102288694E+02   -0.23735E-01   -0.16989E+00   936   0.234E+00    0.930E-02
DAV:   2    -0.666110413535E+02   -0.81248E-03   -0.79097E-03   984   0.223E-01    0.699E-02
DAV:   3    -0.666110468092E+02   -0.54556E-05   -0.13280E-04   584   0.327E-02
   2 F= -.66611047E+02 E0= -.66611047E+02  d E =-.245534E-01  mag=     2.0005
       N       E                     dE             d eps       ncg     rms          rms(c)
DAV:   1    -0.666681274571E+02   -0.57086E-01   -0.15324E+01   920   0.705E+00    0.277E-01
DAV:   2    -0.666749792944E+02   -0.68518E-02   -0.71082E-02   984   0.669E-01    0.207E-01
DAV:   3    -0.666747895825E+02    0.18971E-03   -0.12720E-03   996   0.921E-02    0.128E-01
DAV:   4    -0.666746487002E+02    0.14088E-03   -0.59547E-04   976   0.501E-02    0.283E-02
DAV:   5    -0.666746600357E+02   -0.11335E-04   -0.16101E-05   616   0.148E-02
   3 F= -.66674660E+02 E0= -.66674660E+02  d E =-.881666E-01  mag=     2.0002
       N       E                     dE             d eps       ncg     rms          rms(c)
DAV:   1    -0.667335178224E+02   -0.58869E-01   -0.61249E+01   912   0.141E+01    0.510E-01
DAV:   2    -0.667610099842E+02   -0.27492E-01   -0.28353E-01   968   0.134E+00    0.390E-01
DAV:   3    -0.667603471827E+02    0.66280E-03   -0.48254E-03   984   0.175E-01    0.251E-01
DAV:   4    -0.667597939641E+02    0.55322E-03   -0.24216E-03   984   0.994E-02    0.593E-02
DAV:   5    -0.667598400266E+02   -0.46063E-04   -0.71582E-05   616   0.322E-02
   4 F= -.66759840E+02 E0= -.66759840E+02  d E =-.173347E+00  mag=     2.0001
       N       E                     dE             d eps       ncg     rms          rms(c)
DAV:   1    -0.666657306729E+02    0.94063E-01   -0.24626E+02   912   0.284E+01    0.954E-01
DAV:   2    -0.667774863032E+02   -0.11176E+00   -0.11462E+00   972   0.270E+00    0.734E-01
DAV:   3    -0.667754321242E+02    0.20542E-02   -0.18661E-02   972   0.343E-01    0.492E-01
DAV:   4    -0.667731894404E+02    0.22427E-02   -0.89861E-03   980   0.193E-01    0.138E-01
DAV:   5    -0.667733595494E+02   -0.17011E-03   -0.41595E-04   912   0.663E-02    0.499E-02
DAV:   6    -0.667734257455E+02   -0.66196E-04   -0.13635E-04   628   0.223E-02
   5 F= -.66773426E+02 E0= -.66773426E+02  d E =-.186932E+00  mag=     2.0000
       N       E                     dE             d eps       ncg     rms          rms(c)
DAV:   1    -0.667734532469E+02   -0.93698E-04   -0.42932E+01   912   0.118E+01    0.397E-01
DAV:   2    -0.667930739577E+02   -0.19621E-01   -0.20050E-01   972   0.112E+00    0.293E-01
DAV:   3    -0.667927712845E+02    0.30267E-03   -0.34262E-03  1000   0.146E-01    0.188E-01
DAV:   4    -0.667926193146E+02    0.15197E-03   -0.15856E-03   980   0.812E-02    0.501E-02
DAV:   5    -0.667926991188E+02   -0.79804E-04   -0.56202E-05   616   0.277E-02
   6 F= -.66792699E+02 E0= -.66792699E+02  d E =-.206206E+00  mag=     2.0000
       N       E                     dE             d eps       ncg     rms          rms(c)
DAV:   1    -0.668192495002E+02   -0.26630E-01   -0.13973E+01   912   0.672E+00    0.185E-01
DAV:   2    -0.668255278498E+02   -0.62783E-02   -0.65113E-02   972   0.651E-01    0.162E-01
DAV:   3    -0.668254230476E+02    0.10480E-03   -0.11109E-03  1016   0.913E-02    0.114E-01
DAV:   4    -0.668252109656E+02    0.21208E-03   -0.50429E-04   976   0.423E-02    0.479E-02
DAV:   5    -0.668252006316E+02    0.10334E-04   -0.10616E-04   632   0.225E-02
   7 F= -.66825201E+02 E0= -.66825201E+02  d E =-.325015E-01  mag=     2.0000
       N       E                     dE             d eps       ncg     rms          rms(c)
DAV:   1    -0.668226744915E+02    0.25365E-02   -0.12602E+02   912   0.202E+01    0.513E-01
DAV:   2    -0.668795076804E+02   -0.56833E-01   -0.58774E-01   972   0.196E+00    0.479E-01
DAV:   3    -0.668788255020E+02    0.68218E-03   -0.96802E-03  1000   0.260E-01    0.345E-01
DAV:   4    -0.668770425254E+02    0.17830E-02   -0.34679E-03   992   0.113E-01    0.172E-01
DAV:   5    -0.668769776107E+02    0.64915E-04   -0.15544E-03   984   0.790E-02    0.574E-02
DAV:   6    -0.668770355159E+02   -0.57905E-04   -0.61448E-05   608   0.158E-02
   8 F= -.66877036E+02 E0= -.66877036E+02  d E =-.843364E-01  mag=     2.0000
       N       E                     dE             d eps       ncg     rms          rms(c)
DAV:   1    -0.668753409905E+02    0.16366E-02   -0.11034E+01   920   0.597E+00    0.154E-01
DAV:   2    -0.668803939798E+02   -0.50530E-02   -0.51947E-02   980   0.580E-01    0.135E-01
DAV:   3    -0.668803422174E+02    0.51762E-04   -0.85659E-04   976   0.779E-02
   9 F= -.66880342E+02 E0= -.66880342E+02  d E =-.876431E-01  mag=     2.0000
       N       E                     dE             d eps       ncg     rms          rms(c)
DAV:   1    -0.668938368782E+02   -0.13443E-01   -0.15747E+01   912   0.714E+00    0.163E-01
DAV:   2    -0.669010672166E+02   -0.72303E-02   -0.72854E-02   964   0.692E-01    0.167E-01
DAV:   3    -0.669010306085E+02    0.36608E-04   -0.12000E-03  1016   0.912E-02    0.120E-01
DAV:   4    -0.669008815948E+02    0.14901E-03   -0.42069E-04   932   0.399E-02    0.697E-02
DAV:   5    -0.669009516319E+02   -0.70037E-04   -0.34766E-04   848   0.369E-02
  10 F= -.66900952E+02 E0= -.66900952E+02  d E =-.206094E-01  mag=     2.0000
       N       E                     dE             d eps       ncg     rms          rms(c)
DAV:   1    -0.668675173096E+02    0.33364E-01   -0.14196E+02   912   0.215E+01    0.501E-01
DAV:   2    -0.669326355944E+02   -0.65118E-01   -0.66699E-01   960   0.210E+00    0.471E-01
DAV:   3    -0.669319810895E+02    0.65450E-03   -0.11803E-02  1024   0.289E-01    0.323E-01
DAV:   4    -0.669300656893E+02    0.19154E-02   -0.30479E-03   976   0.109E-01    0.189E-01
DAV:   5    -0.669298051789E+02    0.26051E-03   -0.24798E-03   992   0.955E-02    0.635E-02
DAV:   6    -0.669298621830E+02   -0.57004E-04   -0.57627E-05   608   0.155E-02
  11 F= -.66929862E+02 E0= -.66929862E+02  d E =-.495200E-01  mag=     2.0000
       N       E                     dE             d eps       ncg     rms          rms(c)
DAV:   1    -0.669345008215E+02   -0.46956E-02   -0.25553E+01   928   0.911E+00    0.226E-01
DAV:   2    -0.669461550568E+02   -0.11654E-01   -0.11788E-01   984   0.871E-01    0.187E-01
DAV:   3    -0.669459817812E+02    0.17328E-03   -0.19870E-03  1000   0.115E-01    0.131E-01
DAV:   4    -0.669457074233E+02    0.27436E-03   -0.76772E-04   960   0.531E-02    0.560E-02
DAV:   5    -0.669458064859E+02   -0.99063E-04   -0.21005E-04   640   0.306E-02
  12 F= -.66945806E+02 E0= -.66945806E+02  d E =-.159443E-01  mag=     2.0000
       N       E                     dE             d eps       ncg     rms          rms(c)
DAV:   1    -0.669337832471E+02    0.11924E-01   -0.40525E+01   912   0.115E+01    0.298E-01
DAV:   2    -0.669523481020E+02   -0.18565E-01   -0.18749E-01   956   0.110E+00    0.238E-01
DAV:   3    -0.669520496999E+02    0.29840E-03   -0.31866E-03  1000   0.146E-01    0.164E-01
DAV:   4    -0.669515747565E+02    0.47494E-03   -0.12614E-03   964   0.681E-02    0.659E-02
DAV:   5    -0.669516463435E+02   -0.71587E-04   -0.26809E-04   656   0.352E-02
  13 F= -.66951646E+02 E0= -.66951646E+02  d E =-.217842E-01  mag=     2.0000
       N       E                     dE             d eps       ncg     rms          rms(c)
DAV:   1    -0.669481323831E+02    0.34424E-02   -0.26909E+01   912   0.936E+00    0.194E-01
DAV:   2    -0.669602509225E+02   -0.12119E-01   -0.12169E-01   952   0.887E-01    0.180E-01
DAV:   3    -0.669600795204E+02    0.17140E-03   -0.19797E-03  1020   0.113E-01    0.131E-01
DAV:   4    -0.669596943109E+02    0.38521E-03   -0.57674E-04   952   0.461E-02    0.713E-02
DAV:   5    -0.669596801681E+02    0.14143E-04   -0.51187E-04   972   0.433E-02
  14 F= -.66959680E+02 E0= -.66959680E+02  d E =-.803382E-02  mag=     2.0000
       N       E                     dE             d eps       ncg     rms          rms(c)
DAV:   1    -0.669517624344E+02    0.79319E-02   -0.22951E+01   912   0.864E+00    0.182E-01
DAV:   2    -0.669621017771E+02   -0.10339E-01   -0.10410E-01   956   0.819E-01    0.166E-01
DAV:   3    -0.669619554524E+02    0.14632E-03   -0.16991E-03  1028   0.105E-01    0.120E-01
DAV:   4    -0.669616416731E+02    0.31378E-03   -0.50111E-04   952   0.430E-02    0.645E-02
DAV:   5    -0.669616539019E+02   -0.12229E-04   -0.40620E-04   952   0.388E-02
  15 F= -.66961654E+02 E0= -.66961654E+02  d E =-.100076E-01  mag=     2.0000
       N       E                     dE             d eps       ncg     rms          rms(c)
DAV:   1    -0.669609788917E+02    0.66278E-03   -0.16624E+01   912   0.734E+00    0.169E-01
DAV:   2    -0.669685154729E+02   -0.75366E-02   -0.76696E-02   944   0.706E-01    0.155E-01
DAV:   3    -0.669683864116E+02    0.12906E-03   -0.12828E-03  1020   0.924E-02    0.112E-01
DAV:   4    -0.669680819266E+02    0.30449E-03   -0.41812E-04   952   0.398E-02    0.568E-02
DAV:   5    -0.669680444204E+02    0.37506E-04   -0.23315E-04   640   0.309E-02
  16 F= -.66968044E+02 E0= -.66968044E+02  d E =-.639052E-02  mag=     2.0000
       N       E                     dE             d eps       ncg     rms          rms(c)
DAV:   1    -0.669571287614E+02    0.10953E-01   -0.29791E+01   912   0.983E+00    0.221E-01
DAV:   2    -0.669706292887E+02   -0.13501E-01   -0.13727E-01   936   0.944E-01    0.204E-01
DAV:   3    -0.669704233423E+02    0.20595E-03   -0.22697E-03  1024   0.122E-01    0.149E-01
DAV:   4    -0.669699317529E+02    0.49159E-03   -0.71423E-04   968   0.524E-02    0.770E-02
DAV:   5    -0.669698880562E+02    0.43697E-04   -0.47502E-04   952   0.421E-02
  17 F= -.66969888E+02 E0= -.66969888E+02  d E =-.823415E-02  mag=     2.0000
       N       E                     dE             d eps       ncg     rms          rms(c)
DAV:   1    -0.669693994100E+02    0.53234E-03   -0.11183E+01   912   0.601E+00    0.116E-01
DAV:   2    -0.669746536004E+02   -0.52542E-02   -0.51693E-02   956   0.581E-01    0.119E-01
DAV:   3    -0.669746496101E+02    0.39902E-05   -0.86227E-04  1024   0.759E-02
  18 F= -.66974650E+02 E0= -.66974650E+02  d E =-.476155E-02  mag=     2.0000
       N       E                     dE             d eps       ncg     rms          rms(c)
DAV:   1    -0.669610504139E+02    0.13603E-01   -0.40714E+01   912   0.115E+01    0.232E-01
DAV:   2    -0.669792414075E+02   -0.18191E-01   -0.18338E-01   952   0.110E+00    0.258E-01
DAV:   3    -0.669790275490E+02    0.21386E-03   -0.30029E-03  1040   0.138E-01    0.204E-01
DAV:   4    -0.669782809955E+02    0.74655E-03   -0.10343E-03   960   0.609E-02    0.123E-01
DAV:   5    -0.669782540537E+02    0.26942E-04   -0.14548E-03   968   0.721E-02    0.480E-02
DAV:   6    -0.669783237033E+02   -0.69650E-04   -0.31999E-05   624   0.116E-02
  19 F= -.66978324E+02 E0= -.66978324E+02  d E =-.843565E-02  mag=     2.0000
       N       E                     dE             d eps       ncg     rms          rms(c)
DAV:   1    -0.669794789519E+02   -0.12249E-02   -0.60093E+00   924   0.440E+00    0.107E-01
DAV:   2    -0.669823334997E+02   -0.28545E-02   -0.28030E-02   976   0.424E-01    0.905E-02
DAV:   3    -0.669823420371E+02   -0.85374E-05   -0.46286E-04  1004   0.545E-02
  20 F= -.66982342E+02 E0= -.66982342E+02  d E =-.401833E-02  mag=     2.0000
       N       E                     dE             d eps       ncg     rms          rms(c)
DAV:   1    -0.669780037253E+02    0.43298E-02   -0.15724E+01   924   0.712E+00    0.190E-01
DAV:   2    -0.669852078163E+02   -0.72041E-02   -0.72537E-02   984   0.682E-01    0.160E-01
DAV:   3    -0.669850856959E+02    0.12212E-03   -0.12097E-03  1028   0.874E-02    0.114E-01
DAV:   4    -0.669848977724E+02    0.18792E-03   -0.71995E-04   968   0.507E-02    0.367E-02
DAV:   5    -0.669849322331E+02   -0.34461E-04   -0.71855E-05   632   0.195E-02
  21 F= -.66984932E+02 E0= -.66984932E+02  d E =-.660853E-02  mag=     2.0000
       N       E                     dE             d eps       ncg     rms          rms(c)
DAV:   1    -0.669847536477E+02    0.14412E-03   -0.78572E+00   944   0.503E+00    0.114E-01
DAV:   2    -0.669883765440E+02   -0.36229E-02   -0.36015E-02   984   0.479E-01    0.962E-02
DAV:   3    -0.669883276656E+02    0.48878E-04   -0.57139E-04  1008   0.601E-02
  22 F= -.66988328E+02 E0= -.66988328E+02  d E =-.339543E-02  mag=     2.0000
       N       E                     dE             d eps       ncg     rms          rms(c)
DAV:   1    -0.669809718994E+02    0.74046E-02   -0.22168E+01   920   0.845E+00    0.210E-01
DAV:   2    -0.669910093601E+02   -0.10037E-01   -0.10051E-01   964   0.802E-01    0.179E-01
DAV:   3    -0.669907783087E+02    0.23105E-03   -0.16098E-03  1016   0.100E-01    0.131E-01
DAV:   4    -0.669904245384E+02    0.35377E-03   -0.10213E-03   952   0.603E-02    0.436E-02
DAV:   5    -0.669904580237E+02   -0.33485E-04   -0.13066E-04   608   0.255E-02
  23 F= -.66990458E+02 E0= -.66990458E+02  d E =-.552579E-02  mag=     2.0000
       N       E                     dE             d eps       ncg     rms          rms(c)
DAV:   1    -0.669884962892E+02    0.19282E-02   -0.12815E+01   912   0.642E+00    0.110E-01
DAV:   2    -0.669943268813E+02   -0.58306E-02   -0.58011E-02   956   0.610E-01    0.116E-01
DAV:   3    -0.669942721744E+02    0.54707E-04   -0.91621E-04  1036   0.766E-02
  24 F= -.66994272E+02 E0= -.66994272E+02  d E =-.381415E-02  mag=     2.0000
       N       E                     dE             d eps       ncg     rms          rms(c)
DAV:   1    -0.669579349949E+02    0.36392E-01   -0.93484E+01   912   0.174E+01    0.317E-01
DAV:   2    -0.669994659455E+02   -0.41531E-01   -0.41899E-01   960   0.165E+00    0.351E-01
DAV:   3    -0.669988307415E+02    0.63520E-03   -0.66427E-03  1032   0.204E-01    0.278E-01
DAV:   4    -0.669971737723E+02    0.16570E-02   -0.16718E-03   952   0.785E-02    0.178E-01
DAV:   5    -0.669966503297E+02    0.52344E-03   -0.35162E-03   964   0.110E-01    0.614E-02
DAV:   6    -0.669967523741E+02   -0.10204E-03   -0.40795E-05   620   0.140E-02    0.391E-02
DAV:   7    -0.669968660533E+02   -0.11368E-03   -0.41196E-05   612   0.120E-02    0.155E-02
DAV:   8    -0.669969653503E+02   -0.99297E-04   -0.18933E-05   632   0.883E-03
  25 F= -.66996965E+02 E0= -.66996965E+02  d E =-.650733E-02  mag=     2.0000
       N       E                     dE             d eps       ncg     rms          rms(c)
DAV:   1    -0.669913376402E+02    0.55284E-02   -0.19632E+01   920   0.795E+00    0.248E-01
DAV:   2    -0.670001150780E+02   -0.87774E-02   -0.92247E-02   992   0.755E-01    0.189E-01
DAV:   3    -0.669999956446E+02    0.11943E-03   -0.15135E-03  1008   0.920E-02    0.125E-01
DAV:   4    -0.669998364604E+02    0.15918E-03   -0.59762E-04   988   0.520E-02    0.391E-02
DAV:   5    -0.669998545706E+02   -0.18110E-04   -0.36076E-05   632   0.186E-02
  26 F= -.66999855E+02 E0= -.66999855E+02  d E =-.288922E-02  mag=     2.0000
       N       E                     dE             d eps       ncg     rms          rms(c)
DAV:   1    -0.670000201503E+02   -0.18369E-03   -0.20963E+00   924   0.260E+00    0.803E-02
DAV:   2    -0.670009850299E+02   -0.96488E-03   -0.97652E-03   988   0.246E-01    0.622E-02
DAV:   3    -0.670009862966E+02   -0.12667E-05   -0.14700E-04   616   0.302E-02
  27 F= -.67000986E+02 E0= -.67000986E+02  d E =-.402095E-02  mag=     2.0000
       N       E                     dE             d eps       ncg     rms          rms(c)
DAV:   1    -0.670004671129E+02    0.51792E-03   -0.49334E+00   928   0.399E+00    0.894E-02
DAV:   2    -0.670027128314E+02   -0.22457E-02   -0.22602E-02   980   0.379E-01    0.761E-02
DAV:   3    -0.670026818653E+02    0.30966E-04   -0.33710E-04   796   0.471E-02
  28 F= -.67002682E+02 E0= -.67002682E+02  d E =-.169557E-02  mag=     2.0000
       N       E                     dE             d eps       ncg     rms          rms(c)
DAV:   1    -0.670026038854E+02    0.10895E-03   -0.17718E-03   952   0.731E-02    0.225E-02
DAV:   2    -0.670026077659E+02   -0.38805E-05   -0.20443E-05   584   0.128E-02
  29 F= -.67002608E+02 E0= -.67002608E+02  d E =-.162147E-02  mag=     2.0000
       N       E                     dE             d eps       ncg     rms          rms(c)
DAV:   1    -0.670022355540E+02    0.36833E-03   -0.41207E+00   932   0.363E+00    0.736E-02
DAV:   2    -0.670041134323E+02   -0.18779E-02   -0.18907E-02   984   0.345E-01    0.673E-02
DAV:   3    -0.670040891790E+02    0.24253E-04   -0.26280E-04   680   0.420E-02
  30 F= -.67004089E+02 E0= -.67004089E+02  d E =-.148141E-02  mag=     2.0000
       N       E                     dE             d eps       ncg     rms          rms(c)
DAV:   1    -0.670040295508E+02    0.83882E-04   -0.30947E-04   788   0.297E-02    0.211E-02
DAV:   2    -0.670040327150E+02   -0.31643E-05   -0.24723E-05   600   0.122E-02
  31 F= -.67004033E+02 E0= -.67004033E+02  d E =-.142495E-02  mag=     2.0000
