 vasp.5.3.5 31Mar14 (build Feb 01 2018 12:10:03) gamma-only                     
  
 executed on             LinuxIFC date 2019.03.22  16:26:44
 running on   32 total cores
 distrk:  each k-point on   32 cores,    1 groups
 distr:  one band on NCORES_PER_BAND=   8 cores,    4 groups


--------------------------------------------------------------------------------------------------------


 INCAR:
 POTCAR:    PAW_PBE Ag 02Apr2005                  
 POTCAR:    PAW_PBE Ag 02Apr2005                  
   VRHFIN =Ag : s1 d10                                                          
   LEXCH  = PE                                                                  
   EATOM  =  1037.2675 eV,   76.2370 Ry                                         
                                                                                
   TITEL  = PAW_PBE Ag 02Apr2005                                                
   LULTRA =        F    use ultrasoft PP ?                                      
   IUNSCR =        1    unscreen: 0-lin 1-nonlin 2-no                           
   RPACOR =    2.000    partial core radius                                     
   POMASS =  107.868; ZVAL   =   11.000    mass and valenz                      
   RCORE  =    2.500    outmost cutoff radius                                   
   RWIGS  =    2.840; RWIGS  =    1.503    wigner-seitz radius (au A)           
   ENMAX  =  249.844; ENMIN  =  187.383 eV                                      
   ICORE  =        3    local potential                                         
   LCOR   =        T    correct aug charges                                     
   LPAW   =        T    paw PP                                                  
   EAUG   =  412.496                                                            
   DEXC   =    0.000                                                            
   RMAX   =    2.560    core radius for proj-oper                               
   RAUG   =    1.300    factor for augmentation sphere                          
   RDEP   =    2.576    radius for radial grids                                 
   RDEPT  =    2.072    core radius for aug-charge                              
                                                                                
   Atomic configuration                                                         
   12 entries                                                                   
     n  l   j            E        occ.                                          
     1  0  0.50    -25324.9161   2.0000                                         
     2  0  0.50     -3728.5341   2.0000                                         
     2  1  1.50     -3344.0404   6.0000                                         
     3  0  0.50      -683.5581   2.0000                                         
     3  1  1.50      -557.3225   6.0000                                         
     3  2  2.50      -358.3853  10.0000                                         
     4  0  0.50       -95.0341   2.0000                                         
     4  1  1.50       -58.5511   6.0000                                         
     4  2  2.50        -7.4440  10.0000                                         
     5  0  0.50        -4.4045   1.0000                                         
     5  1  0.50        -1.3606   0.0000                                         
     4  3  2.50        -1.3606   0.0000                                         
   Description                                                                  
     l       E           TYP  RCUT    TYP  RCUT                                 
     2     -7.4439781     23  2.400                                             
     2     -8.8045607     23  2.400                                             
     0     -4.4044681     23  2.400                                             
     0      1.9520038     23  2.400                                             
     1     -1.3605826     23  2.500                                             
     1     27.2116520     23  2.500                                             
     3     -4.0817478     23  2.400                                             
  local pseudopotential read in
  partial core-charges read in
  partial kinetic energy density read in
  atomic valenz-charges read in
  non local Contribution for L=           2  read in
    real space projection operators read in
  non local Contribution for L=           2  read in
    real space projection operators read in
  non local Contribution for L=           0  read in
    real space projection operators read in
  non local Contribution for L=           0  read in
    real space projection operators read in
  non local Contribution for L=           1  read in
    real space projection operators read in
  non local Contribution for L=           1  read in
    real space projection operators read in
    PAW grid and wavefunctions read in
 
   number of l-projection  operators is LMAX  =           6
   number of lm-projection operators is LMMAX =          18
 

 ----------------------------------------------------------------------------- 
|                                                                             |
|  ADVICE TO THIS USER RUNNING 'VASP/VAMP'   (HEAR YOUR MASTER'S VOICE ...):  |
|                                                                             |
|      You have a (more or less) 'large supercell' and for larger cells       |
|      it might be more efficient to use real space projection opertators     |
|      So try LREAL= Auto  in the INCAR   file.                               |
|      Mind: At the moment your POTCAR file does not contain real space       |
|       projectors, and has to be modified,  BUT if you                       |
|      want to do an extremely  accurate calculation you might also keep the  |
|      reciprocal projection scheme          (i.e. LREAL=.FALSE.)             |
|                                                                             |
 ----------------------------------------------------------------------------- 

  PAW_PBE Ag 02Apr2005                  :
 energy of atom  1       EATOM=-1037.2675
 kinetic energy error for atom=    0.0689 (will be added to EATOM!!)
 
 
 POSCAR: Al32, -99.51797088 <s> Ag </s>          
  positions in direct lattice
  No initial velocities read in
 exchange correlation table for  LEXCH =        8
   RHO(1)=    0.500       N(1)  =     2000
   RHO(2)=  100.500       N(2)  =     4000
 


--------------------------------------------------------------------------------------------------------


 ion  position               nearest neighbor table
   1  0.662  0.591  0.454-   3 2.77   6 2.81   2 2.83   4 2.92  12 2.95   7 2.96   5 3.00
   2  0.565  0.624  0.377-   8 2.69  13 2.78   6 2.79   1 2.83   7 2.98  17 3.10
   3  0.736  0.547  0.545-   5 2.74   4 2.75   1 2.77   9 2.79  12 3.33
   4  0.692  0.463  0.464-   3 2.75   7 2.77  10 2.82  11 2.84  12 2.89   1 2.92
   5  0.645  0.621  0.585-  19 2.73   6 2.74   3 2.74  14 2.84  12 2.98   1 3.00   9 3.15
   6  0.552  0.632  0.502-  26 2.72  19 2.73   5 2.74   2 2.79   1 2.81  13 2.83  12 2.90  17 2.95

   7  0.609  0.496  0.376-  11 2.76   8 2.77   4 2.77   1 2.96  15 2.96   2 2.98  17 3.07  12 3.46

   8  0.510  0.537  0.311-   2 2.69   7 2.77  16 2.80  15 2.81  21 2.82  17 3.03
   9  0.668  0.490  0.636-  14 2.73  10 2.76   3 2.79  18 2.90  12 2.91   5 3.15
  10  0.647  0.393  0.561-  20 2.74   9 2.76  18 2.79  11 2.80   4 2.82  12 2.95
  11  0.578  0.404  0.455-  15 2.72  22 2.73  20 2.75   7 2.76  10 2.80   4 2.84  12 2.89  17 3.30

  12  0.590  0.510  0.531-  17 2.87  14 2.88   4 2.89  11 2.89   6 2.90   9 2.91  23 2.94  10 2.95
                             1 2.95   5 2.98  18 3.04   3 3.33   7 3.46
  13  0.451  0.648  0.425-  21 2.71  26 2.76   2 2.78   6 2.83  17 2.89  24 2.93
  14  0.561  0.550  0.652-  18 2.72   9 2.73  19 2.75  31 2.76   5 2.84  12 2.88  28 2.99  23 2.99

  15  0.498  0.422  0.363-  11 2.72   8 2.81  16 2.81  22 2.83  25 2.87  17 2.95   7 2.96
  16  0.412  0.464  0.280-   8 2.80  15 2.81  21 2.83  25 2.85
  17  0.493  0.526  0.447-  12 2.87  23 2.87  13 2.89   6 2.95  15 2.95  22 2.97   8 3.03  24 3.05
                             7 3.07   2 3.10  25 3.11  21 3.17  11 3.30  26 3.40
  18  0.552  0.428  0.636-  28 2.71  14 2.72  20 2.76  10 2.79  29 2.89   9 2.90  23 2.93  12 3.04

  19  0.535  0.667  0.619-   5 2.73   6 2.73  14 2.75  31 2.76  26 2.80
  20  0.537  0.337  0.552-  22 2.70  29 2.71  10 2.74  11 2.75  18 2.76
  21  0.393  0.567  0.353-  13 2.71  25 2.75  24 2.77   8 2.82  16 2.83  17 3.17
  22  0.458  0.402  0.483-  20 2.70  25 2.72  11 2.73  29 2.78  27 2.81  15 2.83  23 2.95  17 2.97

  23  0.463  0.503  0.571-  17 2.87  29 2.89  26 2.90  30 2.92  18 2.93  12 2.94  22 2.95  28 2.96
                            27 2.97  31 2.98  14 2.99  24 3.34  32 3.45
  24  0.363  0.563  0.475-  26 2.74  30 2.76  21 2.77  25 2.87  27 2.89  13 2.93  17 3.05  23 3.34

  25  0.379  0.455  0.405-  22 2.72  21 2.75  16 2.85  15 2.87  24 2.87  27 2.89  17 3.11
  26  0.438  0.629  0.548-   6 2.72  24 2.74  13 2.76  31 2.77  19 2.80  30 2.82  23 2.90  17 3.40

  27  0.348  0.445  0.531-  32 2.81  22 2.81  25 2.89  30 2.89  24 2.89  29 2.90  23 2.97
  28  0.460  0.475  0.702-  18 2.71  31 2.77  32 2.79  23 2.96  14 2.99  29 3.07
  29  0.435  0.379  0.605-  20 2.71  32 2.75  22 2.78  18 2.89  23 2.89  27 2.90  28 3.07
  30  0.346  0.557  0.599-  32 2.74  24 2.76  31 2.80  26 2.82  27 2.89  23 2.92
  31  0.446  0.595  0.668-  14 2.76  19 2.76  26 2.77  28 2.77  30 2.80  23 2.98
  32  0.345  0.448  0.658-  30 2.74  29 2.75  28 2.79  27 2.81  23 3.45
 
  LATTYP: Found a simple cubic cell.
 ALAT       =    22.0931477621
  
  Lattice vectors:
  
 A1 = (  22.0931477621,   0.0000000000,   0.0000000000)
 A2 = (   0.0000000000,  22.0931477621,   0.0000000000)
 A3 = (   0.0000000000,   0.0000000000,  22.0931477621)


Analysis of symmetry for initial positions (statically):
=====================================================================
 Subroutine PRICEL returns:
 Original cell was already a primitive cell.
 

 Routine SETGRP: Setting up the symmetry group for a 
 simple cubic supercell.


 Subroutine GETGRP returns: Found  1 space group operations
 (whereof  1 operations were pure point group operations)
 out of a pool of 48 trial point group operations.


The static configuration has the point symmetry C_1 .


Analysis of symmetry for dynamics (positions and initial velocities):
=====================================================================
 Subroutine PRICEL returns:
 Original cell was already a primitive cell.
 

 Routine SETGRP: Setting up the symmetry group for a 
 simple cubic supercell.


 Subroutine GETGRP returns: Found  1 space group operations
 (whereof  1 operations were pure point group operations)
 out of a pool of 48 trial point group operations.


The dynamic configuration has the point symmetry C_1 .


Analysis of magnetic symmetry:
=====================================================================
 Subroutine PRICEL returns:
 Original cell was already a primitive cell.
 

 Subroutine MAGSYM returns: Found  1 space group operations
 (whereof  1 operations were pure point group operations)
 out of a pool of  1 trial space group operations
 (whereof  1 operations were pure point group operations)
 and found also     1 'primitive' translations


The magnetic configuration has the point symmetry C_1 .
 
 
 KPOINTS: Gamma-point only                        
  k-points in reciprocal lattice
Space group operators:
 irot       det(A)        alpha          n_x          n_y          n_z        tau_x        tau_y        tau_z
    1     1.000000     0.000000     1.000000     0.000000     0.000000     0.000000     0.000000     0.000000


--------------------------------------------------------------------------------------------------------




 Dimension of arrays:
   k-points           NKPTS =      1   k-points in BZ     NKDIM =      1   number of bands    NBANDS=    228
   number of dos      NEDOS =    301   number of ions     NIONS =     32
   non local maximal  LDIM  =      6   non local SUM 2l+1 LMDIM =     18
   total plane-waves  NPLWV = 729000
   max r-space proj   IRMAX =      1   max aug-charges    IRDMAX=   3523
   dimension x,y,z NGX =    90 NGY =   90 NGZ =   90
   dimension x,y,z NGXF=   180 NGYF=  180 NGZF=  180
   support grid    NGXF=   180 NGYF=  180 NGZF=  180
   ions per type =              32
 NGX,Y,Z   is equivalent  to a cutoff of   6.77,  6.77,  6.77 a.u.
 NGXF,Y,Z  is equivalent  to a cutoff of  13.54, 13.54, 13.54 a.u.


 I would recommend the setting:
   dimension x,y,z NGX =    85 NGY =   85 NGZ =   85
 SYSTEM =  unknown system                          
 POSCAR =  Al32, -99.51797088 <s> Ag </s>          

 Startparameter for this run:
   NWRITE =      2    write-flag & timer
   PREC   = normal    normal or accurate (medium, high low for compatibility)
   ISTART =      0    job   : 0-new  1-cont  2-samecut
   ICHARG =      2    charge: 1-file 2-atom 10-const
   ISPIN  =      2    spin polarized calculation?
   LNONCOLLINEAR =      F non collinear calculations
   LSORBIT =      F    spin-orbit coupling
   INIWAV =      1    electr: 0-lowe 1-rand  2-diag
   LASPH  =      F    aspherical Exc in radial PAW
   METAGGA=      F    non-selfconsistent MetaGGA calc.

 Electronic Relaxation 1
   ENCUT  =  249.8 eV  18.36 Ry    4.29 a.u.  28.47 28.47 28.47*2*pi/ulx,y,z
   ENINI  =  249.8     initial cutoff
   ENAUG  =  412.5 eV  augmentation charge cutoff
   NELM   =     60;   NELMIN=  2; NELMDL= -5     # of ELM steps 
   EDIFF  = 0.1E-03   stopping-criterion for ELM
   LREAL  =      F    real-space projection
   NLSPLINE    = F    spline interpolate recip. space projectors
   LCOMPAT=      F    compatible to vasp.4.4
   GGA_COMPAT  = T    GGA compatible to vasp.4.4-vasp.4.6
   LMAXPAW     = -100 max onsite density
   LMAXMIX     =    2 max onsite mixed and CHGCAR
   VOSKOWN=      0    Vosko Wilk Nusair interpolation
   ROPT   =    0.00000
 Ionic relaxation
   EDIFFG = 0.1E-02   stopping-criterion for IOM
   NSW    =   1000    number of steps for IOM
   NBLOCK =      1;   KBLOCK =   1000    inner block; outer block 
   IBRION =      2    ionic relax: 0-MD 1-quasi-New 2-CG
   NFREE  =      1    steps in history (QN), initial steepest desc. (CG)
   ISIF   =      2    stress and relaxation
   IWAVPR =     11    prediction:  0-non 1-charg 2-wave 3-comb
   ISYM   =      2    0-nonsym 1-usesym 2-fastsym
   LCORR  =      T    Harris-Foulkes like correction to forces

   POTIM  = 0.1000    time-step for ionic-motion
   TEIN   =    0.0    initial temperature
   TEBEG  =    0.0;   TEEND  =   0.0 temperature during run
   SMASS  =  -3.00    Nose mass-parameter (am)
   estimated Nose-frequenzy (Omega)   =  0.10E-29 period in steps =****** mass=  -0.112E-25a.u.
   SCALEE = 1.0000    scale energy and forces
   NPACO  =    256;   APACO  = 16.0  distance and # of slots for P.C.
   PSTRESS=    0.0 pullay stress

  Mass of Ions in am
   POMASS = 107.87
  Ionic Valenz
   ZVAL   =  11.00
  Atomic Wigner-Seitz radii
   RWIGS  =  -1.00
  virtual crystal weights 
   VCA    =   1.00
   NELECT =     352.0000    total number of electrons
   NUPDOWN=      -1.0000    fix difference up-down

 DOS related values:
   EMIN   =  10.00;   EMAX   =-10.00  energy-range for DOS
   EFERMI =   0.00
   ISMEAR =     0;   SIGMA  =   0.00  broadening in eV -4-tet -1-fermi 0-gaus

 Electronic relaxation 2 (details)
   IALGO  =     38    algorithm
   LDIAG  =      T    sub-space diagonalisation (order eigenvalues)
   LSUBROT=      F    optimize rotation matrix (better conditioning)
   TURBO    =      0    0=normal 1=particle mesh
   IRESTART =      0    0=no restart 2=restart with 2 vectors
   NREBOOT  =      0    no. of reboots
   NMIN     =      0    reboot dimension
   EREF     =   0.00    reference energy to select bands
   IMIX   =      4    mixing-type and parameters
     AMIX     =   0.40;   BMIX     =  1.00
     AMIX_MAG =   1.60;   BMIX_MAG =  1.00
     AMIN     =   0.10
     WC   =   100.;   INIMIX=   1;  MIXPRE=   1;  MAXMIX= -45

 Intra band minimization:
   WEIMIN = 0.0010     energy-eigenvalue tresh-hold
   EBREAK =  0.11E-06  absolut break condition
   DEPER  =   0.30     relativ break condition  

   TIME   =   0.40     timestep for ELM

  volume/ion in A,a.u.               =     336.99      2274.15
  Fermi-wavevector in a.u.,A,eV,Ry     =   0.523196  0.988698  3.724384  0.273735
  Thomas-Fermi vector in A             =   1.542362
 
 Write flags
   LWAVE  =      F    write WAVECAR
   LCHARG =      F    write CHGCAR
   LVTOT  =      F    write LOCPOT, total local potential
   LVHAR  =      F    write LOCPOT, Hartree potential only
   LELF   =      F    write electronic localiz. function (ELF)
   LORBIT =      0    0 simple, 1 ext, 2 COOP (PROOUT)


 Dipole corrections
   LMONO  =      F    monopole corrections only (constant potential shift)
   LDIPOL =      F    correct potential (dipole corrections)
   IDIPOL =      0    1-x, 2-y, 3-z, 4-all directions 
   EPSILON=  1.0000000 bulk dielectric constant

 Exchange correlation treatment:
   GGA     =    PE    GGA type
   LEXCH   =     8    internal setting for exchange type
   VOSKOWN=      0    Vosko Wilk Nusair interpolation
   LHFCALC =     F    Hartree Fock is set to
   LHFONE  =     F    Hartree Fock one center treatment
   AEXX    =    0.0000 exact exchange contribution

 Linear response parameters
   LEPSILON=     F    determine dielectric tensor
   LRPA    =     F    only Hartree local field effects (RPA)
   LNABLA  =     F    use nabla operator in PAW spheres
   LVEL    =     F    velocity operator in full k-point grid
   LINTERFAST=   F  fast interpolation
   KINTER  =     0    interpolate to denser k-point grid
   CSHIFT  =0.1000    complex shift for real part using Kramers Kronig
   OMEGAMAX=  -1.0    maximum frequency
   DEG_THRESHOLD= 0.2000000E-02 threshold for treating states as degnerate
   RTIME   =    0.100 relaxation time in fs

 Orbital magnetization related:
   ORBITALMAG=     F  switch on orbital magnetization
   LCHIMAG   =     F  perturbation theory with respect to B field
   DQ        =  0.001000  dq finite difference perturbation B field



--------------------------------------------------------------------------------------------------------


 conjugate gradient relaxation of ions
 charge density and potential will be updated during run
 spin polarized calculation
 Variant of blocked Davidson
 Davidson routine will perform the subspace rotation
 perform sub-space diagonalisation
    after iterative eigenvector-optimisation
 modified Broyden-mixing scheme, WC =      100.0
 initial mixing is a Kerker type mixing with AMIX =  0.4000 and BMIX =      1.0000
 Hartree-type preconditioning will be used
 using additional bands           52
 reciprocal scheme for non local part
 use partial core corrections
 calculate Harris-corrections to forces 
   (improved forces if not selfconsistent)
 use gradient corrections 
 use of overlap-Matrix (Vanderbilt PP)
 Gauss-broadening in eV      SIGMA  =   0.00


--------------------------------------------------------------------------------------------------------


  energy-cutoff  :      249.84
  volume of cell :    10783.82
      direct lattice vectors                 reciprocal lattice vectors
    22.093147762  0.000000000  0.000000000     0.045262903  0.000000000  0.000000000
     0.000000000 22.093147762  0.000000000     0.000000000  0.045262903  0.000000000
     0.000000000  0.000000000 22.093147762     0.000000000  0.000000000  0.045262903

  length of vectors
    22.093147762 22.093147762 22.093147762     0.045262903  0.045262903  0.045262903


 
 k-points in units of 2pi/SCALE and weight: Gamma-point only                        
   0.00000000  0.00000000  0.00000000       1.000
 
 k-points in reciprocal lattice and weights: Gamma-point only                        
   0.00000000  0.00000000  0.00000000       1.000
 
 position of ions in fractional coordinates (direct lattice) 
   0.66238618  0.59127866  0.45354171
   0.56531810  0.62394844  0.37682174
   0.73580045  0.54684238  0.54522585
   0.69220528  0.46314146  0.46407116
   0.64454021  0.62129400  0.58478891
   0.55243386  0.63228136  0.50217702
   0.60882981  0.49614616  0.37624478
   0.50980370  0.53733760  0.31138248
   0.66807960  0.49028203  0.63586085
   0.64746713  0.39270893  0.56095941
   0.57849473  0.40409272  0.45497751
   0.59025395  0.50987963  0.53134100
   0.45132094  0.64801500  0.42478406
   0.56112035  0.55024699  0.65186167
   0.49814787  0.42204739  0.36338553
   0.41162356  0.46396001  0.27987803
   0.49309426  0.52627998  0.44696787
   0.55217451  0.42830256  0.63565669
   0.53521169  0.66745971  0.61944271
   0.53660853  0.33742338  0.55163062
   0.39275337  0.56732584  0.35317676
   0.45814619  0.40179283  0.48340289
   0.46334280  0.50252080  0.57117490
   0.36299758  0.56253687  0.47501259
   0.37943268  0.45460697  0.40458198
   0.43821283  0.62905362  0.54757229
   0.34846288  0.44513965  0.53112022
   0.46036042  0.47513305  0.70233166
   0.43479432  0.37933738  0.60519586
   0.34617499  0.55707735  0.59857899
   0.44556811  0.59484503  0.66774262
   0.34540716  0.44812364  0.65810275
 
 position of ions in cartesian coordinates  (Angst):
  14.63419573 13.06320674 10.02016406
  12.48965628 13.78498509  8.32517830
  16.25614803 12.08146958 12.04575527
  15.29299349 10.23225267 10.25279274
  14.23992211 13.72634012 12.91982777
  12.20500298 13.96908559 11.09467120
  13.45096689 10.96143049  8.31243155
  11.26316838 11.87147905  6.87941919
  14.75998140 10.83187340 14.04816771
  14.30458707  8.67617632 12.39335905
  12.78076957  8.92768027 10.05188542
  13.04056766 11.26484601 11.73899515
   9.97110030 14.31669106  9.38481695
  12.39691475 12.15668797 14.40167630
  11.00565455  9.32435542  8.02833025
   9.09406008 10.25033709  6.18338665
  10.89400432 11.62718129  9.87492711
  12.19927305  9.46255184 14.04365713
  11.82451096 14.74628592 13.68543930
  11.85537151  7.45474466 12.18725683
   8.67715820 12.53401364  7.80278630
  10.12189142  8.87686836 10.67989143
  10.23670088 11.10226618 12.61905156
   8.01975925 12.42821029 10.49452344
   8.38286232 10.04369895  8.93848941
   9.68150076 13.89777467 12.09759547
   7.69864188  9.83453612 11.73411753
  10.17081068 10.49718471 15.51671707
   9.60597510  8.38075686 13.37068166
   7.64809524 12.30759221 13.22449410
   9.84400207 13.14199916 14.75253647
   7.63113137  9.90046177 14.53956140
 


--------------------------------------------------------------------------------------------------------


 use parallel FFT for wavefunctions z direction half grid
 k-point  1 :   0.0000 0.0000 0.0000  plane waves:   48485

 maximum and minimum number of plane-waves per node :      6065     6058

 maximum number of plane-waves:     48485
 maximum index in each direction: 
   IXMAX=   28   IYMAX=   28   IZMAX=   28
   IXMIN=  -28   IYMIN=  -28   IZMIN=    0

 WARNING: aliasing errors must be expected set NGX to 114 to avoid them
 WARNING: aliasing errors must be expected set NGY to 114 to avoid them
 WARNING: aliasing errors must be expected set NGZ to 114 to avoid them
 aliasing errors are usually negligible using standard VASP settings
 and one can safely disregard these warnings

 parallel 3D FFT for wavefunctions:
    minimum data exchange during FFTs selected (reduces bandwidth)
 parallel 3D FFT for charge:
    minimum data exchange during FFTs selected (reduces bandwidth)


 total amount of memory used by VASP on root node    75681. kBytes
========================================================================

   base      :      30000. kBytes
   nonl-proj :       3980. kBytes
   fftplans  :       8578. kBytes
   grid      :      21928. kBytes
   one-center:         62. kBytes
   wavefun   :      11133. kBytes
 
     INWAV:  cpu time    0.00: real time    0.00
 Broyden mixing: mesh for mixing (old mesh)
   NGX = 57   NGY = 57   NGZ = 57
  (NGX  =180   NGY  =180   NGZ  =180)
  gives a total of 185193 points

 initial charge density was supplied:
 charge density of overlapping atoms calculated
 number of electron     352.0000000 magnetization      32.0000000
 keeping initial charge density in first step


--------------------------------------------------------------------------------------------------------


 Maximum index for augmentation-charges          266 (set IRDMAX)


--------------------------------------------------------------------------------------------------------


 First call to EWALD:  gamma=   0.080
 Maximum number of real-space cells 3x 3x 3
 Maximum number of reciprocal cells 3x 3x 3

 FEWALD executed in parallel
    FEWALD:  cpu time    0.00: real time    0.00


----------------------------------------- Iteration    1(   1)  ---------------------------------------


    POTLOK:  cpu time    0.37: real time    0.37
    SETDIJ:  cpu time    0.01: real time    0.01
     EDDAV:  cpu time    4.99: real time    4.99
       DOS:  cpu time    0.00: real time    0.00
    --------------------------------------------
      LOOP:  cpu time    5.38: real time    5.43

 eigenvalue-minimisations  :   912
 total energy-change (2. order) : 0.3069601E+04  (-0.6653410E+04)
 number of electron     352.0000000 magnetization      32.0000000
 augmentation part      352.0000000 magnetization      32.0000000

 Free energy of the ion-electron system (eV)
  ---------------------------------------------------
  alpha Z        PSCENC =        80.76837511
  Ewald energy   TEWEN  =     75653.27773984
  -Hartree energ DENC   =   -107496.18125619
  -exchange      EXHF   =         0.00000000
  -V(xc)+E(xc)   XCENC  =      -350.09948844
  PAW double counting   =     32107.90969823   -30632.46748412
  entropy T*S    EENTRO =         0.00000000
  eigenvalues    EBANDS =       516.03764680
  atomic energy  EATOM  =     33190.35616276
  ---------------------------------------------------
  free energy    TOTEN  =      3069.60139398 eV

  energy without entropy =     3069.60139398  energy(sigma->0) =     3069.60139398


--------------------------------------------------------------------------------------------------------




----------------------------------------- Iteration    1(   2)  ---------------------------------------


     EDDAV:  cpu time    7.72: real time    7.72
       DOS:  cpu time    0.00: real time    0.00
    --------------------------------------------
      LOOP:  cpu time    7.72: real time    7.73

 eigenvalue-minimisations  :  1560
 total energy-change (2. order) :-0.2435269E+04  (-0.2189524E+04)
 number of electron     352.0000000 magnetization      32.0000000
 augmentation part      352.0000000 magnetization      32.0000000

 Free energy of the ion-electron system (eV)
  ---------------------------------------------------
  alpha Z        PSCENC =        80.76837511
  Ewald energy   TEWEN  =     75653.27773984
  -Hartree energ DENC   =   -107496.18125619
  -exchange      EXHF   =         0.00000000
  -V(xc)+E(xc)   XCENC  =      -350.09948844
  PAW double counting   =     32107.90969823   -30632.46748412
  entropy T*S    EENTRO =         0.00000000
  eigenvalues    EBANDS =     -1919.23158782
  atomic energy  EATOM  =     33190.35616276
  ---------------------------------------------------
  free energy    TOTEN  =       634.33215937 eV

  energy without entropy =      634.33215937  energy(sigma->0) =      634.33215937


--------------------------------------------------------------------------------------------------------




----------------------------------------- Iteration    1(   3)  ---------------------------------------


     EDDAV:  cpu time    6.06: real time    6.06
       DOS:  cpu time    0.00: real time    0.00
    --------------------------------------------
      LOOP:  cpu time    6.06: real time    6.14

 eigenvalue-minimisations  :  1168
 total energy-change (2. order) :-0.6675474E+03  (-0.6051150E+03)
 number of electron     352.0000000 magnetization      32.0000000
 augmentation part      352.0000000 magnetization      32.0000000

 Free energy of the ion-electron system (eV)
  ---------------------------------------------------
  alpha Z        PSCENC =        80.76837511
  Ewald energy   TEWEN  =     75653.27773984
  -Hartree energ DENC   =   -107496.18125619
  -exchange      EXHF   =         0.00000000
  -V(xc)+E(xc)   XCENC  =      -350.09948844
  PAW double counting   =     32107.90969823   -30632.46748412
  entropy T*S    EENTRO =         0.00000000
  eigenvalues    EBANDS =     -2586.77899951
  atomic energy  EATOM  =     33190.35616276
  ---------------------------------------------------
  free energy    TOTEN  =       -33.21525233 eV

  energy without entropy =      -33.21525233  energy(sigma->0) =      -33.21525233


--------------------------------------------------------------------------------------------------------




----------------------------------------- Iteration    1(   4)  ---------------------------------------


     EDDAV:  cpu time    5.47: real time    5.47
       DOS:  cpu time    0.00: real time    0.00
    --------------------------------------------
      LOOP:  cpu time    5.47: real time    5.48

 eigenvalue-minimisations  :  1016
 total energy-change (2. order) :-0.3384062E+02  (-0.3349306E+02)
 number of electron     352.0000000 magnetization      32.0000000
 augmentation part      352.0000000 magnetization      32.0000000

 Free energy of the ion-electron system (eV)
  ---------------------------------------------------
  alpha Z        PSCENC =        80.76837511
  Ewald energy   TEWEN  =     75653.27773984
  -Hartree energ DENC   =   -107496.18125619
  -exchange      EXHF   =         0.00000000
  -V(xc)+E(xc)   XCENC  =      -350.09948844
  PAW double counting   =     32107.90969823   -30632.46748412
  entropy T*S    EENTRO =        -0.00000000
  eigenvalues    EBANDS =     -2620.61961635
  atomic energy  EATOM  =     33190.35616276
  ---------------------------------------------------
  free energy    TOTEN  =       -67.05586917 eV

  energy without entropy =      -67.05586917  energy(sigma->0) =      -67.05586917


--------------------------------------------------------------------------------------------------------




----------------------------------------- Iteration    1(   5)  ---------------------------------------


     EDDAV:  cpu time    5.52: real time    5.52
       DOS:  cpu time    0.00: real time    0.00
    CHARGE:  cpu time    0.20: real time    0.19
    MIXING:  cpu time    0.01: real time    0.01
    --------------------------------------------
      LOOP:  cpu time    5.72: real time    5.73

 eigenvalue-minimisations  :  1024
 total energy-change (2. order) :-0.4831392E+00  (-0.4826759E+00)
 number of electron     351.9999109 magnetization      28.4082339
 augmentation part      165.2058482 magnetization      27.2050037

 Broyden mixing:
  rms(total) = 0.32236E+01    rms(broyden)= 0.32231E+01
  rms(prec ) = 0.32775E+01
  weight for this iteration     100.00

 Free energy of the ion-electron system (eV)
  ---------------------------------------------------
  alpha Z        PSCENC =        80.76837511
  Ewald energy   TEWEN  =     75653.27773984
  -Hartree energ DENC   =   -107496.18125619
  -exchange      EXHF   =         0.00000000
  -V(xc)+E(xc)   XCENC  =      -350.09948844
  PAW double counting   =     32107.90969823   -30632.46748412
  entropy T*S    EENTRO =         0.00000000
  eigenvalues    EBANDS =     -2621.10275553
  atomic energy  EATOM  =     33190.35616276
  ---------------------------------------------------
  free energy    TOTEN  =       -67.53900835 eV

  energy without entropy =      -67.53900835  energy(sigma->0) =      -67.53900835


--------------------------------------------------------------------------------------------------------




----------------------------------------- Iteration    1(   6)  ---------------------------------------


    POTLOK:  cpu time    0.37: real time    0.37
    SETDIJ:  cpu time    0.01: real time    0.01
     EDDAV:  cpu time    5.07: real time    5.07
       DOS:  cpu time    0.00: real time    0.00
    CHARGE:  cpu time    0.19: real time    0.19
    MIXING:  cpu time    0.01: real time    0.01
    --------------------------------------------
      LOOP:  cpu time    5.64: real time    5.65

 eigenvalue-minimisations  :   916
 total energy-change (2. order) : 0.3991649E+02  (-0.1199201E+02)
 number of electron     351.9999088 magnetization      26.1335065
 augmentation part      169.1487972 magnetization      15.8597375

 Broyden mixing:
  rms(total) = 0.16960E+01    rms(broyden)= 0.16958E+01
  rms(prec ) = 0.17181E+01
  weight for this iteration     100.00

 eigenvalues of (default mixing * dielectric matrix)
  average eigenvalue GAMMA=   0.8519
  0.8519

 Free energy of the ion-electron system (eV)
  ---------------------------------------------------
  alpha Z        PSCENC =        80.76837511
  Ewald energy   TEWEN  =     75653.27773984
  -Hartree energ DENC   =   -107358.71762494
  -exchange      EXHF   =         0.00000000
  -V(xc)+E(xc)   XCENC  =      -332.25491108
  PAW double counting   =     33178.01461527   -31726.36926949
  entropy T*S    EENTRO =         0.00000000
  eigenvalues    EBANDS =     -2712.69760095
  atomic energy  EATOM  =     33190.35616276
  ---------------------------------------------------
  free energy    TOTEN  =       -27.62251346 eV

  energy without entropy =      -27.62251346  energy(sigma->0) =      -27.62251346


--------------------------------------------------------------------------------------------------------




----------------------------------------- Iteration    1(   7)  ---------------------------------------


    POTLOK:  cpu time    0.37: real time    0.37
    SETDIJ:  cpu time    0.01: real time    0.01
     EDDAV:  cpu time    5.37: real time    5.37
       DOS:  cpu time    0.00: real time    0.00
    CHARGE:  cpu time    0.19: real time    0.19
    MIXING:  cpu time    0.01: real time    0.01
    --------------------------------------------
      LOOP:  cpu time    5.95: real time    6.69

 eigenvalue-minimisations  :   988
 total energy-change (2. order) : 0.5283132E+01  (-0.6967481E+00)
 number of electron     351.9999087 magnetization      22.1019362
 augmentation part      169.1025194 magnetization      14.0705765

 Broyden mixing:
  rms(total) = 0.10615E+01    rms(broyden)= 0.10615E+01
  rms(prec ) = 0.10741E+01
  weight for this iteration     100.00

 eigenvalues of (default mixing * dielectric matrix)
  average eigenvalue GAMMA=   1.0412
  0.7657  1.3167

 Free energy of the ion-electron system (eV)
  ---------------------------------------------------
  alpha Z        PSCENC =        80.76837511
  Ewald energy   TEWEN  =     75653.27773984
  -Hartree energ DENC   =   -107426.48112228
  -exchange      EXHF   =         0.00000000
  -V(xc)+E(xc)   XCENC  =      -327.98442084
  PAW double counting   =     33813.39719761   -32376.47119544
  entropy T*S    EENTRO =         0.00000000
  eigenvalues    EBANDS =     -2629.20211773
  atomic energy  EATOM  =     33190.35616276
  ---------------------------------------------------
  free energy    TOTEN  =       -22.33938098 eV

  energy without entropy =      -22.33938098  energy(sigma->0) =      -22.33938098


--------------------------------------------------------------------------------------------------------




----------------------------------------- Iteration    1(   8)  ---------------------------------------


    POTLOK:  cpu time    0.36: real time    0.37
    SETDIJ:  cpu time    0.01: real time    0.01
     EDDAV:  cpu time    5.25: real time    5.25
       DOS:  cpu time    0.00: real time    0.00
    CHARGE:  cpu time    0.19: real time    0.19
    MIXING:  cpu time    0.01: real time    0.01
    --------------------------------------------
      LOOP:  cpu time    5.83: real time    5.85

 eigenvalue-minimisations  :   960
 total energy-change (2. order) : 0.4699148E+01  (-0.2278254E+00)
 number of electron     351.9999088 magnetization      19.3386687
 augmentation part      168.9649865 magnetization      11.4891940

 Broyden mixing:
  rms(total) = 0.56615E+00    rms(broyden)= 0.56613E+00
  rms(prec ) = 0.57058E+00
  weight for this iteration     100.00

 eigenvalues of (default mixing * dielectric matrix)
  average eigenvalue GAMMA=   1.2676
  2.2788  0.8994  0.6246

 Free energy of the ion-electron system (eV)
  ---------------------------------------------------
  alpha Z        PSCENC =        80.76837511
  Ewald energy   TEWEN  =     75653.27773984
  -Hartree energ DENC   =   -107517.55089341
  -exchange      EXHF   =         0.00000000
  -V(xc)+E(xc)   XCENC  =      -323.64277887
  PAW double counting   =     34616.17064376   -33196.05815122
  entropy T*S    EENTRO =         0.00000000
  eigenvalues    EBANDS =     -2520.96133115
  atomic energy  EATOM  =     33190.35616276
  ---------------------------------------------------
  free energy    TOTEN  =       -17.64023317 eV

  energy without entropy =      -17.64023317  energy(sigma->0) =      -17.64023317


--------------------------------------------------------------------------------------------------------




----------------------------------------- Iteration    1(   9)  ---------------------------------------


    POTLOK:  cpu time    0.37: real time    0.37
    SETDIJ:  cpu time    0.01: real time    0.01
     EDDAV:  cpu time    5.39: real time    5.39
       DOS:  cpu time    0.00: real time    0.00
    CHARGE:  cpu time    0.19: real time    0.19
    MIXING:  cpu time    0.01: real time    0.01
    --------------------------------------------
      LOOP:  cpu time    5.97: real time    6.09

 eigenvalue-minimisations  :   992
 total energy-change (2. order) :-0.5469955E+01  (-0.1250706E+00)
 number of electron     351.9999089 magnetization      16.8048971
 augmentation part      168.8401968 magnetization       9.1738737

 Broyden mixing:
  rms(total) = 0.36314E+00    rms(broyden)= 0.36313E+00
  rms(prec ) = 0.36671E+00
  weight for this iteration     100.00

 eigenvalues of (default mixing * dielectric matrix)
  average eigenvalue GAMMA=   1.2302
  2.2312  0.6230  0.8001  1.2665

 Free energy of the ion-electron system (eV)
  ---------------------------------------------------
  alpha Z        PSCENC =        80.76837511
  Ewald energy   TEWEN  =     75653.27773984
  -Hartree energ DENC   =   -107555.89273477
  -exchange      EXHF   =         0.00000000
  -V(xc)+E(xc)   XCENC  =      -327.50945559
  PAW double counting   =     34904.76169591   -33490.55720578
  entropy T*S    EENTRO =         0.00000000
  eigenvalues    EBANDS =     -2478.31476561
  atomic energy  EATOM  =     33190.35616276
  ---------------------------------------------------
  free energy    TOTEN  =       -23.11018812 eV

  energy without entropy =      -23.11018812  energy(sigma->0) =      -23.11018812


--------------------------------------------------------------------------------------------------------




----------------------------------------- Iteration    1(  10)  ---------------------------------------


    POTLOK:  cpu time    0.37: real time    0.37
    SETDIJ:  cpu time    0.01: real time    0.01
     EDDAV:  cpu time    5.14: real time    5.14
       DOS:  cpu time    0.00: real time    0.00
    CHARGE:  cpu time    0.19: real time    0.19
    MIXING:  cpu time    0.01: real time    0.01
    --------------------------------------------
      LOOP:  cpu time    5.72: real time    6.15

 eigenvalue-minimisations  :   932
 total energy-change (2. order) :-0.1116094E+02  (-0.3326882E+00)
 number of electron     351.9999091 magnetization      14.4571856
 augmentation part      168.8250649 magnetization       9.1641021

 Broyden mixing:
  rms(total) = 0.33793E+00    rms(broyden)= 0.33785E+00
  rms(prec ) = 0.34434E+00
  weight for this iteration     100.00

 eigenvalues of (default mixing * dielectric matrix)
  average eigenvalue GAMMA=   1.1668
  2.3047  1.5438  0.8260  0.6046  0.5550

 Free energy of the ion-electron system (eV)
  ---------------------------------------------------
  alpha Z        PSCENC =        80.76837511
  Ewald energy   TEWEN  =     75653.27773984
  -Hartree energ DENC   =   -107556.92905669
  -exchange      EXHF   =         0.00000000
  -V(xc)+E(xc)   XCENC  =      -335.84687947
  PAW double counting   =     34881.49035809   -33466.89077363
  entropy T*S    EENTRO =         0.00000000
  eigenvalues    EBANDS =     -2480.49704932
  atomic energy  EATOM  =     33190.35616276
  ---------------------------------------------------
  free energy    TOTEN  =       -34.27112330 eV

  energy without entropy =      -34.27112330  energy(sigma->0) =      -34.27112330


--------------------------------------------------------------------------------------------------------




----------------------------------------- Iteration    1(  11)  ---------------------------------------


    POTLOK:  cpu time    0.37: real time    0.37
    SETDIJ:  cpu time    0.01: real time    0.01
     EDDAV:  cpu time    5.33: real time    5.34
       DOS:  cpu time    0.00: real time    0.00
    CHARGE:  cpu time    0.20: real time    0.19
    MIXING:  cpu time    0.01: real time    0.01
    --------------------------------------------
      LOOP:  cpu time    5.92: real time    7.21

 eigenvalue-minimisations  :   976
 total energy-change (2. order) :-0.5174415E+01  (-0.1528603E+00)
 number of electron     351.9999091 magnetization      10.9143792
 augmentation part      168.7949170 magnetization       5.9189281

 Broyden mixing:
  rms(total) = 0.25619E+00    rms(broyden)= 0.25617E+00
  rms(prec ) = 0.25890E+00
  weight for this iteration     100.00

 eigenvalues of (default mixing * dielectric matrix)
  average eigenvalue GAMMA=   1.3152
  2.8236  2.2057  0.7860  0.7860  0.7413  0.5488

 Free energy of the ion-electron system (eV)
  ---------------------------------------------------
  alpha Z        PSCENC =        80.76837511
  Ewald energy   TEWEN  =     75653.27773984
  -Hartree energ DENC   =   -107564.92329147
  -exchange      EXHF   =         0.00000000
  -V(xc)+E(xc)   XCENC  =      -339.47177379
  PAW double counting   =     34896.17952534   -33482.15231360
  entropy T*S    EENTRO =         0.00000000
  eigenvalues    EBANDS =     -2473.47996260
  atomic energy  EATOM  =     33190.35616276
  ---------------------------------------------------
  free energy    TOTEN  =       -39.44553840 eV

  energy without entropy =      -39.44553840  energy(sigma->0) =      -39.44553840


--------------------------------------------------------------------------------------------------------




----------------------------------------- Iteration    1(  12)  ---------------------------------------


    POTLOK:  cpu time    0.37: real time    0.37
    SETDIJ:  cpu time    0.01: real time    0.01
     EDDAV:  cpu time    5.10: real time    5.10
       DOS:  cpu time    0.00: real time    0.00
    CHARGE:  cpu time    0.20: real time    0.19
    MIXING:  cpu time    0.01: real time    0.01
    --------------------------------------------
      LOOP:  cpu time    5.69: real time    5.77

 eigenvalue-minimisations  :   920
 total energy-change (2. order) :-0.1004290E+02  (-0.4663824E+00)
 number of electron     351.9999091 magnetization       9.2226936
 augmentation part      168.7614370 magnetization       6.5804294

 Broyden mixing:
  rms(total) = 0.23199E+00    rms(broyden)= 0.23188E+00
  rms(prec ) = 0.24155E+00
  weight for this iteration     100.00

 eigenvalues of (default mixing * dielectric matrix)
  average eigenvalue GAMMA=   1.3059
  3.4640  2.1570  0.8703  0.8703  0.7167  0.5775  0.4854

 Free energy of the ion-electron system (eV)
  ---------------------------------------------------
  alpha Z        PSCENC =        80.76837511
  Ewald energy   TEWEN  =     75653.27773984
  -Hartree energ DENC   =   -107569.01012281
  -exchange      EXHF   =         0.00000000
  -V(xc)+E(xc)   XCENC  =      -346.85997029
  PAW double counting   =     34859.19410573   -33445.25513130
  entropy T*S    EENTRO =         0.00000000
  eigenvalues    EBANDS =     -2471.95959942
  atomic energy  EATOM  =     33190.35616276
  ---------------------------------------------------
  free energy    TOTEN  =       -49.48844037 eV

  energy without entropy =      -49.48844037  energy(sigma->0) =      -49.48844037


--------------------------------------------------------------------------------------------------------




----------------------------------------- Iteration    1(  13)  ---------------------------------------


    POTLOK:  cpu time    0.37: real time    0.37
    SETDIJ:  cpu time    0.01: real time    0.01
     EDDAV:  cpu time    5.34: real time    5.34
       DOS:  cpu time    0.00: real time    0.00
    CHARGE:  cpu time    0.19: real time    0.19
    MIXING:  cpu time    0.01: real time    0.01
    --------------------------------------------
      LOOP:  cpu time    5.92: real time    5.95

 eigenvalue-minimisations  :   976
 total energy-change (2. order) :-0.3090598E+01  (-0.7837432E-01)
 number of electron     351.9999090 magnetization       7.0950665
 augmentation part      168.7411187 magnetization       4.6417637

 Broyden mixing:
  rms(total) = 0.17452E+00    rms(broyden)= 0.17451E+00
  rms(prec ) = 0.18178E+00
  weight for this iteration     100.00

 eigenvalues of (default mixing * dielectric matrix)
  average eigenvalue GAMMA=   1.4273
  4.5467  2.2930  0.9910  0.9910  0.7954  0.6590  0.6590  0.4833

 Free energy of the ion-electron system (eV)
  ---------------------------------------------------
  alpha Z        PSCENC =        80.76837511
  Ewald energy   TEWEN  =     75653.27773984
  -Hartree energ DENC   =   -107568.50667133
  -exchange      EXHF   =         0.00000000
  -V(xc)+E(xc)   XCENC  =      -349.17673523
  PAW double counting   =     34841.60614731   -33427.76657822
  entropy T*S    EENTRO =         0.00000000
  eigenvalues    EBANDS =     -2473.13747846
  atomic energy  EATOM  =     33190.35616276
  ---------------------------------------------------
  free energy    TOTEN  =       -52.57903820 eV

  energy without entropy =      -52.57903820  energy(sigma->0) =      -52.57903820


--------------------------------------------------------------------------------------------------------




----------------------------------------- Iteration    1(  14)  ---------------------------------------


    POTLOK:  cpu time    0.37: real time    0.37
    SETDIJ:  cpu time    0.01: real time    0.01
     EDDAV:  cpu time    5.10: real time    5.11
       DOS:  cpu time    0.00: real time    0.00
    CHARGE:  cpu time    0.20: real time    0.19
    MIXING:  cpu time    0.01: real time    0.01
    --------------------------------------------
      LOOP:  cpu time    5.69: real time    5.70

 eigenvalue-minimisations  :   920
 total energy-change (2. order) :-0.4773242E+01  (-0.1427322E+00)
 number of electron     351.9999090 magnetization       5.5374025
 augmentation part      168.7560660 magnetization       3.2886304

 Broyden mixing:
  rms(total) = 0.12382E+00    rms(broyden)= 0.12381E+00
  rms(prec ) = 0.12924E+00
  weight for this iteration     100.00

 eigenvalues of (default mixing * dielectric matrix)
  average eigenvalue GAMMA=   1.5051
  5.2547  2.2018  1.2777  1.2777  0.8755  0.8755  0.6639  0.6105  0.5086

 Free energy of the ion-electron system (eV)
  ---------------------------------------------------
  alpha Z        PSCENC =        80.76837511
  Ewald energy   TEWEN  =     75653.27773984
  -Hartree energ DENC   =   -107558.12227266
  -exchange      EXHF   =         0.00000000
  -V(xc)+E(xc)   XCENC  =      -353.07693054
  PAW double counting   =     34781.01762999   -33366.78485660
  entropy T*S    EENTRO =         0.00000000
  eigenvalues    EBANDS =     -2484.78812783
  atomic energy  EATOM  =     33190.35616276
  ---------------------------------------------------
  free energy    TOTEN  =       -57.35227993 eV

  energy without entropy =      -57.35227993  energy(sigma->0) =      -57.35227993


--------------------------------------------------------------------------------------------------------




----------------------------------------- Iteration    1(  15)  ---------------------------------------


    POTLOK:  cpu time    0.37: real time    0.37
    SETDIJ:  cpu time    0.01: real time    0.01
     EDDAV:  cpu time    5.24: real time    5.24
       DOS:  cpu time    0.00: real time    0.00
    CHARGE:  cpu time    0.19: real time    0.19
    MIXING:  cpu time    0.02: real time    0.01
    --------------------------------------------
      LOOP:  cpu time    5.82: real time    5.85

 eigenvalue-minimisations  :   952
 total energy-change (2. order) :-0.4090576E+01  (-0.1023386E+00)
 number of electron     351.9999090 magnetization       4.1946452
 augmentation part      168.7413159 magnetization       2.0460012

 Broyden mixing:
  rms(total) = 0.85901E-01    rms(broyden)= 0.85863E-01
  rms(prec ) = 0.93071E-01
  weight for this iteration     100.00

 eigenvalues of (default mixing * dielectric matrix)
  average eigenvalue GAMMA=   1.5728
  6.0096  2.4619  1.8090  1.1392  0.9041  0.9041  0.7623  0.6645  0.5364  0.5364

 Free energy of the ion-electron system (eV)
  ---------------------------------------------------
  alpha Z        PSCENC =        80.76837511
  Ewald energy   TEWEN  =     75653.27773984
  -Hartree energ DENC   =   -107538.37566130
  -exchange      EXHF   =         0.00000000
  -V(xc)+E(xc)   XCENC  =      -356.75980949
  PAW double counting   =     34729.68553163   -33315.11303846
  entropy T*S    EENTRO =         0.00000000
  eigenvalues    EBANDS =     -2505.28215564
  atomic energy  EATOM  =     33190.35616276
  ---------------------------------------------------
  free energy    TOTEN  =       -61.44285555 eV

  energy without entropy =      -61.44285555  energy(sigma->0) =      -61.44285555


--------------------------------------------------------------------------------------------------------




----------------------------------------- Iteration    1(  16)  ---------------------------------------


    POTLOK:  cpu time    0.37: real time    0.37
    SETDIJ:  cpu time    0.01: real time    0.01
     EDDAV:  cpu time    5.19: real time    5.19
       DOS:  cpu time    0.00: real time    0.00
    CHARGE:  cpu time    0.19: real time    0.19
    MIXING:  cpu time    0.02: real time    0.01
    --------------------------------------------
      LOOP:  cpu time    5.78: real time    5.81

 eigenvalue-minimisations  :   940
 total energy-change (2. order) :-0.2044583E+01  (-0.3400908E-01)
 number of electron     351.9999090 magnetization       3.3220586
 augmentation part      168.7853503 magnetization       1.2523442

 Broyden mixing:
  rms(total) = 0.60870E-01    rms(broyden)= 0.60858E-01
  rms(prec ) = 0.65614E-01
  weight for this iteration     100.00

 eigenvalues of (default mixing * dielectric matrix)
  average eigenvalue GAMMA=   1.6092
  6.6953  2.6610  2.1694  0.9877  0.9877  1.0539  0.8233  0.6241  0.5923  0.5923
  0.5138

 Free energy of the ion-electron system (eV)
  ---------------------------------------------------
  alpha Z        PSCENC =        80.76837511
  Ewald energy   TEWEN  =     75653.27773984
  -Hartree energ DENC   =   -107515.96656591
  -exchange      EXHF   =         0.00000000
  -V(xc)+E(xc)   XCENC  =      -358.86107257
  PAW double counting   =     34684.87413924   -33269.77319476
  entropy T*S    EENTRO =         0.00000000
  eigenvalues    EBANDS =     -2528.16302274
  atomic energy  EATOM  =     33190.35616276
  ---------------------------------------------------
  free energy    TOTEN  =       -63.48743902 eV

  energy without entropy =      -63.48743902  energy(sigma->0) =      -63.48743902


--------------------------------------------------------------------------------------------------------




----------------------------------------- Iteration    1(  17)  ---------------------------------------


    POTLOK:  cpu time    0.37: real time    0.37
    SETDIJ:  cpu time    0.01: real time    0.01
     EDDAV:  cpu time    5.18: real time    5.18
       DOS:  cpu time    0.00: real time    0.00
    CHARGE:  cpu time    0.19: real time    0.20
    MIXING:  cpu time    0.02: real time    0.01
    --------------------------------------------
      LOOP:  cpu time    5.77: real time    5.77

 eigenvalue-minimisations  :   936
 total energy-change (2. order) :-0.1266351E+01  (-0.1499996E-01)
 number of electron     351.9999090 magnetization       2.7784980
 augmentation part      168.7976129 magnetization       0.7326610

 Broyden mixing:
  rms(total) = 0.45718E-01    rms(broyden)= 0.45679E-01
  rms(prec ) = 0.51685E-01
  weight for this iteration     100.00

 eigenvalues of (default mixing * dielectric matrix)
  average eigenvalue GAMMA=   1.6737
  7.4009  3.0317  2.4746  1.1577  1.1577  0.9349  0.9349  0.6979  0.6979  0.6070
  0.4946  0.4946

 Free energy of the ion-electron system (eV)
  ---------------------------------------------------
  alpha Z        PSCENC =        80.76837511
  Ewald energy   TEWEN  =     75653.27773984
  -Hartree energ DENC   =   -107497.79361581
  -exchange      EXHF   =         0.00000000
  -V(xc)+E(xc)   XCENC  =      -360.22185332
  PAW double counting   =     34671.34985711   -33256.07948226
  entropy T*S    EENTRO =        -0.00000000
  eigenvalues    EBANDS =     -2546.41097378
  atomic energy  EATOM  =     33190.35616276
  ---------------------------------------------------
  free energy    TOTEN  =       -64.75379035 eV

  energy without entropy =      -64.75379035  energy(sigma->0) =      -64.75379035


--------------------------------------------------------------------------------------------------------




----------------------------------------- Iteration    1(  18)  ---------------------------------------


    POTLOK:  cpu time    0.37: real time    0.37
    SETDIJ:  cpu time    0.01: real time    0.01
     EDDAV:  cpu time    5.25: real time    5.25
       DOS:  cpu time    0.00: real time    0.00
    CHARGE:  cpu time    0.20: real time    0.20
    MIXING:  cpu time    0.01: real time    0.01
    --------------------------------------------
      LOOP:  cpu time    5.84: real time    5.84

 eigenvalue-minimisations  :   952
 total energy-change (2. order) :-0.8873640E+00  (-0.6172061E-02)
 number of electron     351.9999090 magnetization       2.5744202
 augmentation part      168.7967864 magnetization       0.5410249

 Broyden mixing:
  rms(total) = 0.31567E-01    rms(broyden)= 0.31530E-01
  rms(prec ) = 0.36174E-01
  weight for this iteration     100.00

 eigenvalues of (default mixing * dielectric matrix)
  average eigenvalue GAMMA=   1.6605
  7.6143  3.3952  2.2323  1.4808  1.1309  1.1309  0.8431  0.8431  0.7308  0.6724
  0.5916  0.5043  0.4175

 Free energy of the ion-electron system (eV)
  ---------------------------------------------------
  alpha Z        PSCENC =        80.76837511
  Ewald energy   TEWEN  =     75653.27773984
  -Hartree energ DENC   =   -107484.61504112
  -exchange      EXHF   =         0.00000000
  -V(xc)+E(xc)   XCENC  =      -361.19951754
  PAW double counting   =     34677.42952648   -33262.11370329
  entropy T*S    EENTRO =         0.00000000
  eigenvalues    EBANDS =     -2559.54469656
  atomic energy  EATOM  =     33190.35616276
  ---------------------------------------------------
  free energy    TOTEN  =       -65.64115432 eV

  energy without entropy =      -65.64115432  energy(sigma->0) =      -65.64115432


--------------------------------------------------------------------------------------------------------




----------------------------------------- Iteration    1(  19)  ---------------------------------------


    POTLOK:  cpu time    0.37: real time    0.37
    SETDIJ:  cpu time    0.01: real time    0.01
     EDDAV:  cpu time    5.35: real time    5.35
       DOS:  cpu time    0.00: real time    0.00
    CHARGE:  cpu time    0.20: real time    0.19
    MIXING:  cpu time    0.02: real time    0.02
    --------------------------------------------
      LOOP:  cpu time    5.94: real time    5.94

 eigenvalue-minimisations  :   976
 total energy-change (2. order) :-0.4354844E+00  (-0.1701715E-02)
 number of electron     351.9999090 magnetization       2.2857892
 augmentation part      168.7991579 magnetization       0.2513056

 Broyden mixing:
  rms(total) = 0.16789E-01    rms(broyden)= 0.16777E-01
  rms(prec ) = 0.20042E-01
  weight for this iteration     100.00

 eigenvalues of (default mixing * dielectric matrix)
  average eigenvalue GAMMA=   1.7184
  8.1037  3.8712  2.1609  2.1609  1.1132  1.1132  0.9263  0.9263  0.8395  0.6680
  0.6680  0.5905  0.5070  0.4083

 Free energy of the ion-electron system (eV)
  ---------------------------------------------------
  alpha Z        PSCENC =        80.76837511
  Ewald energy   TEWEN  =     75653.27773984
  -Hartree energ DENC   =   -107474.85812876
  -exchange      EXHF   =         0.00000000
  -V(xc)+E(xc)   XCENC  =      -361.68995440
  PAW double counting   =     34682.26053257   -33266.80372821
  entropy T*S    EENTRO =         0.00000000
  eigenvalues    EBANDS =     -2569.38763758
  atomic energy  EATOM  =     33190.35616276
  ---------------------------------------------------
  free energy    TOTEN  =       -66.07663867 eV

  energy without entropy =      -66.07663867  energy(sigma->0) =      -66.07663867


--------------------------------------------------------------------------------------------------------




----------------------------------------- Iteration    1(  20)  ---------------------------------------


    POTLOK:  cpu time    0.37: real time    0.37
    SETDIJ:  cpu time    0.01: real time    0.01
     EDDAV:  cpu time    5.28: real time    5.28
       DOS:  cpu time    0.00: real time    0.00
    CHARGE:  cpu time    0.19: real time    0.19
    MIXING:  cpu time    0.02: real time    0.02
    --------------------------------------------
      LOOP:  cpu time    5.88: real time    6.44

 eigenvalue-minimisations  :   960
 total energy-change (2. order) :-0.3324863E+00  (-0.1293826E-02)
 number of electron     351.9999090 magnetization       2.1958917
 augmentation part      168.8069495 magnetization       0.1640569

 Broyden mixing:
  rms(total) = 0.91178E-02    rms(broyden)= 0.91128E-02
  rms(prec ) = 0.11625E-01
  weight for this iteration     100.00

 eigenvalues of (default mixing * dielectric matrix)
  average eigenvalue GAMMA=   1.7322
  8.3531  4.2879  2.3788  2.1360  1.2991  1.1113  1.1113  0.8660  0.8660  0.7396
  0.6625  0.6625  0.5903  0.5063  0.4118

 Free energy of the ion-electron system (eV)
  ---------------------------------------------------
  alpha Z        PSCENC =        80.76837511
  Ewald energy   TEWEN  =     75653.27773984
  -Hartree energ DENC   =   -107464.00921576
  -exchange      EXHF   =         0.00000000
  -V(xc)+E(xc)   XCENC  =      -362.09261455
  PAW double counting   =     34690.16256940   -33274.66640879
  entropy T*S    EENTRO =         0.00000000
  eigenvalues    EBANDS =     -2580.20573297
  atomic energy  EATOM  =     33190.35616276
  ---------------------------------------------------
  free energy    TOTEN  =       -66.40912496 eV

  energy without entropy =      -66.40912496  energy(sigma->0) =      -66.40912496


--------------------------------------------------------------------------------------------------------




----------------------------------------- Iteration    1(  21)  ---------------------------------------


    POTLOK:  cpu time    0.37: real time    0.37
    SETDIJ:  cpu time    0.01: real time    0.01
     EDDAV:  cpu time    4.72: real time    4.72
       DOS:  cpu time    0.00: real time    0.00
    CHARGE:  cpu time    0.19: real time    0.19
    MIXING:  cpu time    0.02: real time    0.02
    --------------------------------------------
      LOOP:  cpu time    5.31: real time    5.32

 eigenvalue-minimisations  :   820
 total energy-change (2. order) :-0.9717485E-01  (-0.2089301E-03)
 number of electron     351.9999090 magnetization       2.0945154
 augmentation part      168.8050348 magnetization       0.0613372

 Broyden mixing:
  rms(total) = 0.57763E-02    rms(broyden)= 0.57747E-02
  rms(prec ) = 0.80010E-02
  weight for this iteration     100.00

 eigenvalues of (default mixing * dielectric matrix)
  average eigenvalue GAMMA=   1.7520
  8.5782  4.5989  2.3594  2.3594  1.5861  1.0693  1.0693  1.0990  0.8965  0.8965
  0.6887  0.6887  0.6331  0.5918  0.5063  0.4115

 Free energy of the ion-electron system (eV)
  ---------------------------------------------------
  alpha Z        PSCENC =        80.76837511
  Ewald energy   TEWEN  =     75653.27773984
  -Hartree energ DENC   =   -107459.42102996
  -exchange      EXHF   =         0.00000000
  -V(xc)+E(xc)   XCENC  =      -362.21057215
  PAW double counting   =     34696.45818215   -33281.01653204
  entropy T*S    EENTRO =         0.00000000
  eigenvalues    EBANDS =     -2584.71862554
  atomic energy  EATOM  =     33190.35616276
  ---------------------------------------------------
  free energy    TOTEN  =       -66.50629981 eV

  energy without entropy =      -66.50629981  energy(sigma->0) =      -66.50629981


--------------------------------------------------------------------------------------------------------




----------------------------------------- Iteration    1(  22)  ---------------------------------------


    POTLOK:  cpu time    0.37: real time    0.37
    SETDIJ:  cpu time    0.01: real time    0.01
     EDDAV:  cpu time    4.72: real time    4.72
       DOS:  cpu time    0.00: real time    0.00
    CHARGE:  cpu time    0.20: real time    0.20
    MIXING:  cpu time    0.02: real time    0.02
    --------------------------------------------
      LOOP:  cpu time    5.31: real time    5.34

 eigenvalue-minimisations  :   820
 total energy-change (2. order) :-0.5711091E-01  (-0.1793490E-03)
 number of electron     351.9999090 magnetization       2.0556200
 augmentation part      168.8080481 magnetization       0.0241759

 Broyden mixing:
  rms(total) = 0.30921E-02    rms(broyden)= 0.30909E-02
  rms(prec ) = 0.48082E-02
  weight for this iteration     100.00

 eigenvalues of (default mixing * dielectric matrix)
  average eigenvalue GAMMA=   1.7673
  8.6568  4.8904  2.7893  2.1201  2.1201  1.0879  1.0879  1.0929  0.9600  0.9600
  0.7951  0.6727  0.6727  0.6317  0.5877  0.5067  0.4115

 Free energy of the ion-electron system (eV)
  ---------------------------------------------------
  alpha Z        PSCENC =        80.76837511
  Ewald energy   TEWEN  =     75653.27773984
  -Hartree energ DENC   =   -107454.21113959
  -exchange      EXHF   =         0.00000000
  -V(xc)+E(xc)   XCENC  =      -362.29345149
  PAW double counting   =     34698.00799035   -33282.56811038
  entropy T*S    EENTRO =        -0.00000000
  eigenvalues    EBANDS =     -2589.90097733
  atomic energy  EATOM  =     33190.35616276
  ---------------------------------------------------
  free energy    TOTEN  =       -66.56341072 eV

  energy without entropy =      -66.56341072  energy(sigma->0) =      -66.56341072


--------------------------------------------------------------------------------------------------------




----------------------------------------- Iteration    1(  23)  ---------------------------------------


    POTLOK:  cpu time    0.37: real time    0.37
    SETDIJ:  cpu time    0.01: real time    0.01
     EDDAV:  cpu time    4.11: real time    4.11
       DOS:  cpu time    0.00: real time    0.00
    CHARGE:  cpu time    0.20: real time    0.19
    MIXING:  cpu time    0.02: real time    0.02
    --------------------------------------------
      LOOP:  cpu time    4.71: real time    4.71

 eigenvalue-minimisations  :   672
 total energy-change (2. order) :-0.9139316E-02  (-0.5641278E-04)
 number of electron     351.9999090 magnetization       2.0320933
 augmentation part      168.8075569 magnetization       0.0007964

 Broyden mixing:
  rms(total) = 0.18956E-02    rms(broyden)= 0.18952E-02
  rms(prec ) = 0.31174E-02
  weight for this iteration     100.00

 eigenvalues of (default mixing * dielectric matrix)
  average eigenvalue GAMMA=   1.7669
  8.7101  5.0190  3.2057  2.1345  2.1345  1.4315  1.0975  1.0975  0.9596  0.9150
  0.9150  0.6851  0.6851  0.6812  0.6231  0.5917  0.5066  0.4115

 Free energy of the ion-electron system (eV)
  ---------------------------------------------------
  alpha Z        PSCENC =        80.76837511
  Ewald energy   TEWEN  =     75653.27773984
  -Hartree energ DENC   =   -107451.11020712
  -exchange      EXHF   =         0.00000000
  -V(xc)+E(xc)   XCENC  =      -362.31296562
  PAW double counting   =     34700.04841866   -33284.63922485
  entropy T*S    EENTRO =         0.00000000
  eigenvalues    EBANDS =     -2592.96084883
  atomic energy  EATOM  =     33190.35616276
  ---------------------------------------------------
  free energy    TOTEN  =       -66.57255004 eV

  energy without entropy =      -66.57255004  energy(sigma->0) =      -66.57255004


--------------------------------------------------------------------------------------------------------




----------------------------------------- Iteration    1(  24)  ---------------------------------------


    POTLOK:  cpu time    0.37: real time    0.37
    SETDIJ:  cpu time    0.01: real time    0.01
     EDDAV:  cpu time    4.03: real time    4.03
       DOS:  cpu time    0.00: real time    0.00
    CHARGE:  cpu time    0.20: real time    0.19
    MIXING:  cpu time    0.02: real time    0.02
    --------------------------------------------
      LOOP:  cpu time    4.62: real time    4.63

 eigenvalue-minimisations  :   652
 total energy-change (2. order) :-0.4173613E-02  (-0.2538001E-04)
 number of electron     351.9999090 magnetization       2.0141274
 augmentation part      168.8083607 magnetization      -0.0168104

 Broyden mixing:
  rms(total) = 0.13628E-02    rms(broyden)= 0.13626E-02
  rms(prec ) = 0.21856E-02
  weight for this iteration     100.00

 eigenvalues of (default mixing * dielectric matrix)
  average eigenvalue GAMMA=   1.7809
  8.7367  5.1655  3.4316  2.2049  2.2049  1.9117  1.0918  1.0918  1.0460  1.0460
  0.8721  0.8721  0.6899  0.6746  0.6746  0.6115  0.5930  0.5065  0.4115

 Free energy of the ion-electron system (eV)
  ---------------------------------------------------
  alpha Z        PSCENC =        80.76837511
  Ewald energy   TEWEN  =     75653.27773984
  -Hartree energ DENC   =   -107448.97394296
  -exchange      EXHF   =         0.00000000
  -V(xc)+E(xc)   XCENC  =      -362.32528692
  PAW double counting   =     34700.14325634   -33284.73940021
  entropy T*S    EENTRO =         0.00000000
  eigenvalues    EBANDS =     -2595.08362762
  atomic energy  EATOM  =     33190.35616276
  ---------------------------------------------------
  free energy    TOTEN  =       -66.57672365 eV

  energy without entropy =      -66.57672365  energy(sigma->0) =      -66.57672365


--------------------------------------------------------------------------------------------------------




----------------------------------------- Iteration    1(  25)  ---------------------------------------


    POTLOK:  cpu time    0.37: real time    0.37
    SETDIJ:  cpu time    0.01: real time    0.01
     EDDAV:  cpu time    3.96: real time    3.96
       DOS:  cpu time    0.00: real time    0.00
    CHARGE:  cpu time    0.20: real time    0.19
    MIXING:  cpu time    0.02: real time    0.02
    --------------------------------------------
      LOOP:  cpu time    4.55: real time    4.77

 eigenvalue-minimisations  :   636
 total energy-change (2. order) :-0.4574112E-02  (-0.2096209E-04)
 number of electron     351.9999090 magnetization       2.0048663
 augmentation part      168.8086229 magnetization      -0.0257629

 Broyden mixing:
  rms(total) = 0.79681E-03    rms(broyden)= 0.79661E-03
  rms(prec ) = 0.12521E-02
  weight for this iteration     100.00

 eigenvalues of (default mixing * dielectric matrix)
  average eigenvalue GAMMA=   1.8175
  8.7599  5.3950  4.0488  2.3909  2.3909  2.0598  1.2031  1.2031  1.0847  1.0847
  0.8896  0.8896  0.8081  0.6880  0.6880  0.6285  0.6285  0.5908  0.5066  0.4115

 Free energy of the ion-electron system (eV)
  ---------------------------------------------------
  alpha Z        PSCENC =        80.76837511
  Ewald energy   TEWEN  =     75653.27773984
  -Hartree energ DENC   =   -107446.81178878
  -exchange      EXHF   =         0.00000000
  -V(xc)+E(xc)   XCENC  =      -362.33808188
  PAW double counting   =     34699.88331973   -33284.47878013
  entropy T*S    EENTRO =         0.00000000
  eigenvalues    EBANDS =     -2597.23824441
  atomic energy  EATOM  =     33190.35616276
  ---------------------------------------------------
  free energy    TOTEN  =       -66.58129776 eV

  energy without entropy =      -66.58129776  energy(sigma->0) =      -66.58129776


--------------------------------------------------------------------------------------------------------




----------------------------------------- Iteration    1(  26)  ---------------------------------------


    POTLOK:  cpu time    0.37: real time    0.37
    SETDIJ:  cpu time    0.01: real time    0.01
     EDDAV:  cpu time    3.94: real time    3.94
       DOS:  cpu time    0.00: real time    0.00
    CHARGE:  cpu time    0.19: real time    0.19
    MIXING:  cpu time    0.02: real time    0.02
    --------------------------------------------
      LOOP:  cpu time    4.54: real time    4.54

 eigenvalue-minimisations  :   632
 total energy-change (2. order) :-0.3314658E-02  (-0.6717772E-05)
 number of electron     351.9999090 magnetization       2.0037176
 augmentation part      168.8089948 magnetization      -0.0264003

 Broyden mixing:
  rms(total) = 0.53413E-03    rms(broyden)= 0.53386E-03
  rms(prec ) = 0.77314E-03
  weight for this iteration     100.00

 eigenvalues of (default mixing * dielectric matrix)
  average eigenvalue GAMMA=   1.8404
  8.7324  5.9060  4.4617  2.5319  2.5319  1.9962  1.5568  1.0942  1.0942  0.9895
  0.9895  0.9417  0.9417  0.4115  0.5066  0.7200  0.6978  0.6978  0.5886  0.6292
  0.6292

 Free energy of the ion-electron system (eV)
  ---------------------------------------------------
  alpha Z        PSCENC =        80.76837511
  Ewald energy   TEWEN  =     75653.27773984
  -Hartree energ DENC   =   -107445.62699314
  -exchange      EXHF   =         0.00000000
  -V(xc)+E(xc)   XCENC  =      -362.34573026
  PAW double counting   =     34699.81179472   -33284.40708758
  entropy T*S    EENTRO =         0.00000000
  eigenvalues    EBANDS =     -2598.41887388
  atomic energy  EATOM  =     33190.35616276
  ---------------------------------------------------
  free energy    TOTEN  =       -66.58461242 eV

  energy without entropy =      -66.58461242  energy(sigma->0) =      -66.58461242


--------------------------------------------------------------------------------------------------------




----------------------------------------- Iteration    1(  27)  ---------------------------------------


    POTLOK:  cpu time    0.37: real time    0.37
    SETDIJ:  cpu time    0.01: real time    0.01
     EDDAV:  cpu time    3.84: real time    3.84
       DOS:  cpu time    0.00: real time    0.00
    CHARGE:  cpu time    0.19: real time    0.19
    MIXING:  cpu time    0.02: real time    0.02
    --------------------------------------------
      LOOP:  cpu time    4.44: real time    5.13

 eigenvalue-minimisations  :   608
 total energy-change (2. order) :-0.1454487E-02  (-0.1516459E-05)
 number of electron     351.9999090 magnetization       2.0018542
 augmentation part      168.8089799 magnetization      -0.0282706

 Broyden mixing:
  rms(total) = 0.31413E-03    rms(broyden)= 0.31402E-03
  rms(prec ) = 0.48229E-03
  weight for this iteration     100.00

 eigenvalues of (default mixing * dielectric matrix)
  average eigenvalue GAMMA=   1.8791
  8.7110  6.5953  4.7194  2.8594  2.3792  2.3792  1.7795  1.0927  1.0927  1.0971
  1.0971  0.9256  0.9256  0.8331  0.4115  0.5066  0.7208  0.6841  0.6841  0.5918
  0.6156  0.6384

 Free energy of the ion-electron system (eV)
  ---------------------------------------------------
  alpha Z        PSCENC =        80.76837511
  Ewald energy   TEWEN  =     75653.27773984
  -Hartree energ DENC   =   -107445.10331252
  -exchange      EXHF   =         0.00000000
  -V(xc)+E(xc)   XCENC  =      -362.34908407
  PAW double counting   =     34700.09232358   -33284.68778606
  entropy T*S    EENTRO =        -0.00000000
  eigenvalues    EBANDS =     -2598.94048555
  atomic energy  EATOM  =     33190.35616276
  ---------------------------------------------------
  free energy    TOTEN  =       -66.58606691 eV

  energy without entropy =      -66.58606691  energy(sigma->0) =      -66.58606691


--------------------------------------------------------------------------------------------------------




----------------------------------------- Iteration    1(  28)  ---------------------------------------


    POTLOK:  cpu time    0.37: real time    0.37
    SETDIJ:  cpu time    0.01: real time    0.01
     EDDAV:  cpu time    3.79: real time    3.79
       DOS:  cpu time    0.00: real time    0.00
    CHARGE:  cpu time    0.19: real time    0.19
    MIXING:  cpu time    0.03: real time    0.03
    --------------------------------------------
      LOOP:  cpu time    4.39: real time    4.41

 eigenvalue-minimisations  :   596
 total energy-change (2. order) :-0.4272298E-03  (-0.8989825E-06)
 number of electron     351.9999090 magnetization       2.0019050
 augmentation part      168.8091589 magnetization      -0.0281952

 Broyden mixing:
  rms(total) = 0.19785E-03    rms(broyden)= 0.19776E-03
  rms(prec ) = 0.30448E-03
  weight for this iteration     100.00

 eigenvalues of (default mixing * dielectric matrix)
  average eigenvalue GAMMA=   1.9069
  8.6459  7.3489  4.8603  3.0176  2.7481  2.0606  2.0606  1.4326  1.0958  1.0958
  1.0202  1.0202  0.9079  0.9079  0.4115  0.8291  0.5066  0.6964  0.6964  0.6462
  0.6462  0.5917  0.6120

 Free energy of the ion-electron system (eV)
  ---------------------------------------------------
  alpha Z        PSCENC =        80.76837511
  Ewald energy   TEWEN  =     75653.27773984
  -Hartree energ DENC   =   -107444.75696096
  -exchange      EXHF   =         0.00000000
  -V(xc)+E(xc)   XCENC  =      -362.35108141
  PAW double counting   =     34700.20391325   -33284.79792336
  entropy T*S    EENTRO =         0.00000000
  eigenvalues    EBANDS =     -2599.28671937
  atomic energy  EATOM  =     33190.35616276
  ---------------------------------------------------
  free energy    TOTEN  =       -66.58649414 eV

  energy without entropy =      -66.58649414  energy(sigma->0) =      -66.58649414


--------------------------------------------------------------------------------------------------------




----------------------------------------- Iteration    1(  29)  ---------------------------------------


    POTLOK:  cpu time    0.37: real time    0.37
    SETDIJ:  cpu time    0.01: real time    0.01
     EDDAV:  cpu time    3.85: real time    3.85
       DOS:  cpu time    0.00: real time    0.00
    --------------------------------------------
      LOOP:  cpu time    4.23: real time    5.39

 eigenvalue-minimisations  :   608
 total energy-change (2. order) : 0.6861883E-06  (-0.2908646E-06)
 number of electron     351.9999090 magnetization       2.0019050
 augmentation part      168.8091589 magnetization      -0.0281952

 Free energy of the ion-electron system (eV)
  ---------------------------------------------------
  alpha Z        PSCENC =        80.76837511
  Ewald energy   TEWEN  =     75653.27773984
  -Hartree energ DENC   =   -107444.67861282
  -exchange      EXHF   =         0.00000000
  -V(xc)+E(xc)   XCENC  =      -362.35105109
  PAW double counting   =     34700.33137954   -33284.92705025
  entropy T*S    EENTRO =         0.00000000
  eigenvalues    EBANDS =     -2599.36343655
  atomic energy  EATOM  =     33190.35616276
  ---------------------------------------------------
  free energy    TOTEN  =       -66.58649345 eV

  energy without entropy =      -66.58649345  energy(sigma->0) =      -66.58649345


--------------------------------------------------------------------------------------------------------




 average (electrostatic) potential at core
  the test charge radii are     1.1249
  (the norm of the test charge is              1.0000)
       1 -82.1585       2 -82.2211       3 -82.1152       4 -82.2404       5 -82.3158
       6 -82.4556       7 -82.2266       8 -82.2453       9 -82.3300      10 -82.4006
      11 -82.4225      12 -82.4585      13 -82.3801      14 -82.5106      15 -82.3178
      16 -82.1469      17 -82.5122      18 -82.5261      19 -82.2553      20 -82.2812
      21 -82.3130      22 -82.4394      23 -82.4178      24 -82.3488      25 -82.2741
      26 -82.4424      27 -82.2104      28 -82.2170      29 -82.3185      30 -82.2216
      31 -82.3081      32 -82.0811
 
 
 
 E-fermi :  -3.7469     XC(G=0):  -1.0596     alpha+bet : -0.6811


 spin component 1

 k-point     1 :       0.0000    0.0000    0.0000
  band No.  band energies     occupation 
      1      -9.6496      1.00000
      2      -9.1952      1.00000
      3      -9.1454      1.00000
      4      -9.0908      1.00000
      5      -9.0735      1.00000
      6      -9.0556      1.00000
      7      -9.0496      1.00000
      8      -9.0374      1.00000
      9      -9.0108      1.00000
     10      -8.9946      1.00000
     11      -8.9855      1.00000
     12      -8.9505      1.00000
     13      -8.9266      1.00000
     14      -8.9244      1.00000
     15      -8.8909      1.00000
     16      -8.8682      1.00000
     17      -8.8631      1.00000
     18      -8.8505      1.00000
     19      -8.7917      1.00000
     20      -8.7761      1.00000
     21      -8.7482      1.00000
     22      -8.7228      1.00000
     23      -8.7072      1.00000
     24      -8.6803      1.00000
     25      -8.6532      1.00000
     26      -8.6278      1.00000
     27      -8.6258      1.00000
     28      -8.5878      1.00000
     29      -8.5569      1.00000
     30      -8.5496      1.00000
     31      -8.5334      1.00000
     32      -8.5260      1.00000
     33      -8.4891      1.00000
     34      -8.4661      1.00000
     35      -8.4529      1.00000
     36      -8.4207      1.00000
     37      -8.4092      1.00000
     38      -8.3895      1.00000
     39      -8.3601      1.00000
     40      -8.3476      1.00000
     41      -8.3094      1.00000
     42      -8.3004      1.00000
     43      -8.2854      1.00000
     44      -8.2695      1.00000
     45      -8.2524      1.00000
     46      -8.2498      1.00000
     47      -8.2260      1.00000
     48      -8.1969      1.00000
     49      -8.1847      1.00000
     50      -8.1704      1.00000
     51      -8.1584      1.00000
     52      -8.1347      1.00000
     53      -8.1017      1.00000
     54      -8.0757      1.00000
     55      -8.0563      1.00000
     56      -8.0400      1.00000
     57      -8.0228      1.00000
     58      -8.0048      1.00000
     59      -7.9821      1.00000
     60      -7.9476      1.00000
     61      -7.9108      1.00000
     62      -7.9022      1.00000
     63      -7.8719      1.00000
     64      -7.8663      1.00000
     65      -7.8281      1.00000
     66      -7.8165      1.00000
     67      -7.7963      1.00000
     68      -7.7524      1.00000
     69      -7.7461      1.00000
     70      -7.7410      1.00000
[...]
    223       1.0603      0.00000
    224       1.0660      0.00000
    225       1.0862      0.00000
    226       1.1088      0.00000
    227       1.1272      0.00000
    228       1.1489      0.00000


--------------------------------------------------------------------------------------------------------


 soft charge-density along one line, spin component           1
         0         1         2         3         4         5         6         7         8         9
 total charge-density along one line
 
 soft charge-density along one line, spin component           2
         0         1         2         3         4         5         6         7         8         9
 total charge-density along one line
 
 pseudopotential strength for first ion, spin component:           1
-10.321  -0.001  -0.003   0.004   0.002 -10.295  -0.001  -0.003
 -0.001 -10.320  -0.002   0.002   0.001  -0.001 -10.294  -0.002
 -0.003  -0.002 -10.316  -0.002   0.002  -0.003  -0.002 -10.290
  0.004   0.002  -0.002 -10.323  -0.002   0.004   0.001  -0.001
  0.002   0.001   0.002  -0.002 -10.316   0.002   0.001   0.002
-10.295  -0.001  -0.003   0.004   0.002 -10.244  -0.000  -0.003
 -0.001 -10.294  -0.002   0.001   0.001  -0.000 -10.244  -0.002
 -0.003  -0.002 -10.290  -0.001   0.002  -0.003  -0.002 -10.240
  0.004   0.001  -0.001 -10.297  -0.002   0.004   0.001  -0.001
  0.002   0.001   0.002  -0.002 -10.290   0.002   0.001   0.001
 -0.004   0.000   0.001   0.003   0.001  -0.004   0.000   0.001
 -0.006   0.000   0.002   0.005   0.002  -0.006   0.000   0.002
  0.015  -0.007  -0.005   0.000  -0.008   0.014  -0.006  -0.005
  0.000   0.008  -0.008   0.014  -0.000  -0.000   0.008  -0.008
  0.009   0.000  -0.009  -0.007   0.015   0.008  -0.000  -0.008
  0.018  -0.008  -0.006  -0.000  -0.010   0.017  -0.008  -0.006
 -0.000   0.010  -0.010   0.017  -0.000  -0.000   0.010  -0.009
  0.011  -0.000  -0.010  -0.008   0.018   0.010  -0.000  -0.010
 pseudopotential strength for first ion, spin component:           2
-10.317   0.001  -0.002   0.002   0.002 -10.291   0.001  -0.002
  0.001 -10.315  -0.000   0.000  -0.000   0.001 -10.289  -0.000
 -0.002  -0.000 -10.314  -0.003   0.001  -0.002  -0.000 -10.288
  0.002   0.000  -0.003 -10.320  -0.002   0.002   0.000  -0.003
  0.002  -0.000   0.001  -0.002 -10.313   0.002  -0.000   0.001
-10.291   0.001  -0.002   0.002   0.002 -10.241   0.001  -0.002
  0.001 -10.289  -0.000   0.000  -0.000   0.001 -10.239  -0.000
 -0.002  -0.000 -10.288  -0.003   0.001  -0.002  -0.000 -10.238
  0.002   0.000  -0.003 -10.294  -0.002   0.002   0.000  -0.003
  0.002  -0.000   0.001  -0.002 -10.287   0.002  -0.000   0.001
 -0.003  -0.000   0.001   0.003   0.002  -0.003  -0.000   0.001
 -0.006  -0.000   0.001   0.005   0.003  -0.005  -0.000   0.001
  0.015  -0.007  -0.005  -0.000  -0.008   0.014  -0.006  -0.005
 -0.000   0.008  -0.008   0.015  -0.000  -0.000   0.008  -0.008
  0.009  -0.000  -0.009  -0.007   0.015   0.008  -0.000  -0.008
  0.018  -0.008  -0.006  -0.000  -0.010   0.017  -0.008  -0.006
 -0.000   0.010  -0.010   0.018  -0.000  -0.000   0.010  -0.009
  0.011  -0.000  -0.010  -0.008   0.018   0.010  -0.000  -0.010
 total augmentation occupancy for first ion, spin component:           1
  2.737   0.087  -0.039  -0.086  -0.027  -0.746  -0.096  -0.015   0.113   0.056   0.315  -0.021   0.041   0.030   0.040   0.006
  0.087   2.721  -0.051  -0.046   0.003  -0.096  -0.728   0.031   0.071   0.016   0.044  -0.024  -0.019   0.094   0.039  -0.002
 -0.039  -0.051   2.900   0.019   0.105  -0.015   0.031  -0.851  -0.059  -0.094  -0.094   0.008  -0.062  -0.092  -0.033   0.000
 -0.086  -0.046   0.019   3.002   0.014   0.113   0.071  -0.059  -1.040  -0.051  -0.313   0.030   0.038   0.096  -0.073  -0.002
 -0.027   0.003   0.105   0.014   2.972   0.056   0.016  -0.094  -0.051  -0.905  -0.138   0.012  -0.153  -0.020   0.115   0.004
 -0.746  -0.096  -0.015   0.113   0.056   0.717   0.104   0.057  -0.136  -0.080  -0.293   0.030  -0.059  -0.028  -0.048   0.003
 -0.096  -0.728   0.031   0.071   0.016   0.104   0.697  -0.016  -0.092  -0.030  -0.040   0.019   0.027  -0.097  -0.035  -0.002
 -0.015   0.031  -0.851  -0.059  -0.094   0.057  -0.016   0.770   0.093   0.086   0.089  -0.012   0.067   0.095   0.037  -0.004
  0.113   0.071  -0.059  -1.040  -0.051  -0.136  -0.092   0.093   1.036   0.081   0.293  -0.038  -0.034  -0.114   0.082   0.002
  0.056   0.016  -0.094  -0.051  -0.905  -0.080  -0.030   0.086   0.081   0.812   0.116  -0.009   0.159   0.022  -0.121  -0.010
  0.315   0.044  -0.094  -0.313  -0.138  -0.293  -0.040   0.089   0.293   0.116   1.910  -0.286  -0.102   0.076  -0.124   0.010
 -0.021  -0.024   0.008   0.030   0.012   0.030   0.019  -0.012  -0.038  -0.009  -0.286   0.062   0.031  -0.021   0.026  -0.002
  0.041  -0.019  -0.062   0.038  -0.153  -0.059   0.027   0.067  -0.034   0.159  -0.102   0.031   0.092   0.002  -0.033  -0.006
  0.030   0.094  -0.092   0.096  -0.020  -0.028  -0.097   0.095  -0.114   0.022   0.076  -0.021   0.002   0.111   0.025   0.000
  0.040   0.039  -0.033  -0.073   0.115  -0.048  -0.035   0.037   0.082  -0.121  -0.124   0.026  -0.033   0.025   0.107   0.001
  0.006  -0.002   0.000  -0.002   0.004   0.003  -0.002  -0.004   0.002  -0.010   0.010  -0.002  -0.006   0.000   0.001   0.000
 -0.002  -0.002   0.002   0.003   0.000   0.002   0.006  -0.006   0.007  -0.001  -0.008   0.002   0.000  -0.007  -0.001  -0.000
  0.002  -0.002  -0.003  -0.001   0.001   0.003   0.002  -0.002  -0.004   0.008   0.012  -0.002   0.001  -0.001  -0.007  -0.000
 total augmentation occupancy for first ion, spin component:           2
  0.029   0.023   0.023  -0.029  -0.002  -0.023  -0.017  -0.017   0.022   0.001  -0.000  -0.002   0.002  -0.010  -0.001  -0.000
  0.023   0.056   0.032  -0.029  -0.027  -0.017  -0.043  -0.024   0.022   0.020  -0.028  -0.004  -0.000  -0.001  -0.002  -0.000
  0.023   0.032   0.011  -0.025  -0.009  -0.017  -0.024  -0.010   0.019   0.007  -0.012  -0.001   0.001  -0.005  -0.001  -0.000
 -0.029  -0.029  -0.025   0.015   0.007   0.022   0.022   0.019  -0.012  -0.005   0.008   0.002  -0.002   0.007   0.002   0.000
 -0.002  -0.027  -0.009   0.007   0.004   0.001   0.020   0.007  -0.005  -0.004   0.013   0.002   0.001  -0.002   0.000  -0.000
 -0.023  -0.017  -0.017   0.022   0.001   0.018   0.012   0.012  -0.017  -0.001   0.002   0.001  -0.002   0.008   0.001   0.000
 -0.017  -0.043  -0.024   0.022   0.020   0.012   0.034   0.018  -0.016  -0.014   0.022   0.002   0.000   0.001   0.002   0.000
 -0.017  -0.024  -0.010   0.019   0.007   0.012   0.018   0.009  -0.014  -0.005   0.010   0.001  -0.001   0.003   0.000   0.000
  0.022   0.022   0.019  -0.012  -0.005  -0.017  -0.016  -0.014   0.010   0.004  -0.007  -0.001   0.001  -0.005  -0.002  -0.000
  0.001   0.020   0.007  -0.005  -0.004  -0.001  -0.014  -0.005   0.004   0.004  -0.011  -0.001  -0.001   0.002  -0.000   0.000
 -0.000  -0.028  -0.012   0.008   0.013   0.002   0.022   0.010  -0.007  -0.011   0.017   0.001   0.001  -0.003   0.001  -0.000
 -0.002  -0.004  -0.001   0.002   0.002   0.001   0.002   0.001  -0.001  -0.001   0.001   0.000  -0.000  -0.000   0.000  -0.000
  0.002  -0.000   0.001  -0.002   0.001  -0.002   0.000  -0.001   0.001  -0.001   0.001  -0.000  -0.000  -0.001   0.000  -0.000
 -0.010  -0.001  -0.005   0.007  -0.002   0.008   0.001   0.003  -0.005   0.002  -0.003  -0.000  -0.001   0.003  -0.000   0.000
 -0.001  -0.002  -0.001   0.002   0.000   0.001   0.002   0.000  -0.002  -0.000   0.001   0.000   0.000  -0.000  -0.001  -0.000
 -0.000  -0.000  -0.000   0.000  -0.000   0.000   0.000   0.000  -0.000   0.000  -0.000  -0.000  -0.000   0.000  -0.000   0.000
  0.000   0.000   0.000  -0.000   0.000  -0.000  -0.000  -0.000   0.000  -0.000   0.000   0.000   0.000  -0.000   0.000   0.000
  0.000  -0.000   0.000  -0.000   0.000  -0.000  -0.000  -0.000   0.000  -0.000   0.000  -0.000  -0.000  -0.000   0.000   0.000


------------------------ aborting loop because EDIFF is reached ----------------------------------------


    CHARGE:  cpu time    0.20: real time    0.20
    FORLOC:  cpu time    0.03: real time    0.02
    FORNL :  cpu time    3.46: real time    3.46
    STRESS:  cpu time    4.36: real time    4.36
    FORCOR:  cpu time    0.38: real time    0.38
    FORHAR:  cpu time    0.06: real time    0.06
    MIXING:  cpu time    0.01: real time    0.01
    OFIELD:  cpu time    0.00: real time    0.00

  FORCE on cell =-STRESS in cart. coord.  units (eV):
  Direction    XX          YY          ZZ          XY          YZ          ZX
  --------------------------------------------------------------------------------------
  Alpha Z    80.76838    80.76838    80.76838
  Ewald   28979.63001 15418.87696 30339.33247   767.56442    83.13328   145.47865
  Hartree 39314.37388 26606.14740 40624.66222   708.95254    87.83593   121.25225
  E(xc)   -1855.02755 -1856.58394 -1854.98939     0.07702    -0.03900     0.05949
  Local  -73515.88255-47249.72738-76184.48000 -1479.74942  -173.99014  -263.08397
  n-local  -334.28180  -337.61569  -334.75752     0.97118     0.74314    -1.24593
  augment  2939.08725  2941.49388  2939.05052     0.64226     0.63323    -0.57280
  Kinetic  4379.84961  4385.33566  4379.15976     1.50974     1.78233    -1.94677
  Fock        0.00000     0.00000     0.00000     0.00000     0.00000     0.00000
  -------------------------------------------------------------------------------------
  Total     -11.48279   -11.30472   -11.25357    -0.03226     0.09877    -0.05909
  in kB      -1.70602    -1.67957    -1.67197    -0.00479     0.01467    -0.00878
  external pressure =       -1.69 kB  Pullay stress =        0.00 kB


 VOLUME and BASIS-vectors are now :
 -----------------------------------------------------------------------------
  energy-cutoff  :      249.84
  volume of cell :    10783.82
      direct lattice vectors                 reciprocal lattice vectors
    22.093147762  0.000000000  0.000000000     0.045262903  0.000000000  0.000000000
     0.000000000 22.093147762  0.000000000     0.000000000  0.045262903  0.000000000
     0.000000000  0.000000000 22.093147762     0.000000000  0.000000000  0.045262903

  length of vectors
    22.093147762 22.093147762 22.093147762     0.045262903  0.045262903  0.045262903


 FORCES acting on ions
    electron-ion (+dipol)            ewald-force                    non-local-force                 convergence-correction
 -----------------------------------------------------------------------------------------------
   -.112E+04 -.805E+03 0.549E+03   0.112E+04 0.803E+03 -.548E+03   0.255E+01 0.126E+01 -.117E+01   -.473E-02 -.877E-03 -.100E-01
   -.469E+03 -.107E+04 0.101E+04   0.469E+03 0.106E+04 -.101E+04   0.518E-02 0.365E+01 -.232E+01   -.104E-01 -.134E-01 -.176E-02
   -.145E+04 -.236E+03 -.193E+03   0.144E+04 0.236E+03 0.193E+03   0.489E+01 -.223E+00 0.470E+00   -.287E-02 0.500E-02 -.593E-02
   -.133E+04 0.484E+03 0.553E+03   0.132E+04 -.483E+03 -.552E+03   0.364E+01 -.124E+01 -.106E+01   0.261E-02 0.362E-02 0.369E-03
   -.952E+03 -.995E+03 -.591E+03   0.950E+03 0.992E+03 0.590E+03   0.184E+01 0.261E+01 0.756E+00   -.701E-02 0.344E-02 0.988E-03
   -.309E+03 -.126E+04 0.940E+02   0.309E+03 0.126E+04 -.944E+02   -.168E+00 0.904E+00 0.347E+00   -.541E-02 0.412E-02 0.516E-03
   -.861E+03 0.173E+03 0.114E+04   0.860E+03 -.173E+03 -.114E+04   0.127E+01 -.198E+00 -.954E+00   -.464E-02 -.791E-02 -.298E-02
   -.179E+03 -.250E+03 0.143E+04   0.179E+03 0.249E+03 -.143E+04   0.394E-01 0.117E+01 -.347E+01   0.122E-02 -.128E-01 -.199E-01
   -.108E+04 0.207E+03 -.107E+04   0.107E+04 -.206E+03 0.107E+04   0.275E+01 -.866E+00 0.306E+01   0.388E-03 -.257E-03 -.319E-04
   -.105E+04 0.108E+04 -.335E+03   0.105E+04 -.107E+04 0.334E+03   0.379E+01 -.256E+01 0.125E+01   0.109E-01 0.380E-02 0.163E-02
   -.559E+03 0.116E+04 0.615E+03   0.558E+03 -.115E+04 -.614E+03   0.125E+01 -.176E+01 -.345E+00   -.295E-02 -.116E-02 0.321E-02
   -.530E+03 0.557E+02 -.103E+03   0.529E+03 -.552E+02 0.103E+03   0.185E+01 -.422E+00 0.279E-01   0.710E-02 -.408E-03 -.176E-02
   0.512E+03 -.135E+04 0.603E+03   -.511E+03 0.134E+04 -.601E+03   -.507E+00 0.458E+01 -.167E+01   0.321E-02 -.442E-03 0.261E-03
   -.406E+03 -.345E+03 -.127E+04   0.405E+03 0.344E+03 0.127E+04   0.604E+00 0.426E+00 0.859E+00   -.154E-02 -.410E-02 0.105E-02
   -.118E+02 0.989E+03 0.103E+04   0.121E+02 -.987E+03 -.103E+04   -.379E+00 -.167E+01 -.269E+01   -.525E-02 0.397E-02 0.120E-01
   0.592E+03 0.429E+03 0.122E+04   -.590E+03 -.426E+03 -.121E+04   -.268E+01 -.264E+01 -.521E+01   -.284E-02 -.736E-02 0.651E-03
   0.113E+03 -.146E+03 0.481E+03   -.113E+03 0.145E+03 -.480E+03   -.376E+00 0.158E+00 -.137E+01   -.481E-02 0.115E-02 0.486E-02
   -.369E+03 0.828E+03 -.104E+04   0.368E+03 -.827E+03 0.104E+04   0.304E+00 -.155E+01 0.101E+01   -.381E-02 0.856E-02 -.798E-02
   -.179E+03 -.134E+04 -.757E+03   0.179E+03 0.133E+04 0.755E+03   0.105E+00 0.487E+01 0.191E+01   -.158E-02 -.677E-02 0.108E-01
   -.153E+03 0.153E+04 -.197E+03   0.152E+03 -.153E+04 0.197E+03   0.449E+00 -.520E+01 0.234E+00   0.983E-02 0.625E-03 0.388E-02
   0.896E+03 -.569E+03 0.101E+04   -.894E+03 0.568E+03 -.101E+04   -.147E+01 0.150E+01 -.265E+01   0.194E-01 0.489E-02 -.690E-02
   0.422E+03 0.110E+04 0.263E+03   -.422E+03 -.110E+04 -.264E+03   -.316E+00 -.240E+00 0.647E+00   -.189E-02 -.517E-02 -.370E-03
   0.346E+03 -.131E+01 -.393E+03   -.344E+03 0.115E+01 0.392E+03   -.126E+01 0.149E+00 0.133E+01   -.136E-03 0.645E-02 0.236E-02
   0.127E+04 -.486E+03 0.295E+03   -.127E+04 0.485E+03 -.295E+03   -.135E+01 0.638E+00 -.273E-01   0.186E-02 0.944E-02 -.103E-02
   0.113E+04 0.673E+03 0.633E+03   -.113E+04 -.671E+03 -.632E+03   -.188E+01 -.207E+01 -.151E+01   -.220E-02 0.867E-02 0.497E-02
   0.673E+03 -.126E+04 -.233E+03   -.672E+03 0.126E+04 0.233E+03   -.838E+00 0.232E+01 0.401E+00   -.259E-02 0.128E-01 0.936E-02
   0.132E+04 0.665E+03 0.248E+00   -.132E+04 -.663E+03 -.539E+00   -.276E+01 -.152E+01 0.295E+00   -.178E-02 0.338E-02 -.550E-03
   0.241E+03 0.324E+03 -.145E+04   -.241E+03 -.323E+03 0.145E+04   -.196E+00 -.149E+01 0.345E+01   -.303E-02 -.167E-02 -.248E-02
   0.531E+03 0.124E+04 -.650E+03   -.530E+03 -.124E+04 0.648E+03   -.138E+01 -.308E+01 0.165E+01   0.560E-02 0.973E-03 0.990E-03
   0.133E+04 -.512E+03 -.524E+03   -.133E+04 0.511E+03 0.523E+03   -.361E+01 0.101E+01 0.113E+01   0.149E-02 -.953E-02 0.159E-02
   0.528E+03 -.774E+03 -.121E+04   -.526E+03 0.772E+03 0.121E+04   -.180E+01 0.230E+01 0.299E+01   -.451E-02 0.236E-02 0.571E-02
   0.109E+04 0.462E+03 -.902E+03   -.109E+04 -.460E+03 0.899E+03   -.366E+01 -.124E+01 0.328E+01   -.506E-02 -.103E-01 0.172E-02
 -----------------------------------------------------------------------------------------------
   -.658E+00 0.404E+00 -.615E+00   0.409E-11 0.102E-11 0.227E-12   0.697E+00 -.438E+00 0.639E+00   -.154E-01 0.111E-02 0.514E-02
 
 
 POSITION                                       TOTAL-FORCE (eV/Angst)
 -----------------------------------------------------------------------------------
     14.59333     13.01359     10.07902        -0.013977      0.002879     -0.006263
     12.49358     13.68918      8.34279        -0.014847     -0.020905     -0.005076
     16.32637     11.98980     12.03061        -0.006653      0.007561     -0.003961
     15.37777     10.24869     10.09432        -0.000883     -0.000225     -0.006236
     14.23047     13.54012     12.97985        -0.004033     -0.000958      0.000872
     12.16041     14.00458     11.13720         0.002909     -0.002182      0.002857
     13.41462     11.04687      8.30239        -0.004258     -0.005231     -0.007302
     11.32239     11.80283      6.61931         0.014332     -0.014713     -0.020947
     14.71387     10.91255     14.02110        -0.001295      0.005687     -0.001246
     14.42910      8.71224     12.26389         0.006975      0.007319     -0.003136
     12.92472      8.81908      9.92087         0.000901      0.001712      0.006704
     13.03065     11.19871     11.69803         0.003532      0.001346     -0.002554
      9.90860     14.34023      9.45310        -0.002797      0.003677      0.004186
     12.25766     12.18412     14.53676        -0.002364     -0.000037      0.005498
     10.98862      9.38678      8.03373        -0.004653      0.003031      0.005898
      9.05251     10.14944      6.21673        -0.002456     -0.009561     -0.000302
     10.96223     11.70008      9.80201         0.005099     -0.003971      0.007118
     12.23709      9.45541     13.89238        -0.000644      0.001847     -0.011635
     11.79781     14.78750     13.80753         0.002011      0.000937      0.009261
     11.92699      7.34071     12.12967         0.003258      0.003014      0.003850
      8.85803     12.38568      7.80570         0.026219      0.001702     -0.000976
     10.24638      9.03750     10.74098         0.000637     -0.003689      0.007951
     10.19232     11.28185     12.62968         0.004798      0.001542     -0.003112
      8.19477     12.29684     10.52173         0.004205      0.011948      0.001295
      8.26142      9.89836      8.95836         0.002750      0.008517      0.000635
      9.55839     14.09409     12.22672        -0.011330      0.008078      0.007113
      7.71701      9.83811     11.77605         0.003020      0.002569      0.002189
     10.10029     10.53351     15.43592        -0.007158      0.001283     -0.005650
      9.62741      8.48122     13.44012         0.004773      0.001992     -0.002322
      7.56811     12.34439     13.26200         0.005220     -0.005118      0.004787
      9.66717     13.21750     14.89238        -0.006522      0.001899      0.010712
      7.53729      9.94345     14.59167        -0.006768     -0.011949     -0.000207
 -----------------------------------------------------------------------------------
    total drift:                                0.023462     -0.032830      0.029890


--------------------------------------------------------------------------------------------------------



  FREE ENERGIE OF THE ION-ELECTRON SYSTEM (eV)
  ---------------------------------------------------
  free  energy   TOTEN  =       -67.00403272 eV

  energy  without entropy=      -67.00403272  energy(sigma->0) =      -67.00403272
 
 d Force =-0.5343040E-05[-0.111E-04, 0.397E-06]  d Energy =-0.5646397E-04 0.511E-04
 d Force =-0.3683863E-01[-0.368E-01,-0.368E-01]  d Ewald  =-0.3683863E-01 0.495E-09


--------------------------------------------------------------------------------------------------------


    POTLOK:  cpu time    0.38: real time    0.39


--------------------------------------------------------------------------------------------------------




--------------------------------------------------------------------------------------------------------


  
 reached required accuracy - stopping structural energy minimisation
     LOOP+:  cpu time   18.27: real time   18.48
    4ORBIT:  cpu time    0.00: real time    0.00

 total amount of memory used by VASP on root node    75681. kBytes
========================================================================

   base      :      30000. kBytes
   nonl-proj :       3980. kBytes
   fftplans  :       8578. kBytes
   grid      :      21928. kBytes
   one-center:         62. kBytes
   wavefun   :      11133. kBytes
 
  
  
 General timing and accounting informations for this job:
 ========================================================
  
                  Total CPU time used (sec):     1200.803
                            User time (sec):     1194.723
                          System time (sec):        6.080
                         Elapsed time (sec):     1235.662
  
                   Maximum memory used (kb):       94920.
                   Average memory used (kb):           0.
  
                          Minor page faults:      1131970
                          Major page faults:            0
                 Voluntary context switches:         6418
