   5   5   0   0
  0.2652669E+04  0.2367106E-08  0.2367106E-08  0.2367106E-08  0.1000000E-15
  1.000000000000000E-004
  CAR 
 unknown system                          
     -0.05382513     -9.14294011  301     -3.64402555      1.00000000
     -9.143  0.0000E+00  0.0000E+00  0.0000E+00  0.0000E+00
     -9.113  0.0000E+00  0.0000E+00  0.0000E+00  0.0000E+00
     -9.082  0.0000E+00  0.0000E+00  0.0000E+00  0.0000E+00
     -9.052  0.0000E+00  0.0000E+00  0.0000E+00  0.0000E+00
     -9.022  0.0000E+00  0.0000E+00  0.0000E+00  0.0000E+00
     -8.991  0.0000E+00  0.0000E+00  0.0000E+00  0.0000E+00
     -8.961  0.0000E+00  0.0000E+00  0.0000E+00  0.0000E+00
     -8.931  0.0000E+00  0.0000E+00  0.0000E+00  0.0000E+00
     -8.901  0.0000E+00  0.0000E+00  0.0000E+00  0.0000E+00
     -8.870  0.0000E+00  0.0000E+00  0.0000E+00  0.0000E+00
     -8.840  0.0000E+00  0.0000E+00  0.0000E+00  0.0000E+00
     -8.810  0.0000E+00  0.0000E+00  0.0000E+00  0.0000E+00
     -8.779  0.0000E+00  0.0000E+00  0.0000E+00  0.0000E+00
     -8.749  0.0000E+00  0.0000E+00  0.0000E+00  0.0000E+00
     -8.719  0.0000E+00  0.0000E+00  0.1000E-02  0.0000E+00
     -8.688  0.0000E+00  0.0000E+00  0.1000E-02  0.1000E-02
     -8.658  0.0000E+00  0.0000E+00  0.1000E-02  0.1000E-02
     -8.628  0.0000E+00  0.0000E+00  0.1000E-02  0.1000E-02
     -8.598  0.0000E+00  0.0000E+00  0.1000E-02  0.1000E-02
     -8.567  0.0000E+00  0.0000E+00  0.2000E-02  0.1000E-02
     -8.537  0.0000E+00  0.0000E+00  0.2000E-02  0.1000E-02
     -8.507  0.0000E+00  0.0000E+00  0.2000E-02  0.2000E-02
     -8.476  0.0000E+00  0.0000E+00  0.2000E-02  0.2000E-02
     -8.446  0.0000E+00  0.0000E+00  0.2000E-02  0.2000E-02
     -8.416  0.0000E+00  0.0000E+00  0.2000E-02  0.2000E-02
     -8.386  0.0000E+00  0.0000E+00  0.2000E-02  0.2000E-02
     -8.355  0.0000E+00  0.0000E+00  0.2000E-02  0.2000E-02
     -8.325  0.0000E+00  0.0000E+00  0.2000E-02  0.2000E-02
     -8.295  0.0000E+00  0.0000E+00  0.2000E-02  0.2000E-02
     -8.264  0.0000E+00  0.0000E+00  0.3000E-02  0.3000E-02
     -8.234  0.0000E+00  0.0000E+00  0.3000E-02  0.3000E-02
     -8.204  0.0000E+00  0.0000E+00  0.3000E-02  0.3000E-02
     -8.173  0.0000E+00  0.0000E+00  0.4000E-02  0.3000E-02
     -8.143  0.0000E+00  0.0000E+00  0.4000E-02  0.4000E-02
     -8.113  0.0000E+00  0.0000E+00  0.5000E-02  0.4000E-02
     -8.083  0.0000E+00  0.0000E+00  0.5000E-02  0.4000E-02
     -8.052  0.0000E+00  0.0000E+00  0.5000E-02  0.5000E-02
     -8.022  0.0000E+00  0.0000E+00  0.5000E-02  0.5000E-02
     -7.992  0.0000E+00  0.0000E+00  0.5000E-02  0.5000E-02
     -7.961  0.0000E+00  0.0000E+00  0.5000E-02  0.5000E-02
     -7.931  0.0000E+00  0.0000E+00  0.5000E-02  0.5000E-02
     -7.901  0.0000E+00  0.0000E+00  0.6000E-02  0.5000E-02
     -7.870  0.0000E+00  0.0000E+00  0.6000E-02  0.6000E-02
     -7.840  0.0000E+00  0.0000E+00  0.6000E-02  0.6000E-02
     -7.810  0.0000E+00  0.0000E+00  0.6000E-02  0.6000E-02
     -7.780  0.0000E+00  0.0000E+00  0.6000E-02  0.6000E-02
     -7.749  0.0000E+00  0.0000E+00  0.8000E-02  0.8000E-02
     -7.719  0.0000E+00  0.0000E+00  0.8000E-02  0.8000E-02
     -7.689  0.0000E+00  0.0000E+00  0.8000E-02  0.8000E-02
     -7.658  0.0000E+00  0.0000E+00  0.8000E-02  0.8000E-02
     -7.628  0.0000E+00  0.0000E+00  0.9000E-02  0.8000E-02
     -7.598  0.0000E+00  0.0000E+00  0.9000E-02  0.8000E-02
     -7.567  0.0000E+00  0.0000E+00  0.9000E-02  0.8000E-02
     -7.537  0.0000E+00  0.0000E+00  0.9000E-02  0.9000E-02
     -7.507  0.0000E+00  0.0000E+00  0.9000E-02  0.9000E-02
     -7.477  0.0000E+00  0.0000E+00  0.9000E-02  0.9000E-02
     -7.446  0.0000E+00  0.0000E+00  0.9000E-02  0.9000E-02
     -7.416  0.0000E+00  0.0000E+00  0.1000E-01  0.9000E-02
     -7.386  0.0000E+00  0.0000E+00  0.1000E-01  0.9000E-02
     -7.355  0.0000E+00  0.0000E+00  0.1000E-01  0.9000E-02
     -7.325  0.0000E+00  0.0000E+00  0.1000E-01  0.1000E-01
     -7.295  0.0000E+00  0.0000E+00  0.1000E-01  0.1000E-01
     -7.265  0.0000E+00  0.0000E+00  0.1000E-01  0.1000E-01
     -7.234  0.0000E+00  0.0000E+00  0.1200E-01  0.1200E-01
     -7.204  0.0000E+00  0.0000E+00  0.1300E-01  0.1200E-01
     -7.174  0.0000E+00  0.0000E+00  0.1400E-01  0.1200E-01
     -7.143  0.0000E+00  0.0000E+00  0.1400E-01  0.1300E-01
     -7.113  0.3298E-01  0.0000E+00  0.1600E-01  0.1400E-01
     -7.083  0.0000E+00  0.0000E+00  0.1700E-01  0.1400E-01
     -7.052  0.0000E+00  0.0000E+00  0.1900E-01  0.1600E-01
     -7.022  0.0000E+00  0.0000E+00  0.2100E-01  0.1900E-01
     -6.992  0.0000E+00  0.0000E+00  0.2100E-01  0.1900E-01
     -6.962  0.0000E+00  0.0000E+00  0.2100E-01  0.2000E-01
     -6.931  0.0000E+00  0.0000E+00  0.2100E-01  0.2100E-01
     -6.901  0.0000E+00  0.0000E+00  0.2100E-01  0.2100E-01
     -6.871  0.0000E+00  0.0000E+00  0.2100E-01  0.2100E-01
     -6.840  0.0000E+00  0.0000E+00  0.2100E-01  0.2100E-01
     -6.810  0.0000E+00  0.0000E+00  0.2100E-01  0.2100E-01
     -6.780  0.0000E+00  0.0000E+00  0.2300E-01  0.2300E-01
     -6.749  0.0000E+00  0.0000E+00  0.2300E-01  0.2300E-01
     -6.719  0.0000E+00  0.0000E+00  0.2400E-01  0.2300E-01
     -6.689  0.0000E+00  0.0000E+00  0.2400E-01  0.2300E-01
     -6.659  0.0000E+00  0.0000E+00  0.2400E-01  0.2300E-01
     -6.628  0.0000E+00  0.0000E+00  0.2500E-01  0.2500E-01
     -6.598  0.0000E+00  0.0000E+00  0.2500E-01  0.2500E-01
     -6.568  0.0000E+00  0.0000E+00  0.2500E-01  0.2500E-01
     -6.537  0.0000E+00  0.0000E+00  0.2500E-01  0.2500E-01
     -6.507  0.0000E+00  0.0000E+00  0.2500E-01  0.2500E-01
     -6.477  0.0000E+00  0.0000E+00  0.2500E-01  0.2500E-01
     -6.447  0.0000E+00  0.0000E+00  0.2500E-01  0.2500E-01
     -6.416  0.0000E+00  0.0000E+00  0.2500E-01  0.2500E-01
     -6.386  0.0000E+00  0.0000E+00  0.2500E-01  0.2500E-01
     -6.356  0.0000E+00  0.0000E+00  0.2500E-01  0.2500E-01
     -6.325  0.0000E+00  0.0000E+00  0.2500E-01  0.2500E-01
     -6.295  0.0000E+00  0.0000E+00  0.2500E-01  0.2500E-01
     -6.265  0.0000E+00  0.0000E+00  0.2500E-01  0.2500E-01
     -6.234  0.0000E+00  0.0000E+00  0.2500E-01  0.2500E-01
     -6.204  0.0000E+00  0.0000E+00  0.2500E-01  0.2500E-01
     -6.174  0.0000E+00  0.0000E+00  0.2500E-01  0.2500E-01
     -6.144  0.0000E+00  0.0000E+00  0.2500E-01  0.2500E-01
     -6.113  0.0000E+00  0.0000E+00  0.2500E-01  0.2500E-01
     -6.083  0.0000E+00  0.0000E+00  0.2500E-01  0.2500E-01
     -6.053  0.0000E+00  0.0000E+00  0.2600E-01  0.2500E-01
     -6.022  0.0000E+00  0.0000E+00  0.2600E-01  0.2500E-01
     -5.992  0.0000E+00  0.0000E+00  0.2600E-01  0.2500E-01
     -5.962  0.0000E+00  0.0000E+00  0.2600E-01  0.2500E-01
     -5.931  0.0000E+00  0.0000E+00  0.2600E-01  0.2500E-01
     -5.901  0.0000E+00  0.0000E+00  0.2600E-01  0.2600E-01
     -5.871  0.0000E+00  0.0000E+00  0.2600E-01  0.2600E-01
     -5.841  0.0000E+00  0.0000E+00  0.2600E-01  0.2600E-01
     -5.810  0.0000E+00  0.0000E+00  0.2600E-01  0.2600E-01
     -5.780  0.0000E+00  0.0000E+00  0.2600E-01  0.2600E-01
     -5.750  0.0000E+00  0.0000E+00  0.2600E-01  0.2600E-01
     -5.719  0.0000E+00  0.0000E+00  0.2600E-01  0.2600E-01
     -5.689  0.0000E+00  0.0000E+00  0.2600E-01  0.2600E-01
     -5.659  0.0000E+00  0.0000E+00  0.2600E-01  0.2600E-01
     -5.628  0.0000E+00  0.0000E+00  0.2600E-01  0.2600E-01
     -5.598  0.0000E+00  0.0000E+00  0.2600E-01  0.2600E-01
     -5.568  0.0000E+00  0.0000E+00  0.2600E-01  0.2600E-01
     -5.538  0.0000E+00  0.0000E+00  0.2600E-01  0.2600E-01
     -5.507  0.0000E+00  0.0000E+00  0.2600E-01  0.2600E-01
     -5.477  0.0000E+00  0.0000E+00  0.2600E-01  0.2600E-01
     -5.447  0.0000E+00  0.0000E+00  0.2600E-01  0.2600E-01
     -5.416  0.0000E+00  0.0000E+00  0.2600E-01  0.2600E-01
     -5.386  0.0000E+00  0.0000E+00  0.2600E-01  0.2600E-01
     -5.356  0.0000E+00  0.0000E+00  0.2600E-01  0.2600E-01
     -5.326  0.0000E+00  0.0000E+00  0.2600E-01  0.2600E-01
     -5.295  0.0000E+00  0.0000E+00  0.2600E-01  0.2600E-01
     -5.265  0.0000E+00  0.0000E+00  0.2600E-01  0.2600E-01
     -5.235  0.0000E+00  0.0000E+00  0.2600E-01  0.2600E-01
     -5.204  0.0000E+00  0.0000E+00  0.2600E-01  0.2600E-01
     -5.174  0.0000E+00  0.0000E+00  0.2600E-01  0.2600E-01
     -5.144  0.0000E+00  0.0000E+00  0.2600E-01  0.2600E-01
     -5.113  0.0000E+00  0.0000E+00  0.2700E-01  0.2700E-01
     -5.083  0.0000E+00  0.0000E+00  0.2700E-01  0.2700E-01
     -5.053  0.0000E+00  0.0000E+00  0.2700E-01  0.2700E-01
     -5.023  0.0000E+00  0.0000E+00  0.2700E-01  0.2700E-01
     -4.992  0.0000E+00  0.0000E+00  0.2700E-01  0.2700E-01
     -4.962  0.0000E+00  0.0000E+00  0.2700E-01  0.2700E-01
     -4.932  0.0000E+00  0.0000E+00  0.2700E-01  0.2700E-01
     -4.901  0.0000E+00  0.0000E+00  0.2700E-01  0.2700E-01
     -4.871  0.0000E+00  0.0000E+00  0.2700E-01  0.2700E-01
     -4.841  0.0000E+00  0.0000E+00  0.2700E-01  0.2700E-01
     -4.810  0.0000E+00  0.0000E+00  0.2700E-01  0.2700E-01
     -4.780  0.0000E+00  0.0000E+00  0.2700E-01  0.2700E-01
     -4.750  0.0000E+00  0.0000E+00  0.2700E-01  0.2700E-01
     -4.720  0.0000E+00  0.0000E+00  0.2700E-01  0.2700E-01
     -4.689  0.0000E+00  0.0000E+00  0.2700E-01  0.2700E-01
     -4.659  0.0000E+00  0.0000E+00  0.2700E-01  0.2700E-01
     -4.629  0.0000E+00  0.0000E+00  0.2700E-01  0.2700E-01
     -4.598  0.0000E+00  0.0000E+00  0.2700E-01  0.2700E-01
     -4.568  0.0000E+00  0.0000E+00  0.2700E-01  0.2700E-01
     -4.538  0.0000E+00  0.0000E+00  0.2700E-01  0.2700E-01
     -4.507  0.0000E+00  0.0000E+00  0.2700E-01  0.2700E-01
     -4.477  0.0000E+00  0.0000E+00  0.2700E-01  0.2700E-01
     -4.447  0.0000E+00  0.0000E+00  0.2700E-01  0.2700E-01
     -4.417  0.0000E+00  0.0000E+00  0.2700E-01  0.2700E-01
     -4.386  0.0000E+00  0.0000E+00  0.2700E-01  0.2700E-01
     -4.356  0.0000E+00  0.0000E+00  0.2700E-01  0.2700E-01
     -4.326  0.0000E+00  0.0000E+00  0.2700E-01  0.2700E-01
     -4.295  0.0000E+00  0.0000E+00  0.2700E-01  0.2700E-01
     -4.265  0.0000E+00  0.0000E+00  0.2700E-01  0.2700E-01
     -4.235  0.0000E+00  0.0000E+00  0.2700E-01  0.2700E-01
     -4.205  0.0000E+00  0.0000E+00  0.2700E-01  0.2700E-01
     -4.174  0.0000E+00  0.0000E+00  0.2700E-01  0.2700E-01
     -4.144  0.0000E+00  0.0000E+00  0.2700E-01  0.2700E-01
     -4.114  0.0000E+00  0.0000E+00  0.2700E-01  0.2700E-01
     -4.083  0.0000E+00  0.0000E+00  0.2700E-01  0.2700E-01
     -4.053  0.0000E+00  0.0000E+00  0.2700E-01  0.2700E-01
     -4.023  0.0000E+00  0.0000E+00  0.2700E-01  0.2700E-01
     -3.992  0.0000E+00  0.0000E+00  0.2700E-01  0.2700E-01
     -3.962  0.0000E+00  0.0000E+00  0.2700E-01  0.2700E-01
     -3.932  0.0000E+00  0.0000E+00  0.2700E-01  0.2700E-01
     -3.902  0.0000E+00  0.0000E+00  0.2700E-01  0.2700E-01
     -3.871  0.0000E+00  0.0000E+00  0.2700E-01  0.2700E-01
     -3.841  0.0000E+00  0.0000E+00  0.2700E-01  0.2700E-01
     -3.811  0.0000E+00  0.0000E+00  0.2700E-01  0.2700E-01
     -3.780  0.0000E+00  0.0000E+00  0.2700E-01  0.2700E-01
     -3.750  0.0000E+00  0.0000E+00  0.2700E-01  0.2700E-01
     -3.720  0.0000E+00  0.0000E+00  0.2700E-01  0.2700E-01
     -3.689  0.0000E+00  0.0000E+00  0.2700E-01  0.2700E-01
     -3.659  0.0000E+00  0.0000E+00  0.2700E-01  0.2700E-01
     -3.629  0.0000E+00  0.0000E+00  0.2800E-01  0.2700E-01
     -3.599  0.0000E+00  0.0000E+00  0.2800E-01  0.2700E-01
     -3.568  0.0000E+00  0.0000E+00  0.2800E-01  0.2700E-01
     -3.538  0.0000E+00  0.0000E+00  0.2800E-01  0.2700E-01
     -3.508  0.0000E+00  0.0000E+00  0.2800E-01  0.2700E-01
     -3.477  0.0000E+00  0.0000E+00  0.2800E-01  0.2700E-01
     -3.447  0.0000E+00  0.0000E+00  0.2800E-01  0.2700E-01
     -3.417  0.0000E+00  0.0000E+00  0.2800E-01  0.2700E-01
     -3.387  0.0000E+00  0.0000E+00  0.2900E-01  0.2700E-01
     -3.356  0.0000E+00  0.0000E+00  0.2900E-01  0.2700E-01
     -3.326  0.0000E+00  0.0000E+00  0.2900E-01  0.2700E-01
     -3.296  0.0000E+00  0.0000E+00  0.2900E-01  0.2700E-01
     -3.265  0.0000E+00  0.0000E+00  0.2900E-01  0.2700E-01
     -3.235  0.0000E+00  0.0000E+00  0.2900E-01  0.2700E-01
     -3.205  0.0000E+00  0.0000E+00  0.2900E-01  0.2800E-01
     -3.174  0.0000E+00  0.0000E+00  0.2900E-01  0.2800E-01
     -3.144  0.0000E+00  0.0000E+00  0.2900E-01  0.2900E-01
     -3.114  0.0000E+00  0.0000E+00  0.2900E-01  0.2900E-01
     -3.084  0.0000E+00  0.0000E+00  0.2900E-01  0.2900E-01
     -3.053  0.0000E+00  0.0000E+00  0.3000E-01  0.3000E-01
     -3.023  0.0000E+00  0.0000E+00  0.3000E-01  0.3000E-01
     -2.993  0.0000E+00  0.0000E+00  0.3000E-01  0.3000E-01
     -2.962  0.0000E+00  0.0000E+00  0.3000E-01  0.3000E-01
     -2.932  0.0000E+00  0.0000E+00  0.3000E-01  0.3000E-01
     -2.902  0.0000E+00  0.0000E+00  0.3000E-01  0.3000E-01
     -2.871  0.0000E+00  0.0000E+00  0.3000E-01  0.3000E-01
     -2.841  0.0000E+00  0.0000E+00  0.3000E-01  0.3000E-01
     -2.811  0.0000E+00  0.0000E+00  0.3000E-01  0.3000E-01
     -2.781  0.0000E+00  0.0000E+00  0.3000E-01  0.3000E-01
     -2.750  0.0000E+00  0.0000E+00  0.3000E-01  0.3000E-01
     -2.720  0.0000E+00  0.0000E+00  0.3000E-01  0.3000E-01
     -2.690  0.0000E+00  0.0000E+00  0.3000E-01  0.3000E-01
     -2.659  0.0000E+00  0.0000E+00  0.3000E-01  0.3000E-01
     -2.629  0.0000E+00  0.0000E+00  0.3000E-01  0.3000E-01
     -2.599  0.0000E+00  0.0000E+00  0.3000E-01  0.3000E-01
     -2.568  0.0000E+00  0.0000E+00  0.3000E-01  0.3000E-01
     -2.538  0.0000E+00  0.0000E+00  0.3000E-01  0.3000E-01
     -2.508  0.0000E+00  0.0000E+00  0.3000E-01  0.3000E-01
     -2.478  0.0000E+00  0.0000E+00  0.3000E-01  0.3000E-01
     -2.447  0.0000E+00  0.0000E+00  0.3000E-01  0.3000E-01
     -2.417  0.0000E+00  0.0000E+00  0.3000E-01  0.3000E-01
     -2.387  0.0000E+00  0.0000E+00  0.3000E-01  0.3000E-01
     -2.356  0.0000E+00  0.0000E+00  0.3000E-01  0.3000E-01
     -2.326  0.0000E+00  0.0000E+00  0.3000E-01  0.3000E-01
     -2.296  0.0000E+00  0.0000E+00  0.3000E-01  0.3000E-01
     -2.266  0.0000E+00  0.0000E+00  0.3000E-01  0.3000E-01
     -2.235  0.0000E+00  0.0000E+00  0.3000E-01  0.3000E-01
     -2.205  0.0000E+00  0.0000E+00  0.3000E-01  0.3000E-01
     -2.175  0.0000E+00  0.0000E+00  0.3000E-01  0.3000E-01
     -2.144  0.0000E+00  0.0000E+00  0.3000E-01  0.3000E-01
     -2.114  0.0000E+00  0.0000E+00  0.3000E-01  0.3000E-01
     -2.084  0.0000E+00  0.0000E+00  0.3000E-01  0.3000E-01
     -2.053  0.0000E+00  0.0000E+00  0.3000E-01  0.3000E-01
     -2.023  0.0000E+00  0.0000E+00  0.3000E-01  0.3000E-01
     -1.993  0.0000E+00  0.0000E+00  0.3000E-01  0.3000E-01
     -1.963  0.0000E+00  0.0000E+00  0.3000E-01  0.3000E-01
     -1.932  0.0000E+00  0.0000E+00  0.3000E-01  0.3000E-01
     -1.902  0.0000E+00  0.0000E+00  0.3000E-01  0.3000E-01
     -1.872  0.0000E+00  0.0000E+00  0.3000E-01  0.3000E-01
     -1.841  0.0000E+00  0.0000E+00  0.3000E-01  0.3000E-01
     -1.811  0.0000E+00  0.0000E+00  0.3000E-01  0.3000E-01
     -1.781  0.0000E+00  0.0000E+00  0.3000E-01  0.3000E-01
     -1.750  0.0000E+00  0.0000E+00  0.3000E-01  0.3000E-01
     -1.720  0.0000E+00  0.0000E+00  0.3000E-01  0.3000E-01
     -1.690  0.0000E+00  0.0000E+00  0.3000E-01  0.3000E-01
     -1.660  0.0000E+00  0.0000E+00  0.3000E-01  0.3000E-01
     -1.629  0.0000E+00  0.0000E+00  0.3000E-01  0.3000E-01
     -1.599  0.0000E+00  0.0000E+00  0.3100E-01  0.3000E-01
     -1.569  0.0000E+00  0.0000E+00  0.3100E-01  0.3000E-01
     -1.538  0.0000E+00  0.0000E+00  0.3100E-01  0.3000E-01
     -1.508  0.0000E+00  0.0000E+00  0.3100E-01  0.3000E-01
     -1.478  0.0000E+00  0.0000E+00  0.3100E-01  0.3000E-01
     -1.447  0.0000E+00  0.0000E+00  0.3100E-01  0.3000E-01
     -1.417  0.0000E+00  0.0000E+00  0.3100E-01  0.3100E-01
     -1.387  0.0000E+00  0.0000E+00  0.3100E-01  0.3100E-01
     -1.357  0.0000E+00  0.0000E+00  0.3100E-01  0.3100E-01
     -1.326  0.0000E+00  0.0000E+00  0.3100E-01  0.3100E-01
     -1.296  0.0000E+00  0.0000E+00  0.3100E-01  0.3100E-01
     -1.266  0.0000E+00  0.0000E+00  0.3100E-01  0.3100E-01
     -1.235  0.0000E+00  0.0000E+00  0.3100E-01  0.3100E-01
     -1.205  0.0000E+00  0.0000E+00  0.3100E-01  0.3100E-01
     -1.175  0.0000E+00  0.0000E+00  0.3100E-01  0.3100E-01
     -1.145  0.0000E+00  0.0000E+00  0.3200E-01  0.3100E-01
     -1.114  0.0000E+00  0.0000E+00  0.3200E-01  0.3100E-01
     -1.084  0.0000E+00  0.0000E+00  0.3200E-01  0.3100E-01
     -1.054  0.0000E+00  0.0000E+00  0.3200E-01  0.3100E-01
     -1.023  0.0000E+00  0.0000E+00  0.3400E-01  0.3300E-01
     -0.993  0.0000E+00  0.0000E+00  0.3400E-01  0.3300E-01
     -0.963  0.0000E+00  0.0000E+00  0.3400E-01  0.3300E-01
     -0.932  0.0000E+00  0.0000E+00  0.3400E-01  0.3300E-01
     -0.902  0.0000E+00  0.0000E+00  0.3400E-01  0.3300E-01
     -0.872  0.0000E+00  0.0000E+00  0.3400E-01  0.3300E-01
     -0.842  0.0000E+00  0.0000E+00  0.3400E-01  0.3300E-01
     -0.811  0.0000E+00  0.0000E+00  0.3400E-01  0.3300E-01
     -0.781  0.0000E+00  0.0000E+00  0.3500E-01  0.3400E-01
     -0.751  0.0000E+00  0.0000E+00  0.3500E-01  0.3400E-01
     -0.720  0.0000E+00  0.0000E+00  0.3500E-01  0.3400E-01
     -0.690  0.0000E+00  0.0000E+00  0.3500E-01  0.3400E-01
     -0.660  0.0000E+00  0.0000E+00  0.3500E-01  0.3400E-01
     -0.629  0.0000E+00  0.0000E+00  0.3500E-01  0.3400E-01
     -0.599  0.0000E+00  0.0000E+00  0.3600E-01  0.3400E-01
     -0.569  0.0000E+00  0.0000E+00  0.3600E-01  0.3500E-01
     -0.539  0.0000E+00  0.0000E+00  0.3600E-01  0.3500E-01
     -0.508  0.0000E+00  0.0000E+00  0.3600E-01  0.3500E-01
     -0.478  0.0000E+00  0.0000E+00  0.3600E-01  0.3500E-01
     -0.448  0.0000E+00  0.0000E+00  0.3600E-01  0.3600E-01
     -0.417  0.0000E+00  0.0000E+00  0.3600E-01  0.3600E-01
     -0.387  0.0000E+00  0.0000E+00  0.3600E-01  0.3600E-01
     -0.357  0.0000E+00  0.0000E+00  0.3600E-01  0.3600E-01
     -0.326  0.0000E+00  0.0000E+00  0.3600E-01  0.3600E-01
     -0.296  0.0000E+00  0.0000E+00  0.3600E-01  0.3600E-01
     -0.266  0.0000E+00  0.0000E+00  0.3600E-01  0.3600E-01
     -0.236  0.0000E+00  0.0000E+00  0.3600E-01  0.3600E-01
     -0.205  0.0000E+00  0.0000E+00  0.3600E-01  0.3600E-01
     -0.175  0.0000E+00  0.0000E+00  0.3600E-01  0.3600E-01
     -0.145  0.0000E+00  0.0000E+00  0.3600E-01  0.3600E-01
     -0.114  0.0000E+00  0.0000E+00  0.3600E-01  0.3600E-01
     -0.084  0.0000E+00  0.0000E+00  0.3600E-01  0.3600E-01
     -0.054  0.0000E+00  0.0000E+00  0.3600E-01  0.3600E-01
