unknown system                          
           1
    18.257089    0.000000    0.000000
     0.000000   18.257089    0.000000
     0.000000    0.000000   18.257089
   Ag
  13
Direct configuration=     1
   0.55490230  0.55612440  0.38548570
   0.66507546  0.44815486  0.59230649
   0.37017590  0.36332978  0.64658216
   0.54415225  0.66210762  0.50041720
   0.43696791  0.54891791  0.48692557
   0.44245041  0.63753771  0.60260753
   0.45865004  0.44536897  0.38683887
   0.66577287  0.55728628  0.49835626
   0.42751927  0.39380344  0.52129137
   0.65113325  0.66420346  0.40168412
   0.55448256  0.54109610  0.60585237
   0.41790662  0.49557708  0.63402342
   0.56351499  0.43786408  0.49033102
Direct configuration=     2
   0.55497417  0.55607255  0.38531569
   0.66546404  0.44786404  0.59261874
   0.36992446  0.36298751  0.64686956
   0.54420746  0.66226437  0.50049280
   0.43700317  0.54894362  0.48692229
   0.44232795  0.63778018  0.60285157
   0.45855757  0.44513126  0.38653650
   0.66565084  0.55739058  0.49824114
   0.42740117  0.39356169  0.52110523
   0.65138810  0.66444557  0.40149413
   0.55448738  0.54129757  0.60587519
   0.41775618  0.49574111  0.63426717
   0.56356135  0.43789163  0.49011208
Direct configuration=     3
   0.55518979  0.55591701  0.38480564
   0.66662979  0.44699160  0.59355551
   0.36917015  0.36196069  0.64773173
   0.54437307  0.66273460  0.50071959
   0.43710896  0.54902075  0.48691243
   0.44196057  0.63850759  0.60358371
   0.45828013  0.44441812  0.38562938
   0.66528472  0.55770349  0.49789579
   0.42704685  0.39283644  0.52054683
   0.65215266  0.66517190  0.40092413
   0.55450184  0.54190201  0.60594367
   0.41730488  0.49623322  0.63499843
   0.56370043  0.43797428  0.48945525
Direct configuration=     4
   0.55562102  0.55560593  0.38378555
   0.66896129  0.44524672  0.59542905
   0.36766153  0.35990707  0.64945609
   0.54470429  0.66367506  0.50117317
   0.43732053  0.54917501  0.48689272
   0.44122582  0.63996241  0.60504798
   0.45772526  0.44299183  0.38381514
   0.66455250  0.55832929  0.49720508
   0.42633822  0.39138593  0.51943002
   0.65368178  0.66662457  0.39978413
   0.55453076  0.54311087  0.60608061
   0.41640227  0.49721744  0.63646095
   0.56397860  0.43813958  0.48814161
Direct configuration=     5
   0.55648347  0.55498376  0.38174537
   0.67362428  0.44175696  0.59917613
   0.36464427  0.35579981  0.65290480
   0.54536674  0.66555597  0.50208032
   0.43774366  0.54948353  0.48685328
   0.43975631  0.64287205  0.60797653
   0.45661552  0.44013925  0.38018665
   0.66308805  0.55958090  0.49582367
   0.42492095  0.38848491  0.51719639
   0.65674002  0.66952990  0.39750414
   0.55458859  0.54552860  0.60635449
   0.41459704  0.49918588  0.63938598
   0.56453494  0.43847018  0.48551432
Direct configuration=     6
   0.55602604  0.55531374  0.38282744
   0.67115113  0.44360785  0.59718876
   0.36624456  0.35797821  0.65107568
   0.54501539  0.66455838  0.50159918
   0.43751924  0.54931990  0.48687420
   0.44053571  0.64132884  0.60642329
   0.45720410  0.44165219  0.38211112
   0.66386476  0.55891708  0.49655634
   0.42567264  0.39002354  0.51838106
   0.65511800  0.66798897  0.39871340
   0.55455792  0.54424629  0.60620923
   0.41555450  0.49814186  0.63783460
   0.56423987  0.43829484  0.48690778
Direct configuration=     7
   0.55631138  0.55539899  0.38244005
   0.67107694  0.44390069  0.59699530
   0.36603716  0.35801156  0.65104527
   0.54531075  0.66485130  0.50158518
   0.43811415  0.54917296  0.48701709
   0.44048744  0.64160984  0.60686444
   0.45716639  0.44134447  0.38181756
   0.66335029  0.55871399  0.49664415
   0.42509030  0.38955020  0.51867093
   0.65540436  0.66827566  0.39852280
   0.55486234  0.54430214  0.60598794
   0.41490997  0.49761426  0.63824744
   0.56458239  0.43862563  0.48686394
Direct configuration=     8
   0.55705254  0.55562043  0.38143379
   0.67088421  0.44466136  0.59649277
   0.36549842  0.35809821  0.65096628
   0.54607798  0.66561220  0.50154880
   0.43965947  0.54879128  0.48738826
   0.44036208  0.64233974  0.60801034
   0.45706844  0.44054514  0.38105503
   0.66201393  0.55818645  0.49687226
   0.42357764  0.38832066  0.51942387
   0.65614820  0.66902034  0.39802772
   0.55565308  0.54444722  0.60541311
   0.41323577  0.49624377  0.63931979
   0.56547210  0.43948490  0.48675006
Direct configuration=     9
   0.55745620  0.55576677  0.38082270
   0.67050378  0.44532903  0.59600496
   0.36498900  0.35799320  0.65101230
   0.54650064  0.66592031  0.50156040
   0.44103666  0.54830358  0.48792353
   0.44065656  0.64179207  0.60846412
   0.45726976  0.44021877  0.38148745
   0.66157095  0.55839368  0.49657901
   0.42305085  0.38811585  0.51939495
   0.65648071  0.66909776  0.39808796
   0.55523959  0.54456526  0.60530741
   0.41277628  0.49610722  0.63952229
   0.56517288  0.43976820  0.48653500
Direct configuration=    10
   0.55866716  0.55620580  0.37898946
   0.66936248  0.44733205  0.59454151
   0.36346073  0.35767818  0.65115034
   0.54776863  0.66684465  0.50159518
   0.44516824  0.54684049  0.48952934
   0.44153999  0.64014906  0.60982547
   0.45787373  0.43923966  0.38278471
   0.66024200  0.55901537  0.49569927
   0.42147047  0.38750139  0.51930820
   0.65747822  0.66933002  0.39826867
   0.55399914  0.54491938  0.60499032
   0.41139781  0.49569756  0.64012980
   0.56427524  0.44061810  0.48588982
Direct configuration=    11
   0.56108909  0.55708386  0.37532296
   0.66707989  0.45133807  0.59161463
   0.36040420  0.35704813  0.65142643
   0.55030461  0.66869332  0.50166474
   0.45343140  0.54391431  0.49274095
   0.44330687  0.63686303  0.61254816
   0.45908167  0.43728145  0.38537922
   0.65758410  0.56025876  0.49393978
   0.41830970  0.38627248  0.51913471
   0.65947325  0.66979454  0.39863010
   0.55151822  0.54562762  0.60435612
   0.40864088  0.49487823  0.64134482
   0.56247996  0.44231789  0.48459946
Direct configuration=    12
   0.55913618  0.55637584  0.37827943
   0.66892045  0.44810783  0.59397471
   0.36286883  0.35755616  0.65120381
   0.54825973  0.66720265  0.50160865
   0.44676843  0.54627383  0.49015128
   0.44188216  0.63951271  0.61035272
   0.45810765  0.43886045  0.38328714
   0.65972729  0.55925616  0.49535854
   0.42085837  0.38726341  0.51927461
   0.65786457  0.66941997  0.39833867
   0.55351870  0.54505653  0.60486750
   0.41086392  0.49553889  0.64036509
   0.56392758  0.44094727  0.48563994
Direct configuration=    13
   0.55929072  0.55615626  0.37763641
   0.66846919  0.44830008  0.59390450
   0.36220661  0.35723109  0.65136735
   0.54846208  0.66737072  0.50205364
   0.44765036  0.54575756  0.49040641
   0.44155620  0.63952037  0.61078096
   0.45794449  0.43850727  0.38342582
   0.65982082  0.56009588  0.49473805
   0.42037071  0.38744681  0.51920183
   0.65869194  0.67007041  0.39795598
   0.55381291  0.54474520  0.60527808
   0.41056492  0.49562074  0.64036126
   0.56386290  0.44054931  0.48559179
Direct configuration=    14
   0.55947694  0.55589167  0.37686160
   0.66792544  0.44853173  0.59381991
   0.36140867  0.35683939  0.65156441
   0.54870590  0.66757323  0.50258984
   0.44871305  0.54513549  0.49071384
   0.44116343  0.63952960  0.61129697
   0.45774788  0.43808171  0.38359293
   0.65993353  0.56110771  0.49399038
   0.41978309  0.38766781  0.51911414
   0.65968889  0.67085415  0.39749485
   0.55416743  0.54437006  0.60577281
   0.41020464  0.49571937  0.64035663
   0.56378497  0.44006978  0.48553376
Direct configuration=    15
   0.55988350  0.55568109  0.37668228
   0.66784518  0.44850307  0.59366400
   0.36089926  0.35696875  0.65145619
   0.54921113  0.66745077  0.50302721
   0.44915139  0.54504483  0.49100294
   0.44109316  0.63931964  0.61135875
   0.45740598  0.43773943  0.38329435
   0.65966977  0.56127682  0.49377533
   0.41904377  0.38791570  0.51957442
   0.66021225  0.67158628  0.39695827
   0.55420467  0.54465821  0.60614357
   0.40976306  0.49536622  0.64026306
   0.56432074  0.43986088  0.48550173
Direct configuration=    16
   0.56000592  0.55561767  0.37662828
   0.66782101  0.44849444  0.59361705
   0.36074586  0.35700771  0.65142361
   0.54936327  0.66741389  0.50315891
   0.44928340  0.54501753  0.49108999
   0.44107200  0.63925641  0.61137735
   0.45730302  0.43763636  0.38320443
   0.65959035  0.56132775  0.49371057
   0.41882114  0.38799035  0.51971303
   0.66036985  0.67180675  0.39679668
   0.55421588  0.54474498  0.60625522
   0.40963009  0.49525987  0.64023488
   0.56448208  0.43979798  0.48549208
Direct configuration=    17
   0.56054914  0.55545128  0.37685396
   0.66802853  0.44844250  0.59356314
   0.36009116  0.35703735  0.65149175
   0.55018746  0.66727509  0.50335535
   0.44948663  0.54482941  0.49110068
   0.44097505  0.63894213  0.61133986
   0.45717486  0.43741104  0.38353082
   0.65924081  0.56124124  0.49363762
   0.41843704  0.38851069  0.51971583
   0.66048583  0.67206859  0.39653333
   0.55427471  0.54510475  0.60645743
   0.40922448  0.49518457  0.64009017
   0.56454815  0.43987306  0.48503215
Direct configuration=    18
   0.56106712  0.55529261  0.37706916
   0.66822641  0.44839296  0.59351173
   0.35946687  0.35706561  0.65155673
   0.55097339  0.66714274  0.50354266
   0.44968042  0.54465003  0.49111086
   0.44088261  0.63864244  0.61130412
   0.45705266  0.43719618  0.38384206
   0.65890751  0.56115874  0.49356805
   0.41807078  0.38900688  0.51971849
   0.66059644  0.67231827  0.39628221
   0.55433080  0.54544782  0.60665025
   0.40883770  0.49511276  0.63995218
   0.56461115  0.43994465  0.48459358
Direct configuration=    19
   0.56159246  0.55510102  0.37711713
   0.66818522  0.44851198  0.59332025
   0.35872650  0.35713135  0.65155276
   0.55180156  0.66720101  0.50382111
   0.44989832  0.54459488  0.49110948
   0.44056186  0.63852913  0.61121192
   0.45678985  0.43686322  0.38397187
   0.65895670  0.56090370  0.49363182
   0.41756524  0.38953059  0.51990803
   0.66064281  0.67234687  0.39614536
   0.55476696  0.54544538  0.60671352
   0.40827687  0.49514678  0.63977640
   0.56493949  0.44006578  0.48442245
Direct configuration=    20
   0.56177986  0.55503267  0.37713424
   0.66817053  0.44855444  0.59325194
   0.35846240  0.35715479  0.65155134
   0.55209698  0.66722180  0.50392044
   0.44997605  0.54457521  0.49110898
   0.44044745  0.63848871  0.61117903
   0.45669610  0.43674445  0.38401817
   0.65897425  0.56081272  0.49365457
   0.41738491  0.38971741  0.51997564
   0.66065936  0.67235707  0.39609655
   0.55492254  0.54544452  0.60673609
   0.40807682  0.49515891  0.63971369
   0.56505662  0.44010900  0.48436140
Direct configuration=    21
   0.56200784  0.55480517  0.37692952
   0.66820134  0.44846362  0.59327329
   0.35792058  0.35726046  0.65149035
   0.55235229  0.66739223  0.50431165
   0.45025910  0.54468174  0.49114014
   0.44032372  0.63843526  0.61100352
   0.45652945  0.43648240  0.38403738
   0.65962941  0.56081131  0.49358507
   0.41700161  0.38999740  0.52025016
   0.66072137  0.67210747  0.39614339
   0.55493396  0.54546729  0.60666131
   0.40764310  0.49536898  0.63954995
   0.56518008  0.44009835  0.48432635
Direct configuration=    22
   0.56237984  0.55443396  0.37659550
   0.66825161  0.44831544  0.59330813
   0.35703650  0.35743288  0.65139083
   0.55276888  0.66767032  0.50494995
   0.45072093  0.54485557  0.49119098
   0.44012184  0.63834804  0.61071714
   0.45625754  0.43605482  0.38406873
   0.66069842  0.56080902  0.49347167
   0.41637620  0.39045423  0.52069809
   0.66082254  0.67170021  0.39621983
   0.55495260  0.54550446  0.60653930
   0.40693542  0.49571175  0.63928278
   0.56538153  0.44008099  0.48426916
Direct configuration=    23
   0.56268273  0.55400425  0.37660730
   0.66822683  0.44822736  0.59339097
   0.35638920  0.35763281  0.65145691
   0.55311208  0.66766456  0.50539849
   0.45105015  0.54483813  0.49081907
   0.44005333  0.63856267  0.61053710
   0.45621827  0.43589575  0.38450695
   0.66125834  0.56069280  0.49348437
   0.41613982  0.39082244  0.52077032
   0.66091580  0.67135623  0.39623046
   0.55498579  0.54550753  0.60623708
   0.40634865  0.49593569  0.63910637
   0.56532287  0.44023148  0.48415668
Direct configuration=    24
   0.56281547  0.55381593  0.37661246
   0.66821597  0.44818876  0.59342728
   0.35610551  0.35772043  0.65148587
   0.55326249  0.66766203  0.50559507
   0.45119443  0.54483049  0.49065608
   0.44002331  0.63865673  0.61045820
   0.45620106  0.43582604  0.38469901
   0.66150374  0.56064187  0.49348994
   0.41603623  0.39098381  0.52080197
   0.66095667  0.67120548  0.39623512
   0.55500034  0.54550888  0.60610464
   0.40609149  0.49603383  0.63902905
   0.56529716  0.44029743  0.48410739
Direct configuration=    25
   0.56307231  0.55383560  0.37675614
   0.66808906  0.44818088  0.59341635
   0.35612698  0.35787755  0.65147922
   0.55344623  0.66745116  0.50546402
   0.45094915  0.54508645  0.49067531
   0.44010459  0.63862217  0.61040821
   0.45613171  0.43580763  0.38442445
   0.66114956  0.56049657  0.49360990
   0.41604508  0.39080654  0.52096165
   0.66098510  0.67123203  0.39619048
   0.55487879  0.54555759  0.60601926
   0.40614077  0.49614519  0.63893083
   0.56558452  0.44027235  0.48436626
Direct configuration=    26
   0.56298087  0.55382859  0.37670499
   0.66813424  0.44818368  0.59342024
   0.35611933  0.35782161  0.65148159
   0.55338081  0.66752623  0.50551067
   0.45103648  0.54499532  0.49066846
   0.44007566  0.63863447  0.61042601
   0.45615639  0.43581418  0.38452220
   0.66127565  0.56054830  0.49356719
   0.41604193  0.39086965  0.52090480
   0.66097498  0.67122258  0.39620637
   0.55492206  0.54554025  0.60604966
   0.40612323  0.49610554  0.63896580
   0.56548222  0.44028128  0.48427410
