   37   37 1000    2
  0.2922157E+03  0.2211236E-08  0.2211236E-08  0.2211236E-08  0.1000000E-15
  1.000000000000000E-004
  CAR 
 unknown system                          
    407      1    264
 
  0.0000000E+00  0.0000000E+00  0.0000000E+00  0.1000000E+01
    1       -9.639858     -9.614412
    2       -9.162222     -9.154182
    3       -9.121534     -9.108025
    4       -9.080955     -9.069721
    5       -9.033193     -9.021748
    6       -8.989079     -8.978728
    7       -8.958203     -8.942615
    8       -8.945751     -8.933680
    9       -8.909210     -8.896266
   10       -8.872700     -8.857963
   11       -8.857693     -8.835826
   12       -8.812310     -8.802835
   13       -8.792857     -8.774778
   14       -8.759895     -8.748936
   15       -8.758408     -8.746481
   16       -8.720922     -8.711856
   17       -8.710417     -8.701236
   18       -8.656260     -8.645835
   19       -8.647689     -8.637652
   20       -8.623193     -8.614411
   21       -8.609499     -8.599595
   22       -8.593500     -8.584310
   23       -8.573160     -8.564733
   24       -8.552603     -8.542900
   25       -8.520404     -8.509902
   26       -8.507612     -8.498753
   27       -8.500197     -8.491875
   28       -8.475540     -8.467900
   29       -8.454147     -8.444531
   30       -8.442682     -8.436197
   31       -8.435285     -8.426016
   32       -8.399202     -8.390008
   33       -8.380186     -8.371988
   34       -8.357955     -8.349853
   35       -8.345091     -8.337734
   36       -8.313353     -8.305772
   37       -8.286226     -8.277123
   38       -8.259252     -8.250372
   39       -8.252469     -8.245079
   40       -8.230293     -8.220456
   41       -8.216275     -8.208383
   42       -8.201281     -8.194758
   43       -8.192564     -8.183574
   44       -8.176165     -8.168655
   45       -8.160444     -8.153367
   46       -8.144902     -8.135601
   47       -8.118147     -8.111872
   48       -8.100133     -8.092067
   49       -8.092184     -8.083228
   50       -8.073754     -8.064856
   51       -8.051559     -8.043642
   52       -8.046043     -8.038911
   53       -8.021429     -8.013946
   54       -8.012886     -8.004699
   55       -7.997189     -7.987826
   56       -7.987238     -7.978942
   57       -7.959081     -7.951911
   58       -7.948415     -7.941517
   59       -7.929442     -7.919680
   60       -7.924448     -7.916275
   61       -7.896867     -7.888662
   62       -7.884003     -7.875953
   63       -7.864042     -7.855043
   64       -7.842262     -7.835679
   65       -7.828229     -7.819570
   66       -7.809339     -7.800232
   67       -7.791028     -7.784270
   68       -7.757332     -7.748919
   69       -7.753531     -7.744634
   70       -7.721786     -7.713409
   71       -7.707828     -7.701022
   72       -7.676974     -7.667162
   73       -7.664527     -7.658254
   74       -7.651865     -7.643536
   75       -7.640714     -7.631142
   76       -7.617965     -7.610055
   77       -7.609149     -7.601791
   78       -7.597316     -7.588274
   79       -7.569344     -7.561272
   80       -7.550866     -7.545249
   81       -7.533220     -7.525931
   82       -7.521008     -7.512068
   83       -7.501867     -7.495012
   84       -7.485204     -7.477045
   85       -7.477362     -7.469235
   86       -7.464372     -7.457721
   87       -7.435108     -7.428155
   88       -7.416462     -7.410133
   89       -7.412190     -7.405022
   90       -7.411228     -7.402902
   91       -7.390090     -7.382717
   92       -7.375741     -7.367860
   93       -7.353621     -7.345932
   94       -7.327231     -7.320276
   95       -7.308014     -7.299670
   96       -7.289835     -7.283159
   97       -7.260559     -7.253704
   98       -7.245379     -7.234915
   99       -7.227246     -7.219762
  100       -7.224178     -7.216269
  101       -7.211736     -7.204306
  102       -7.200702     -7.191386
  103       -7.186766     -7.178096
  104       -7.161358     -7.154102
  105       -7.128308     -7.119468
  106       -7.116742     -7.109575
  107       -7.109114     -7.102716
  108       -7.079704     -7.071958
  109       -7.066305     -7.058411
  110       -7.050407     -7.042975
  111       -7.042835     -7.036326
  112       -7.038661     -7.031021
  113       -7.025208     -7.018620
  114       -7.016552     -7.007423
  115       -6.999883     -6.992908
  116       -6.989151     -6.981121
  117       -6.975379     -6.968497
  118       -6.971264     -6.960019
  119       -6.954685     -6.944116
  120       -6.939724     -6.932732
  121       -6.933837     -6.925912
  122       -6.918967     -6.912024
  123       -6.899800     -6.891983
  124       -6.874858     -6.868193
  125       -6.871591     -6.863467
  126       -6.857873     -6.852622
  127       -6.846724     -6.839964
  128       -6.841123     -6.831070
  129       -6.832486     -6.824700
  130       -6.813702     -6.806223
  131       -6.812287     -6.804455
  132       -6.794558     -6.785378
  133       -6.773819     -6.767327
  134       -6.758275     -6.750571
  135       -6.755640     -6.747875
  136       -6.741412     -6.735028
  137       -6.740312     -6.733860
  138       -6.730604     -6.721457
  139       -6.713197     -6.705313
  140       -6.704695     -6.695260
  141       -6.701097     -6.693019
  142       -6.685173     -6.677406
  143       -6.676165     -6.668697
  144       -6.665217     -6.658480
  145       -6.641225     -6.633243
  146       -6.635321     -6.627275
  147       -6.633067     -6.625851
  148       -6.619651     -6.614898
  149       -6.608001     -6.601193
  150       -6.590317     -6.582674
  151       -6.580248     -6.573372
  152       -6.569018     -6.562451
  153       -6.566101     -6.559216
  154       -6.548302     -6.542227
  155       -6.533963     -6.527346
  156       -6.531037     -6.523443
  157       -6.516669     -6.511119
  158       -6.508379     -6.501153
  159       -6.495004     -6.487329
  160       -6.492755     -6.485418
  161       -6.474726     -6.467227
  162       -6.461034     -6.453162
  163       -6.459354     -6.452864
  164       -6.449017     -6.443766
  165       -6.443639     -6.436571
  166       -6.433012     -6.423429
  167       -6.407683     -6.400474
  168       -6.400828     -6.395025
  169       -6.392589     -6.386233
  170       -6.384837     -6.376899
  171       -6.370779     -6.364324
  172       -6.359465     -6.350928
  173       -6.350579     -6.344130
  174       -6.331095     -6.324014
  175       -6.321322     -6.313708
  176       -6.314728     -6.307126
  177       -6.293397     -6.287431
  178       -6.276312     -6.267136
  179       -6.271171     -6.264798
  180       -6.252985     -6.243907
  181       -6.249753     -6.242333
  182       -6.234303     -6.229015
  183       -6.207232     -6.201719
  184       -6.183929     -6.178242
  185       -6.148629     -6.141749
  186       -6.136519     -6.131732
  187       -6.128109     -6.121134
  188       -6.092503     -6.087571
  189       -6.088560     -6.082150
  190       -5.813121     -5.802826
  191       -5.778959     -5.762521
  192       -5.685404     -5.666242
  193       -5.617890     -5.602403
  194       -5.565035     -5.545351
  195       -5.164235     -5.134920
  196       -4.526333     -4.512355
  197       -4.382724     -4.357852
  198       -4.275972     -4.257630
  199       -4.211193     -4.184674
  200       -3.998315     -3.976508
  201       -3.879635     -3.856108
  202       -3.798246     -3.782399
  203       -3.641024     -3.623355
  204       -3.493544     -3.409914
  205       -3.289042     -3.267009
  206       -2.687329     -2.666678
  207       -2.516835     -2.496019
  208       -2.487605     -2.462774
  209       -2.411751     -2.381568
  210       -2.345866     -2.317413
  211       -2.287018     -2.263609
  212       -2.168539     -2.147437
  213       -2.124688     -2.100072
  214       -2.075111     -2.048504
  215       -1.956748     -1.930352
  216       -1.838775     -1.800774
  217       -1.763301     -1.725322
  218       -1.735983     -1.671208
  219       -1.643153     -1.617526
  220       -1.509337     -1.473017
  221       -0.923453     -0.901516
  222       -0.871231     -0.848495
  223       -0.806498     -0.786123
  224       -0.753662     -0.720854
  225       -0.643658     -0.608263
  226       -0.574383     -0.555462
  227       -0.543844     -0.515563
  228       -0.504856     -0.466899
  229       -0.455094     -0.424291
  230       -0.382105     -0.328708
  231       -0.328516     -0.300952
  232       -0.266107     -0.241461
  233       -0.128860     -0.088444
  234       -0.079418     -0.048030
  235       -0.047540     -0.022994
  236        0.011053      0.038386
  237        0.130535      0.155716
  238        0.215848      0.235240
  239        0.233171      0.293066
  240        0.343128      0.374405
  241        0.566423      0.583722
  242        0.589645      0.597607
  243        0.732847      0.739459
  244        0.776661      0.791820
  245        0.865123      0.891947
  246        0.914678      0.925676
  247        0.950949      0.971384
  248        0.973331      0.989596
  249        1.016541      1.006320
  250        1.053863      1.067669
  251        1.074751      1.088673
  252        1.086762      1.108951
  253        1.111978      1.121724
  254        1.124552      1.140825
  255        1.129658      1.159575
  256        1.150070      1.164144
  257        1.174422      1.174668
  258        1.179525      1.192370
  259        1.208354      1.228206
  260        1.279208      1.292105
  261        1.298318      1.294922
  262        1.323439      1.346408
  263        1.331438      1.355965
  264        1.360045      1.376717
