  28  28   0   0
  0.3499176E+03  0.2139807E-08  0.2139807E-08  0.2139807E-08  0.1000000E-15
  1.000000000000000E-004
  CAR 
 unknown system                          
      1.62791566    -10.04339806  301     -3.34211877      1.00000000
    -10.043  0.0000E+00  0.0000E+00  0.0000E+00  0.0000E+00
    -10.004  0.0000E+00  0.0000E+00  0.0000E+00  0.0000E+00
     -9.966  0.0000E+00  0.0000E+00  0.0000E+00  0.0000E+00
     -9.927  0.0000E+00  0.0000E+00  0.0000E+00  0.0000E+00
     -9.888  0.0000E+00  0.0000E+00  0.0000E+00  0.0000E+00
     -9.849  0.0000E+00  0.0000E+00  0.0000E+00  0.0000E+00
     -9.810  0.0000E+00  0.0000E+00  0.0000E+00  0.0000E+00
     -9.771  0.0000E+00  0.0000E+00  0.0000E+00  0.0000E+00
     -9.732  0.0000E+00  0.0000E+00  0.0000E+00  0.0000E+00
     -9.693  0.0000E+00  0.0000E+00  0.0000E+00  0.0000E+00
     -9.654  0.0000E+00  0.0000E+00  0.0000E+00  0.0000E+00
     -9.615  0.0000E+00  0.0000E+00  0.0000E+00  0.0000E+00
     -9.577  0.0000E+00  0.0000E+00  0.0000E+00  0.0000E+00
     -9.538  0.0000E+00  0.0000E+00  0.0000E+00  0.0000E+00
     -9.499  0.0000E+00  0.0000E+00  0.1000E-02  0.0000E+00
     -9.460  0.0000E+00  0.0000E+00  0.1000E-02  0.1000E-02
     -9.421  0.0000E+00  0.0000E+00  0.1000E-02  0.1000E-02
     -9.382  0.0000E+00  0.0000E+00  0.1000E-02  0.1000E-02
     -9.343  0.0000E+00  0.0000E+00  0.1000E-02  0.1000E-02
     -9.304  0.0000E+00  0.0000E+00  0.1000E-02  0.1000E-02
     -9.265  0.0000E+00  0.0000E+00  0.1000E-02  0.1000E-02
     -9.226  0.0000E+00  0.0000E+00  0.1000E-02  0.1000E-02
     -9.188  0.0000E+00  0.0000E+00  0.1000E-02  0.1000E-02
     -9.149  0.0000E+00  0.0000E+00  0.1000E-02  0.1000E-02
     -9.110  0.2570E-01  0.0000E+00  0.2000E-02  0.1000E-02
     -9.071  0.0000E+00  0.0000E+00  0.2000E-02  0.2000E-02
     -9.032  0.0000E+00  0.0000E+00  0.3000E-02  0.3000E-02
     -8.993  0.0000E+00  0.0000E+00  0.4000E-02  0.4000E-02
     -8.954  0.0000E+00  0.0000E+00  0.6000E-02  0.5000E-02
     -8.915  0.0000E+00  0.0000E+00  0.7000E-02  0.6000E-02
     -8.876  0.0000E+00  0.0000E+00  0.9000E-02  0.8000E-02
     -8.837  0.0000E+00  0.0000E+00  0.1000E-01  0.1000E-01
     -8.798  0.0000E+00  0.0000E+00  0.1200E-01  0.1100E-01
     -8.760  0.0000E+00  0.0000E+00  0.1400E-01  0.1200E-01
     -8.721  0.0000E+00  0.0000E+00  0.1500E-01  0.1400E-01
     -8.682  0.0000E+00  0.0000E+00  0.1700E-01  0.1600E-01
     -8.643  0.0000E+00  0.0000E+00  0.1800E-01  0.1700E-01
     -8.604  0.0000E+00  0.0000E+00  0.2000E-01  0.1800E-01
     -8.565  0.0000E+00  0.0000E+00  0.2100E-01  0.2000E-01
     -8.526  0.0000E+00  0.0000E+00  0.2200E-01  0.2100E-01
     -8.487  0.0000E+00  0.0000E+00  0.2400E-01  0.2300E-01
     -8.448  0.0000E+00  0.0000E+00  0.2500E-01  0.2500E-01
     -8.409  0.0000E+00  0.2570E-01  0.2600E-01  0.2600E-01
     -8.371  0.0000E+00  0.0000E+00  0.2700E-01  0.2600E-01
     -8.332  0.0000E+00  0.0000E+00  0.2900E-01  0.2800E-01
     -8.293  0.1904E-04  0.0000E+00  0.3000E-01  0.3000E-01
     -8.254  0.0000E+00  0.0000E+00  0.3300E-01  0.3200E-01
     -8.215  0.0000E+00  0.0000E+00  0.3400E-01  0.3300E-01
     -8.176  0.0000E+00  0.2114E-02  0.3500E-01  0.3408E-01
     -8.137  0.0000E+00  0.0000E+00  0.3700E-01  0.3500E-01
     -8.098  0.0000E+00  0.0000E+00  0.3900E-01  0.3800E-01
     -8.059  0.0000E+00  0.0000E+00  0.4200E-01  0.4100E-01
     -8.020  0.0000E+00  0.0000E+00  0.4400E-01  0.4300E-01
     -7.981  0.0000E+00  0.0000E+00  0.4500E-01  0.4500E-01
     -7.943  0.0000E+00  0.0000E+00  0.4700E-01  0.4600E-01
     -7.904  0.0000E+00  0.0000E+00  0.4800E-01  0.4700E-01
     -7.865  0.0000E+00  0.0000E+00  0.5100E-01  0.4900E-01
     -7.826  0.0000E+00  0.0000E+00  0.5200E-01  0.5100E-01
     -7.787  0.0000E+00  0.0000E+00  0.5400E-01  0.5300E-01
     -7.748  0.0000E+00  0.0000E+00  0.5500E-01  0.5400E-01
     -7.709  0.0000E+00  0.0000E+00  0.5600E-01  0.5500E-01
     -7.670  0.0000E+00  0.0000E+00  0.5900E-01  0.5700E-01
     -7.631  0.0000E+00  0.0000E+00  0.6000E-01  0.6000E-01
     -7.592  0.0000E+00  0.0000E+00  0.6100E-01  0.6100E-01
     -7.554  0.0000E+00  0.0000E+00  0.6300E-01  0.6300E-01
     -7.515  0.0000E+00  0.0000E+00  0.6500E-01  0.6400E-01
     -7.476  0.0000E+00  0.0000E+00  0.6800E-01  0.6600E-01
     -7.437  0.0000E+00  0.0000E+00  0.7000E-01  0.6800E-01
     -7.398  0.0000E+00  0.0000E+00  0.7100E-01  0.7100E-01
     -7.359  0.2570E-01  0.0000E+00  0.7300E-01  0.7200E-01
     -7.320  0.2569E-01  0.0000E+00  0.7500E-01  0.7400E-01
     -7.281  0.0000E+00  0.0000E+00  0.7600E-01  0.7500E-01
     -7.242  0.2570E-01  0.0000E+00  0.7800E-01  0.7700E-01
     -7.203  0.2570E-01  0.0000E+00  0.7900E-01  0.7800E-01
     -7.164  0.0000E+00  0.0000E+00  0.8100E-01  0.8000E-01
     -7.126  0.0000E+00  0.0000E+00  0.8300E-01  0.8200E-01
     -7.087  0.0000E+00  0.0000E+00  0.8500E-01  0.8400E-01
     -7.048  0.0000E+00  0.0000E+00  0.8800E-01  0.8600E-01
     -7.009  0.0000E+00  0.0000E+00  0.9100E-01  0.9000E-01
     -6.970  0.0000E+00  0.0000E+00  0.9400E-01  0.9300E-01
     -6.931  0.0000E+00  0.0000E+00  0.9700E-01  0.9500E-01
     -6.892  0.0000E+00  0.0000E+00  0.1000E+00  0.9900E-01
     -6.853  0.0000E+00  0.0000E+00  0.1020E+00  0.1020E+00
     -6.814  0.0000E+00  0.0000E+00  0.1060E+00  0.1040E+00
     -6.775  0.0000E+00  0.0000E+00  0.1080E+00  0.1070E+00
     -6.737  0.0000E+00  0.0000E+00  0.1110E+00  0.1100E+00
     -6.698  0.0000E+00  0.0000E+00  0.1120E+00  0.1120E+00
     -6.659  0.1331E-06  0.1394E-11  0.1150E+00  0.1130E+00
     -6.620  0.0000E+00  0.1136E-01  0.1190E+00  0.1174E+00
     -6.581  0.0000E+00  0.0000E+00  0.1210E+00  0.1200E+00
     -6.542  0.0000E+00  0.0000E+00  0.1240E+00  0.1230E+00
     -6.503  0.0000E+00  0.0000E+00  0.1260E+00  0.1250E+00
     -6.464  0.0000E+00  0.0000E+00  0.1280E+00  0.1270E+00
     -6.425  0.0000E+00  0.0000E+00  0.1310E+00  0.1300E+00
     -6.386  0.0000E+00  0.6017E-03  0.1340E+00  0.1320E+00
     -6.347  0.0000E+00  0.0000E+00  0.1370E+00  0.1360E+00
     -6.309  0.0000E+00  0.0000E+00  0.1380E+00  0.1380E+00
     -6.270  0.1370E-02  0.0000E+00  0.1401E+00  0.1390E+00
     -6.231  0.0000E+00  0.0000E+00  0.1420E+00  0.1420E+00
     -6.192  0.0000E+00  0.0000E+00  0.1440E+00  0.1440E+00
     -6.153  0.0000E+00  0.0000E+00  0.1440E+00  0.1440E+00
     -6.114  0.0000E+00  0.0000E+00  0.1440E+00  0.1440E+00
     -6.075  0.0000E+00  0.0000E+00  0.1440E+00  0.1440E+00
     -6.036  0.0000E+00  0.0000E+00  0.1440E+00  0.1440E+00
     -5.997  0.0000E+00  0.0000E+00  0.1440E+00  0.1440E+00
     -5.958  0.0000E+00  0.0000E+00  0.1440E+00  0.1440E+00
     -5.920  0.0000E+00  0.0000E+00  0.1440E+00  0.1440E+00
     -5.881  0.0000E+00  0.0000E+00  0.1450E+00  0.1440E+00
     -5.842  0.0000E+00  0.0000E+00  0.1450E+00  0.1450E+00
     -5.803  0.0000E+00  0.0000E+00  0.1450E+00  0.1450E+00
     -5.764  0.0000E+00  0.0000E+00  0.1450E+00  0.1450E+00
     -5.725  0.0000E+00  0.0000E+00  0.1450E+00  0.1450E+00
     -5.686  0.0000E+00  0.0000E+00  0.1450E+00  0.1450E+00
     -5.647  0.0000E+00  0.0000E+00  0.1460E+00  0.1450E+00
     -5.608  0.0000E+00  0.0000E+00  0.1460E+00  0.1450E+00
     -5.569  0.0000E+00  0.0000E+00  0.1460E+00  0.1460E+00
     -5.530  0.0000E+00  0.0000E+00  0.1460E+00  0.1460E+00
     -5.492  0.0000E+00  0.0000E+00  0.1460E+00  0.1460E+00
     -5.453  0.0000E+00  0.0000E+00  0.1460E+00  0.1460E+00
     -5.414  0.0000E+00  0.0000E+00  0.1460E+00  0.1460E+00
     -5.375  0.0000E+00  0.0000E+00  0.1460E+00  0.1460E+00
     -5.336  0.0000E+00  0.0000E+00  0.1460E+00  0.1460E+00
     -5.297  0.0000E+00  0.0000E+00  0.1460E+00  0.1460E+00
     -5.258  0.0000E+00  0.0000E+00  0.1460E+00  0.1460E+00
     -5.219  0.0000E+00  0.0000E+00  0.1460E+00  0.1460E+00
     -5.180  0.0000E+00  0.0000E+00  0.1460E+00  0.1460E+00
     -5.141  0.0000E+00  0.0000E+00  0.1470E+00  0.1460E+00
     -5.103  0.0000E+00  0.0000E+00  0.1470E+00  0.1460E+00
     -5.064  0.0000E+00  0.0000E+00  0.1470E+00  0.1470E+00
     -5.025  0.0000E+00  0.0000E+00  0.1470E+00  0.1470E+00
     -4.986  0.0000E+00  0.0000E+00  0.1470E+00  0.1470E+00
     -4.947  0.0000E+00  0.0000E+00  0.1470E+00  0.1470E+00
     -4.908  0.0000E+00  0.0000E+00  0.1470E+00  0.1470E+00
     -4.869  0.0000E+00  0.0000E+00  0.1480E+00  0.1470E+00
     -4.830  0.0000E+00  0.0000E+00  0.1480E+00  0.1480E+00
     -4.791  0.0000E+00  0.0000E+00  0.1480E+00  0.1480E+00
     -4.752  0.0000E+00  0.0000E+00  0.1480E+00  0.1480E+00
     -4.713  0.0000E+00  0.0000E+00  0.1490E+00  0.1480E+00
     -4.675  0.0000E+00  0.0000E+00  0.1490E+00  0.1480E+00
     -4.636  0.0000E+00  0.0000E+00  0.1490E+00  0.1490E+00
     -4.597  0.0000E+00  0.0000E+00  0.1490E+00  0.1490E+00
     -4.558  0.0000E+00  0.0000E+00  0.1490E+00  0.1490E+00
     -4.519  0.0000E+00  0.0000E+00  0.1490E+00  0.1490E+00
     -4.480  0.0000E+00  0.0000E+00  0.1500E+00  0.1490E+00
     -4.441  0.0000E+00  0.0000E+00  0.1500E+00  0.1500E+00
     -4.402  0.0000E+00  0.0000E+00  0.1500E+00  0.1500E+00
     -4.363  0.0000E+00  0.0000E+00  0.1510E+00  0.1500E+00
     -4.324  0.0000E+00  0.0000E+00  0.1510E+00  0.1500E+00
     -4.286  0.0000E+00  0.0000E+00  0.1510E+00  0.1510E+00
     -4.247  0.0000E+00  0.0000E+00  0.1510E+00  0.1510E+00
     -4.208  0.0000E+00  0.0000E+00  0.1510E+00  0.1510E+00
     -4.169  0.0000E+00  0.0000E+00  0.1520E+00  0.1510E+00
     -4.130  0.0000E+00  0.0000E+00  0.1520E+00  0.1520E+00
     -4.091  0.0000E+00  0.0000E+00  0.1520E+00  0.1520E+00
     -4.052  0.0000E+00  0.0000E+00  0.1520E+00  0.1520E+00
     -4.013  0.0000E+00  0.0000E+00  0.1520E+00  0.1520E+00
     -3.974  0.0000E+00  0.0000E+00  0.1520E+00  0.1520E+00
     -3.935  0.0000E+00  0.0000E+00  0.1520E+00  0.1520E+00
     -3.897  0.0000E+00  0.0000E+00  0.1520E+00  0.1520E+00
     -3.858  0.0000E+00  0.0000E+00  0.1520E+00  0.1520E+00
     -3.819  0.0000E+00  0.0000E+00  0.1530E+00  0.1520E+00
     -3.780  0.0000E+00  0.0000E+00  0.1530E+00  0.1520E+00
     -3.741  0.0000E+00  0.0000E+00  0.1530E+00  0.1530E+00
     -3.702  0.0000E+00  0.0000E+00  0.1530E+00  0.1530E+00
     -3.663  0.0000E+00  0.0000E+00  0.1530E+00  0.1530E+00
     -3.624  0.0000E+00  0.0000E+00  0.1530E+00  0.1530E+00
     -3.585  0.0000E+00  0.0000E+00  0.1530E+00  0.1530E+00
     -3.546  0.0000E+00  0.0000E+00  0.1530E+00  0.1530E+00
     -3.507  0.0000E+00  0.0000E+00  0.1530E+00  0.1530E+00
     -3.469  0.0000E+00  0.0000E+00  0.1530E+00  0.1530E+00
     -3.430  0.0000E+00  0.0000E+00  0.1530E+00  0.1530E+00
     -3.391  0.0000E+00  0.0000E+00  0.1540E+00  0.1530E+00
     -3.352  0.0000E+00  0.0000E+00  0.1550E+00  0.1530E+00
     -3.313  0.0000E+00  0.0000E+00  0.1550E+00  0.1530E+00
     -3.274  0.0000E+00  0.0000E+00  0.1550E+00  0.1540E+00
     -3.235  0.0000E+00  0.0000E+00  0.1550E+00  0.1540E+00
     -3.196  0.0000E+00  0.0000E+00  0.1550E+00  0.1550E+00
     -3.157  0.0000E+00  0.0000E+00  0.1550E+00  0.1550E+00
     -3.118  0.0000E+00  0.0000E+00  0.1550E+00  0.1550E+00
     -3.080  0.0000E+00  0.0000E+00  0.1550E+00  0.1550E+00
     -3.041  0.0000E+00  0.0000E+00  0.1550E+00  0.1550E+00
     -3.002  0.0000E+00  0.0000E+00  0.1550E+00  0.1550E+00
     -2.963  0.0000E+00  0.0000E+00  0.1550E+00  0.1550E+00
     -2.924  0.0000E+00  0.0000E+00  0.1550E+00  0.1550E+00
     -2.885  0.0000E+00  0.0000E+00  0.1550E+00  0.1550E+00
     -2.846  0.0000E+00  0.0000E+00  0.1550E+00  0.1550E+00
     -2.807  0.0000E+00  0.0000E+00  0.1560E+00  0.1550E+00
     -2.768  0.0000E+00  0.0000E+00  0.1570E+00  0.1550E+00
     -2.729  0.0000E+00  0.0000E+00  0.1570E+00  0.1560E+00
     -2.690  0.0000E+00  0.0000E+00  0.1570E+00  0.1570E+00
     -2.652  0.0000E+00  0.0000E+00  0.1580E+00  0.1570E+00
     -2.613  0.0000E+00  0.0000E+00  0.1590E+00  0.1570E+00
     -2.574  0.3788E-08  0.0000E+00  0.1590E+00  0.1580E+00
     -2.535  0.0000E+00  0.0000E+00  0.1600E+00  0.1590E+00
     -2.496  0.0000E+00  0.0000E+00  0.1600E+00  0.1600E+00
     -2.457  0.0000E+00  0.0000E+00  0.1600E+00  0.1600E+00
     -2.418  0.0000E+00  0.0000E+00  0.1600E+00  0.1600E+00
     -2.379  0.0000E+00  0.0000E+00  0.1610E+00  0.1600E+00
     -2.340  0.0000E+00  0.0000E+00  0.1610E+00  0.1600E+00
     -2.301  0.0000E+00  0.0000E+00  0.1610E+00  0.1610E+00
     -2.263  0.0000E+00  0.0000E+00  0.1620E+00  0.1610E+00
     -2.224  0.0000E+00  0.0000E+00  0.1620E+00  0.1610E+00
     -2.185  0.0000E+00  0.0000E+00  0.1620E+00  0.1620E+00
     -2.146  0.0000E+00  0.0000E+00  0.1620E+00  0.1620E+00
     -2.107  0.0000E+00  0.0000E+00  0.1620E+00  0.1620E+00
     -2.068  0.0000E+00  0.0000E+00  0.1630E+00  0.1620E+00
     -2.029  0.0000E+00  0.0000E+00  0.1630E+00  0.1630E+00
     -1.990  0.0000E+00  0.0000E+00  0.1630E+00  0.1630E+00
     -1.951  0.0000E+00  0.0000E+00  0.1630E+00  0.1630E+00
     -1.912  0.0000E+00  0.0000E+00  0.1630E+00  0.1630E+00
     -1.873  0.0000E+00  0.0000E+00  0.1640E+00  0.1630E+00
     -1.835  0.0000E+00  0.0000E+00  0.1650E+00  0.1630E+00
     -1.796  0.0000E+00  0.2570E-01  0.1650E+00  0.1640E+00
     -1.757  0.0000E+00  0.0000E+00  0.1650E+00  0.1640E+00
     -1.718  0.0000E+00  0.0000E+00  0.1650E+00  0.1650E+00
     -1.679  0.0000E+00  0.0000E+00  0.1650E+00  0.1650E+00
     -1.640  0.0000E+00  0.0000E+00  0.1650E+00  0.1650E+00
     -1.601  0.0000E+00  0.0000E+00  0.1650E+00  0.1650E+00
     -1.562  0.0000E+00  0.0000E+00  0.1650E+00  0.1650E+00
     -1.523  0.0000E+00  0.0000E+00  0.1650E+00  0.1650E+00
     -1.484  0.0000E+00  0.0000E+00  0.1650E+00  0.1650E+00
     -1.446  0.0000E+00  0.0000E+00  0.1650E+00  0.1650E+00
     -1.407  0.0000E+00  0.0000E+00  0.1650E+00  0.1650E+00
     -1.368  0.0000E+00  0.0000E+00  0.1660E+00  0.1650E+00
     -1.329  0.0000E+00  0.0000E+00  0.1660E+00  0.1650E+00
     -1.290  0.0000E+00  0.0000E+00  0.1670E+00  0.1660E+00
     -1.251  0.0000E+00  0.0000E+00  0.1670E+00  0.1660E+00
     -1.212  0.0000E+00  0.0000E+00  0.1670E+00  0.1670E+00
     -1.173  0.0000E+00  0.0000E+00  0.1680E+00  0.1670E+00
     -1.134  0.0000E+00  0.0000E+00  0.1680E+00  0.1670E+00
     -1.095  0.0000E+00  0.0000E+00  0.1680E+00  0.1670E+00
     -1.056  0.0000E+00  0.0000E+00  0.1680E+00  0.1680E+00
     -1.018  0.0000E+00  0.0000E+00  0.1680E+00  0.1680E+00
     -0.979  0.0000E+00  0.0000E+00  0.1690E+00  0.1680E+00
     -0.940  0.0000E+00  0.0000E+00  0.1690E+00  0.1680E+00
     -0.901  0.0000E+00  0.0000E+00  0.1690E+00  0.1690E+00
     -0.862  0.0000E+00  0.0000E+00  0.1700E+00  0.1690E+00
     -0.823  0.0000E+00  0.0000E+00  0.1710E+00  0.1690E+00
     -0.784  0.0000E+00  0.0000E+00  0.1710E+00  0.1710E+00
     -0.745  0.0000E+00  0.0000E+00  0.1720E+00  0.1710E+00
     -0.706  0.0000E+00  0.0000E+00  0.1720E+00  0.1720E+00
     -0.667  0.0000E+00  0.0000E+00  0.1740E+00  0.1720E+00
     -0.629  0.0000E+00  0.0000E+00  0.1740E+00  0.1730E+00
     -0.590  0.0000E+00  0.0000E+00  0.1750E+00  0.1740E+00
     -0.551  0.0000E+00  0.0000E+00  0.1750E+00  0.1750E+00
     -0.512  0.0000E+00  0.0000E+00  0.1750E+00  0.1750E+00
     -0.473  0.0000E+00  0.0000E+00  0.1760E+00  0.1750E+00
     -0.434  0.0000E+00  0.0000E+00  0.1770E+00  0.1750E+00
     -0.395  0.0000E+00  0.0000E+00  0.1770E+00  0.1760E+00
     -0.356  0.0000E+00  0.0000E+00  0.1770E+00  0.1770E+00
     -0.317  0.0000E+00  0.0000E+00  0.1780E+00  0.1770E+00
     -0.278  0.0000E+00  0.0000E+00  0.1780E+00  0.1770E+00
     -0.239  0.0000E+00  0.0000E+00  0.1780E+00  0.1780E+00
     -0.201  0.0000E+00  0.0000E+00  0.1780E+00  0.1780E+00
     -0.162  0.0000E+00  0.0000E+00  0.1790E+00  0.1780E+00
     -0.123  0.0000E+00  0.0000E+00  0.1800E+00  0.1780E+00
     -0.084  0.0000E+00  0.2570E-01  0.1800E+00  0.1800E+00
     -0.045  0.0000E+00  0.0000E+00  0.1800E+00  0.1800E+00
     -0.006  0.0000E+00  0.0000E+00  0.1800E+00  0.1800E+00
      0.033  0.0000E+00  0.0000E+00  0.1810E+00  0.1800E+00
      0.072  0.0000E+00  0.0000E+00  0.1810E+00  0.1800E+00
      0.111  0.0000E+00  0.0000E+00  0.1810E+00  0.1810E+00
      0.150  0.0000E+00  0.0000E+00  0.1810E+00  0.1810E+00
      0.188  0.0000E+00  0.0000E+00  0.1820E+00  0.1810E+00
      0.227  0.0000E+00  0.0000E+00  0.1820E+00  0.1810E+00
      0.266  0.0000E+00  0.0000E+00  0.1820E+00  0.1810E+00
      0.305  0.0000E+00  0.0000E+00  0.1820E+00  0.1820E+00
      0.344  0.0000E+00  0.0000E+00  0.1820E+00  0.1820E+00
      0.383  0.0000E+00  0.0000E+00  0.1820E+00  0.1820E+00
      0.422  0.0000E+00  0.0000E+00  0.1820E+00  0.1820E+00
      0.461  0.0000E+00  0.0000E+00  0.1820E+00  0.1820E+00
      0.500  0.0000E+00  0.0000E+00  0.1830E+00  0.1820E+00
      0.539  0.0000E+00  0.0000E+00  0.1840E+00  0.1830E+00
      0.577  0.0000E+00  0.0000E+00  0.1840E+00  0.1840E+00
      0.616  0.0000E+00  0.0000E+00  0.1850E+00  0.1840E+00
      0.655  0.0000E+00  0.0000E+00  0.1850E+00  0.1850E+00
      0.694  0.0000E+00  0.0000E+00  0.1860E+00  0.1850E+00
      0.733  0.0000E+00  0.0000E+00  0.1880E+00  0.1860E+00
      0.772  0.0000E+00  0.0000E+00  0.1890E+00  0.1880E+00
      0.811  0.0000E+00  0.0000E+00  0.1900E+00  0.1890E+00
      0.850  0.0000E+00  0.0000E+00  0.1910E+00  0.1900E+00
      0.889  0.0000E+00  0.0000E+00  0.1920E+00  0.1910E+00
      0.928  0.0000E+00  0.0000E+00  0.1930E+00  0.1920E+00
      0.967  0.2570E-01  0.0000E+00  0.1940E+00  0.1930E+00
      1.005  0.0000E+00  0.3527E-02  0.1960E+00  0.1941E+00
      1.044  0.0000E+00  0.0000E+00  0.1970E+00  0.1960E+00
      1.083  0.0000E+00  0.0000E+00  0.1990E+00  0.1990E+00
      1.122  0.0000E+00  0.0000E+00  0.2000E+00  0.2000E+00
      1.161  0.0000E+00  0.0000E+00  0.2000E+00  0.2000E+00
      1.200  0.0000E+00  0.0000E+00  0.2000E+00  0.2000E+00
      1.239  0.0000E+00  0.0000E+00  0.2000E+00  0.2000E+00
      1.278  0.0000E+00  0.0000E+00  0.2000E+00  0.2000E+00
      1.317  0.0000E+00  0.0000E+00  0.2000E+00  0.2000E+00
      1.356  0.0000E+00  0.0000E+00  0.2000E+00  0.2000E+00
      1.394  0.0000E+00  0.0000E+00  0.2000E+00  0.2000E+00
      1.433  0.0000E+00  0.0000E+00  0.2000E+00  0.2000E+00
      1.472  0.0000E+00  0.0000E+00  0.2000E+00  0.2000E+00
      1.511  0.0000E+00  0.0000E+00  0.2000E+00  0.2000E+00
      1.550  0.0000E+00  0.0000E+00  0.2000E+00  0.2000E+00
      1.589  0.0000E+00  0.0000E+00  0.2000E+00  0.2000E+00
      1.628  0.0000E+00  0.0000E+00  0.2000E+00  0.2000E+00
