       N       E                     dE             d eps       ncg     rms          rms(c)
DAV:   1     0.778256349219E+03    0.77826E+03   -0.22651E+04   320   0.632E+02
DAV:   2     0.100661845997E+03   -0.67759E+03   -0.61944E+03   320   0.238E+02
DAV:   3    -0.137011442836E+02   -0.11436E+03   -0.10698E+03   384   0.109E+02
DAV:   4    -0.279138962297E+02   -0.14213E+02   -0.13109E+02   360   0.647E+01
DAV:   5    -0.283263309390E+02   -0.41243E+00   -0.41120E+00   376   0.872E+00    0.263E+01
DAV:   6    -0.996710993521E+01    0.18359E+02   -0.10072E+02   344   0.893E+01    0.107E+01
DAV:   7    -0.891177626195E+01    0.10553E+01   -0.28420E+01   392   0.600E+01    0.565E+00
DAV:   8    -0.495849886063E+01    0.39533E+01   -0.52045E+00   416   0.423E+01    0.416E+00
DAV:   9    -0.654314792637E+01   -0.15846E+01   -0.13849E+00   440   0.210E+01    0.278E+00
DAV:  10    -0.115263098633E+02   -0.49832E+01   -0.22713E+00   456   0.130E+01    0.205E+00
DAV:  11    -0.162919359491E+02   -0.47656E+01   -0.25541E+00   424   0.125E+01    0.136E+00
DAV:  12    -0.193047926453E+02   -0.30129E+01   -0.13269E+00   400   0.609E+00    0.917E-01
DAV:  13    -0.218121001815E+02   -0.25073E+01   -0.88255E-01   408   0.469E+00    0.722E-01
DAV:  14    -0.232841646185E+02   -0.14721E+01   -0.35360E-01   432   0.442E+00    0.452E-01
DAV:  15    -0.242642412707E+02   -0.98008E+00   -0.18066E-01   408   0.293E+00    0.284E-01
DAV:  16    -0.247419988220E+02   -0.47776E+00   -0.46688E-02   408   0.170E+00    0.218E-01
DAV:  17    -0.249364802720E+02   -0.19448E+00   -0.91842E-03   432   0.102E+00    0.115E-01
DAV:  18    -0.250704927013E+02   -0.13401E+00   -0.80393E-03   400   0.113E+00    0.933E-02
DAV:  19    -0.251057886305E+02   -0.35296E-01   -0.26924E-03   432   0.589E-01    0.687E-02
DAV:  20    -0.251200072428E+02   -0.14219E-01   -0.21919E-03   416   0.346E-01    0.307E-02
DAV:  21    -0.251248874706E+02   -0.48802E-02   -0.42533E-04   304   0.245E-01    0.253E-02
DAV:  22    -0.251262397318E+02   -0.13523E-02   -0.12462E-04   248   0.153E-01    0.149E-02
DAV:  23    -0.251278419580E+02   -0.16022E-02   -0.19675E-04   256   0.926E-02    0.149E-02
DAV:  24    -0.251292659204E+02   -0.14240E-02   -0.27948E-04   256   0.109E-01    0.124E-02
DAV:  25    -0.251297608365E+02   -0.49492E-03   -0.10700E-04   272   0.111E-01    0.101E-02
DAV:  26    -0.251299259648E+02   -0.16513E-03   -0.43226E-05   224   0.776E-02    0.860E-03
DAV:  27    -0.251299467180E+02   -0.20753E-04   -0.21644E-05   240   0.372E-02
   1 F= -.25129947E+02 E0= -.25129947E+02  d E =-.251299E+02  mag=     1.0010
       N       E                     dE             d eps       ncg     rms          rms(c)
DAV:   1    -0.252074013867E+02   -0.77475E-01   -0.51242E+00   352   0.799E+00    0.176E-01
DAV:   2    -0.252154409177E+02   -0.80395E-02   -0.86375E-02   464   0.176E+00    0.170E-01
DAV:   3    -0.252151643718E+02    0.27655E-03   -0.36433E-03   384   0.849E-01    0.106E-01
DAV:   4    -0.252151410144E+02    0.23357E-04   -0.52916E-04   352   0.293E-01
   2 F= -.25215141E+02 E0= -.25215141E+02  d E =-.851943E-01  mag=     1.0004
       N       E                     dE             d eps       ncg     rms          rms(c)
DAV:   1    -0.253195485359E+02   -0.10438E+00   -0.46710E+01   344   0.249E+01    0.557E-01
DAV:   2    -0.254004307134E+02   -0.80882E-01   -0.87113E-01   488   0.563E+00    0.574E-01
DAV:   3    -0.253964464994E+02    0.39842E-02   -0.29808E-02   360   0.352E+00    0.329E-01
DAV:   4    -0.253960135188E+02    0.43298E-03   -0.60187E-03   424   0.962E-01    0.263E-01
DAV:   5    -0.253957132177E+02    0.30030E-03   -0.40019E-03   536   0.863E-01    0.135E-01
DAV:   6    -0.253955205681E+02    0.19265E-03   -0.14756E-03   392   0.995E-01    0.438E-02
DAV:   7    -0.253955543677E+02   -0.33800E-04   -0.71720E-04   344   0.368E-01
   3 F= -.25395554E+02 E0= -.25395554E+02  d E =-.265608E+00  mag=     1.0001
       N       E                     dE             d eps       ncg     rms          rms(c)
DAV:   1    -0.252675887719E+02    0.12793E+00   -0.19759E+02   416   0.557E+01    0.997E-01
DAV:   2    -0.254307304021E+02   -0.16314E+00   -0.18301E+00   432   0.106E+01    0.100E+00
DAV:   3    -0.254220305964E+02    0.86998E-02   -0.15516E-01   360   0.805E+00    0.523E-01
DAV:   4    -0.254219234538E+02    0.10714E-03   -0.27271E-02   384   0.164E+00    0.363E-01
DAV:   5    -0.254219825177E+02   -0.59064E-04   -0.81087E-03   488   0.132E+00    0.144E-01
DAV:   6    -0.254217282082E+02    0.25431E-03   -0.28879E-03   352   0.162E+00    0.537E-02
DAV:   7    -0.254217759139E+02   -0.47706E-04   -0.10158E-03   392   0.578E-01    0.301E-02
DAV:   8    -0.254218512857E+02   -0.75372E-04   -0.12693E-04   224   0.232E-01
   4 F= -.25421851E+02 E0= -.25421851E+02  d E =-.291905E+00  mag=     1.0000
       N       E                     dE             d eps       ncg     rms          rms(c)
DAV:   1    -0.254081047449E+02    0.13671E-01   -0.36368E+01   336   0.217E+01    0.592E-01
DAV:   2    -0.254727108862E+02   -0.64606E-01   -0.73245E-01   512   0.910E+00    0.723E-01
DAV:   3    -0.254659764178E+02    0.67345E-02   -0.48027E-02   368   0.546E+00    0.305E-01
DAV:   4    -0.254663484650E+02   -0.37205E-03   -0.12188E-02   392   0.103E+00    0.251E-01
DAV:   5    -0.254661837592E+02    0.16471E-03   -0.17927E-03   384   0.583E-01    0.158E-01
DAV:   6    -0.254663282330E+02   -0.14447E-03   -0.15942E-03   464   0.421E-01    0.559E-02
DAV:   7    -0.254663326137E+02   -0.43807E-05   -0.39631E-04   336   0.376E-01
   5 F= -.25466333E+02 E0= -.25466333E+02  d E =-.336386E+00  mag=     1.0000
       N       E                     dE             d eps       ncg     rms          rms(c)
DAV:   1    -0.254763037400E+02   -0.99755E-02   -0.17914E+00   328   0.477E+00    0.929E-02
DAV:   2    -0.254786951327E+02   -0.23914E-02   -0.25717E-02   464   0.130E+00    0.111E-01
DAV:   3    -0.254786030661E+02    0.92067E-04   -0.13519E-03   384   0.729E-01    0.629E-02
DAV:   4    -0.254785957140E+02    0.73520E-05   -0.23333E-04   256   0.238E-01
   6 F= -.25478596E+02 E0= -.25478596E+02  d E =-.122631E-01  mag=     1.0000
       N       E                     dE             d eps       ncg     rms          rms(c)
DAV:   1    -0.254771275372E+02    0.14755E-02   -0.16153E+01   336   0.145E+01    0.306E-01
DAV:   2    -0.255027403213E+02   -0.25613E-01   -0.27729E-01   464   0.405E+00    0.361E-01
DAV:   3    -0.255014201989E+02    0.13201E-02   -0.12185E-02   400   0.223E+00    0.210E-01
DAV:   4    -0.255012950051E+02    0.12519E-03   -0.28443E-03   368   0.779E-01    0.171E-01
DAV:   5    -0.255011561356E+02    0.13887E-03   -0.10589E-03   408   0.561E-01    0.983E-02
DAV:   6    -0.255011792092E+02   -0.23074E-04   -0.10437E-03   464   0.384E-01    0.320E-02
DAV:   7    -0.255011802350E+02   -0.10258E-05   -0.12414E-04   240   0.264E-01
   7 F= -.25501180E+02 E0= -.25501180E+02  d E =-.348476E-01  mag=     1.0000
       N       E                     dE             d eps       ncg     rms          rms(c)
DAV:   1    -0.253736517256E+02    0.12753E+00   -0.65326E+01   336   0.300E+01    0.632E-01
DAV:   2    -0.254865581647E+02   -0.11291E+00   -0.12170E+00   456   0.812E+00    0.670E-01
DAV:   3    -0.254820664469E+02    0.44917E-02   -0.47798E-02   384   0.479E+00    0.377E-01
DAV:   4    -0.254821373900E+02   -0.70943E-04   -0.11784E-02   368   0.160E+00    0.310E-01
DAV:   5    -0.254818559736E+02    0.28142E-03   -0.44554E-03   408   0.984E-01    0.180E-01
DAV:   6    -0.254819758464E+02   -0.11987E-03   -0.34238E-03   488   0.744E-01    0.689E-02
DAV:   7    -0.254820231942E+02   -0.47348E-04   -0.47454E-04   360   0.490E-01
   8 F= -.25482023E+02 E0= -.25482023E+02  d E =-.156906E-01  mag=     1.0000
       N       E                     dE             d eps       ncg     rms          rms(c)
DAV:   1    -0.254559582750E+02    0.26018E-01   -0.32658E+01   336   0.207E+01    0.575E-01
DAV:   2    -0.255116140484E+02   -0.55656E-01   -0.65334E-01   480   0.841E+00    0.705E-01
DAV:   3    -0.255048982736E+02    0.67158E-02   -0.47445E-02   360   0.490E+00    0.314E-01
DAV:   4    -0.255049141465E+02   -0.15873E-04   -0.10225E-02   384   0.938E-01    0.249E-01
DAV:   5    -0.255046054130E+02    0.30873E-03   -0.15843E-03   360   0.685E-01    0.181E-01
DAV:   6    -0.255045381883E+02    0.67225E-04   -0.22055E-03   456   0.722E-01    0.863E-02
DAV:   7    -0.255045757889E+02   -0.37601E-04   -0.80771E-04   392   0.559E-01
   9 F= -.25504576E+02 E0= -.25504576E+02  d E =-.382432E-01  mag=     1.0000
       N       E                     dE             d eps       ncg     rms          rms(c)
DAV:   1    -0.255090949752E+02   -0.45568E-02   -0.65321E+00   352   0.911E+00    0.202E-01
DAV:   2    -0.255181091657E+02   -0.90142E-02   -0.98871E-02   488   0.291E+00    0.246E-01
DAV:   3    -0.255175864420E+02    0.52272E-03   -0.73109E-03   368   0.170E+00    0.135E-01
DAV:   4    -0.255175648230E+02    0.21619E-04   -0.12780E-03   360   0.464E-01    0.111E-01
DAV:   5    -0.255175321089E+02    0.32714E-04   -0.41236E-04   312   0.257E-01
  10 F= -.25517532E+02 E0= -.25517532E+02  d E =-.129563E-01  mag=     1.0000
       N       E                     dE             d eps       ncg     rms          rms(c)
DAV:   1    -0.254786325545E+02    0.38932E-01   -0.30850E+01   336   0.201E+01    0.461E-01
DAV:   2    -0.255280136379E+02   -0.49381E-01   -0.53889E-01   464   0.620E+00    0.525E-01
DAV:   3    -0.255250898707E+02    0.29238E-02   -0.27978E-02   368   0.352E+00    0.292E-01
DAV:   4    -0.255249453127E+02    0.14456E-03   -0.65536E-03   392   0.108E+00    0.239E-01
DAV:   5    -0.255247340669E+02    0.21125E-03   -0.21813E-03   400   0.679E-01    0.136E-01
DAV:   6    -0.255250228549E+02   -0.28879E-03   -0.20488E-03   464   0.473E-01    0.451E-02
DAV:   7    -0.255250671825E+02   -0.44328E-04   -0.27952E-04   272   0.374E-01
  11 F= -.25525067E+02 E0= -.25525067E+02  d E =-.204914E-01  mag=     1.0000
       N       E                     dE             d eps       ncg     rms          rms(c)
DAV:   1    -0.255268765691E+02   -0.18537E-02   -0.15348E+00   328   0.441E+00    0.909E-02
DAV:   2    -0.255287138476E+02   -0.18373E-02   -0.20206E-02   448   0.130E+00    0.104E-01
DAV:   3    -0.255286898179E+02    0.24030E-04   -0.18618E-03   368   0.800E-01    0.558E-02
DAV:   4    -0.255286952127E+02   -0.53948E-05   -0.25184E-04   232   0.268E-01
  12 F= -.25528695E+02 E0= -.25528695E+02  d E =-.362803E-02  mag=     1.0000
       N       E                     dE             d eps       ncg     rms          rms(c)
DAV:   1    -0.255283599793E+02    0.32984E-03   -0.16238E+00   336   0.455E+00    0.879E-02
DAV:   2    -0.255303719564E+02   -0.20120E-02   -0.21585E-02   440   0.108E+00    0.873E-02
DAV:   3    -0.255303736772E+02   -0.17208E-05   -0.13224E-03   384   0.511E-01    0.636E-02
DAV:   4    -0.255303591792E+02    0.14498E-04   -0.16578E-04   208   0.324E-01
  13 F= -.25530359E+02 E0= -.25530359E+02  d E =-.529200E-02  mag=     1.0000
       N       E                     dE             d eps       ncg     rms          rms(c)
DAV:   1    -0.255306653123E+02   -0.29164E-03   -0.88451E-01   336   0.331E+00    0.692E-02
DAV:   2    -0.255317849985E+02   -0.11197E-02   -0.12382E-02   456   0.770E-01    0.630E-02
DAV:   3    -0.255317230564E+02    0.61942E-04   -0.49770E-04   360   0.350E-01
  14 F= -.25531723E+02 E0= -.25531723E+02  d E =-.136388E-02  mag=     1.0000
       N       E                     dE             d eps       ncg     rms          rms(c)
DAV:   1    -0.255312032253E+02    0.58177E-03   -0.84631E-01   344   0.325E+00    0.759E-02
DAV:   2    -0.255321568766E+02   -0.95365E-03   -0.12085E-02   480   0.878E-01    0.859E-02
DAV:   3    -0.255320812066E+02    0.75670E-04   -0.68956E-04   368   0.530E-01
  15 F= -.25532081E+02 E0= -.25532081E+02  d E =-.172203E-02  mag=     1.0000
       N       E                     dE             d eps       ncg     rms          rms(c)
DAV:   1    -0.255319972896E+02    0.15959E-03   -0.86771E-01   336   0.334E+00    0.860E-02
DAV:   2    -0.255327545893E+02   -0.75730E-03   -0.12468E-02   464   0.869E-01    0.880E-02
DAV:   3    -0.255326646181E+02    0.89971E-04   -0.90558E-04   360   0.592E-01
  16 F= -.25532665E+02 E0= -.25532665E+02  d E =-.583412E-03  mag=     1.0000
       N       E                     dE             d eps       ncg     rms          rms(c)
DAV:   1    -0.255292441141E+02    0.35105E-02   -0.31842E+00   336   0.640E+00    0.152E-01
DAV:   2    -0.255327114406E+02   -0.34673E-02   -0.47933E-02   464   0.176E+00    0.171E-01
DAV:   3    -0.255324647721E+02    0.24667E-03   -0.34094E-03   360   0.112E+00    0.101E-01
DAV:   4    -0.255324288971E+02    0.35875E-04   -0.69819E-04   360   0.571E-01
  17 F= -.25532429E+02 E0= -.25532429E+02  d E =-.347690E-03  mag=     1.0000
