unknown system                          
           1
    19.780258    0.000000    0.000000
     0.000000   19.780258    0.000000
     0.000000    0.000000   19.780258
   Ag
  12
Direct configuration=     1
   0.56179389  0.43970639  0.57497622
   0.56179389  0.58184655  0.57518021
   0.43493958  0.51148018  0.57266108
   0.45230634  0.63802579  0.50000000
   0.56179389  0.58184655  0.42481979
   0.56179389  0.43970639  0.42502378
   0.43493958  0.51148018  0.42733892
   0.66596205  0.51134989  0.50000000
   0.66260289  0.37077807  0.50000000
   0.32518838  0.44519914  0.50000000
   0.45370263  0.38381627  0.50000000
   0.32318300  0.58476461  0.50000000
Direct configuration=     2
   0.56177546  0.43972477  0.57477441
   0.56181748  0.58172633  0.57498074
   0.43496725  0.51149316  0.57250617
   0.45224358  0.63787421  0.50000000
   0.56181748  0.58172633  0.42501926
   0.56177546  0.43972477  0.42522559
   0.43496725  0.51149316  0.42749383
   0.66578526  0.51143749  0.50000000
   0.66244231  0.37087008  0.50000000
   0.32527030  0.44525055  0.50000000
   0.45375432  0.38403180  0.50000000
   0.32338385  0.58464734  0.50000000
Direct configuration=     3
   0.56172016  0.43977992  0.57416896
   0.56188827  0.58136568  0.57438234
   0.43505028  0.51153211  0.57204144
   0.45205531  0.63741944  0.50000000
   0.56188827  0.58136568  0.42561766
   0.56172016  0.43977992  0.42583104
   0.43505028  0.51153211  0.42795856
   0.66525488  0.51170029  0.50000000
   0.66196056  0.37114614  0.50000000
   0.32551605  0.44540480  0.50000000
   0.45390937  0.38467840  0.50000000
   0.32398641  0.58429553  0.50000000
Direct configuration=     4
   0.56160956  0.43989022  0.57295806
   0.56202984  0.58064439  0.57318552
   0.43521633  0.51161000  0.57111197
   0.45167877  0.63650990  0.50000000
   0.56202984  0.58064439  0.42681448
   0.56160956  0.43989022  0.42704194
   0.43521633  0.51161000  0.42888803
   0.66419414  0.51222588  0.50000000
   0.66099706  0.37169824  0.50000000
   0.32600756  0.44571329  0.50000000
   0.45421949  0.38597158  0.50000000
   0.32519152  0.58359190  0.50000000
Direct configuration=     5
   0.56138837  0.44011081  0.57053627
   0.56231298  0.57920180  0.57079190
   0.43554843  0.51176579  0.56925304
   0.45092569  0.63469084  0.50000000
   0.56231298  0.57920180  0.42920810
   0.56138837  0.44011081  0.42946373
   0.43554843  0.51176579  0.43074696
   0.66207266  0.51327705  0.50000000
   0.65907006  0.37280244  0.50000000
   0.32699057  0.44633027  0.50000000
   0.45483971  0.38855796  0.50000000
   0.32760175  0.58218465  0.50000000
Direct configuration=     6
   0.56151115  0.43998836  0.57188055
   0.56215581  0.58000255  0.57212054
   0.43536409  0.51167931  0.57028489
   0.45134371  0.63570056  0.50000000
   0.56215581  0.58000255  0.42787946
   0.56151115  0.43998836  0.42811945
   0.43536409  0.51167931  0.42971511
   0.66325024  0.51269357  0.50000000
   0.66013970  0.37218952  0.50000000
   0.32644492  0.44598780  0.50000000
   0.45449544  0.38712232  0.50000000
   0.32626389  0.58296579  0.50000000
Direct configuration=     7
   0.56143306  0.43997119  0.57190274
   0.56214293  0.57995817  0.57192505
   0.43545008  0.51170494  0.57041222
   0.45149461  0.63578612  0.50000000
   0.56214293  0.57995817  0.42807495
   0.56143306  0.43997119  0.42809726
   0.43545008  0.51170494  0.42958778
   0.66337051  0.51291089  0.50000000
   0.65997823  0.37220126  0.50000000
   0.32642820  0.44584223  0.50000000
   0.45434621  0.38721439  0.50000000
   0.32633011  0.58277651  0.50000000
Direct configuration=     8
   0.56119877  0.43991967  0.57196932
   0.56210428  0.57982504  0.57133856
   0.43570806  0.51178182  0.57079421
   0.45194730  0.63604279  0.50000000
   0.56210428  0.57982504  0.42866144
   0.56119877  0.43991967  0.42803068
   0.43570806  0.51178182  0.42920579
   0.66373129  0.51356287  0.50000000
   0.65949384  0.37223646  0.50000000
   0.32637803  0.44540552  0.50000000
   0.45389852  0.38749060  0.50000000
   0.32652878  0.58220869  0.50000000
Direct configuration=     9
   0.56073021  0.43981662  0.57210247
   0.56202699  0.57955879  0.57016558
   0.43622402  0.51193558  0.57155819
   0.45285269  0.63655615  0.50000000
   0.56202699  0.57955879  0.42983442
   0.56073021  0.43981662  0.42789753
   0.43622402  0.51193558  0.42844181
   0.66445287  0.51486681  0.50000000
   0.65852506  0.37230688  0.50000000
   0.32627768  0.44453211  0.50000000
   0.45300314  0.38804302  0.50000000
   0.32692613  0.58107304  0.50000000
Direct configuration=    10
   0.56081466  0.43976974  0.57202484
   0.56227070  0.57966661  0.57073037
   0.43597367  0.51206028  0.57125807
   0.45207788  0.63641872  0.50000000
   0.56227070  0.57966661  0.42926963
   0.56081466  0.43976974  0.42797516
   0.43597367  0.51206028  0.42874193
   0.66467179  0.51443639  0.50000000
   0.65831812  0.37263773  0.50000000
   0.32617067  0.44446914  0.50000000
   0.45304170  0.38805894  0.50000000
   0.32760177  0.58098580  0.50000000
Direct configuration=    11
   0.56083419  0.43975890  0.57200688
   0.56232706  0.57969154  0.57086099
   0.43591577  0.51208912  0.57118867
   0.45189870  0.63638694  0.50000000
   0.56232706  0.57969154  0.42913901
   0.56083419  0.43975890  0.42799312
   0.43591577  0.51208912  0.42881133
   0.66472242  0.51433686  0.50000000
   0.65827027  0.37271424  0.50000000
   0.32614592  0.44445458  0.50000000
   0.45305062  0.38806262  0.50000000
   0.32775803  0.58096563  0.50000000
