   49   49 1000    2
  0.2409501E+03  0.2277060E-08  0.2277060E-08  0.2277060E-08  0.1000000E-15
  1.000000000000000E-004
  CAR 
 unknown system                          
    539      1    348
 
  0.0000000E+00  0.0000000E+00  0.0000000E+00  0.1000000E+01
    1       -9.695648     -9.683797
    2       -9.198493     -9.191463
    3       -9.111713     -9.105074
    4       -9.047273     -9.038831
    5       -9.036759     -9.030952
    6       -8.995634     -8.989119
    7       -8.959513     -8.949681
    8       -8.926754     -8.918324
    9       -8.885892     -8.877137
   10       -8.871952     -8.866836
   11       -8.839829     -8.831799
   12       -8.798689     -8.789346
   13       -8.785701     -8.777940
   14       -8.772082     -8.761800
   15       -8.746800     -8.740541
   16       -8.727537     -8.720151
   17       -8.686712     -8.678754
   18       -8.677459     -8.667511
   19       -8.674261     -8.666493
   20       -8.651850     -8.640779
   21       -8.643892     -8.633946
   22       -8.625757     -8.614959
   23       -8.610445     -8.603514
   24       -8.593899     -8.586957
   25       -8.584990     -8.578544
   26       -8.574845     -8.567333
   27       -8.559231     -8.552045
   28       -8.538578     -8.532023
   29       -8.534448     -8.527691
   30       -8.519866     -8.511495
   31       -8.500158     -8.490767
   32       -8.479991     -8.471310
   33       -8.468505     -8.460914
   34       -8.451745     -8.445820
   35       -8.444431     -8.437163
   36       -8.439441     -8.432952
   37       -8.419011     -8.409281
   38       -8.402707     -8.394434
   39       -8.384006     -8.374729
   40       -8.365600     -8.357697
   41       -8.362459     -8.354828
   42       -8.348943     -8.340811
   43       -8.324887     -8.318334
   44       -8.321198     -8.313593
   45       -8.312582     -8.304707
   46       -8.292130     -8.282353
   47       -8.287113     -8.278877
   48       -8.274683     -8.267638
   49       -8.263691     -8.256764
   50       -8.238727     -8.230523
   51       -8.236418     -8.228032
   52       -8.232200     -8.223870
   53       -8.214101     -8.206333
   54       -8.203469     -8.196109
   55       -8.195072     -8.188276
   56       -8.177272     -8.171190
   57       -8.157879     -8.150321
   58       -8.150857     -8.143593
   59       -8.137899     -8.129170
   60       -8.123107     -8.117210
   61       -8.111468     -8.104248
   62       -8.098460     -8.091264
   63       -8.086074     -8.079525
   64       -8.066212     -8.058779
   65       -8.060359     -8.053151
   66       -8.055581     -8.048318
   67       -8.023359     -8.016771
   68       -8.013868     -8.005782
   69       -8.004365     -7.997611
   70       -7.994008     -7.986010
   71       -7.989509     -7.982438
   72       -7.983476     -7.976267
   73       -7.959786     -7.952648
   74       -7.944508     -7.937743
   75       -7.929456     -7.921561
   76       -7.907464     -7.900451
   77       -7.900959     -7.894034
   78       -7.870519     -7.864163
   79       -7.858050     -7.850922
   80       -7.842206     -7.836462
   81       -7.837772     -7.830901
   82       -7.834487     -7.827271
   83       -7.817528     -7.811834
   84       -7.805946     -7.798641
   85       -7.795719     -7.790099
   86       -7.769269     -7.764517
   87       -7.765705     -7.759580
   88       -7.759220     -7.753033
   89       -7.748093     -7.742023
   90       -7.735142     -7.727067
   91       -7.728530     -7.720755
   92       -7.705108     -7.697799
   93       -7.694035     -7.686941
   94       -7.684198     -7.677241
   95       -7.671659     -7.665287
   96       -7.665057     -7.658827
   97       -7.649560     -7.642906
   98       -7.636887     -7.630312
   99       -7.631425     -7.625289
  100       -7.610232     -7.602916
  101       -7.586338     -7.579799
  102       -7.563536     -7.556826
  103       -7.550756     -7.544438
  104       -7.526873     -7.519813
  105       -7.518620     -7.511854
  106       -7.504374     -7.498152
  107       -7.490117     -7.483488
  108       -7.486587     -7.480618
  109       -7.462929     -7.457387
  110       -7.457559     -7.451522
  111       -7.450877     -7.443735
  112       -7.425143     -7.418143
  113       -7.423195     -7.417151
  114       -7.413598     -7.406460
  115       -7.392370     -7.384742
  116       -7.387924     -7.381218
  117       -7.382069     -7.374608
  118       -7.363804     -7.356422
  119       -7.353284     -7.347515
  120       -7.335627     -7.327857
  121       -7.322416     -7.314881
  122       -7.308997     -7.302682
  123       -7.304184     -7.297283
  124       -7.285044     -7.278443
  125       -7.279987     -7.273293
  126       -7.264564     -7.257264
  127       -7.256287     -7.248986
  128       -7.243416     -7.237727
  129       -7.241428     -7.235239
  130       -7.211226     -7.204005
  131       -7.197674     -7.191890
  132       -7.186340     -7.180589
  133       -7.180066     -7.173509
  134       -7.162748     -7.155432
  135       -7.155403     -7.149573
  136       -7.137254     -7.130330
  137       -7.124512     -7.117322
  138       -7.109468     -7.101726
  139       -7.099119     -7.093017
  140       -7.090969     -7.084668
  141       -7.090344     -7.083737
  142       -7.080872     -7.073809
  143       -7.057887     -7.051852
  144       -7.037037     -7.030537
  145       -7.031087     -7.026368
  146       -7.013155     -7.006617
  147       -7.000881     -6.995246
  148       -6.996992     -6.990291
  149       -6.980843     -6.974874
  150       -6.970724     -6.964639
  151       -6.957912     -6.952247
  152       -6.945760     -6.939207
  153       -6.928953     -6.921774
  154       -6.917599     -6.911392
  155       -6.914943     -6.907820
  156       -6.899735     -6.893119
  157       -6.889981     -6.883369
  158       -6.876340     -6.870082
  159       -6.872634     -6.866377
  160       -6.859007     -6.853561
  161       -6.857047     -6.851061
  162       -6.844022     -6.838222
  163       -6.833923     -6.827660
  164       -6.827733     -6.821221
  165       -6.805352     -6.799129
  166       -6.799897     -6.794342
  167       -6.790513     -6.784539
  168       -6.788933     -6.782414
  169       -6.772752     -6.767820
  170       -6.761648     -6.756813
  171       -6.751301     -6.745143
  172       -6.745509     -6.740374
  173       -6.728866     -6.723487
  174       -6.720330     -6.715092
  175       -6.715515     -6.709086
  176       -6.712251     -6.707187
  177       -6.699684     -6.694773
  178       -6.688177     -6.681955
  179       -6.671590     -6.666133
  180       -6.664249     -6.658904
  181       -6.654392     -6.649266
  182       -6.647287     -6.640840
  183       -6.638266     -6.632936
  184       -6.619863     -6.615219
  185       -6.615591     -6.611292
  186       -6.612419     -6.607556
  187       -6.602354     -6.596681
  188       -6.590835     -6.585810
  189       -6.585104     -6.579821
  190       -6.580469     -6.574134
  191       -6.571871     -6.565834
  192       -6.561035     -6.555241
  193       -6.556727     -6.551105
  194       -6.553138     -6.546402
  195       -6.546671     -6.541210
  196       -6.536951     -6.531965
  197       -6.526034     -6.521028
  198       -6.515247     -6.509223
  199       -6.507650     -6.503716
  200       -6.495007     -6.488925
  201       -6.485547     -6.480196
  202       -6.477779     -6.471867
  203       -6.474392     -6.468196
  204       -6.467570     -6.461657
  205       -6.454202     -6.448734
  206       -6.449023     -6.443696
  207       -6.438946     -6.433823
  208       -6.431181     -6.425182
  209       -6.429000     -6.423602
  210       -6.416625     -6.411544
  211       -6.408330     -6.402475
  212       -6.400993     -6.395448
  213       -6.390827     -6.385590
  214       -6.371577     -6.366185
  215       -6.367921     -6.361623
  216       -6.365800     -6.360558
  217       -6.354352     -6.349216
  218       -6.349092     -6.342891
  219       -6.339948     -6.334383
  220       -6.331302     -6.324818
  221       -6.326362     -6.320593
  222       -6.314872     -6.309682
  223       -6.309878     -6.304616
  224       -6.302388     -6.296529
  225       -6.291667     -6.285587
  226       -6.282512     -6.277095
  227       -6.270171     -6.265511
  228       -6.256214     -6.251266
  229       -6.248339     -6.242073
  230       -6.241170     -6.235250
  231       -6.226274     -6.220505
  232       -6.223212     -6.218107
  233       -6.207888     -6.202703
  234       -6.199458     -6.194423
  235       -6.194353     -6.188191
  236       -6.184817     -6.177801
  237       -6.159454     -6.153880
  238       -6.153262     -6.147601
  239       -6.144582     -6.139832
  240       -6.128998     -6.122299
  241       -6.123228     -6.116916
  242       -6.116690     -6.111554
  243       -6.095872     -6.090498
  244       -6.065375     -6.059885
  245       -6.057597     -6.052240
  246       -6.051265     -6.046642
  247       -6.041518     -6.035265
  248       -6.019257     -6.014544
  249       -6.009019     -6.004410
  250       -5.991953     -5.981772
  251       -5.975263     -5.964846
  252       -5.922627     -5.917209
  253       -5.892437     -5.882737
  254       -5.806126     -5.791187
  255       -5.452303     -5.439958
  256       -5.193111     -5.171144
  257       -5.152968     -5.139088
  258       -4.919424     -4.905751
  259       -4.859780     -4.842343
  260       -4.705809     -4.690089
  261       -4.683544     -4.650915
  262       -4.455370     -4.437996
  263       -4.098978     -4.083196
  264       -3.943446     -3.930880
  265       -3.796282     -3.776349
  266       -3.719919     -3.703684
  267       -3.579998     -3.562627
  268       -3.511505     -3.493813
  269       -3.421154     -3.406480
  270       -3.342684     -3.279048
  271       -3.076929     -3.058649
  272       -2.974846     -2.957097
  273       -2.962961     -2.943124
  274       -2.806774     -2.788022
  275       -2.568920     -2.554093
  276       -2.347255     -2.329349
  277       -2.309049     -2.292932
  278       -2.253585     -2.230216
  279       -2.222414     -2.207994
  280       -2.076761     -2.055351
  281       -2.033764     -2.014556
  282       -1.955432     -1.926801
  283       -1.891815     -1.872483
  284       -1.828776     -1.810416
  285       -1.709782     -1.677248
  286       -1.602593     -1.570378
  287       -1.512391     -1.484690
  288       -1.382059     -1.364332
  289       -1.290644     -1.274015
  290       -1.246970     -1.224770
  291       -1.157172     -1.138653
  292       -1.074946     -1.053547
  293       -0.979064     -0.962009
  294       -0.923740     -0.906150
  295       -0.812124     -0.794301
  296       -0.750660     -0.727753
  297       -0.681688     -0.662089
  298       -0.563951     -0.549059
  299       -0.536821     -0.524086
  300       -0.474985     -0.458282
  301       -0.358217     -0.337905
  302       -0.296453     -0.262694
  303       -0.144270     -0.113679
  304       -0.089809     -0.064685
  305       -0.003890      0.013917
  306        0.058859      0.081104
  307        0.211734      0.225036
  308        0.258722      0.280119
  309        0.290640      0.312799
  310        0.411217      0.435872
  311        0.449482      0.467322
  312        0.467314      0.481821
  313        0.556488      0.580402
  314        0.650068      0.665499
  315        0.695383      0.713427
  316        0.730523      0.745689
  317        0.779893      0.793758
  318        0.819143      0.830185
  319        0.864384      0.877503
  320        0.914984      0.923841
  321        0.931651      0.940273
  322        0.952049      0.967756
  323        1.017701      1.040417
  324        1.055360      1.061140
  325        1.064723      1.075184
  326        1.067554      1.084881
  327        1.104443      1.111188
  328        1.120423      1.132919
  329        1.139736      1.153111
  330        1.156781      1.169597
  331        1.195350      1.208477
  332        1.213386      1.220533
  333        1.232305      1.231212
  334        1.257756      1.257887
  335        1.270108      1.281160
  336        1.296346      1.297506
  337        1.305778      1.322272
  338        1.349201      1.363268
  339        1.402902      1.415004
  340        1.437955      1.457548
  341        1.446717      1.473498
  342        1.479522      1.482704
  343        1.501864      1.497659
  344        1.507646      1.510258
  345        1.527612      1.530776
  346        1.539718      1.559339
  347        1.570096      1.587352
  348        1.580028      1.594273
