   32   32 1000    2
  0.3559434E+03  0.2249971E-08  0.2249971E-08  0.2249971E-08  0.1000000E-15
  1.000000000000000E-004
  CAR 
 unknown system                          
    352      1    228
 
  0.0000000E+00  0.0000000E+00  0.0000000E+00  0.1000000E+01
    1       -9.555454     -9.555454
    2       -9.137738     -9.137738
    3       -9.131167     -9.131167
    4       -9.053739     -9.053739
    5       -8.998599     -8.998599
    6       -8.972514     -8.972514
    7       -8.958532     -8.958532
    8       -8.923991     -8.923991
    9       -8.915586     -8.915586
   10       -8.883974     -8.883974
   11       -8.876187     -8.876187
   12       -8.843921     -8.843921
   13       -8.816795     -8.816795
   14       -8.798307     -8.798307
   15       -8.780022     -8.780022
   16       -8.737558     -8.737558
   17       -8.716250     -8.716250
   18       -8.689935     -8.689935
   19       -8.676352     -8.676352
   20       -8.664053     -8.664053
   21       -8.645045     -8.645045
   22       -8.628760     -8.628760
   23       -8.595111     -8.595111
   24       -8.561853     -8.561853
   25       -8.557825     -8.557825
   26       -8.517299     -8.517299
   27       -8.501884     -8.501884
   28       -8.480900     -8.480900
   29       -8.476747     -8.476747
   30       -8.462406     -8.462406
   31       -8.442627     -8.442627
   32       -8.410620     -8.410620
   33       -8.389651     -8.389651
   34       -8.375387     -8.375387
   35       -8.361614     -8.361614
   36       -8.338576     -8.338576
   37       -8.321427     -8.321427
   38       -8.304458     -8.304458
   39       -8.287932     -8.287932
   40       -8.279060     -8.279060
   41       -8.259714     -8.259714
   42       -8.229732     -8.229732
   43       -8.208174     -8.208174
   44       -8.184660     -8.184660
   45       -8.175030     -8.175030
   46       -8.152535     -8.152534
   47       -8.128342     -8.128342
   48       -8.123041     -8.123041
   49       -8.082322     -8.082322
   50       -8.074306     -8.074306
   51       -8.050926     -8.050926
   52       -8.033073     -8.033073
   53       -8.025331     -8.025331
   54       -7.991148     -7.991148
   55       -7.974737     -7.974737
   56       -7.934889     -7.934889
   57       -7.923171     -7.923171
   58       -7.904983     -7.904983
   59       -7.880114     -7.880114
   60       -7.870289     -7.870289
   61       -7.842842     -7.842842
   62       -7.833214     -7.833214
   63       -7.821461     -7.821461
   64       -7.787423     -7.787423
   65       -7.775920     -7.775920
   66       -7.754318     -7.754318
   67       -7.738257     -7.738257
   68       -7.680882     -7.680882
   69       -7.671405     -7.671405
   70       -7.656726     -7.656726
   71       -7.648947     -7.648947
   72       -7.639109     -7.639109
   73       -7.602051     -7.602051
   74       -7.596680     -7.596680
   75       -7.564158     -7.564158
   76       -7.543282     -7.543282
   77       -7.530862     -7.530862
   78       -7.507670     -7.507670
   79       -7.481829     -7.481829
   80       -7.476700     -7.476700
   81       -7.444778     -7.444778
   82       -7.426856     -7.426856
   83       -7.420551     -7.420551
   84       -7.409741     -7.409741
   85       -7.378529     -7.378529
   86       -7.367503     -7.367503
   87       -7.346277     -7.346277
   88       -7.307188     -7.307188
   89       -7.291525     -7.291525
   90       -7.271407     -7.271407
   91       -7.257625     -7.257625
   92       -7.229717     -7.229717
   93       -7.207149     -7.207149
   94       -7.200455     -7.200455
   95       -7.174599     -7.174599
   96       -7.169807     -7.169807
   97       -7.157603     -7.157603
   98       -7.145614     -7.145614
   99       -7.113487     -7.113487
  100       -7.098381     -7.098381
  101       -7.079903     -7.079903
  102       -7.069549     -7.069549
  103       -7.055929     -7.055928
  104       -7.034363     -7.034363
  105       -7.031218     -7.031218
  106       -7.022335     -7.022335
  107       -7.007858     -7.007858
  108       -6.991696     -6.991696
  109       -6.965109     -6.965109
  110       -6.952302     -6.952302
  111       -6.943028     -6.943028
  112       -6.925887     -6.925887
  113       -6.920446     -6.920446
  114       -6.913482     -6.913482
  115       -6.900809     -6.900809
  116       -6.892022     -6.892022
  117       -6.881325     -6.881325
  118       -6.872251     -6.872251
  119       -6.865071     -6.865071
  120       -6.839711     -6.839711
  121       -6.832299     -6.832299
  122       -6.818915     -6.818915
  123       -6.815363     -6.815362
  124       -6.795985     -6.795985
  125       -6.783700     -6.783700
  126       -6.767595     -6.767595
  127       -6.763594     -6.763594
  128       -6.753993     -6.753993
  129       -6.742565     -6.742565
  130       -6.722358     -6.722358
  131       -6.718202     -6.718202
  132       -6.707740     -6.707740
  133       -6.684867     -6.684867
  134       -6.673199     -6.673199
  135       -6.663034     -6.663034
  136       -6.649371     -6.649371
  137       -6.629077     -6.629077
  138       -6.613227     -6.613227
  139       -6.605699     -6.605699
  140       -6.579445     -6.579445
  141       -6.569283     -6.569283
  142       -6.554916     -6.554916
  143       -6.549465     -6.549465
  144       -6.542354     -6.542354
  145       -6.533804     -6.533804
  146       -6.517249     -6.517249
  147       -6.514167     -6.514167
  148       -6.483780     -6.483780
  149       -6.479934     -6.479934
  150       -6.465042     -6.465042
  151       -6.445836     -6.445836
  152       -6.429104     -6.429104
  153       -6.427279     -6.427279
  154       -6.422224     -6.422224
  155       -6.401790     -6.401790
  156       -6.390163     -6.390163
  157       -6.364132     -6.364132
  158       -6.359641     -6.359641
  159       -6.347832     -6.347832
  160       -6.322547     -6.322547
  161       -6.266658     -6.266658
  162       -6.238779     -6.238779
  163       -6.234635     -6.234635
  164       -6.194436     -6.194436
  165       -5.980968     -5.980968
  166       -5.814677     -5.814677
  167       -5.639680     -5.639680
  168       -5.230976     -5.230976
  169       -5.069540     -5.069540
  170       -4.677391     -4.677391
  171       -4.552124     -4.552124
  172       -4.358260     -4.358260
  173       -4.224470     -4.224470
  174       -4.115699     -4.115700
  175       -3.781865     -3.781865
  176       -3.484731     -3.484731
  177       -3.239736     -3.239736
  178       -3.099495     -3.099495
  179       -2.825364     -2.825364
  180       -2.797072     -2.797072
  181       -2.706588     -2.706588
  182       -2.593418     -2.593419
  183       -2.507537     -2.507537
  184       -2.319030     -2.319030
  185       -2.191277     -2.191277
  186       -2.059495     -2.059495
  187       -1.901808     -1.901808
  188       -1.893510     -1.893511
  189       -1.632714     -1.632714
  190       -1.327365     -1.327365
  191       -1.202920     -1.202920
  192       -1.138550     -1.138550
  193       -1.076622     -1.076623
  194       -0.984647     -0.984647
  195       -0.913956     -0.913956
  196       -0.873788     -0.873789
  197       -0.721887     -0.721888
  198       -0.586509     -0.586509
  199       -0.539063     -0.539064
  200       -0.521289     -0.521289
  201       -0.459319     -0.459320
  202       -0.293454     -0.293455
  203       -0.209411     -0.209411
  204       -0.116565     -0.116566
  205       -0.041853     -0.041853
  206        0.080221      0.080220
  207        0.124679      0.124678
  208        0.284086      0.284085
  209        0.453046      0.453042
  210        0.474989      0.474989
  211        0.544656      0.544653
  212        0.590609      0.590608
  213        0.657497      0.657495
  214        0.674520      0.674513
  215        0.689391      0.689388
  216        0.760138      0.760137
  217        0.840464      0.840461
  218        0.845829      0.845826
  219        0.891590      0.891589
  220        0.910105      0.910101
  221        0.940485      0.940482
  222        0.962744      0.962741
  223        0.979028      0.979028
  224        0.990900      0.990899
  225        0.998472      0.998469
  226        1.014731      1.014729
  227        1.024985      1.024984
  228        1.084025      1.084025
