 vasp.5.3.5 31Mar14 (build Feb 01 2018 12:10:03) gamma-only                     
  
 executed on             LinuxIFC date 2019.03.25  03:16:40
 running on   64 total cores
 distrk:  each k-point on   64 cores,    1 groups
 distr:  one band on NCORES_PER_BAND=  16 cores,    4 groups


--------------------------------------------------------------------------------------------------------


 INCAR:
 POTCAR:    PAW_PBE Ag 02Apr2005                  
 POTCAR:    PAW_PBE Ag 02Apr2005                  
   VRHFIN =Ag : s1 d10                                                          
   LEXCH  = PE                                                                  
   EATOM  =  1037.2675 eV,   76.2370 Ry                                         
                                                                                
   TITEL  = PAW_PBE Ag 02Apr2005                                                
   LULTRA =        F    use ultrasoft PP ?                                      
   IUNSCR =        1    unscreen: 0-lin 1-nonlin 2-no                           
   RPACOR =    2.000    partial core radius                                     
   POMASS =  107.868; ZVAL   =   11.000    mass and valenz                      
   RCORE  =    2.500    outmost cutoff radius                                   
   RWIGS  =    2.840; RWIGS  =    1.503    wigner-seitz radius (au A)           
   ENMAX  =  249.844; ENMIN  =  187.383 eV                                      
   ICORE  =        3    local potential                                         
   LCOR   =        T    correct aug charges                                     
   LPAW   =        T    paw PP                                                  
   EAUG   =  412.496                                                            
   DEXC   =    0.000                                                            
   RMAX   =    2.560    core radius for proj-oper                               
   RAUG   =    1.300    factor for augmentation sphere                          
   RDEP   =    2.576    radius for radial grids                                 
   RDEPT  =    2.072    core radius for aug-charge                              
                                                                                
   Atomic configuration                                                         
   12 entries                                                                   
     n  l   j            E        occ.                                          
     1  0  0.50    -25324.9161   2.0000                                         
     2  0  0.50     -3728.5341   2.0000                                         
     2  1  1.50     -3344.0404   6.0000                                         
     3  0  0.50      -683.5581   2.0000                                         
     3  1  1.50      -557.3225   6.0000                                         
     3  2  2.50      -358.3853  10.0000                                         
     4  0  0.50       -95.0341   2.0000                                         
     4  1  1.50       -58.5511   6.0000                                         
     4  2  2.50        -7.4440  10.0000                                         
     5  0  0.50        -4.4045   1.0000                                         
     5  1  0.50        -1.3606   0.0000                                         
     4  3  2.50        -1.3606   0.0000                                         
   Description                                                                  
     l       E           TYP  RCUT    TYP  RCUT                                 
     2     -7.4439781     23  2.400                                             
     2     -8.8045607     23  2.400                                             
     0     -4.4044681     23  2.400                                             
     0      1.9520038     23  2.400                                             
     1     -1.3605826     23  2.500                                             
     1     27.2116520     23  2.500                                             
     3     -4.0817478     23  2.400                                             
  local pseudopotential read in
  partial core-charges read in
  partial kinetic energy density read in
  atomic valenz-charges read in
  non local Contribution for L=           2  read in
    real space projection operators read in
  non local Contribution for L=           2  read in
    real space projection operators read in
  non local Contribution for L=           0  read in
    real space projection operators read in
  non local Contribution for L=           0  read in
    real space projection operators read in
  non local Contribution for L=           1  read in
    real space projection operators read in
  non local Contribution for L=           1  read in
    real space projection operators read in
    PAW grid and wavefunctions read in
 
   number of l-projection  operators is LMAX  =           6
   number of lm-projection operators is LMMAX =          18
 

 ----------------------------------------------------------------------------- 
|                                                                             |
|  ADVICE TO THIS USER RUNNING 'VASP/VAMP'   (HEAR YOUR MASTER'S VOICE ...):  |
|                                                                             |
|      You have a (more or less) 'large supercell' and for larger cells       |
|      it might be more efficient to use real space projection opertators     |
|      So try LREAL= Auto  in the INCAR   file.                               |
|      Mind: At the moment your POTCAR file does not contain real space       |
|       projectors, and has to be modified,  BUT if you                       |
|      want to do an extremely  accurate calculation you might also keep the  |
|      reciprocal projection scheme          (i.e. LREAL=.FALSE.)             |
|                                                                             |
 ----------------------------------------------------------------------------- 

  PAW_PBE Ag 02Apr2005                  :
 energy of atom  1       EATOM=-1037.2675
 kinetic energy error for atom=    0.0689 (will be added to EATOM!!)
 
 
 POSCAR: Na51, -55.29992816 <s> Ag </s>          
  positions in direct lattice
  No initial velocities read in
 exchange correlation table for  LEXCH =        8
   RHO(1)=    0.500       N(1)  =     2000
   RHO(2)=  100.500       N(2)  =     4000
 


--------------------------------------------------------------------------------------------------------


 ion  position               nearest neighbor table
   1  0.359  0.353  0.188-  10 2.80   5 2.90   6 2.95   2 2.95   3 2.98   4 2.99
   2  0.373  0.453  0.231-  16 2.83  10 2.88   7 2.94   1 2.95   3 2.96   4 3.00   9 3.02
   3  0.459  0.385  0.225-  17 2.86   5 2.89  10 2.90   7 2.94  12 2.95   2 2.96   1 2.98   8 2.98

   4  0.280  0.396  0.254-  18 2.86  10 2.88   6 2.92   9 2.96  11 2.98   1 2.99  13 3.00   2 3.00

   5  0.426  0.283  0.238-  15 2.82   3 2.89   1 2.90  14 2.91  12 2.91  10 2.92  19 2.99   6 3.31

   6  0.304  0.290  0.261-  20 2.86  10 2.87  15 2.88   4 2.92  13 2.93   1 2.95   5 3.31
   7  0.470  0.484  0.269-  17 2.86  16 2.86   8 2.93   2 2.94   3 2.94  21 3.01  34 3.31
   8  0.556  0.417  0.268-  17 2.79  24 2.90   7 2.93  21 2.93  12 2.95   3 2.98
   9  0.293  0.497  0.297-  16 2.86  18 2.89  11 2.92  22 2.95   4 2.96   2 3.02  23 3.05
  10  0.376  0.364  0.291-   1 2.80  26 2.83   6 2.87   2 2.88   4 2.88   3 2.90   5 2.92  17 2.97
                            19 2.98  16 2.99  18 3.01  20 3.03
  11  0.205  0.439  0.324-  18 2.79  38 2.91   9 2.92  23 2.94   4 2.98  13 2.99
  12  0.521  0.313  0.280-  17 2.88  14 2.90   5 2.91  19 2.94  28 2.94   3 2.95   8 2.95  24 3.12

  13  0.230  0.331  0.329-  20 2.83  18 2.87   6 2.93  11 2.99  37 3.00   4 3.00  38 3.11
  14  0.482  0.213  0.297-  19 2.79  12 2.90   5 2.91  15 2.94  28 3.02
  15  0.373  0.220  0.303-   5 2.82  19 2.87   6 2.88  14 2.94  20 3.00
  16  0.388  0.466  0.334-   2 2.83   9 2.86   7 2.86  26 2.87  22 2.91  18 2.95  17 2.98  10 2.99
                            34 3.01  33 3.03  25 3.05
  17  0.474  0.396  0.329-   8 2.79   7 2.86   3 2.86  26 2.86  24 2.88  12 2.88  21 2.93  10 2.97
                            16 2.98  36 2.99  25 3.00  19 3.00
  18  0.298  0.408  0.358-  11 2.79  26 2.82   4 2.86  13 2.87  38 2.89   9 2.89  23 2.91  30 2.95
                            16 2.95  10 3.01  33 3.04  20 3.04
  19  0.437  0.292  0.348-  14 2.79  15 2.87  26 2.87  28 2.87  12 2.94  10 2.98   5 2.99  36 3.00
                            17 3.00  20 3.10  35 3.10
  20  0.323  0.298  0.365-  13 2.83   6 2.86  37 2.89  26 2.91  15 3.00  10 3.03  35 3.04  18 3.04
                            19 3.10  30 3.10
  21  0.540  0.479  0.357-  25 2.88  17 2.93   8 2.93  29 2.98  24 2.99   7 3.01  32 3.06  34 3.10

  22  0.342  0.555  0.377-  27 2.82  16 2.91  23 2.93  33 2.95  39 2.95  34 2.95   9 2.95  41 3.51

  23  0.253  0.496  0.404-  33 2.90  18 2.91  22 2.93  11 2.94  38 2.95  47 2.99   9 3.05  39 3.11

  24  0.572  0.372  0.365-  17 2.88   8 2.90  36 2.94  32 2.95  31 2.96  28 2.96  21 2.99  12 3.12

  25  0.459  0.456  0.423-  29 2.80  32 2.84  26 2.87  21 2.88  34 2.90  44 2.92  36 2.94  41 2.95
                            42 2.96  33 2.97  17 3.00  16 3.05
  26  0.392  0.377  0.394-  18 2.82  10 2.83  36 2.83  30 2.84  35 2.85  17 2.86  25 2.87  19 2.87
                            16 2.87  42 2.87  33 2.90  20 2.91
  27  0.394  0.625  0.435-  41 2.68  22 2.82  34 3.04  39 3.13
  28  0.537  0.268  0.379-  19 2.87  36 2.91  31 2.93  12 2.94  24 2.96  14 3.02  43 3.30
  29  0.522  0.533  0.452-  25 2.80  41 2.88  34 2.91  32 2.95  44 2.95  21 2.98
  30  0.309  0.365  0.459-  46 2.79  37 2.79  26 2.84  40 2.87  38 2.89  51 2.90  47 2.92  18 2.95
                            33 2.96  42 2.98  35 3.00  20 3.10
  31  0.581  0.322  0.464-  36 2.78  43 2.92  28 2.93  32 2.94  24 2.96  45 3.00
  32  0.555  0.428  0.458-  25 2.84  36 2.88  31 2.94  29 2.95  24 2.95  44 2.97  45 3.03  21 3.06

  33  0.350  0.466  0.441-  47 2.84  39 2.84  23 2.90  26 2.90  41 2.92  42 2.95  22 2.95  30 2.96
                            25 2.97  49 2.98  16 3.03  18 3.04
  34  0.451  0.551  0.371-  25 2.90  29 2.91  22 2.95  16 3.01  27 3.04  41 3.09  21 3.10   7 3.31

  35  0.392  0.290  0.454-  26 2.85  48 2.89  43 2.93  40 2.95  30 3.00  42 3.03  20 3.04  36 3.07
                            19 3.10
  36  0.487  0.350  0.430-  31 2.78  43 2.81  26 2.83  32 2.88  45 2.89  28 2.91  24 2.94  25 2.94
                            17 2.99  19 3.00  42 3.02  35 3.07
  37  0.240  0.291  0.433-  30 2.79  20 2.89  46 2.91  38 2.95  13 3.00  40 3.10
  38  0.212  0.396  0.423-  30 2.89  18 2.89  11 2.91  46 2.92  37 2.95  23 2.95  47 3.06  13 3.11

  39  0.314  0.555  0.483-  33 2.84  41 2.86  22 2.95  49 3.01  47 3.07  23 3.11  27 3.13
  40  0.309  0.281  0.525-  51 2.85  30 2.87  46 2.91  48 2.93  35 2.95  37 3.10
  41  0.419  0.540  0.481-  27 2.68  44 2.82  49 2.85  39 2.86  29 2.88  33 2.92  25 2.95  34 3.09
                            22 3.51
  42  0.408  0.393  0.499-  50 2.80  51 2.87  26 2.87  44 2.88  45 2.89  48 2.89  33 2.95  25 2.96
                            49 2.97  30 2.98  36 3.02  35 3.03
  43  0.492  0.267  0.493-  36 2.81  45 2.82  31 2.92  35 2.93  48 3.00  28 3.30
  44  0.479  0.468  0.529-  41 2.82  42 2.88  50 2.90  45 2.92  25 2.92  29 2.95  32 2.97  49 3.16

  45  0.505  0.362  0.535-  43 2.82  36 2.89  42 2.89  44 2.92  31 3.00  50 3.00  32 3.03  48 3.05

  46  0.227  0.352  0.522-  30 2.79  37 2.91  40 2.91  38 2.92  47 2.95  51 2.96
  47  0.267  0.453  0.505-  33 2.84  30 2.92  49 2.94  46 2.95  23 2.99  51 2.99  38 3.06  39 3.07

  48  0.410  0.304  0.560-  42 2.89  35 2.89  40 2.93  50 2.98  43 3.00  51 3.04  45 3.05
  49  0.364  0.480  0.550-  41 2.85  50 2.93  51 2.93  47 2.94  42 2.97  33 2.98  39 3.01  44 3.16

  50  0.426  0.406  0.601-  42 2.80  44 2.90  49 2.93  51 2.96  48 2.98  45 3.00
  51  0.325  0.379  0.564-  40 2.85  42 2.87  30 2.90  49 2.93  46 2.96  50 2.96  47 2.99  48 3.04

 
  LATTYP: Found a simple cubic cell.
 ALAT       =    26.8330437573
  
  Lattice vectors:
  
 A1 = (  26.8330437573,   0.0000000000,   0.0000000000)
 A2 = (   0.0000000000,  26.8330437573,   0.0000000000)
 A3 = (   0.0000000000,   0.0000000000,  26.8330437573)


Analysis of symmetry for initial positions (statically):
=====================================================================
 Subroutine PRICEL returns:
 Original cell was already a primitive cell.
 

 Routine SETGRP: Setting up the symmetry group for a 
 simple cubic supercell.


 Subroutine GETGRP returns: Found  1 space group operations
 (whereof  1 operations were pure point group operations)
 out of a pool of 48 trial point group operations.


The static configuration has the point symmetry C_1 .


Analysis of symmetry for dynamics (positions and initial velocities):
=====================================================================
 Subroutine PRICEL returns:
 Original cell was already a primitive cell.
 

 Routine SETGRP: Setting up the symmetry group for a 
 simple cubic supercell.


 Subroutine GETGRP returns: Found  1 space group operations
 (whereof  1 operations were pure point group operations)
 out of a pool of 48 trial point group operations.


The dynamic configuration has the point symmetry C_1 .


Analysis of magnetic symmetry:
=====================================================================
 Subroutine PRICEL returns:
 Original cell was already a primitive cell.
 

 Subroutine MAGSYM returns: Found  1 space group operations
 (whereof  1 operations were pure point group operations)
 out of a pool of  1 trial space group operations
 (whereof  1 operations were pure point group operations)
 and found also     1 'primitive' translations


The magnetic configuration has the point symmetry C_1 .
 
 
 KPOINTS: Gamma-point only                        
  k-points in reciprocal lattice
Space group operators:
 irot       det(A)        alpha          n_x          n_y          n_z        tau_x        tau_y        tau_z
    1     1.000000     0.000000     1.000000     0.000000     0.000000     0.000000     0.000000     0.000000


--------------------------------------------------------------------------------------------------------




 Dimension of arrays:
   k-points           NKPTS =      1   k-points in BZ     NKDIM =      1   number of bands    NBANDS=    364
   number of dos      NEDOS =    301   number of ions     NIONS =     51
   non local maximal  LDIM  =      6   non local SUM 2l+1 LMDIM =     18
   total plane-waves  NPLWV = ******
   max r-space proj   IRMAX =      1   max aug-charges    IRDMAX=   3405
   dimension x,y,z NGX =   108 NGY =  108 NGZ =  108
   dimension x,y,z NGXF=   216 NGYF=  216 NGZF=  216
   support grid    NGXF=   216 NGYF=  216 NGZF=  216
   ions per type =              51
 NGX,Y,Z   is equivalent  to a cutoff of   6.69,  6.69,  6.69 a.u.
 NGXF,Y,Z  is equivalent  to a cutoff of  13.38, 13.38, 13.38 a.u.


 I would recommend the setting:
   dimension x,y,z NGX =   104 NGY =  104 NGZ =  104
 SYSTEM =  unknown system                          
 POSCAR =  Na51, -55.29992816 <s> Ag </s>          

 Startparameter for this run:
   NWRITE =      2    write-flag & timer
   PREC   = normal    normal or accurate (medium, high low for compatibility)
   ISTART =      0    job   : 0-new  1-cont  2-samecut
   ICHARG =      2    charge: 1-file 2-atom 10-const
   ISPIN  =      2    spin polarized calculation?
   LNONCOLLINEAR =      F non collinear calculations
   LSORBIT =      F    spin-orbit coupling
   INIWAV =      1    electr: 0-lowe 1-rand  2-diag
   LASPH  =      F    aspherical Exc in radial PAW
   METAGGA=      F    non-selfconsistent MetaGGA calc.

 Electronic Relaxation 1
   ENCUT  =  249.8 eV  18.36 Ry    4.29 a.u.  34.58 34.58 34.58*2*pi/ulx,y,z
   ENINI  =  249.8     initial cutoff
   ENAUG  =  412.5 eV  augmentation charge cutoff
   NELM   =     60;   NELMIN=  2; NELMDL= -5     # of ELM steps 
   EDIFF  = 0.1E-03   stopping-criterion for ELM
   LREAL  =      F    real-space projection
   NLSPLINE    = F    spline interpolate recip. space projectors
   LCOMPAT=      F    compatible to vasp.4.4
   GGA_COMPAT  = T    GGA compatible to vasp.4.4-vasp.4.6
   LMAXPAW     = -100 max onsite density
   LMAXMIX     =    2 max onsite mixed and CHGCAR
   VOSKOWN=      0    Vosko Wilk Nusair interpolation
   ROPT   =    0.00000
 Ionic relaxation
   EDIFFG = 0.1E-02   stopping-criterion for IOM
   NSW    =   1000    number of steps for IOM
   NBLOCK =      1;   KBLOCK =   1000    inner block; outer block 
   IBRION =      2    ionic relax: 0-MD 1-quasi-New 2-CG
   NFREE  =      1    steps in history (QN), initial steepest desc. (CG)
   ISIF   =      2    stress and relaxation
   IWAVPR =     11    prediction:  0-non 1-charg 2-wave 3-comb
   ISYM   =      2    0-nonsym 1-usesym 2-fastsym
   LCORR  =      T    Harris-Foulkes like correction to forces

   POTIM  = 0.1000    time-step for ionic-motion
   TEIN   =    0.0    initial temperature
   TEBEG  =    0.0;   TEEND  =   0.0 temperature during run
   SMASS  =  -3.00    Nose mass-parameter (am)
   estimated Nose-frequenzy (Omega)   =  0.10E-29 period in steps =****** mass=  -0.165E-25a.u.
   SCALEE = 1.0000    scale energy and forces
   NPACO  =    256;   APACO  = 16.0  distance and # of slots for P.C.
   PSTRESS=    0.0 pullay stress

  Mass of Ions in am
   POMASS = 107.87
  Ionic Valenz
   ZVAL   =  11.00
  Atomic Wigner-Seitz radii
   RWIGS  =  -1.00
  virtual crystal weights 
   VCA    =   1.00
   NELECT =     561.0000    total number of electrons
   NUPDOWN=      -1.0000    fix difference up-down

 DOS related values:
   EMIN   =  10.00;   EMAX   =-10.00  energy-range for DOS
   EFERMI =   0.00
   ISMEAR =     0;   SIGMA  =   0.00  broadening in eV -4-tet -1-fermi 0-gaus

 Electronic relaxation 2 (details)
   IALGO  =     38    algorithm
   LDIAG  =      T    sub-space diagonalisation (order eigenvalues)
   LSUBROT=      F    optimize rotation matrix (better conditioning)
   TURBO    =      0    0=normal 1=particle mesh
   IRESTART =      0    0=no restart 2=restart with 2 vectors
   NREBOOT  =      0    no. of reboots
   NMIN     =      0    reboot dimension
   EREF     =   0.00    reference energy to select bands
   IMIX   =      4    mixing-type and parameters
     AMIX     =   0.40;   BMIX     =  1.00
     AMIX_MAG =   1.60;   BMIX_MAG =  1.00
     AMIN     =   0.10
     WC   =   100.;   INIMIX=   1;  MIXPRE=   1;  MAXMIX= -45

 Intra band minimization:
   WEIMIN = 0.0010     energy-eigenvalue tresh-hold
   EBREAK =  0.69E-07  absolut break condition
   DEPER  =   0.30     relativ break condition  

   TIME   =   0.40     timestep for ELM

  volume/ion in A,a.u.               =     378.83      2556.44
  Fermi-wavevector in a.u.,A,eV,Ry     =   0.503183  0.950878  3.444900  0.253193
  Thomas-Fermi vector in A             =   1.512575
 
 Write flags
   LWAVE  =      F    write WAVECAR
   LCHARG =      F    write CHGCAR
   LVTOT  =      F    write LOCPOT, total local potential
   LVHAR  =      F    write LOCPOT, Hartree potential only
   LELF   =      F    write electronic localiz. function (ELF)
   LORBIT =      0    0 simple, 1 ext, 2 COOP (PROOUT)


 Dipole corrections
   LMONO  =      F    monopole corrections only (constant potential shift)
   LDIPOL =      F    correct potential (dipole corrections)
   IDIPOL =      0    1-x, 2-y, 3-z, 4-all directions 
   EPSILON=  1.0000000 bulk dielectric constant

 Exchange correlation treatment:
   GGA     =    PE    GGA type
   LEXCH   =     8    internal setting for exchange type
   VOSKOWN=      0    Vosko Wilk Nusair interpolation
   LHFCALC =     F    Hartree Fock is set to
   LHFONE  =     F    Hartree Fock one center treatment
   AEXX    =    0.0000 exact exchange contribution

 Linear response parameters
   LEPSILON=     F    determine dielectric tensor
   LRPA    =     F    only Hartree local field effects (RPA)
   LNABLA  =     F    use nabla operator in PAW spheres
   LVEL    =     F    velocity operator in full k-point grid
   LINTERFAST=   F  fast interpolation
   KINTER  =     0    interpolate to denser k-point grid
   CSHIFT  =0.1000    complex shift for real part using Kramers Kronig
   OMEGAMAX=  -1.0    maximum frequency
   DEG_THRESHOLD= 0.2000000E-02 threshold for treating states as degnerate
   RTIME   =    0.100 relaxation time in fs

 Orbital magnetization related:
   ORBITALMAG=     F  switch on orbital magnetization
   LCHIMAG   =     F  perturbation theory with respect to B field
   DQ        =  0.001000  dq finite difference perturbation B field



--------------------------------------------------------------------------------------------------------


 conjugate gradient relaxation of ions
 charge density and potential will be updated during run
 spin polarized calculation
 Variant of blocked Davidson
 Davidson routine will perform the subspace rotation
 perform sub-space diagonalisation
    after iterative eigenvector-optimisation
 modified Broyden-mixing scheme, WC =      100.0
 initial mixing is a Kerker type mixing with AMIX =  0.4000 and BMIX =      1.0000
 Hartree-type preconditioning will be used
 using additional bands           83
 reciprocal scheme for non local part
 use partial core corrections
 calculate Harris-corrections to forces 
   (improved forces if not selfconsistent)
 use gradient corrections 
 use of overlap-Matrix (Vanderbilt PP)
 Gauss-broadening in eV      SIGMA  =   0.00


--------------------------------------------------------------------------------------------------------


  energy-cutoff  :      249.84
  volume of cell :    19320.12
      direct lattice vectors                 reciprocal lattice vectors
    26.833043757  0.000000000  0.000000000     0.037267483  0.000000000  0.000000000
     0.000000000 26.833043757  0.000000000     0.000000000  0.037267483  0.000000000
     0.000000000  0.000000000 26.833043757     0.000000000  0.000000000  0.037267483

  length of vectors
    26.833043757 26.833043757 26.833043757     0.037267483  0.037267483  0.037267483


 
 k-points in units of 2pi/SCALE and weight: Gamma-point only                        
   0.00000000  0.00000000  0.00000000       1.000
 
 k-points in reciprocal lattice and weights: Gamma-point only                        
   0.00000000  0.00000000  0.00000000       1.000
 
 position of ions in fractional coordinates (direct lattice) 
   0.35873113  0.35279064  0.18849700
   0.37274359  0.45348768  0.23065856
   0.45885082  0.38490743  0.22456865
   0.27968663  0.39610911  0.25410758
   0.42550115  0.28329427  0.23773305
   0.30436157  0.29046264  0.26069353
   0.47046387  0.48418314  0.26936350
   0.55608332  0.41651356  0.26839871
   0.29266616  0.49670607  0.29720227
   0.37567999  0.36436174  0.29062606
   0.20456867  0.43898971  0.32385286
   0.52069628  0.31292511  0.28002787
   0.22953295  0.33070987  0.32949568
   0.48243695  0.21321416  0.29747948
   0.37313435  0.21966985  0.30317275
   0.38770157  0.46611747  0.33434001
   0.47417223  0.39633388  0.32936039
   0.29750306  0.40806030  0.35845609
   0.43736328  0.29231922  0.34807938
   0.32330082  0.29796041  0.36526549
   0.54041732  0.47854834  0.35709100
   0.34152284  0.55466692  0.37707426
   0.25327780  0.49633362  0.40373766
   0.57246759  0.37213463  0.36544986
   0.45865339  0.45553364  0.42273376
   0.39155857  0.37736041  0.39401579
   0.39396060  0.62468405  0.43517956
   0.53698719  0.26838770  0.37897557
   0.52199352  0.53310914  0.45183795
   0.30887351  0.36455202  0.45860801
   0.58077074  0.32203409  0.46353612
   0.55466842  0.42828964  0.45840370
   0.34993814  0.46551740  0.44071916
   0.45140984  0.55057493  0.37143459
   0.39249215  0.29025331  0.45449823
   0.48683017  0.34993825  0.42989150
   0.24012731  0.29066019  0.43318862
   0.21228045  0.39636746  0.42325055
   0.31365337  0.55539109  0.48337403
   0.30914840  0.28127500  0.52549733
   0.41894075  0.53953022  0.48121692
   0.40849826  0.39291854  0.49858777
   0.49190809  0.26654230  0.49330421
   0.47892349  0.46769458  0.52909698
   0.50501558  0.36213831  0.53524583
   0.22716803  0.35237012  0.52151955
   0.26716456  0.45331726  0.50541146
   0.41034320  0.30428730  0.55982681
   0.36360745  0.48016733  0.54987222
   0.42585619  0.40631477  0.60061103
   0.32523275  0.37885924  0.56429914
 
 position of ions in cartesian coordinates  (Angst):
   9.62584811  9.46644662  5.05794818
  10.00184516 12.16845488  6.18927122
  12.31236417 10.32823795  6.02586033
   7.50484371 10.62881313  6.81847970
  11.41749101  7.60164757  6.37910146
   8.16694729  7.79399672  6.99520078
  12.62397756 12.99210731  7.22784257
  14.92140805 11.17632668  7.20195420
   7.85312395 13.32813581  7.97484159
  10.08063769  9.77693445  7.79838171
   5.48920000 11.77943009  8.68995805
  13.97186595  8.39673307  7.51400007
   6.15906756  8.87395231  8.84137190
  12.94525189  5.72118476  7.98227998
  10.01233037  5.89441069  8.13504759
  10.40321320 12.50735043  8.97136003
  12.72348433 10.63484443  8.83774185
   7.98291263 10.94949996  9.61846790
  11.73578801  7.84381434  9.34002921
   8.67514504  7.99518478  9.80118479
  14.50104173 12.84090857  9.58183837
   9.16409737 14.88340167 10.11805019
   6.79621421 13.31814166 10.83351018
  15.36104781  9.98550481  9.80613198
  12.30706650 12.22335397 11.34323343
  10.50670823 10.12572836 10.57264290
  10.57116189 16.76217449 11.67719215
  14.40900067  7.20165885 10.16906805
  14.00667487 14.30494082 12.12418747
   8.28801636  9.78204035 12.30584892
  15.58384669  8.64115491 12.43808511
  14.88344205 11.49231478 12.30036653
   9.38990536 12.49124863 11.82583641
  12.11270009 14.77360117  9.96672074
  10.53175917  7.78837987 12.19557093
  13.06313524  9.38990840 11.53529744
   6.44334648  7.79929760 11.62376921
   5.69613063 10.63574541 11.35710050
   8.41627459 14.90283343 12.97039643
   8.29539260  7.54746450 14.10069281
  11.24145541 14.47723802 12.91251461
  10.96125161 10.54320024 13.37862748
  13.19939140  7.15214133 13.23685343
  12.85097509 12.54966921 14.19728233
  13.55110516  9.71727309 14.36227491
   6.09560967  9.45516274 13.99395703
   7.16883822 12.16388188 13.56172792
  11.01075714  8.16495456 15.02185721
   9.75669453 12.88435085 14.75474537
  11.42701771 10.90266193 16.11622213
   8.72698463 10.16594664 15.14186348
 


--------------------------------------------------------------------------------------------------------


 use parallel FFT for wavefunctions z direction half grid
 k-point  1 :   0.0000 0.0000 0.0000  plane waves:   86675

 maximum and minimum number of plane-waves per node :      5428     5403

 maximum number of plane-waves:     86675
 maximum index in each direction: 
   IXMAX=   34   IYMAX=   34   IZMAX=   34
   IXMIN=  -34   IYMIN=  -34   IZMIN=    0

 WARNING: aliasing errors must be expected set NGX to 138 to avoid them
 WARNING: aliasing errors must be expected set NGY to 138 to avoid them
 WARNING: aliasing errors must be expected set NGZ to 138 to avoid them
 aliasing errors are usually negligible using standard VASP settings
 and one can safely disregard these warnings

 parallel 3D FFT for wavefunctions:
    minimum data exchange during FFTs selected (reduces bandwidth)
 parallel 3D FFT for charge:
    minimum data exchange during FFTs selected (reduces bandwidth)


 total amount of memory used by VASP on root node    79002. kBytes
========================================================================

   base      :      30000. kBytes
   nonl-proj :       5187. kBytes
   fftplans  :       7823. kBytes
   grid      :      20089. kBytes
   one-center:         62. kBytes
   wavefun   :      15841. kBytes
 
     INWAV:  cpu time    0.00: real time    0.00
 Broyden mixing: mesh for mixing (old mesh)
   NGX = 69   NGY = 69   NGZ = 69
  (NGX  =216   NGY  =216   NGZ  =216)
  gives a total of 328509 points

 initial charge density was supplied:
 charge density of overlapping atoms calculated
 number of electron     561.0000000 magnetization      51.0000000
 keeping initial charge density in first step


--------------------------------------------------------------------------------------------------------


 Maximum index for augmentation-charges          260 (set IRDMAX)


--------------------------------------------------------------------------------------------------------


 First call to EWALD:  gamma=   0.066
 Maximum number of real-space cells 3x 3x 3
 Maximum number of reciprocal cells 3x 3x 3

 FEWALD executed in parallel
    FEWALD:  cpu time    0.00: real time    0.00


----------------------------------------- Iteration    1(   1)  ---------------------------------------


    POTLOK:  cpu time    0.41: real time    0.41
    SETDIJ:  cpu time    0.01: real time    0.01
     EDDAV:  cpu time   10.23: real time   10.24
       DOS:  cpu time    0.00: real time    0.00
    --------------------------------------------
      LOOP:  cpu time   10.65: real time   10.71

 eigenvalue-minimisations  :  1496
 total energy-change (2. order) : 0.4839528E+04  (-0.1030856E+05)
 number of electron     561.0000000 magnetization      51.0000000
 augmentation part      561.0000000 magnetization      51.0000000

 Free energy of the ion-electron system (eV)
  ---------------------------------------------------
  alpha Z        PSCENC =       114.51034323
  Ewald energy   TEWEN  =    181586.74167374
  -Hartree energ DENC   =   -232305.11819920
  -exchange      EXHF   =         0.00000000
  -V(xc)+E(xc)   XCENC  =      -559.04561926
  PAW double counting   =     51171.98108155   -48820.49505282
  entropy T*S    EENTRO =         0.00000000
  eigenvalues    EBANDS =       753.82353516
  atomic energy  EATOM  =     52897.13013440
  ---------------------------------------------------
  free energy    TOTEN  =      4839.52789681 eV

  energy without entropy =     4839.52789681  energy(sigma->0) =     4839.52789681


--------------------------------------------------------------------------------------------------------




----------------------------------------- Iteration    1(   2)  ---------------------------------------


     EDDAV:  cpu time   15.55: real time   15.56
       DOS:  cpu time    0.00: real time    0.00
    --------------------------------------------
      LOOP:  cpu time   15.55: real time   15.57

 eigenvalue-minimisations  :  2496
 total energy-change (2. order) :-0.3772992E+04  (-0.3359084E+04)
 number of electron     561.0000000 magnetization      51.0000000
 augmentation part      561.0000000 magnetization      51.0000000

 Free energy of the ion-electron system (eV)
  ---------------------------------------------------
  alpha Z        PSCENC =       114.51034323
  Ewald energy   TEWEN  =    181586.74167374
  -Hartree energ DENC   =   -232305.11819920
  -exchange      EXHF   =         0.00000000
  -V(xc)+E(xc)   XCENC  =      -559.04561926
  PAW double counting   =     51171.98108155   -48820.49505282
  entropy T*S    EENTRO =         0.00000000
  eigenvalues    EBANDS =     -3019.16854745
  atomic energy  EATOM  =     52897.13013440
  ---------------------------------------------------
  free energy    TOTEN  =      1066.53581420 eV

  energy without entropy =     1066.53581420  energy(sigma->0) =     1066.53581420


--------------------------------------------------------------------------------------------------------




----------------------------------------- Iteration    1(   3)  ---------------------------------------


     EDDAV:  cpu time   12.43: real time   12.44
       DOS:  cpu time    0.00: real time    0.00
    --------------------------------------------
      LOOP:  cpu time   12.43: real time   12.77

 eigenvalue-minimisations  :  1896
 total energy-change (2. order) :-0.1121549E+04  (-0.1026213E+04)
 number of electron     561.0000000 magnetization      51.0000000
 augmentation part      561.0000000 magnetization      51.0000000

 Free energy of the ion-electron system (eV)
  ---------------------------------------------------
  alpha Z        PSCENC =       114.51034323
  Ewald energy   TEWEN  =    181586.74167374
  -Hartree energ DENC   =   -232305.11819920
  -exchange      EXHF   =         0.00000000
  -V(xc)+E(xc)   XCENC  =      -559.04561926
  PAW double counting   =     51171.98108155   -48820.49505282
  entropy T*S    EENTRO =        -0.00001083
  eigenvalues    EBANDS =     -4140.71756774
  atomic energy  EATOM  =     52897.13013440
  ---------------------------------------------------
  free energy    TOTEN  =       -55.01321693 eV

  energy without entropy =      -55.01320610  energy(sigma->0) =      -55.01321151


--------------------------------------------------------------------------------------------------------




----------------------------------------- Iteration    1(   4)  ---------------------------------------


     EDDAV:  cpu time   10.93: real time   10.94
       DOS:  cpu time    0.00: real time    0.00
    --------------------------------------------
      LOOP:  cpu time   10.93: real time   10.95

 eigenvalue-minimisations  :  1616
 total energy-change (2. order) :-0.5824824E+02  (-0.5752795E+02)
 number of electron     561.0000000 magnetization      51.0000000
 augmentation part      561.0000000 magnetization      51.0000000

 Free energy of the ion-electron system (eV)
  ---------------------------------------------------
  alpha Z        PSCENC =       114.51034323
  Ewald energy   TEWEN  =    181586.74167374
  -Hartree energ DENC   =   -232305.11819920
  -exchange      EXHF   =         0.00000000
  -V(xc)+E(xc)   XCENC  =      -559.04561926
  PAW double counting   =     51171.98108155   -48820.49505282
  entropy T*S    EENTRO =         0.00000000
  eigenvalues    EBANDS =     -4198.96581668
  atomic energy  EATOM  =     52897.13013440
  ---------------------------------------------------
  free energy    TOTEN  =      -113.26145503 eV

  energy without entropy =     -113.26145503  energy(sigma->0) =     -113.26145503


--------------------------------------------------------------------------------------------------------




----------------------------------------- Iteration    1(   5)  ---------------------------------------


     EDDAV:  cpu time   11.07: real time   11.08
       DOS:  cpu time    0.00: real time    0.00
    CHARGE:  cpu time    0.26: real time    0.26
    MIXING:  cpu time    0.01: real time    0.01
    --------------------------------------------
      LOOP:  cpu time   11.35: real time   11.36

 eigenvalue-minimisations  :  1640
 total energy-change (2. order) :-0.8612766E+00  (-0.8597803E+00)
 number of electron     560.9999990 magnetization      47.0079266
 augmentation part      263.5426748 magnetization      45.2465907

 Broyden mixing:
  rms(total) = 0.39814E+01    rms(broyden)= 0.39807E+01
  rms(prec ) = 0.40317E+01
  weight for this iteration     100.00

 Free energy of the ion-electron system (eV)
  ---------------------------------------------------
  alpha Z        PSCENC =       114.51034323
  Ewald energy   TEWEN  =    181586.74167374
  -Hartree energ DENC   =   -232305.11819920
  -exchange      EXHF   =         0.00000000
  -V(xc)+E(xc)   XCENC  =      -559.04561926
  PAW double counting   =     51171.98108155   -48820.49505282
  entropy T*S    EENTRO =        -0.00000000
  eigenvalues    EBANDS =     -4199.82709330
  atomic energy  EATOM  =     52897.13013440
  ---------------------------------------------------
  free energy    TOTEN  =      -114.12273165 eV

  energy without entropy =     -114.12273165  energy(sigma->0) =     -114.12273165


--------------------------------------------------------------------------------------------------------




----------------------------------------- Iteration    1(   6)  ---------------------------------------


    POTLOK:  cpu time    0.42: real time    0.41
    SETDIJ:  cpu time    0.01: real time    0.01
     EDDAV:  cpu time   10.12: real time   10.13
       DOS:  cpu time    0.00: real time    0.00
    CHARGE:  cpu time    0.26: real time    0.26
    MIXING:  cpu time    0.01: real time    0.01
    --------------------------------------------
      LOOP:  cpu time   10.82: real time   11.03

 eigenvalue-minimisations  :  1460
 total energy-change (2. order) : 0.6003260E+02  (-0.1791925E+02)
 number of electron     560.9999991 magnetization      44.2834115
 augmentation part      269.9888331 magnetization      29.5351093

 Broyden mixing:
  rms(total) = 0.21159E+01    rms(broyden)= 0.21157E+01
  rms(prec ) = 0.21379E+01
  weight for this iteration     100.00

 eigenvalues of (default mixing * dielectric matrix)
  average eigenvalue GAMMA=   0.8445
  0.8445

 Free energy of the ion-electron system (eV)
  ---------------------------------------------------
  alpha Z        PSCENC =       114.51034323
  Ewald energy   TEWEN  =    181586.74167374
  -Hartree energ DENC   =   -232112.88567197
  -exchange      EXHF   =         0.00000000
  -V(xc)+E(xc)   XCENC  =      -534.81044126
  PAW double counting   =     52586.53576390   -50268.60675232
  entropy T*S    EENTRO =         0.00000000
  eigenvalues    EBANDS =     -4322.70518357
  atomic energy  EATOM  =     52897.13013440
  ---------------------------------------------------
  free energy    TOTEN  =       -54.09013384 eV

  energy without entropy =      -54.09013384  energy(sigma->0) =      -54.09013384


--------------------------------------------------------------------------------------------------------




----------------------------------------- Iteration    1(   7)  ---------------------------------------


    POTLOK:  cpu time    0.41: real time    0.41
    SETDIJ:  cpu time    0.01: real time    0.01
     EDDAV:  cpu time   10.73: real time   10.74
       DOS:  cpu time    0.00: real time    0.00
    CHARGE:  cpu time    0.27: real time    0.27
    MIXING:  cpu time    0.01: real time    0.01
    --------------------------------------------
      LOOP:  cpu time   11.42: real time   11.57

 eigenvalue-minimisations  :  1572
 total energy-change (2. order) : 0.1147754E+02  (-0.1087608E+01)
 number of electron     560.9999991 magnetization      39.4624374
 augmentation part      269.9510689 magnetization      27.0132406

 Broyden mixing:
  rms(total) = 0.13532E+01    rms(broyden)= 0.13532E+01
  rms(prec ) = 0.13642E+01
  weight for this iteration     100.00

 eigenvalues of (default mixing * dielectric matrix)
  average eigenvalue GAMMA=   1.0027
  0.7617  1.2437

 Free energy of the ion-electron system (eV)
  ---------------------------------------------------
  alpha Z        PSCENC =       114.51034323
  Ewald energy   TEWEN  =    181586.74167374
  -Hartree energ DENC   =   -232250.46814327
  -exchange      EXHF   =         0.00000000
  -V(xc)+E(xc)   XCENC  =      -525.83004478
  PAW double counting   =     53434.29806094   -51137.23064101
  entropy T*S    EENTRO =         0.00000000
  eigenvalues    EBANDS =     -4161.76397310
  atomic energy  EATOM  =     52897.13013440
  ---------------------------------------------------
  free energy    TOTEN  =       -42.61258985 eV

  energy without entropy =      -42.61258985  energy(sigma->0) =      -42.61258985


--------------------------------------------------------------------------------------------------------




----------------------------------------- Iteration    1(   8)  ---------------------------------------


    POTLOK:  cpu time    0.41: real time    0.41
    SETDIJ:  cpu time    0.01: real time    0.01
     EDDAV:  cpu time   10.79: real time   10.80
       DOS:  cpu time    0.00: real time    0.00
    CHARGE:  cpu time    0.26: real time    0.26
    MIXING:  cpu time    0.01: real time    0.01
    --------------------------------------------
      LOOP:  cpu time   11.48: real time   11.64

 eigenvalue-minimisations  :  1576
 total energy-change (2. order) : 0.9265252E+01  (-0.3804497E+00)
 number of electron     560.9999991 magnetization      35.5666420
 augmentation part      269.8334658 magnetization      23.2705643

 Broyden mixing:
  rms(total) = 0.82330E+00    rms(broyden)= 0.82329E+00
  rms(prec ) = 0.82663E+00
  weight for this iteration     100.00

 eigenvalues of (default mixing * dielectric matrix)
  average eigenvalue GAMMA=   1.2837
  2.3348  0.8977  0.6185

 Free energy of the ion-electron system (eV)
  ---------------------------------------------------
  alpha Z        PSCENC =       114.51034323
  Ewald energy   TEWEN  =    181586.74167374
  -Hartree energ DENC   =   -232413.36360795
  -exchange      EXHF   =         0.00000000
  -V(xc)+E(xc)   XCENC  =      -518.00516203
  PAW double counting   =     54519.78718542   -52246.12311811
  entropy T*S    EENTRO =         0.00000000
  eigenvalues    EBANDS =     -3974.02478664
  atomic energy  EATOM  =     52897.13013440
  ---------------------------------------------------
  free energy    TOTEN  =       -33.34733794 eV

  energy without entropy =      -33.34733794  energy(sigma->0) =      -33.34733794


--------------------------------------------------------------------------------------------------------




----------------------------------------- Iteration    1(   9)  ---------------------------------------


    POTLOK:  cpu time    0.41: real time    0.41
    SETDIJ:  cpu time    0.01: real time    0.01
     EDDAV:  cpu time   10.98: real time   10.99
       DOS:  cpu time    0.00: real time    0.00
    CHARGE:  cpu time    0.26: real time    0.26
    MIXING:  cpu time    0.01: real time    0.01
    --------------------------------------------
      LOOP:  cpu time   11.68: real time   12.01

 eigenvalue-minimisations  :  1620
 total energy-change (2. order) :-0.3595926E+01  (-0.1170725E+00)
 number of electron     560.9999991 magnetization      31.0996253
 augmentation part      269.6564238 magnetization      19.0698470

 Broyden mixing:
  rms(total) = 0.55119E+00    rms(broyden)= 0.55118E+00
  rms(prec ) = 0.55349E+00
  weight for this iteration     100.00

 eigenvalues of (default mixing * dielectric matrix)
  average eigenvalue GAMMA=   1.2806
  2.3304  0.6226  0.8224  1.3471

 Free energy of the ion-electron system (eV)
  ---------------------------------------------------
  alpha Z        PSCENC =       114.51034323
  Ewald energy   TEWEN  =    181586.74167374
  -Hartree energ DENC   =   -232497.56370081
  -exchange      EXHF   =         0.00000000
  -V(xc)+E(xc)   XCENC  =      -520.04332390
  PAW double counting   =     54994.81249062   -52731.07742562
  entropy T*S    EENTRO =         0.00000000
  eigenvalues    EBANDS =     -3881.45345568
  atomic energy  EATOM  =     52897.13013440
  ---------------------------------------------------
  free energy    TOTEN  =       -36.94326401 eV

  energy without entropy =      -36.94326401  energy(sigma->0) =      -36.94326401


--------------------------------------------------------------------------------------------------------




----------------------------------------- Iteration    1(  10)  ---------------------------------------


    POTLOK:  cpu time    0.42: real time    0.42
    SETDIJ:  cpu time    0.01: real time    0.01
     EDDAV:  cpu time   10.70: real time   10.71
       DOS:  cpu time    0.00: real time    0.00
    CHARGE:  cpu time    0.26: real time    0.26
    MIXING:  cpu time    0.01: real time    0.01
    --------------------------------------------
      LOOP:  cpu time   11.40: real time   11.58

 eigenvalue-minimisations  :  1560
 total energy-change (2. order) :-0.1631736E+02  (-0.4979567E+00)
 number of electron     560.9999992 magnetization      25.4855927
 augmentation part      269.6158783 magnetization      16.1231885

 Broyden mixing:
  rms(total) = 0.44841E+00    rms(broyden)= 0.44836E+00
  rms(prec ) = 0.45136E+00
  weight for this iteration     100.00

 eigenvalues of (default mixing * dielectric matrix)
  average eigenvalue GAMMA=   1.3741
  2.6865  1.9367  0.8636  0.6432  0.7405

 Free energy of the ion-electron system (eV)
  ---------------------------------------------------
  alpha Z        PSCENC =       114.51034323
  Ewald energy   TEWEN  =    181586.74167374
  -Hartree energ DENC   =   -232512.87582522
  -exchange      EXHF   =         0.00000000
  -V(xc)+E(xc)   XCENC  =      -531.83821484
  PAW double counting   =     54975.53422547   -52711.11330807
  entropy T*S    EENTRO =         0.00000000
  eigenvalues    EBANDS =     -3871.34965478
  atomic energy  EATOM  =     52897.13013440
  ---------------------------------------------------
  free energy    TOTEN  =       -53.26062606 eV

  energy without entropy =      -53.26062606  energy(sigma->0) =      -53.26062606


--------------------------------------------------------------------------------------------------------




----------------------------------------- Iteration    1(  11)  ---------------------------------------


    POTLOK:  cpu time    0.42: real time    0.42
    SETDIJ:  cpu time    0.01: real time    0.01
     EDDAV:  cpu time   10.54: real time   10.55
       DOS:  cpu time    0.00: real time    0.00
    CHARGE:  cpu time    0.26: real time    0.26
    MIXING:  cpu time    0.01: real time    0.01
    --------------------------------------------
      LOOP:  cpu time   11.24: real time   14.62

 eigenvalue-minimisations  :  1524
 total energy-change (2. order) :-0.1326386E+02  (-0.5606258E+00)
 number of electron     560.9999992 magnetization      21.3547734
 augmentation part      269.5253082 magnetization      14.6179521

 Broyden mixing:
  rms(total) = 0.35451E+00    rms(broyden)= 0.35443E+00
  rms(prec ) = 0.35881E+00
  weight for this iteration     100.00

 eigenvalues of (default mixing * dielectric matrix)
  average eigenvalue GAMMA=   1.4242
  3.4427  2.1256  0.8717  0.5967  0.7542  0.7542

 Free energy of the ion-electron system (eV)
  ---------------------------------------------------
  alpha Z        PSCENC =       114.51034323
  Ewald energy   TEWEN  =    181586.74167374
  -Hartree energ DENC   =   -232543.30320769
  -exchange      EXHF   =         0.00000000
  -V(xc)+E(xc)   XCENC  =      -540.90553860
  PAW double counting   =     54997.33556582   -52733.47247234
  entropy T*S    EENTRO =         0.00000000
  eigenvalues    EBANDS =     -3844.56098473
  atomic energy  EATOM  =     52897.13013440
  ---------------------------------------------------
  free energy    TOTEN  =       -66.52448618 eV

  energy without entropy =      -66.52448618  energy(sigma->0) =      -66.52448618


--------------------------------------------------------------------------------------------------------




----------------------------------------- Iteration    1(  12)  ---------------------------------------


    POTLOK:  cpu time    0.44: real time    0.44
    SETDIJ:  cpu time    0.01: real time    0.01
     EDDAV:  cpu time   10.67: real time   10.68
       DOS:  cpu time    0.00: real time    0.00
    CHARGE:  cpu time    0.26: real time    0.26
    MIXING:  cpu time    0.01: real time    0.01
    --------------------------------------------
      LOOP:  cpu time   11.39: real time   11.47

 eigenvalue-minimisations  :  1544
 total energy-change (2. order) :-0.9950999E+01  (-0.4150350E+00)
 number of electron     560.9999991 magnetization      17.7724301
 augmentation part      269.4298173 magnetization      13.4886550

 Broyden mixing:
  rms(total) = 0.30313E+00    rms(broyden)= 0.30306E+00
  rms(prec ) = 0.30686E+00
  weight for this iteration     100.00

 eigenvalues of (default mixing * dielectric matrix)
  average eigenvalue GAMMA=   1.4586
  4.2339  2.2307  0.8923  0.8923  0.7530  0.6039  0.6039

 Free energy of the ion-electron system (eV)
  ---------------------------------------------------
  alpha Z        PSCENC =       114.51034323
  Ewald energy   TEWEN  =    181586.74167374
  -Hartree energ DENC   =   -232556.50693777
  -exchange      EXHF   =         0.00000000
  -V(xc)+E(xc)   XCENC  =      -547.80167517
  PAW double counting   =     54967.90573477   -52704.02956786
  entropy T*S    EENTRO =         0.00000000
  eigenvalues    EBANDS =     -3834.42519027
  atomic energy  EATOM  =     52897.13013440
  ---------------------------------------------------
  free energy    TOTEN  =       -76.47548492 eV

  energy without entropy =      -76.47548492  energy(sigma->0) =      -76.47548492


--------------------------------------------------------------------------------------------------------




----------------------------------------- Iteration    1(  13)  ---------------------------------------


    POTLOK:  cpu time    0.41: real time    0.41
    SETDIJ:  cpu time    0.01: real time    0.01
     EDDAV:  cpu time   10.48: real time   10.48
       DOS:  cpu time    0.00: real time    0.00
    CHARGE:  cpu time    0.26: real time    0.26
    MIXING:  cpu time    0.01: real time    0.01
    --------------------------------------------
      LOOP:  cpu time   11.17: real time   11.20

 eigenvalue-minimisations  :  1512
 total energy-change (2. order) :-0.7480347E+01  (-0.2876147E+00)
 number of electron     560.9999991 magnetization      14.6372612
 augmentation part      269.3904100 magnetization      10.8157053

 Broyden mixing:
  rms(total) = 0.23113E+00    rms(broyden)= 0.23112E+00
  rms(prec ) = 0.23510E+00
  weight for this iteration     100.00

 eigenvalues of (default mixing * dielectric matrix)
  average eigenvalue GAMMA=   1.5487
  5.2024  2.3823  1.0539  1.0539  0.7492  0.7492  0.5423  0.6566

 Free energy of the ion-electron system (eV)
  ---------------------------------------------------
  alpha Z        PSCENC =       114.51034323
  Ewald energy   TEWEN  =    181586.74167374
  -Hartree energ DENC   =   -232555.56452083
  -exchange      EXHF   =         0.00000000
  -V(xc)+E(xc)   XCENC  =      -553.11146125
  PAW double counting   =     54911.46971634   -52647.33244443
  entropy T*S    EENTRO =         0.00000000
  eigenvalues    EBANDS =     -3837.79927349
  atomic energy  EATOM  =     52897.13013440
  ---------------------------------------------------
  free energy    TOTEN  =       -83.95583229 eV

  energy without entropy =      -83.95583229  energy(sigma->0) =      -83.95583229


--------------------------------------------------------------------------------------------------------




----------------------------------------- Iteration    1(  14)  ---------------------------------------


    POTLOK:  cpu time    0.41: real time    0.41
    SETDIJ:  cpu time    0.01: real time    0.01
     EDDAV:  cpu time   10.48: real time   10.49
       DOS:  cpu time    0.00: real time    0.00
    CHARGE:  cpu time    0.26: real time    0.26
    MIXING:  cpu time    0.01: real time    0.01
    --------------------------------------------
      LOOP:  cpu time   11.18: real time   11.27

 eigenvalue-minimisations  :  1512
 total energy-change (2. order) :-0.9365910E+01  (-0.3506391E+00)
 number of electron     560.9999990 magnetization      11.9858589
 augmentation part      269.3685813 magnetization      10.4466086

 Broyden mixing:
  rms(total) = 0.21239E+00    rms(broyden)= 0.21231E+00
  rms(prec ) = 0.21871E+00
  weight for this iteration     100.00

 eigenvalues of (default mixing * dielectric matrix)
  average eigenvalue GAMMA=   1.5884
  6.1267  2.4262  1.5067  1.0281  0.7233  0.7233  0.6428  0.6428  0.4754

 Free energy of the ion-electron system (eV)
  ---------------------------------------------------
  alpha Z        PSCENC =       114.51034323
  Ewald energy   TEWEN  =    181586.74167374
  -Hartree energ DENC   =   -232523.77626359
  -exchange      EXHF   =         0.00000000
  -V(xc)+E(xc)   XCENC  =      -560.50356651
  PAW double counting   =     54797.75337727   -52532.72775168
  entropy T*S    EENTRO =         0.00000000
  eigenvalues    EBANDS =     -3872.44968954
  atomic energy  EATOM  =     52897.13013440
  ---------------------------------------------------
  free energy    TOTEN  =       -93.32174267 eV

  energy without entropy =      -93.32174267  energy(sigma->0) =      -93.32174267


--------------------------------------------------------------------------------------------------------




----------------------------------------- Iteration    1(  15)  ---------------------------------------


    POTLOK:  cpu time    0.41: real time    0.41
    SETDIJ:  cpu time    0.01: real time    0.01
     EDDAV:  cpu time   10.90: real time   10.91
       DOS:  cpu time    0.00: real time    0.00
    CHARGE:  cpu time    0.26: real time    0.26
    MIXING:  cpu time    0.01: real time    0.01
    --------------------------------------------
      LOOP:  cpu time   11.60: real time   11.62

 eigenvalue-minimisations  :  1592
 total energy-change (2. order) :-0.4039100E+01  (-0.8454017E-01)
 number of electron     560.9999990 magnetization       9.2030774
 augmentation part      269.3972356 magnetization       7.9065871

 Broyden mixing:
  rms(total) = 0.15336E+00    rms(broyden)= 0.15335E+00
  rms(prec ) = 0.15877E+00
  weight for this iteration     100.00

 eigenvalues of (default mixing * dielectric matrix)
  average eigenvalue GAMMA=   1.6928
  7.2783  2.3398  2.0921  1.0653  0.8111  0.8111  0.7661  0.6326  0.6326  0.4991

 Free energy of the ion-electron system (eV)
  ---------------------------------------------------
  alpha Z        PSCENC =       114.51034323
  Ewald energy   TEWEN  =    181586.74167374
  -Hartree energ DENC   =   -232499.89741171
  -exchange      EXHF   =         0.00000000
  -V(xc)+E(xc)   XCENC  =      -563.99214417
  PAW double counting   =     54751.24993807   -52486.19383870
  entropy T*S    EENTRO =         0.00000000
  eigenvalues    EBANDS =     -3896.90953740
  atomic energy  EATOM  =     52897.13013440
  ---------------------------------------------------
  free energy    TOTEN  =       -97.36084254 eV

  energy without entropy =      -97.36084254  energy(sigma->0) =      -97.36084254


--------------------------------------------------------------------------------------------------------




----------------------------------------- Iteration    1(  16)  ---------------------------------------


    POTLOK:  cpu time    0.42: real time    0.42
    SETDIJ:  cpu time    0.01: real time    0.01
     EDDAV:  cpu time   10.61: real time   10.62
       DOS:  cpu time    0.00: real time    0.00
    CHARGE:  cpu time    0.26: real time    0.26
    MIXING:  cpu time    0.01: real time    0.01
    --------------------------------------------
      LOOP:  cpu time   11.31: real time   11.34

 eigenvalue-minimisations  :  1536
 total energy-change (2. order) :-0.5261372E+01  (-0.1146764E+00)
 number of electron     560.9999990 magnetization       7.0419522
 augmentation part      269.4017245 magnetization       5.9047035

 Broyden mixing:
  rms(total) = 0.10724E+00    rms(broyden)= 0.10723E+00
  rms(prec ) = 0.11224E+00
  weight for this iteration     100.00

 eigenvalues of (default mixing * dielectric matrix)
  average eigenvalue GAMMA=   1.7868
  8.2136  2.9108  2.2778  1.1143  0.9427  0.9427  0.6930  0.6930  0.6822  0.6822
  0.5024

 Free energy of the ion-electron system (eV)
  ---------------------------------------------------
  alpha Z        PSCENC =       114.51034323
  Ewald energy   TEWEN  =    181586.74167374
  -Hartree energ DENC   =   -232459.62034927
  -exchange      EXHF   =         0.00000000
  -V(xc)+E(xc)   XCENC  =      -568.81859457
  PAW double counting   =     54711.16733959   -52446.21927044
  entropy T*S    EENTRO =         0.00000000
  eigenvalues    EBANDS =     -3937.51349114
  atomic energy  EATOM  =     52897.13013440
  ---------------------------------------------------
  free energy    TOTEN  =      -102.62221447 eV

  energy without entropy =     -102.62221447  energy(sigma->0) =     -102.62221447


--------------------------------------------------------------------------------------------------------




----------------------------------------- Iteration    1(  17)  ---------------------------------------


    POTLOK:  cpu time    0.44: real time    0.44
    SETDIJ:  cpu time    0.01: real time    0.01
     EDDAV:  cpu time   10.44: real time   10.45
       DOS:  cpu time    0.00: real time    0.00
    CHARGE:  cpu time    0.26: real time    0.26
    MIXING:  cpu time    0.01: real time    0.01
    --------------------------------------------
      LOOP:  cpu time   11.16: real time   11.23

 eigenvalue-minimisations  :  1512
 total energy-change (2. order) :-0.3736268E+01  (-0.6068004E-01)
 number of electron     560.9999990 magnetization       5.3581160
 augmentation part      269.4332466 magnetization       4.2923701

 Broyden mixing:
  rms(total) = 0.75160E-01    rms(broyden)= 0.75144E-01
  rms(prec ) = 0.78933E-01
  weight for this iteration     100.00

 eigenvalues of (default mixing * dielectric matrix)
  average eigenvalue GAMMA=   1.8530
  9.0469  3.4565  2.2589  1.1892  1.1892  1.0660  0.7335  0.7335  0.8136  0.6245
  0.6245  0.5000

 Free energy of the ion-electron system (eV)
  ---------------------------------------------------
  alpha Z        PSCENC =       114.51034323
  Ewald energy   TEWEN  =    181586.74167374
  -Hartree energ DENC   =   -232407.75314246
  -exchange      EXHF   =         0.00000000
  -V(xc)+E(xc)   XCENC  =      -572.63390414
  PAW double counting   =     54666.39658419   -52400.94000033
  entropy T*S    EENTRO =         0.00000000
  eigenvalues    EBANDS =     -3989.81017148
  atomic energy  EATOM  =     52897.13013440
  ---------------------------------------------------
  free energy    TOTEN  =      -106.35848284 eV

  energy without entropy =     -106.35848284  energy(sigma->0) =     -106.35848284


--------------------------------------------------------------------------------------------------------




----------------------------------------- Iteration    1(  18)  ---------------------------------------


    POTLOK:  cpu time    0.43: real time    0.43
    SETDIJ:  cpu time    0.01: real time    0.01
     EDDAV:  cpu time   10.55: real time   10.56
       DOS:  cpu time    0.00: real time    0.00
    CHARGE:  cpu time    0.26: real time    0.26
    MIXING:  cpu time    0.02: real time    0.01
    --------------------------------------------
      LOOP:  cpu time   11.27: real time   11.42

 eigenvalue-minimisations  :  1528
 total energy-change (2. order) :-0.2016645E+01  (-0.1864695E-01)
 number of electron     560.9999990 magnetization       3.9986369
 augmentation part      269.4640915 magnetization       2.9718298

 Broyden mixing:
  rms(total) = 0.54002E-01    rms(broyden)= 0.53983E-01
  rms(prec ) = 0.56891E-01
  weight for this iteration     100.00

 eigenvalues of (default mixing * dielectric matrix)
  average eigenvalue GAMMA=   1.9261
  9.4997  4.1690  2.5580  1.4942  1.3015  1.0002  1.0002  0.7434  0.7434  0.7574
  0.6355  0.6355  0.5010

 Free energy of the ion-electron system (eV)
  ---------------------------------------------------
  alpha Z        PSCENC =       114.51034323
  Ewald energy   TEWEN  =    181586.74167374
  -Hartree energ DENC   =   -232370.78501521
  -exchange      EXHF   =         0.00000000
  -V(xc)+E(xc)   XCENC  =      -574.85208416
  PAW double counting   =     54662.20006754   -52396.51306330
  entropy T*S    EENTRO =         0.00000000
  eigenvalues    EBANDS =     -4026.80718359
  atomic energy  EATOM  =     52897.13013440
  ---------------------------------------------------
  free energy    TOTEN  =      -108.37512734 eV

  energy without entropy =     -108.37512734  energy(sigma->0) =     -108.37512734


--------------------------------------------------------------------------------------------------------




----------------------------------------- Iteration    1(  19)  ---------------------------------------


    POTLOK:  cpu time    0.41: real time    0.41
    SETDIJ:  cpu time    0.01: real time    0.01
     EDDAV:  cpu time   10.61: real time   10.62
       DOS:  cpu time    0.00: real time    0.00
    CHARGE:  cpu time    0.27: real time    0.27
    MIXING:  cpu time    0.01: real time    0.01
    --------------------------------------------
      LOOP:  cpu time   11.31: real time   11.33

 eigenvalue-minimisations  :  1528
 total energy-change (2. order) :-0.2139915E+01  (-0.1150954E-01)
 number of electron     560.9999990 magnetization       3.0081198
 augmentation part      269.4624058 magnetization       1.9704924

 Broyden mixing:
  rms(total) = 0.33549E-01    rms(broyden)= 0.33523E-01
  rms(prec ) = 0.35356E-01
  weight for this iteration     100.00

 eigenvalues of (default mixing * dielectric matrix)
  average eigenvalue GAMMA=   1.9899
 10.1604  4.9920  2.2858  2.2858  1.1644  1.1644  0.9155  0.9155  0.7743  0.7743
  0.5008  0.6514  0.6514  0.6228

 Free energy of the ion-electron system (eV)
  ---------------------------------------------------
  alpha Z        PSCENC =       114.51034323
  Ewald energy   TEWEN  =    181586.74167374
  -Hartree energ DENC   =   -232334.05174889
  -exchange      EXHF   =         0.00000000
  -V(xc)+E(xc)   XCENC  =      -577.21320021
  PAW double counting   =     54683.10454878   -52417.27400080
  entropy T*S    EENTRO =         0.00000000
  eigenvalues    EBANDS =     -4063.46279254
  atomic energy  EATOM  =     52897.13013440
  ---------------------------------------------------
  free energy    TOTEN  =      -110.51504228 eV

  energy without entropy =     -110.51504228  energy(sigma->0) =     -110.51504228


--------------------------------------------------------------------------------------------------------




----------------------------------------- Iteration    1(  20)  ---------------------------------------


    POTLOK:  cpu time    0.41: real time    0.41
    SETDIJ:  cpu time    0.01: real time    0.01
     EDDAV:  cpu time   10.68: real time   10.69
       DOS:  cpu time    0.00: real time    0.00
    CHARGE:  cpu time    0.26: real time    0.26
    MIXING:  cpu time    0.01: real time    0.01
    --------------------------------------------
      LOOP:  cpu time   11.38: real time   11.39

 eigenvalue-minimisations  :  1544
 total energy-change (2. order) :-0.9875102E+00  (-0.2858097E-02)
 number of electron     560.9999990 magnetization       2.4384403
 augmentation part      269.4873028 magnetization       1.4141546

 Broyden mixing:
  rms(total) = 0.22975E-01    rms(broyden)= 0.22961E-01
  rms(prec ) = 0.24358E-01
  weight for this iteration     100.00

 eigenvalues of (default mixing * dielectric matrix)
  average eigenvalue GAMMA=   2.0021
 10.4657  5.3622  2.6261  2.3519  1.2189  1.2189  1.0282  0.9161  0.9161  0.7653
  0.7653  0.5005  0.6406  0.6406  0.6153

 Free energy of the ion-electron system (eV)
  ---------------------------------------------------
  alpha Z        PSCENC =       114.51034323
  Ewald energy   TEWEN  =    181586.74167374
  -Hartree energ DENC   =   -232308.99370230
  -exchange      EXHF   =         0.00000000
  -V(xc)+E(xc)   XCENC  =      -578.35042418
  PAW double counting   =     54678.94140078   -52412.75762575
  entropy T*S    EENTRO =         0.00000000
  eigenvalues    EBANDS =     -4088.72435238
  atomic energy  EATOM  =     52897.13013440
  ---------------------------------------------------
  free energy    TOTEN  =      -111.50255246 eV

  energy without entropy =     -111.50255246  energy(sigma->0) =     -111.50255246


--------------------------------------------------------------------------------------------------------




----------------------------------------- Iteration    1(  21)  ---------------------------------------


    POTLOK:  cpu time    0.41: real time    0.41
    SETDIJ:  cpu time    0.01: real time    0.01
     EDDAV:  cpu time   10.72: real time   10.72
       DOS:  cpu time    0.00: real time    0.00
    CHARGE:  cpu time    0.26: real time    0.26
    MIXING:  cpu time    0.02: real time    0.02
    --------------------------------------------
      LOOP:  cpu time   11.42: real time   11.66

 eigenvalue-minimisations  :  1560
 total energy-change (2. order) :-0.3684040E+00  (-0.5465852E-03)
 number of electron     560.9999990 magnetization       1.8687375
 augmentation part      269.4752405 magnetization       0.8437566

 Broyden mixing:
  rms(total) = 0.14427E-01    rms(broyden)= 0.14423E-01
  rms(prec ) = 0.15236E-01
  weight for this iteration     100.00

 eigenvalues of (default mixing * dielectric matrix)
  average eigenvalue GAMMA=   2.0660
 11.0206  5.8949  3.0212  2.4496  1.8211  1.1587  1.1587  0.9460  0.9460  0.7634
  0.7634  0.5006  0.7187  0.6420  0.6420  0.6097

 Free energy of the ion-electron system (eV)
  ---------------------------------------------------
  alpha Z        PSCENC =       114.51034323
  Ewald energy   TEWEN  =    181586.74167374
  -Hartree energ DENC   =   -232300.43379579
  -exchange      EXHF   =         0.00000000
  -V(xc)+E(xc)   XCENC  =      -578.73812560
  PAW double counting   =     54698.28217420   -52432.28978550
  entropy T*S    EENTRO =         0.00000000
  eigenvalues    EBANDS =     -4097.07357510
  atomic energy  EATOM  =     52897.13013440
  ---------------------------------------------------
  free energy    TOTEN  =      -111.87095642 eV

  energy without entropy =     -111.87095642  energy(sigma->0) =     -111.87095642


--------------------------------------------------------------------------------------------------------




----------------------------------------- Iteration    1(  22)  ---------------------------------------


    POTLOK:  cpu time    0.42: real time    0.42
    SETDIJ:  cpu time    0.01: real time    0.01
     EDDAV:  cpu time   10.79: real time   10.80
       DOS:  cpu time    0.00: real time    0.00
    CHARGE:  cpu time    0.26: real time    0.26
    MIXING:  cpu time    0.02: real time    0.02
    --------------------------------------------
      LOOP:  cpu time   11.50: real time   11.97

 eigenvalue-minimisations  :  1560
 total energy-change (2. order) :-0.2715222E+00  (-0.3545859E-03)
 number of electron     560.9999990 magnetization       1.6715061
 augmentation part      269.4814609 magnetization       0.6512145

 Broyden mixing:
  rms(total) = 0.87980E-02    rms(broyden)= 0.87949E-02
  rms(prec ) = 0.93403E-02
  weight for this iteration     100.00

 eigenvalues of (default mixing * dielectric matrix)
  average eigenvalue GAMMA=   2.0825
 11.2014  6.4811  3.5041  2.3497  2.0002  1.3435  1.0436  1.0436  0.9211  0.9211
  0.7650  0.7650  0.5007  0.6836  0.6370  0.6370  0.6048

 Free energy of the ion-electron system (eV)
  ---------------------------------------------------
  alpha Z        PSCENC =       114.51034323
  Ewald energy   TEWEN  =    181586.74167374
  -Hartree energ DENC   =   -232290.39574268
  -exchange      EXHF   =         0.00000000
  -V(xc)+E(xc)   XCENC  =      -579.04092259
  PAW double counting   =     54700.49321843   -52434.49447528
  entropy T*S    EENTRO =         0.00000000
  eigenvalues    EBANDS =     -4107.08670788
  atomic energy  EATOM  =     52897.13013440
  ---------------------------------------------------
  free energy    TOTEN  =      -112.14247862 eV

  energy without entropy =     -112.14247862  energy(sigma->0) =     -112.14247862


--------------------------------------------------------------------------------------------------------




----------------------------------------- Iteration    1(  23)  ---------------------------------------


    POTLOK:  cpu time    0.41: real time    0.41
    SETDIJ:  cpu time    0.01: real time    0.01
     EDDAV:  cpu time    8.22: real time    8.23
       DOS:  cpu time    0.00: real time    0.00
    CHARGE:  cpu time    0.26: real time    0.26
    MIXING:  cpu time    0.02: real time    0.02
    --------------------------------------------
      LOOP:  cpu time    8.93: real time    8.94

 eigenvalue-minimisations  :  1068
 total energy-change (2. order) :-0.9772985E-01  (-0.6762780E-04)
 number of electron     560.9999990 magnetization       1.4752280
 augmentation part      269.4782082 magnetization       0.4514651

 Broyden mixing:
  rms(total) = 0.65709E-02    rms(broyden)= 0.65701E-02
  rms(prec ) = 0.69001E-02
  weight for this iteration     100.00

 eigenvalues of (default mixing * dielectric matrix)
  average eigenvalue GAMMA=   2.0905
 11.3905  6.8019  3.7311  2.2103  2.2103  1.8118  1.1414  1.1414  0.9164  0.9164
  0.7663  0.7663  0.8013  0.5008  0.6491  0.6491  0.6302  0.5943

 Free energy of the ion-electron system (eV)
  ---------------------------------------------------
  alpha Z        PSCENC =       114.51034323
  Ewald energy   TEWEN  =    181586.74167374
  -Hartree energ DENC   =   -232287.24794115
  -exchange      EXHF   =         0.00000000
  -V(xc)+E(xc)   XCENC  =      -579.13113873
  PAW double counting   =     54702.21532875   -52436.25307368
  entropy T*S    EENTRO =         0.00000000
  eigenvalues    EBANDS =     -4110.20553503
  atomic energy  EATOM  =     52897.13013440
  ---------------------------------------------------
  free energy    TOTEN  =      -112.24020847 eV

  energy without entropy =     -112.24020847  energy(sigma->0) =     -112.24020847


--------------------------------------------------------------------------------------------------------




----------------------------------------- Iteration    1(  24)  ---------------------------------------


    POTLOK:  cpu time    0.41: real time    0.41
    SETDIJ:  cpu time    0.01: real time    0.01
     EDDAV:  cpu time    8.03: real time    8.04
       DOS:  cpu time    0.00: real time    0.00
    CHARGE:  cpu time    0.26: real time    0.26
    MIXING:  cpu time    0.02: real time    0.02
    --------------------------------------------
      LOOP:  cpu time    8.73: real time    8.77

 eigenvalue-minimisations  :  1044
 total energy-change (2. order) :-0.7481982E-01  (-0.3875674E-04)
 number of electron     560.9999990 magnetization       1.2900898
 augmentation part      269.4793480 magnetization       0.2671507

 Broyden mixing:
  rms(total) = 0.45476E-02    rms(broyden)= 0.45470E-02
  rms(prec ) = 0.47392E-02
  weight for this iteration     100.00

 eigenvalues of (default mixing * dielectric matrix)
  average eigenvalue GAMMA=   2.1291
 11.5773  7.1241  4.0918  2.6249  2.6249  1.5721  1.5721  1.0701  1.0701  0.9157
  0.9157  0.7637  0.7637  0.5007  0.7586  0.6360  0.6360  0.6408  0.5940

 Free energy of the ion-electron system (eV)
  ---------------------------------------------------
  alpha Z        PSCENC =       114.51034323
  Ewald energy   TEWEN  =    181586.74167374
  -Hartree energ DENC   =   -232284.58720311
  -exchange      EXHF   =         0.00000000
  -V(xc)+E(xc)   XCENC  =      -579.20473592
  PAW double counting   =     54700.42151454   -52434.46963029
  entropy T*S    EENTRO =         0.00000000
  eigenvalues    EBANDS =     -4112.85712487
  atomic energy  EATOM  =     52897.13013440
  ---------------------------------------------------
  free energy    TOTEN  =      -112.31502829 eV

  energy without entropy =     -112.31502829  energy(sigma->0) =     -112.31502829


--------------------------------------------------------------------------------------------------------




----------------------------------------- Iteration    1(  25)  ---------------------------------------


    POTLOK:  cpu time    0.41: real time    0.41
    SETDIJ:  cpu time    0.01: real time    0.01
     EDDAV:  cpu time    7.90: real time    7.91
       DOS:  cpu time    0.00: real time    0.00
    CHARGE:  cpu time    0.27: real time    0.27
    MIXING:  cpu time    0.02: real time    0.02
    --------------------------------------------
      LOOP:  cpu time    8.61: real time    8.62

 eigenvalue-minimisations  :  1020
 total energy-change (2. order) :-0.7221032E-01  (-0.2929925E-04)
 number of electron     560.9999990 magnetization       1.1932438
 augmentation part      269.4805436 magnetization       0.1718921

 Broyden mixing:
  rms(total) = 0.31126E-02    rms(broyden)= 0.31123E-02
  rms(prec ) = 0.32025E-02
  weight for this iteration     100.00

 eigenvalues of (default mixing * dielectric matrix)
  average eigenvalue GAMMA=   2.1332
 11.6028  7.4549  4.4984  3.0396  2.4225  1.7199  1.7199  1.0832  1.0832  0.9884
  0.8773  0.8773  0.7657  0.7657  0.7709  0.5007  0.6293  0.6293  0.6398  0.5958

 Free energy of the ion-electron system (eV)
  ---------------------------------------------------
  alpha Z        PSCENC =       114.51034323
  Ewald energy   TEWEN  =    181586.74167374
  -Hartree energ DENC   =   -232282.50588970
  -exchange      EXHF   =         0.00000000
  -V(xc)+E(xc)   XCENC  =      -579.27679437
  PAW double counting   =     54698.13659706   -52432.18871174
  entropy T*S    EENTRO =         0.00000000
  eigenvalues    EBANDS =     -4114.93459124
  atomic energy  EATOM  =     52897.13013440
  ---------------------------------------------------
  free energy    TOTEN  =      -112.38723861 eV

  energy without entropy =     -112.38723861  energy(sigma->0) =     -112.38723861


--------------------------------------------------------------------------------------------------------




----------------------------------------- Iteration    1(  26)  ---------------------------------------


    POTLOK:  cpu time    0.42: real time    0.42
    SETDIJ:  cpu time    0.01: real time    0.01
     EDDAV:  cpu time    7.88: real time    7.89
       DOS:  cpu time    0.00: real time    0.00
    CHARGE:  cpu time    0.26: real time    0.26
    MIXING:  cpu time    0.02: real time    0.02
    --------------------------------------------
      LOOP:  cpu time    8.60: real time    8.61

 eigenvalue-minimisations  :  1024
 total energy-change (2. order) :-0.3155724E-01  (-0.8229702E-05)
 number of electron     560.9999990 magnetization       1.1046854
 augmentation part      269.4798138 magnetization       0.0834191

 Broyden mixing:
  rms(total) = 0.22741E-02    rms(broyden)= 0.22740E-02
  rms(prec ) = 0.23304E-02
  weight for this iteration     100.00

 eigenvalues of (default mixing * dielectric matrix)
  average eigenvalue GAMMA=   2.1805
 11.7084  7.8223  5.2279  3.3336  2.3482  2.3482  1.4671  1.4671  1.0842  1.0842
  0.9204  0.9204  0.7651  0.7651  0.8107  0.5007  0.7182  0.6348  0.6348  0.6318
  0.5970

 Free energy of the ion-electron system (eV)
  ---------------------------------------------------
  alpha Z        PSCENC =       114.51034323
  Ewald energy   TEWEN  =    181586.74167374
  -Hartree energ DENC   =   -232281.86687719
  -exchange      EXHF   =         0.00000000
  -V(xc)+E(xc)   XCENC  =      -579.30564810
  PAW double counting   =     54697.80806889   -52431.85445706
  entropy T*S    EENTRO =         0.00000000
  eigenvalues    EBANDS =     -4115.58203378
  atomic energy  EATOM  =     52897.13013440
  ---------------------------------------------------
  free energy    TOTEN  =      -112.41879585 eV

  energy without entropy =     -112.41879585  energy(sigma->0) =     -112.41879585


--------------------------------------------------------------------------------------------------------




----------------------------------------- Iteration    1(  27)  ---------------------------------------


    POTLOK:  cpu time    0.42: real time    0.42
    SETDIJ:  cpu time    0.01: real time    0.01
     EDDAV:  cpu time    7.75: real time    7.76
       DOS:  cpu time    0.00: real time    0.00
    CHARGE:  cpu time    0.26: real time    0.26
    MIXING:  cpu time    0.02: real time    0.02
    --------------------------------------------
      LOOP:  cpu time    8.47: real time    8.48

 eigenvalue-minimisations  :   992
 total energy-change (2. order) :-0.1807529E-01  (-0.1063807E-04)
 number of electron     560.9999990 magnetization       1.0634185
 augmentation part      269.4795144 magnetization       0.0421436

 Broyden mixing:
  rms(total) = 0.13711E-02    rms(broyden)= 0.13710E-02
  rms(prec ) = 0.14238E-02
  weight for this iteration     100.00

 eigenvalues of (default mixing * dielectric matrix)
  average eigenvalue GAMMA=   2.2232
 11.7596  8.4669  5.8207  3.6573  2.5095  2.5095  1.5855  1.5855  1.0840  1.0840
  1.0650  0.8838  0.8838  0.7623  0.7623  0.8133  0.5007  0.6789  0.6357  0.6357
  0.6299  0.5956

 Free energy of the ion-electron system (eV)
  ---------------------------------------------------
  alpha Z        PSCENC =       114.51034323
  Ewald energy   TEWEN  =    181586.74167374
  -Hartree energ DENC   =   -232281.32262838
  -exchange      EXHF   =         0.00000000
  -V(xc)+E(xc)   XCENC  =      -579.32336253
  PAW double counting   =     54698.17889785   -52432.21526699
  entropy T*S    EENTRO =         0.00000000
  eigenvalues    EBANDS =     -4116.13666247
  atomic energy  EATOM  =     52897.13013440
  ---------------------------------------------------
  free energy    TOTEN  =      -112.43687114 eV

  energy without entropy =     -112.43687114  energy(sigma->0) =     -112.43687114


--------------------------------------------------------------------------------------------------------




----------------------------------------- Iteration    1(  28)  ---------------------------------------


    POTLOK:  cpu time    0.42: real time    0.42
    SETDIJ:  cpu time    0.01: real time    0.01
     EDDAV:  cpu time    7.70: real time    7.71
       DOS:  cpu time    0.00: real time    0.00
    CHARGE:  cpu time    0.26: real time    0.26
    MIXING:  cpu time    0.02: real time    0.02
    --------------------------------------------
      LOOP:  cpu time    8.41: real time    8.44

 eigenvalue-minimisations  :   984
 total energy-change (2. order) :-0.7230620E-02  (-0.4154147E-05)
 number of electron     560.9999990 magnetization       1.0304726
 augmentation part      269.4795205 magnetization       0.0087417

 Broyden mixing:
  rms(total) = 0.93005E-03    rms(broyden)= 0.92998E-03
  rms(prec ) = 0.98261E-03
  weight for this iteration     100.00

 eigenvalues of (default mixing * dielectric matrix)
  average eigenvalue GAMMA=   2.2491
 11.8626  9.0721  6.2990  3.8610  2.5740  2.5740  1.7436  1.6488  1.1108  1.1108
  1.1770  0.9110  0.9110  0.9408  0.7646  0.7646  0.5007  0.7100  0.7100  0.6271
  0.6271  0.5967  0.6312

 Free energy of the ion-electron system (eV)
  ---------------------------------------------------
  alpha Z        PSCENC =       114.51034323
  Ewald energy   TEWEN  =    181586.74167374
  -Hartree energ DENC   =   -232280.95622065
  -exchange      EXHF   =         0.00000000
  -V(xc)+E(xc)   XCENC  =      -579.33234271
  PAW double counting   =     54698.52260388   -52432.55657966
  entropy T*S    EENTRO =         0.00000000
  eigenvalues    EBANDS =     -4116.50371400
  atomic energy  EATOM  =     52897.13013440
  ---------------------------------------------------
  free energy    TOTEN  =      -112.44410176 eV

  energy without entropy =     -112.44410176  energy(sigma->0) =     -112.44410176


--------------------------------------------------------------------------------------------------------




----------------------------------------- Iteration    1(  29)  ---------------------------------------


    POTLOK:  cpu time    0.41: real time    0.41
    SETDIJ:  cpu time    0.01: real time    0.01
     EDDAV:  cpu time    7.57: real time    7.58
       DOS:  cpu time    0.00: real time    0.00
    CHARGE:  cpu time    0.26: real time    0.26
    MIXING:  cpu time    0.02: real time    0.02
    --------------------------------------------
      LOOP:  cpu time    8.27: real time    8.28

 eigenvalue-minimisations  :   952
 total energy-change (2. order) :-0.4379814E-02  (-0.1187845E-05)
 number of electron     560.9999990 magnetization       1.0146963
 augmentation part      269.4799514 magnetization      -0.0066622

 Broyden mixing:
[...]
 -0.000   0.024  -0.688   0.070   0.009   0.009  -0.010   0.711  -0.043  -0.008   0.091  -0.054  -0.021   0.138  -0.048   0.001
 -0.012   0.031   0.070  -0.891  -0.076   0.001  -0.024  -0.043   0.834   0.066   0.047  -0.018  -0.015   0.003   0.232   0.000
  0.025   0.080   0.009  -0.076  -0.587  -0.022  -0.079  -0.008   0.066   0.538   0.019  -0.007  -0.044   0.003   0.046   0.002
  0.039  -0.013  -0.124  -0.056  -0.012  -0.041   0.013   0.091   0.047   0.019   1.865  -0.254   0.023   0.244   0.047  -0.002
  0.007   0.017   0.081   0.024   0.001  -0.001  -0.016  -0.054  -0.018  -0.007  -0.254   0.054  -0.007  -0.052  -0.010   0.001
 -0.044  -0.180   0.020   0.017   0.044   0.049   0.205  -0.021  -0.015  -0.044   0.023  -0.007   0.077   0.001  -0.007  -0.005
  0.001  -0.004  -0.100   0.005  -0.002  -0.002   0.007   0.138   0.003   0.003   0.244  -0.052   0.001   0.066  -0.003  -0.000
 -0.004   0.017   0.047  -0.213  -0.044   0.006  -0.014  -0.048   0.232   0.046   0.047  -0.010  -0.007  -0.003   0.092   0.000
 -0.001  -0.007  -0.000  -0.000  -0.001  -0.003  -0.012   0.001   0.000   0.002  -0.002   0.001  -0.005  -0.000   0.000   0.000
 -0.000  -0.000  -0.011  -0.002   0.000   0.000  -0.001  -0.010  -0.001  -0.000  -0.023   0.004  -0.000  -0.006  -0.000   0.000
 -0.001  -0.000   0.000  -0.006  -0.002  -0.001   0.000   0.002  -0.013  -0.002  -0.004   0.001   0.000  -0.000  -0.005  -0.000
 total augmentation occupancy for first ion, spin component:           2
 -0.007  -0.003   0.001  -0.003   0.003   0.003   0.002  -0.000   0.002  -0.002  -0.003  -0.000   0.000  -0.000   0.000  -0.000
 -0.003  -0.005  -0.000   0.007  -0.008   0.002   0.002   0.000  -0.005   0.006   0.008   0.001  -0.001  -0.001  -0.003   0.000
  0.001  -0.000  -0.007  -0.000   0.001  -0.000   0.000   0.004  -0.000  -0.001   0.000  -0.000   0.000   0.000  -0.000   0.000
 -0.003   0.007  -0.000   0.006  -0.019   0.002  -0.005  -0.000  -0.006   0.015   0.013   0.001  -0.003  -0.001  -0.004   0.000
  0.003  -0.008   0.001  -0.019   0.015  -0.002   0.006  -0.001   0.015  -0.013  -0.017  -0.003   0.004   0.000   0.006  -0.000
  0.003   0.002  -0.000   0.002  -0.002  -0.000  -0.001  -0.000  -0.002   0.002   0.003   0.000  -0.001   0.000  -0.001   0.000
  0.002   0.002   0.000  -0.005   0.006  -0.001   0.000  -0.000   0.004  -0.005  -0.006  -0.001   0.001   0.000   0.002  -0.000
 -0.000   0.000   0.004  -0.000  -0.001  -0.000  -0.000  -0.001   0.000   0.001  -0.000   0.000   0.000  -0.000   0.000  -0.000
  0.002  -0.005  -0.000  -0.006   0.015  -0.002   0.004   0.000   0.007  -0.011  -0.010  -0.001   0.003   0.000   0.003  -0.000
 -0.002   0.006  -0.001   0.015  -0.013   0.002  -0.005   0.001  -0.011   0.012   0.014   0.001  -0.003  -0.000  -0.005   0.000
 -0.003   0.008   0.000   0.013  -0.017   0.003  -0.006  -0.000  -0.010   0.014   0.015   0.001  -0.004  -0.000  -0.006   0.000
 -0.000   0.001  -0.000   0.001  -0.003   0.000  -0.001   0.000  -0.001   0.001   0.001   0.000  -0.000  -0.000  -0.000   0.000
  0.000  -0.001   0.000  -0.003   0.004  -0.001   0.001   0.000   0.003  -0.003  -0.004  -0.000   0.001   0.000   0.001  -0.000
 -0.000  -0.001   0.000  -0.001   0.000   0.000   0.000  -0.000   0.000  -0.000  -0.000  -0.000   0.000  -0.000   0.000   0.000
  0.000  -0.003  -0.000  -0.004   0.006  -0.001   0.002   0.000   0.003  -0.005  -0.006  -0.000   0.001   0.000   0.002  -0.000
 -0.000   0.000   0.000   0.000  -0.000   0.000  -0.000  -0.000  -0.000   0.000   0.000   0.000  -0.000   0.000  -0.000   0.000
  0.000  -0.000   0.000  -0.000   0.000  -0.000   0.000  -0.000   0.000  -0.000  -0.000   0.000   0.000   0.000   0.000  -0.000
 -0.000   0.000   0.000   0.000  -0.000   0.000  -0.000  -0.000  -0.000   0.000   0.000   0.000  -0.000   0.000  -0.000   0.000


------------------------ aborting loop because EDIFF is reached ----------------------------------------


    CHARGE:  cpu time    0.26: real time    0.26
    FORLOC:  cpu time    0.03: real time    0.03
    FORNL :  cpu time    7.85: real time    7.85
    STRESS:  cpu time    9.81: real time    9.81
    FORCOR:  cpu time    0.41: real time    0.41
    FORHAR:  cpu time    0.07: real time    0.07
    MIXING:  cpu time    0.01: real time    0.01
    OFIELD:  cpu time    0.00: real time    0.00

  FORCE on cell =-STRESS in cart. coord.  units (eV):
  Direction    XX          YY          ZZ          XY          YZ          ZX
  --------------------------------------------------------------------------------------
  Alpha Z   114.51034   114.51034   114.51034
  Ewald   67153.03089 53866.25254 66744.22890 -2710.95788  5660.50368  -484.33623
  Hartree 83802.79463 71023.37067 83571.27226 -2562.13910  5404.28698  -515.57828
  E(xc)   -2958.07277 -2958.18146 -2958.68289    -0.15561     0.18620     0.19535
  Local  ************************************  5272.34105-11065.75564  1002.65574
  n-local  -525.78362  -527.85138  -525.84641    -0.43500     0.76352    -0.12801
  augment  4687.22193  4687.45151  4688.59024     0.40220    -0.20564    -0.78179
  Kinetic  6979.48693  6979.33405  6982.77653     0.84903     0.11412    -1.80833
  Fock        0.00000     0.00000     0.00000     0.00000     0.00000     0.00000
  -------------------------------------------------------------------------------------
  Total     -18.25696   -18.23739   -18.34431    -0.09531    -0.10677     0.21844
  in kB      -1.51401    -1.51239    -1.52126    -0.00790    -0.00885     0.01811
  external pressure =       -1.52 kB  Pullay stress =        0.00 kB


 VOLUME and BASIS-vectors are now :
 -----------------------------------------------------------------------------
  energy-cutoff  :      249.84
  volume of cell :    19320.12
      direct lattice vectors                 reciprocal lattice vectors
    26.833043757  0.000000000  0.000000000     0.037267483  0.000000000  0.000000000
     0.000000000 26.833043757  0.000000000     0.000000000  0.037267483  0.000000000
     0.000000000  0.000000000 26.833043757     0.000000000  0.000000000  0.037267483

  length of vectors
    26.833043757 26.833043757 26.833043757     0.037267483  0.037267483  0.037267483


 FORCES acting on ions
    electron-ion (+dipol)            ewald-force                    non-local-force                 convergence-correction
 -----------------------------------------------------------------------------------------------
   0.359E+03 0.284E+03 0.186E+04   -.358E+03 -.284E+03 -.186E+04   -.964E+00 -.285E+00 -.511E+01   0.722E-03 -.113E-01 -.911E-02
   0.214E+03 -.917E+03 0.166E+04   -.213E+03 0.915E+03 -.165E+04   -.973E+00 0.196E+01 -.281E+01   -.563E-03 -.305E-02 -.366E-02
   -.658E+03 -.764E+02 0.175E+04   0.657E+03 0.753E+02 -.175E+04   0.853E+00 0.112E+01 -.303E+01   0.537E-02 -.833E-02 -.616E-02
   0.118E+04 -.118E+03 0.145E+04   -.118E+04 0.117E+03 -.145E+04   -.203E+01 0.276E+00 -.236E+01   0.335E-02 -.152E-03 -.377E-02
   -.256E+03 0.105E+04 0.148E+04   0.257E+03 -.105E+04 -.148E+04   -.699E+00 -.228E+01 -.161E+01   0.209E-02 -.132E-01 0.408E-02
   0.973E+03 0.112E+04 0.116E+04   -.972E+03 -.112E+04 -.116E+04   -.862E+00 -.204E+01 -.285E+01   0.538E-02 -.888E-02 -.230E-02
   -.693E+03 -.123E+04 0.130E+04   0.692E+03 0.123E+04 -.130E+04   0.135E+01 0.397E+01 -.104E+01   0.242E-02 -.775E-02 -.117E-01
   -.152E+04 -.339E+03 0.118E+04   0.151E+04 0.338E+03 -.118E+04   0.378E+01 0.125E+01 -.362E+01   -.981E-03 -.388E-02 -.537E-02
   0.926E+03 -.126E+04 0.110E+04   -.924E+03 0.126E+04 -.110E+04   -.176E+01 0.209E+01 -.196E+01   0.469E-02 0.790E-02 0.564E-02
   0.220E+03 0.284E+03 0.988E+03   -.220E+03 -.284E+03 -.987E+03   -.417E+00 -.643E+00 -.144E+01   0.123E-01 -.121E-01 0.207E-01
   0.175E+04 -.479E+03 0.691E+03   -.174E+04 0.478E+03 -.689E+03   -.462E+01 0.134E+01 -.222E+01   -.137E-02 0.126E-02 -.391E-02
   -.128E+04 0.757E+03 0.109E+04   0.128E+04 -.756E+03 -.109E+04   0.237E+01 -.104E+01 -.896E+00   0.326E-02 -.597E-03 -.512E-02
   0.161E+04 0.797E+03 0.603E+03   -.160E+04 -.797E+03 -.602E+03   -.345E+01 -.490E+00 -.638E+00   -.147E-02 -.249E-02 -.664E-02
   -.679E+03 0.162E+04 0.614E+03   0.677E+03 -.161E+04 -.613E+03   0.197E+01 -.523E+01 -.117E+01   0.648E-02 -.129E-01 0.373E-02
   0.370E+03 0.175E+04 0.528E+03   -.368E+03 -.174E+04 -.528E+03   -.172E+01 -.467E+01 0.530E+00   0.337E-02 -.150E-02 0.103E-01
   0.307E+02 -.992E+03 0.747E+03   -.307E+02 0.992E+03 -.746E+03   0.745E-01 0.240E+00 -.320E+00   0.837E-02 0.770E-02 0.572E-02
   -.783E+03 -.838E+02 0.644E+03   0.782E+03 0.836E+02 -.643E+03   0.121E+01 0.228E+00 -.810E+00   -.803E-02 -.130E-01 0.569E-02
   0.959E+03 -.137E+03 0.389E+03   -.958E+03 0.137E+03 -.388E+03   -.152E+01 0.348E+00 -.510E+00   0.687E-02 -.703E-03 0.395E-02
   -.299E+03 0.129E+04 0.207E+03   0.299E+03 -.129E+04 -.206E+03   0.612E+00 -.770E+00 -.105E+01   -.106E-01 0.356E-01 0.222E-01
   0.741E+03 0.139E+04 0.136E+03   -.741E+03 -.139E+04 -.136E+03   -.419E+00 -.958E+00 0.172E+00   0.166E-01 0.135E-02 -.412E-03
   -.151E+04 -.103E+04 0.440E+03   0.151E+04 0.103E+04 -.439E+03   0.203E+01 0.141E+01 -.639E+00   -.715E-02 0.252E-02 -.718E-02
   0.559E+03 -.165E+04 0.476E+03   -.558E+03 0.165E+04 -.476E+03   -.457E+00 0.225E+01 -.130E+00   0.156E-01 0.579E-02 0.342E-01
   0.147E+04 -.116E+04 -.582E+02   -.147E+04 0.116E+04 0.586E+02   -.210E+01 0.199E+01 -.392E+00   -.158E-02 0.209E-02 0.528E-02
   -.183E+04 0.160E+03 0.282E+03   0.183E+04 -.159E+03 -.281E+03   0.267E+01 -.562E+00 -.510E+00   -.160E-02 0.515E-02 -.911E-02
   -.662E+03 -.681E+03 -.228E+03   0.661E+03 0.680E+03 0.228E+03   0.980E+00 0.749E+00 0.247E+00   -.997E-02 0.609E-02 -.669E-02
   0.526E+02 0.282E+03 0.923E+01   -.529E+02 -.282E+03 -.949E+01   0.236E+00 0.227E-01 0.270E+00   0.452E-01 -.439E-01 -.159E-01
   -.128E+02 -.179E+04 -.153E+03   0.126E+02 0.179E+04 0.152E+03   0.178E+00 0.620E+01 0.417E+00   0.686E-02 0.137E-02 0.190E-01
   -.126E+04 0.137E+04 0.361E+02   0.125E+04 -.136E+04 -.374E+02   0.169E+01 -.311E+01 0.125E+01   -.160E-02 0.610E-02 0.422E-02
   -.132E+04 -.138E+04 -.500E+03   0.131E+04 0.137E+04 0.499E+03   0.334E+01 0.424E+01 0.108E+01   -.125E-01 0.696E-02 0.253E-03
   0.817E+03 0.467E+03 -.591E+03   -.816E+03 -.467E+03 0.590E+03   -.117E+01 -.282E+00 0.110E+01   0.125E-02 0.387E-02 0.217E-03
   -.168E+04 0.688E+03 -.651E+03   0.167E+04 -.687E+03 0.649E+03   0.450E+01 -.165E+01 0.201E+01   0.145E-01 0.731E-02 0.314E-03
   -.170E+04 -.417E+03 -.655E+03   0.170E+04 0.416E+03 0.655E+03   0.264E+01 0.107E+01 0.753E+00   0.901E-04 0.139E-01 -.708E-02
   0.446E+03 -.764E+03 -.400E+03   -.445E+03 0.763E+03 0.400E+03   -.480E+00 0.990E+00 0.469E+00   -.113E-01 0.757E-02 0.135E-01
   -.610E+03 -.165E+04 0.510E+03   0.609E+03 0.164E+04 -.508E+03   0.695E+00 0.190E+01 -.162E+01   -.765E-03 0.794E-02 0.438E-02
   0.798E+02 0.157E+04 -.552E+03   -.795E+02 -.157E+04 0.551E+03   -.276E+00 -.248E+01 0.645E+00   0.265E-02 0.113E-01 -.206E-01
   -.861E+03 0.591E+03 -.360E+03   0.860E+03 -.590E+03 0.359E+03   0.127E+01 -.178E+00 0.671E+00   -.405E-01 0.194E-01 -.354E-01
   0.137E+04 0.129E+04 -.262E+03   -.137E+04 -.128E+04 0.261E+03   -.215E+01 -.403E+01 0.445E+00   0.193E-02 0.649E-03 -.333E-02
   0.184E+04 -.408E+02 -.272E+03   -.184E+04 0.415E+02 0.272E+03   -.284E+01 -.676E+00 0.281E+00   -.189E-03 0.424E-04 -.598E-03
   0.855E+03 -.151E+04 -.833E+03   -.853E+03 0.151E+04 0.832E+03   -.207E+01 0.379E+01 0.161E+01   -.678E-02 -.893E-02 0.137E-01
   0.695E+03 0.139E+04 -.110E+04   -.694E+03 -.139E+04 0.110E+04   -.171E+01 -.395E+01 0.679E+00   0.279E-02 -.975E-03 -.564E-02
   -.329E+03 -.148E+04 -.914E+03   0.329E+03 0.148E+04 0.914E+03   0.118E+00 0.123E+01 0.170E+00   -.932E-02 -.130E-01 0.558E-02
   -.148E+03 0.875E+02 -.102E+04   0.148E+03 -.873E+02 0.102E+04   0.205E+00 -.212E+00 0.148E+01   -.887E-02 0.462E-02 -.926E-02
   -.740E+03 0.151E+04 -.891E+03   0.739E+03 -.151E+04 0.891E+03   0.113E+01 -.479E+01 0.123E-01   -.399E-03 -.402E-02 -.258E-01
   -.935E+03 -.819E+03 -.141E+04   0.934E+03 0.818E+03 0.141E+04   0.117E+01 0.954E+00 0.245E+01   -.257E-02 0.574E-02 -.375E-02
   -.115E+04 0.330E+03 -.145E+04   0.114E+04 -.329E+03 0.145E+04   0.179E+01 -.547E+00 0.235E+01   -.106E-02 -.634E-03 0.136E-02
   0.150E+04 0.400E+03 -.114E+04   -.150E+04 -.399E+03 0.114E+04   -.390E+01 -.102E+01 0.325E+01   -.339E-02 -.552E-02 -.296E-02
   0.133E+04 -.685E+03 -.113E+04   -.133E+04 0.683E+03 0.113E+04   -.227E+01 0.145E+01 0.122E+01   -.545E-02 -.433E-03 0.480E-02
   -.141E+03 0.110E+04 -.153E+04   0.140E+03 -.110E+04 0.153E+04   0.820E+00 -.117E+01 0.291E+01   0.407E-02 -.215E-03 -.582E-02
   0.310E+03 -.938E+03 -.160E+04   -.310E+03 0.937E+03 0.159E+04   0.209E+00 0.128E+01 0.235E+01   -.128E-01 -.145E-02 0.883E-02
   -.315E+03 -.120E+03 -.191E+04   0.314E+03 0.120E+03 0.190E+04   0.676E+00 0.191E+00 0.525E+01   -.326E-02 -.923E-03 0.361E-02
   0.691E+03 0.159E+03 -.172E+04   -.690E+03 -.159E+03 0.172E+04   -.959E+00 -.484E+00 0.301E+01   -.212E-02 -.140E-02 0.920E-03
 -----------------------------------------------------------------------------------------------
   0.126E+01 0.101E+01 -.389E+00   0.216E-11 0.171E-12 0.591E-11   -.125E+01 -.104E+01 0.356E+00   0.101E-01 -.895E-02 -.151E-01
 
 
 POSITION                                       TOTAL-FORCE (eV/Angst)
 -----------------------------------------------------------------------------------
      9.63405      9.51494      5.15909        -0.003007      0.010577     -0.000741
      9.99172     12.17398      6.26440        -0.000762      0.008157     -0.001553
     12.29107     10.37775      6.06688        -0.000479      0.009352      0.006053
      7.51970     10.66148      6.83506        -0.007326      0.000805     -0.000568
     11.42075      7.71416      6.44842        -0.002196      0.009606     -0.002970
      8.18114      7.87838      7.07000        -0.004787      0.006252      0.001050
     12.60921     12.96955      7.28145         0.000808      0.010021      0.011207
     14.84895     11.16370      7.27053         0.000893      0.003328      0.004675
      7.90987     13.27826      8.00967        -0.007641     -0.005158     -0.011269
     10.08273      9.82378      7.85555        -0.001513      0.004764      0.004803
      5.56989     11.74752      8.72196        -0.004635      0.000116      0.001675
     13.91773      8.46646      7.58981        -0.002047      0.004345      0.004766
      6.24945      8.91433      8.90694        -0.004636      0.000843      0.005288
     12.92276      5.85752      8.00085        -0.000730      0.000548     -0.010182
     10.00360      5.99333      8.12708        -0.004478      0.002655     -0.011686
     10.44952     12.54478      9.01363        -0.003928     -0.005774     -0.002471
     12.66670     10.63246      8.89002        -0.004034      0.000310      0.010539
      8.04494     10.94890      9.63568        -0.007111      0.001258     -0.001073
     11.65959      7.80930      9.44392        -0.007016      0.005351      0.006582
      8.73314      7.94823      9.85970        -0.000856      0.000589      0.001540
     14.41600     12.81341      9.59916         0.008343     -0.003458      0.006917
      9.13156     14.80122     10.06807        -0.009289     -0.000515     -0.027330
      6.83142     13.27272     10.84069         0.000884     -0.001068     -0.002321
     15.28935      9.98633      9.83650         0.000011     -0.004767      0.005324
     12.26548     12.18164     11.33844         0.008545     -0.006727      0.004539
     10.50895     10.10962     10.57273         0.015556     -0.011125     -0.002385
     10.49244     16.65423     11.52025        -0.009035     -0.005839     -0.025188
     14.36931      7.24567     10.14772         0.001296     -0.007497     -0.004494
     14.02619     14.17579     12.11154         0.010973     -0.006491      0.000354
      8.35024      9.73944     12.26324        -0.003429     -0.005668      0.003196
     15.48387      8.65764     12.41189         0.004541     -0.014695      0.003545
     14.83236     11.44658     12.27847         0.004425     -0.007652      0.006798
      9.41819     12.42199     11.76258         0.004633      0.006957     -0.002489
     12.08575     14.70263     10.02167        -0.000181     -0.009074     -0.002745
     10.53455      7.76995     12.17344         0.001565     -0.000169      0.003540
     12.99910      9.33809     11.50995        -0.011375     -0.011536     -0.002719
      6.44167      7.87055     11.59948        -0.004329     -0.001748      0.005120
      5.76097     10.66646     11.36755        -0.000846     -0.000953      0.002232
      8.47023     14.76929     12.88045         0.010039      0.005477     -0.016760
      8.33977      7.59657     14.05879        -0.005038     -0.000669      0.006631
     11.30040     14.47394     12.89089         0.010675      0.007435     -0.006433
     10.96782     10.53767     13.31585         0.004313     -0.005788      0.000620
     13.14011      7.19880     13.28054        -0.002205     -0.003737      0.027059
     12.84520     12.52072     14.15628         0.002834      0.001356      0.000464
     13.54327      9.75884     14.33404         0.002707      0.002056      0.005632
      6.18348      9.50076     13.95418         0.001818      0.005723      0.003264
      7.22313     12.14829     13.49992         0.008622      0.004153     -0.005647
     10.99580      8.22090     14.92641        -0.005521     -0.000744      0.008869
      9.79646     12.83081     14.63114         0.010164      0.003219     -0.010862
     11.42410     10.89106     16.01851         0.002057      0.002348      0.000814
      8.75010     10.20340     15.10278         0.002728      0.003255     -0.001212
 -----------------------------------------------------------------------------------
    total drift:                                0.025650     -0.033141     -0.048166


--------------------------------------------------------------------------------------------------------



  FREE ENERGIE OF THE ION-ELECTRON SYSTEM (eV)
  ---------------------------------------------------
  free  energy   TOTEN  =      -112.99035860 eV

  energy  without entropy=     -112.99035860  energy(sigma->0) =     -112.99035860
 
 d Force =-0.6344900E-05[-0.131E-03, 0.118E-03]  d Energy =-0.2549260E-04 0.191E-04
 d Force =-0.1372169E+01[-0.137E+01,-0.137E+01]  d Ewald  =-0.1372169E+01 0.841E-07


--------------------------------------------------------------------------------------------------------


    POTLOK:  cpu time    0.43: real time    0.44


--------------------------------------------------------------------------------------------------------




--------------------------------------------------------------------------------------------------------


  
 reached required accuracy - stopping structural energy minimisation
     LOOP+:  cpu time   38.91: real time   39.00
    4ORBIT:  cpu time    0.00: real time    0.00

 total amount of memory used by VASP on root node    79002. kBytes
========================================================================

   base      :      30000. kBytes
   nonl-proj :       5187. kBytes
   fftplans  :       7823. kBytes
   grid      :      20089. kBytes
   one-center:         62. kBytes
   wavefun   :      15841. kBytes
 
  
  
 General timing and accounting informations for this job:
 ========================================================
  
                  Total CPU time used (sec):     1686.041
                            User time (sec):     1677.193
                          System time (sec):        8.849
                         Elapsed time (sec):     1720.981
  
                   Maximum memory used (kb):      104044.
                   Average memory used (kb):           0.
  
                          Minor page faults:       802310
                          Major page faults:            0
                 Voluntary context switches:        31141
