 vasp.5.3.5 31Mar14 (build Feb 01 2018 12:10:03) gamma-only                     
  
 executed on             LinuxIFC date 2019.03.24  04:17:10
 running on   64 total cores
 distrk:  each k-point on   64 cores,    1 groups
 distr:  one band on NCORES_PER_BAND=  16 cores,    4 groups


--------------------------------------------------------------------------------------------------------


 INCAR:
 POTCAR:    PAW_PBE Ag 02Apr2005                  
 POTCAR:    PAW_PBE Ag 02Apr2005                  
   VRHFIN =Ag : s1 d10                                                          
   LEXCH  = PE                                                                  
   EATOM  =  1037.2675 eV,   76.2370 Ry                                         
                                                                                
   TITEL  = PAW_PBE Ag 02Apr2005                                                
   LULTRA =        F    use ultrasoft PP ?                                      
   IUNSCR =        1    unscreen: 0-lin 1-nonlin 2-no                           
   RPACOR =    2.000    partial core radius                                     
   POMASS =  107.868; ZVAL   =   11.000    mass and valenz                      
   RCORE  =    2.500    outmost cutoff radius                                   
   RWIGS  =    2.840; RWIGS  =    1.503    wigner-seitz radius (au A)           
   ENMAX  =  249.844; ENMIN  =  187.383 eV                                      
   ICORE  =        3    local potential                                         
   LCOR   =        T    correct aug charges                                     
   LPAW   =        T    paw PP                                                  
   EAUG   =  412.496                                                            
   DEXC   =    0.000                                                            
   RMAX   =    2.560    core radius for proj-oper                               
   RAUG   =    1.300    factor for augmentation sphere                          
   RDEP   =    2.576    radius for radial grids                                 
   RDEPT  =    2.072    core radius for aug-charge                              
                                                                                
   Atomic configuration                                                         
   12 entries                                                                   
     n  l   j            E        occ.                                          
     1  0  0.50    -25324.9161   2.0000                                         
     2  0  0.50     -3728.5341   2.0000                                         
     2  1  1.50     -3344.0404   6.0000                                         
     3  0  0.50      -683.5581   2.0000                                         
     3  1  1.50      -557.3225   6.0000                                         
     3  2  2.50      -358.3853  10.0000                                         
     4  0  0.50       -95.0341   2.0000                                         
     4  1  1.50       -58.5511   6.0000                                         
     4  2  2.50        -7.4440  10.0000                                         
     5  0  0.50        -4.4045   1.0000                                         
     5  1  0.50        -1.3606   0.0000                                         
     4  3  2.50        -1.3606   0.0000                                         
   Description                                                                  
     l       E           TYP  RCUT    TYP  RCUT                                 
     2     -7.4439781     23  2.400                                             
     2     -8.8045607     23  2.400                                             
     0     -4.4044681     23  2.400                                             
     0      1.9520038     23  2.400                                             
     1     -1.3605826     23  2.500                                             
     1     27.2116520     23  2.500                                             
     3     -4.0817478     23  2.400                                             
  local pseudopotential read in
  partial core-charges read in
  partial kinetic energy density read in
  atomic valenz-charges read in
  non local Contribution for L=           2  read in
    real space projection operators read in
  non local Contribution for L=           2  read in
    real space projection operators read in
  non local Contribution for L=           0  read in
    real space projection operators read in
  non local Contribution for L=           0  read in
    real space projection operators read in
  non local Contribution for L=           1  read in
    real space projection operators read in
  non local Contribution for L=           1  read in
    real space projection operators read in
    PAW grid and wavefunctions read in
 
   number of l-projection  operators is LMAX  =           6
   number of lm-projection operators is LMMAX =          18
 

 ----------------------------------------------------------------------------- 
|                                                                             |
|  ADVICE TO THIS USER RUNNING 'VASP/VAMP'   (HEAR YOUR MASTER'S VOICE ...):  |
|                                                                             |
|      You have a (more or less) 'large supercell' and for larger cells       |
|      it might be more efficient to use real space projection opertators     |
|      So try LREAL= Auto  in the INCAR   file.                               |
|      Mind: At the moment your POTCAR file does not contain real space       |
|       projectors, and has to be modified,  BUT if you                       |
|      want to do an extremely  accurate calculation you might also keep the  |
|      reciprocal projection scheme          (i.e. LREAL=.FALSE.)             |
|                                                                             |
 ----------------------------------------------------------------------------- 

  PAW_PBE Ag 02Apr2005                  :
 energy of atom  1       EATOM=-1037.2675
 kinetic energy error for atom=    0.0689 (will be added to EATOM!!)
 
 
 POSCAR: Ti46, -308.35236943 <s> Ag </s>         
  positions in direct lattice
  No initial velocities read in
 exchange correlation table for  LEXCH =        8
   RHO(1)=    0.500       N(1)  =     2000
   RHO(2)=  100.500       N(2)  =     4000
 


--------------------------------------------------------------------------------------------------------


 ion  position               nearest neighbor table
   1  0.299  0.509  0.436-  13 2.58   6 2.74   9 2.81   7 2.82   4 2.85   5 2.86
   2  0.480  0.454  0.272-   3 2.66  12 2.69  16 2.71   8 2.71  11 2.72   4 2.85
   3  0.459  0.360  0.338-  10 2.63   2 2.66  11 2.73  16 2.74  14 2.87   4 2.97
   4  0.391  0.470  0.359-  13 2.79  16 2.79   6 2.84   2 2.85   1 2.85   9 2.85   3 2.97   8 3.00
                            10 3.38
   5  0.297  0.443  0.543-  18 2.72  13 2.76  17 2.82   6 2.84   1 2.86  19 2.86   7 3.03  25 3.35

   6  0.327  0.391  0.433-  13 2.70  10 2.71   1 2.74   4 2.84   5 2.84  19 3.01
   7  0.344  0.568  0.536-  18 2.58  13 2.71   1 2.82  20 2.95  29 2.96   9 3.00   5 3.03  33 3.30

   8  0.480  0.561  0.325-   2 2.71  12 2.79  22 2.79   9 2.83  16 2.83   4 3.00  15 3.32  21 3.44

   9  0.396  0.583  0.415-  21 2.74   1 2.81   8 2.83   4 2.85  13 2.88  20 2.97   7 3.00  15 3.18

  10  0.443  0.366  0.453-   3 2.63  14 2.68  24 2.71   6 2.71  13 2.75  19 2.86  30 2.86  16 2.97
                            25 3.21   4 3.38
  11  0.573  0.389  0.310-  12 2.59   2 2.72  14 2.72   3 2.73  16 2.73  28 3.01
  12  0.585  0.502  0.301-  11 2.59  22 2.60   2 2.69  16 2.78   8 2.79  28 3.00
  13  0.397  0.475  0.482-   1 2.58  25 2.65   6 2.70   7 2.71  21 2.73  10 2.75   5 2.76   4 2.79
                             9 2.88  29 3.33  30 3.36  16 3.37  19 3.54
  14  0.554  0.345  0.420-  10 2.68  11 2.72  30 2.83  16 2.84   3 2.87  28 2.92  24 3.31
  15  0.514  0.657  0.431-  20 2.55  22 2.65  21 2.77  27 2.84  23 2.90  31 3.13   9 3.18   8 3.32

  16  0.510  0.457  0.387-   2 2.71  11 2.73   3 2.74  28 2.76  12 2.78   4 2.79   8 2.83  21 2.83
                            14 2.84  30 2.90  10 2.97  22 3.06  13 3.37
  17  0.343  0.398  0.650-  18 2.50  32 2.52  19 2.73  25 2.76   5 2.82  37 3.04
  18  0.347  0.507  0.632-  17 2.50   7 2.58  33 2.69   5 2.72  37 2.84  29 2.89  25 2.97
  19  0.366  0.337  0.548-  17 2.73  25 2.74  10 2.86   5 2.86  32 2.90  24 2.92   6 3.01  13 3.54

  20  0.442  0.652  0.517-  15 2.55  26 2.63  21 2.85  31 2.90  29 2.90   7 2.95   9 2.97  23 3.05
                            33 3.60
  21  0.494  0.545  0.475-  13 2.73   9 2.74  29 2.75  15 2.77  22 2.82  16 2.83  20 2.85  30 2.88
                            31 2.89  35 3.03   8 3.44
  22  0.583  0.571  0.392-  12 2.60  15 2.65  34 2.66  27 2.75   8 2.79  21 2.82  35 2.95  28 2.99
                            16 3.06
  23  0.551  0.731  0.529-  31 2.59  38 2.75  36 2.86  26 2.87  15 2.90  27 3.01  20 3.05
  24  0.493  0.320  0.551-  39 2.65  10 2.71  32 2.72  25 2.82  30 2.85  19 2.92  14 3.31
  25  0.439  0.427  0.581-  37 2.60  32 2.64  13 2.65  30 2.73  19 2.74  17 2.76  39 2.79  24 2.82
                            29 2.82  18 2.97  10 3.21   5 3.35  40 3.44
  26  0.476  0.688  0.622-  36 2.53  20 2.63  33 2.66  42 2.82  23 2.87  31 2.87  29 3.22
  27  0.636  0.659  0.457-  38 2.62  22 2.75  15 2.84  34 2.85  43 2.92  31 2.96  23 3.01  35 3.22

  28  0.629  0.450  0.414-  35 2.73  16 2.76  34 2.88  14 2.92  44 2.97  22 2.99  41 2.99  12 3.00
                            11 3.01  30 3.05
  29  0.461  0.549  0.592-  33 2.51  21 2.75  42 2.80  25 2.82  40 2.83  31 2.87  18 2.89  37 2.89
                            20 2.90   7 2.96  26 3.22  13 3.33
  30  0.536  0.430  0.510-  41 2.47  25 2.73  14 2.83  24 2.85  10 2.86  21 2.88  16 2.90  35 2.94
                            40 2.98  39 3.00  28 3.05  13 3.36
  31  0.560  0.620  0.555-  23 2.59  36 2.75  35 2.78  38 2.85  29 2.87  26 2.87  21 2.89  45 2.90
                            20 2.90  27 2.96  42 2.97  15 3.13  40 3.19
  32  0.436  0.338  0.655-  17 2.52  25 2.64  39 2.68  24 2.72  19 2.90  37 3.03
  33  0.401  0.608  0.664-  29 2.51  26 2.66  18 2.69  42 3.05   7 3.30  37 3.45  20 3.60
  34  0.697  0.557  0.416-  44 2.64  22 2.66  35 2.75  43 2.80  27 2.85  28 2.88
  35  0.623  0.526  0.507-  44 2.69  43 2.72  28 2.73  34 2.75  46 2.77  31 2.78  41 2.79  40 2.91
                            30 2.94  22 2.95  21 3.03  27 3.22  45 3.46
  36  0.585  0.697  0.645-  38 2.52  26 2.53  42 2.73  31 2.75  45 2.75  23 2.86
  37  0.452  0.466  0.688-  25 2.60  18 2.84  29 2.89  39 3.00  32 3.03  17 3.04  40 3.15  42 3.44
                            33 3.45
  38  0.661  0.694  0.564-  36 2.52  27 2.62  43 2.73  45 2.73  23 2.75  31 2.85
  39  0.542  0.386  0.634-  40 2.55  24 2.65  32 2.68  25 2.79  30 3.00  37 3.00  41 3.10
  40  0.570  0.495  0.620-  39 2.55  42 2.78  29 2.83  46 2.83  35 2.91  30 2.98  45 3.08  41 3.09
                            37 3.15  31 3.19  25 3.44
  41  0.639  0.409  0.540-  30 2.47  46 2.69  44 2.79  35 2.79  28 2.99  40 3.09  39 3.10
  42  0.533  0.594  0.681-  36 2.73  40 2.78  29 2.80  26 2.82  45 2.93  31 2.97  33 3.05  37 3.44

  43  0.719  0.594  0.531-  35 2.72  38 2.73  34 2.80  45 2.81  44 2.81  46 2.83  27 2.92
  44  0.730  0.476  0.493-  46 2.62  34 2.64  35 2.69  41 2.79  43 2.81  28 2.97
  45  0.655  0.598  0.638-  46 2.65  38 2.73  36 2.75  43 2.81  31 2.90  42 2.93  40 3.08  35 3.46

  46  0.693  0.494  0.602-  44 2.62  45 2.65  41 2.69  35 2.77  43 2.83  40 2.83
 
  LATTYP: Found a simple cubic cell.
 ALAT       =    22.6502187736
  
  Lattice vectors:
  
 A1 = (  22.6502187736,   0.0000000000,   0.0000000000)
 A2 = (   0.0000000000,  22.6502187736,   0.0000000000)
 A3 = (   0.0000000000,   0.0000000000,  22.6502187736)


Analysis of symmetry for initial positions (statically):
=====================================================================
 Subroutine PRICEL returns:
 Original cell was already a primitive cell.
 

 Routine SETGRP: Setting up the symmetry group for a 
 simple cubic supercell.


 Subroutine GETGRP returns: Found  1 space group operations
 (whereof  1 operations were pure point group operations)
 out of a pool of 48 trial point group operations.


The static configuration has the point symmetry C_1 .


Analysis of symmetry for dynamics (positions and initial velocities):
=====================================================================
 Subroutine PRICEL returns:
 Original cell was already a primitive cell.
 

 Routine SETGRP: Setting up the symmetry group for a 
 simple cubic supercell.


 Subroutine GETGRP returns: Found  1 space group operations
 (whereof  1 operations were pure point group operations)
 out of a pool of 48 trial point group operations.


The dynamic configuration has the point symmetry C_1 .


Analysis of magnetic symmetry:
=====================================================================
 Subroutine PRICEL returns:
 Original cell was already a primitive cell.
 

 Subroutine MAGSYM returns: Found  1 space group operations
 (whereof  1 operations were pure point group operations)
 out of a pool of  1 trial space group operations
 (whereof  1 operations were pure point group operations)
 and found also     1 'primitive' translations


The magnetic configuration has the point symmetry C_1 .
 
 
 KPOINTS: Gamma-point only                        
  k-points in reciprocal lattice
Space group operators:
 irot       det(A)        alpha          n_x          n_y          n_z        tau_x        tau_y        tau_z
    1     1.000000     0.000000     1.000000     0.000000     0.000000     0.000000     0.000000     0.000000


--------------------------------------------------------------------------------------------------------




 Dimension of arrays:
   k-points           NKPTS =      1   k-points in BZ     NKDIM =      1   number of bands    NBANDS=    328
   number of dos      NEDOS =    301   number of ions     NIONS =     46
   non local maximal  LDIM  =      6   non local SUM 2l+1 LMDIM =     18
   total plane-waves  NPLWV = 729000
   max r-space proj   IRMAX =      1   max aug-charges    IRDMAX=   3284
   dimension x,y,z NGX =    90 NGY =   90 NGZ =   90
   dimension x,y,z NGXF=   180 NGYF=  180 NGZF=  180
   support grid    NGXF=   180 NGYF=  180 NGZF=  180
   ions per type =              46
 NGX,Y,Z   is equivalent  to a cutoff of   6.61,  6.61,  6.61 a.u.
 NGXF,Y,Z  is equivalent  to a cutoff of  13.21, 13.21, 13.21 a.u.


 I would recommend the setting:
   dimension x,y,z NGX =    88 NGY =   88 NGZ =   88
 SYSTEM =  unknown system                          
 POSCAR =  Ti46, -308.35236943 <s> Ag </s>         

 Startparameter for this run:
   NWRITE =      2    write-flag & timer
   PREC   = normal    normal or accurate (medium, high low for compatibility)
   ISTART =      0    job   : 0-new  1-cont  2-samecut
   ICHARG =      2    charge: 1-file 2-atom 10-const
   ISPIN  =      2    spin polarized calculation?
   LNONCOLLINEAR =      F non collinear calculations
   LSORBIT =      F    spin-orbit coupling
   INIWAV =      1    electr: 0-lowe 1-rand  2-diag
   LASPH  =      F    aspherical Exc in radial PAW
   METAGGA=      F    non-selfconsistent MetaGGA calc.

 Electronic Relaxation 1
   ENCUT  =  249.8 eV  18.36 Ry    4.29 a.u.  29.19 29.19 29.19*2*pi/ulx,y,z
   ENINI  =  249.8     initial cutoff
   ENAUG  =  412.5 eV  augmentation charge cutoff
   NELM   =     60;   NELMIN=  2; NELMDL= -5     # of ELM steps 
   EDIFF  = 0.1E-03   stopping-criterion for ELM
   LREAL  =      F    real-space projection
   NLSPLINE    = F    spline interpolate recip. space projectors
   LCOMPAT=      F    compatible to vasp.4.4
   GGA_COMPAT  = T    GGA compatible to vasp.4.4-vasp.4.6
   LMAXPAW     = -100 max onsite density
   LMAXMIX     =    2 max onsite mixed and CHGCAR
   VOSKOWN=      0    Vosko Wilk Nusair interpolation
   ROPT   =    0.00000
 Ionic relaxation
   EDIFFG = 0.1E-02   stopping-criterion for IOM
   NSW    =   1000    number of steps for IOM
   NBLOCK =      1;   KBLOCK =   1000    inner block; outer block 
   IBRION =      2    ionic relax: 0-MD 1-quasi-New 2-CG
   NFREE  =      1    steps in history (QN), initial steepest desc. (CG)
   ISIF   =      2    stress and relaxation
   IWAVPR =     11    prediction:  0-non 1-charg 2-wave 3-comb
   ISYM   =      2    0-nonsym 1-usesym 2-fastsym
   LCORR  =      T    Harris-Foulkes like correction to forces

   POTIM  = 0.1000    time-step for ionic-motion
   TEIN   =    0.0    initial temperature
   TEBEG  =    0.0;   TEEND  =   0.0 temperature during run
   SMASS  =  -3.00    Nose mass-parameter (am)
   estimated Nose-frequenzy (Omega)   =  0.10E-29 period in steps =****** mass=  -0.117E-25a.u.
   SCALEE = 1.0000    scale energy and forces
   NPACO  =    256;   APACO  = 16.0  distance and # of slots for P.C.
   PSTRESS=    0.0 pullay stress

  Mass of Ions in am
   POMASS = 107.87
  Ionic Valenz
   ZVAL   =  11.00
  Atomic Wigner-Seitz radii
   RWIGS  =  -1.00
  virtual crystal weights 
   VCA    =   1.00
   NELECT =     506.0000    total number of electrons
   NUPDOWN=      -1.0000    fix difference up-down

 DOS related values:
   EMIN   =  10.00;   EMAX   =-10.00  energy-range for DOS
   EFERMI =   0.00
   ISMEAR =     0;   SIGMA  =   0.00  broadening in eV -4-tet -1-fermi 0-gaus

 Electronic relaxation 2 (details)
   IALGO  =     38    algorithm
   LDIAG  =      T    sub-space diagonalisation (order eigenvalues)
   LSUBROT=      F    optimize rotation matrix (better conditioning)
   TURBO    =      0    0=normal 1=particle mesh
   IRESTART =      0    0=no restart 2=restart with 2 vectors
   NREBOOT  =      0    no. of reboots
   NMIN     =      0    reboot dimension
   EREF     =   0.00    reference energy to select bands
   IMIX   =      4    mixing-type and parameters
     AMIX     =   0.40;   BMIX     =  1.00
     AMIX_MAG =   1.60;   BMIX_MAG =  1.00
     AMIN     =   0.10
     WC   =   100.;   INIMIX=   1;  MIXPRE=   1;  MAXMIX= -45

 Intra band minimization:
   WEIMIN = 0.0010     energy-eigenvalue tresh-hold
   EBREAK =  0.76E-07  absolut break condition
   DEPER  =   0.30     relativ break condition  

   TIME   =   0.40     timestep for ELM

  volume/ion in A,a.u.               =     252.62      1704.73
  Fermi-wavevector in a.u.,A,eV,Ry     =   0.575952  1.088391  4.513327  0.331720
  Thomas-Fermi vector in A             =   1.618255
 
 Write flags
   LWAVE  =      F    write WAVECAR
   LCHARG =      F    write CHGCAR
   LVTOT  =      F    write LOCPOT, total local potential
   LVHAR  =      F    write LOCPOT, Hartree potential only
   LELF   =      F    write electronic localiz. function (ELF)
   LORBIT =      0    0 simple, 1 ext, 2 COOP (PROOUT)


 Dipole corrections
   LMONO  =      F    monopole corrections only (constant potential shift)
   LDIPOL =      F    correct potential (dipole corrections)
   IDIPOL =      0    1-x, 2-y, 3-z, 4-all directions 
   EPSILON=  1.0000000 bulk dielectric constant

 Exchange correlation treatment:
   GGA     =    PE    GGA type
   LEXCH   =     8    internal setting for exchange type
   VOSKOWN=      0    Vosko Wilk Nusair interpolation
   LHFCALC =     F    Hartree Fock is set to
   LHFONE  =     F    Hartree Fock one center treatment
   AEXX    =    0.0000 exact exchange contribution

 Linear response parameters
   LEPSILON=     F    determine dielectric tensor
   LRPA    =     F    only Hartree local field effects (RPA)
   LNABLA  =     F    use nabla operator in PAW spheres
   LVEL    =     F    velocity operator in full k-point grid
   LINTERFAST=   F  fast interpolation
   KINTER  =     0    interpolate to denser k-point grid
   CSHIFT  =0.1000    complex shift for real part using Kramers Kronig
   OMEGAMAX=  -1.0    maximum frequency
   DEG_THRESHOLD= 0.2000000E-02 threshold for treating states as degnerate
   RTIME   =    0.100 relaxation time in fs

 Orbital magnetization related:
   ORBITALMAG=     F  switch on orbital magnetization
   LCHIMAG   =     F  perturbation theory with respect to B field
   DQ        =  0.001000  dq finite difference perturbation B field



--------------------------------------------------------------------------------------------------------


 conjugate gradient relaxation of ions
 charge density and potential will be updated during run
 spin polarized calculation
 Variant of blocked Davidson
 Davidson routine will perform the subspace rotation
 perform sub-space diagonalisation
    after iterative eigenvector-optimisation
 modified Broyden-mixing scheme, WC =      100.0
 initial mixing is a Kerker type mixing with AMIX =  0.4000 and BMIX =      1.0000
 Hartree-type preconditioning will be used
 using additional bands           75
 reciprocal scheme for non local part
 use partial core corrections
 calculate Harris-corrections to forces 
   (improved forces if not selfconsistent)
 use gradient corrections 
 use of overlap-Matrix (Vanderbilt PP)
 Gauss-broadening in eV      SIGMA  =   0.00


--------------------------------------------------------------------------------------------------------


  energy-cutoff  :      249.84
  volume of cell :    11620.30
      direct lattice vectors                 reciprocal lattice vectors
    22.650218774  0.000000000  0.000000000     0.044149684  0.000000000  0.000000000
     0.000000000 22.650218774  0.000000000     0.000000000  0.044149684  0.000000000
     0.000000000  0.000000000 22.650218774     0.000000000  0.000000000  0.044149684

  length of vectors
    22.650218774 22.650218774 22.650218774     0.044149684  0.044149684  0.044149684


 
 k-points in units of 2pi/SCALE and weight: Gamma-point only                        
   0.00000000  0.00000000  0.00000000       1.000
 
 k-points in reciprocal lattice and weights: Gamma-point only                        
   0.00000000  0.00000000  0.00000000       1.000
 
 position of ions in fractional coordinates (direct lattice) 
   0.29890280  0.50866336  0.43582635
   0.47992577  0.45415310  0.27173265
   0.45918273  0.35954642  0.33843362
   0.39093673  0.46973141  0.35919959
   0.29683175  0.44278838  0.54343586
   0.32746361  0.39118759  0.43325303
   0.34405373  0.56779578  0.53563812
   0.48008878  0.56144147  0.32478176
   0.39618385  0.58271678  0.41481285
   0.44293988  0.36603436  0.45323571
   0.57269049  0.38874027  0.31033635
   0.58495496  0.50184810  0.30069364
   0.39702483  0.47456570  0.48208050
   0.55443053  0.34468793  0.42047576
   0.51378211  0.65748763  0.43052916
   0.51035321  0.45749387  0.38738723
   0.34280603  0.39791728  0.64999579
   0.34746567  0.50673689  0.63153983
   0.36553010  0.33673742  0.54847906
   0.44195834  0.65169458  0.51678039
   0.49442538  0.54528964  0.47506715
   0.58300481  0.57145582  0.39172096
   0.55052079  0.73050241  0.52879547
   0.49347262  0.31960884  0.55114064
   0.43893801  0.42733468  0.58083448
   0.47587392  0.68765968  0.62188259
   0.63630175  0.65876583  0.45699202
   0.62901184  0.44969009  0.41438874
   0.46079498  0.54938452  0.59164186
   0.53594513  0.43043435  0.50967045
   0.55978048  0.61971705  0.55525522
   0.43640003  0.33759627  0.65510307
   0.40067567  0.60776325  0.66398259
   0.69713980  0.55691674  0.41569764
   0.62317197  0.52635666  0.50700598
   0.58480123  0.69718541  0.64546721
   0.45176885  0.46636734  0.68824222
   0.66082066  0.69404152  0.56440136
   0.54232852  0.38623587  0.63417712
   0.56955256  0.49462511  0.61958193
   0.63857621  0.40859104  0.53965893
   0.53335238  0.59439104  0.68124887
   0.71932522  0.59405076  0.53145947
   0.73013459  0.47632588  0.49325713
   0.65529052  0.59844947  0.63769795
   0.69337739  0.49401974  0.60167808
 
 position of ions in cartesian coordinates  (Angst):
   6.77021387 11.52133630  9.87156219
  10.87042380 10.28666710  6.15480408
  10.40058927  8.14380505  7.66559542
   8.85480252 10.63951914  8.13594924
   6.72330400 10.02925361 12.30894101
   7.41712239  8.86048457  9.81327593
   7.79289232 12.86069856 12.13232062
  10.87411600 12.71677209  7.35637781
   8.97365087 13.19866261  9.39560182
  10.03268522  8.29075824 10.26588808
  12.97156493  8.80505224  7.02918623
  13.24935792 11.36696924  6.81077663
   8.99269928 10.74901684 10.91922875
  12.55797283  7.80725710  9.52386803
  11.63727714 14.89223859  9.75157963
  11.55961188 10.36233622  8.77440551
   7.76463151  9.01291335 14.72254681
   7.87017354 11.47770147 14.30451521
   8.27933683  7.62717620 12.42317063
  10.01045307 14.76102489 11.70518882
  11.19884308 12.35092967 10.76037479
  13.20518641 12.94359942  8.87256545
  12.46941625 16.54603937 11.97733304
  11.17726285  7.23921012 12.48345617
   9.94204186  9.67922394 13.15602812
  10.77864845 15.57564209 14.08577675
  14.41237391 14.92119021 10.35096933
  14.24725570 10.18557890  9.38599554
  10.43710720 12.44367954 13.40081757
  12.13927434  9.74943216 11.54414725
  12.67915038 14.03672676 12.57665227
   9.88455617  7.64662940 14.83822791
   9.07539156 13.76597048 15.03935098
  15.79036899 12.61428600  9.41564253
  14.11498157 11.92209358 11.48379632
  13.24587572 15.79140201 14.61997359
  10.23266337 10.56332236 15.58883679
  14.96773248 15.72019226 12.78381428
  12.28385956  8.74832707 14.36425053
  12.90049017 11.20336705 14.03366618
  14.46389076  9.25467655 12.22339288
  12.08054806 13.46308701 15.43043601
  16.29287351 13.45537960 12.03767330
  16.53770819 10.78888544 11.17238183
  14.84247357 13.55501135 14.44399805
  15.70514955 11.18965522 13.62814019
 


--------------------------------------------------------------------------------------------------------


 use parallel FFT for wavefunctions z direction half grid
 k-point  1 :   0.0000 0.0000 0.0000  plane waves:   52148

 maximum and minimum number of plane-waves per node :      3268     3252

 maximum number of plane-waves:     52148
 maximum index in each direction: 
   IXMAX=   29   IYMAX=   29   IZMAX=   29
   IXMIN=  -29   IYMIN=  -29   IZMIN=    0

 WARNING: aliasing errors must be expected set NGX to 118 to avoid them
 WARNING: aliasing errors must be expected set NGY to 118 to avoid them
 WARNING: aliasing errors must be expected set NGZ to 118 to avoid them
 aliasing errors are usually negligible using standard VASP settings
 and one can safely disregard these warnings

 parallel 3D FFT for wavefunctions:
    minimum data exchange during FFTs selected (reduces bandwidth)
 parallel 3D FFT for charge:
    minimum data exchange during FFTs selected (reduces bandwidth)


 total amount of memory used by VASP on root node    56840. kBytes
========================================================================

   base      :      30000. kBytes
   nonl-proj :       2868. kBytes
   fftplans  :       4335. kBytes
   grid      :      10964. kBytes
   one-center:         46. kBytes
   wavefun   :       8627. kBytes
 
     INWAV:  cpu time    0.00: real time    0.00
 Broyden mixing: mesh for mixing (old mesh)
   NGX = 59   NGY = 59   NGZ = 59
  (NGX  =180   NGY  =180   NGZ  =180)
  gives a total of 205379 points

 initial charge density was supplied:
 charge density of overlapping atoms calculated
 number of electron     506.0000000 magnetization      46.0000000
 keeping initial charge density in first step


--------------------------------------------------------------------------------------------------------


 Maximum index for augmentation-charges          244 (set IRDMAX)


--------------------------------------------------------------------------------------------------------


 First call to EWALD:  gamma=   0.078
 Maximum number of real-space cells 3x 3x 3
 Maximum number of reciprocal cells 3x 3x 3

 FEWALD executed in parallel
    FEWALD:  cpu time    0.00: real time    0.00


----------------------------------------- Iteration    1(   1)  ---------------------------------------


    POTLOK:  cpu time    0.25: real time    0.25
    SETDIJ:  cpu time    0.01: real time    0.01
     EDDAV:  cpu time    5.18: real time    5.19
       DOS:  cpu time    0.00: real time    0.00
    --------------------------------------------
      LOOP:  cpu time    5.44: real time    5.68

 eigenvalue-minimisations  :  1328
 total energy-change (2. order) : 0.4241347E+04  (-0.1067305E+05)
 number of electron     506.0000000 magnetization      46.0000000
 augmentation part      506.0000000 magnetization      46.0000000

 Free energy of the ion-electron system (eV)
  ---------------------------------------------------
  alpha Z        PSCENC =       154.88617003
  Ewald energy   TEWEN  =    135608.83141848
  -Hartree energ DENC   =   -181452.86382562
  -exchange      EXHF   =         0.00000000
  -V(xc)+E(xc)   XCENC  =      -494.00324784
  PAW double counting   =     46155.12019120   -44034.17200843
  entropy T*S    EENTRO =        -0.00000000
  eigenvalues    EBANDS =       592.41180979
  atomic energy  EATOM  =     47711.13698397
  ---------------------------------------------------
  free energy    TOTEN  =      4241.34749159 eV

  energy without entropy =     4241.34749159  energy(sigma->0) =     4241.34749159


--------------------------------------------------------------------------------------------------------




----------------------------------------- Iteration    1(   2)  ---------------------------------------


     EDDAV:  cpu time    7.58: real time    7.59
       DOS:  cpu time    0.00: real time    0.00
    --------------------------------------------
      LOOP:  cpu time    7.58: real time    7.60

 eigenvalue-minimisations  :  2104
 total energy-change (2. order) :-0.3590371E+04  (-0.3236839E+04)
 number of electron     506.0000000 magnetization      46.0000000
 augmentation part      506.0000000 magnetization      46.0000000

 Free energy of the ion-electron system (eV)
  ---------------------------------------------------
  alpha Z        PSCENC =       154.88617003
  Ewald energy   TEWEN  =    135608.83141848
  -Hartree energ DENC   =   -181452.86382562
  -exchange      EXHF   =         0.00000000
  -V(xc)+E(xc)   XCENC  =      -494.00324784
  PAW double counting   =     46155.12019120   -44034.17200843
  entropy T*S    EENTRO =         0.00000000
  eigenvalues    EBANDS =     -2997.95926431
  atomic energy  EATOM  =     47711.13698397
  ---------------------------------------------------
  free energy    TOTEN  =       650.97641748 eV

  energy without entropy =      650.97641748  energy(sigma->0) =      650.97641748


--------------------------------------------------------------------------------------------------------




----------------------------------------- Iteration    1(   3)  ---------------------------------------


     EDDAV:  cpu time    6.16: real time    6.17
       DOS:  cpu time    0.00: real time    0.00
    --------------------------------------------
      LOOP:  cpu time    6.16: real time    6.17

 eigenvalue-minimisations  :  1624
 total energy-change (2. order) :-0.7212733E+03  (-0.6643848E+03)
 number of electron     506.0000000 magnetization      46.0000000
 augmentation part      506.0000000 magnetization      46.0000000

 Free energy of the ion-electron system (eV)
  ---------------------------------------------------
  alpha Z        PSCENC =       154.88617003
  Ewald energy   TEWEN  =    135608.83141848
  -Hartree energ DENC   =   -181452.86382562
  -exchange      EXHF   =         0.00000000
  -V(xc)+E(xc)   XCENC  =      -494.00324784
  PAW double counting   =     46155.12019120   -44034.17200843
  entropy T*S    EENTRO =        -0.00000000
  eigenvalues    EBANDS =     -3719.23251508
  atomic energy  EATOM  =     47711.13698397
  ---------------------------------------------------
  free energy    TOTEN  =       -70.29683329 eV

  energy without entropy =      -70.29683329  energy(sigma->0) =      -70.29683329


--------------------------------------------------------------------------------------------------------




----------------------------------------- Iteration    1(   4)  ---------------------------------------


     EDDAV:  cpu time    5.53: real time    5.54
       DOS:  cpu time    0.00: real time    0.00
    --------------------------------------------
      LOOP:  cpu time    5.53: real time    5.54

 eigenvalue-minimisations  :  1440
 total energy-change (2. order) :-0.2731624E+02  (-0.2710036E+02)
 number of electron     506.0000000 magnetization      46.0000000
 augmentation part      506.0000000 magnetization      46.0000000

 Free energy of the ion-electron system (eV)
  ---------------------------------------------------
  alpha Z        PSCENC =       154.88617003
  Ewald energy   TEWEN  =    135608.83141848
  -Hartree energ DENC   =   -181452.86382562
  -exchange      EXHF   =         0.00000000
  -V(xc)+E(xc)   XCENC  =      -494.00324784
  PAW double counting   =     46155.12019120   -44034.17200843
  entropy T*S    EENTRO =         0.00000000
  eigenvalues    EBANDS =     -3746.54875136
  atomic energy  EATOM  =     47711.13698397
  ---------------------------------------------------
  free energy    TOTEN  =       -97.61306957 eV

  energy without entropy =      -97.61306957  energy(sigma->0) =      -97.61306957


--------------------------------------------------------------------------------------------------------




----------------------------------------- Iteration    1(   5)  ---------------------------------------


     EDDAV:  cpu time    5.62: real time    5.63
       DOS:  cpu time    0.00: real time    0.00
    CHARGE:  cpu time    0.18: real time    0.17
    MIXING:  cpu time    0.00: real time    0.00
    --------------------------------------------
      LOOP:  cpu time    5.80: real time    5.84

 eigenvalue-minimisations  :  1472
 total energy-change (2. order) :-0.4048183E+00  (-0.4045183E+00)
 number of electron     506.0000435 magnetization      41.1983753
 augmentation part      236.6398918 magnetization      38.3948415

 Broyden mixing:
  rms(total) = 0.43560E+01    rms(broyden)= 0.43554E+01
  rms(prec ) = 0.44168E+01
  weight for this iteration     100.00

 Free energy of the ion-electron system (eV)
  ---------------------------------------------------
  alpha Z        PSCENC =       154.88617003
  Ewald energy   TEWEN  =    135608.83141848
  -Hartree energ DENC   =   -181452.86382562
  -exchange      EXHF   =         0.00000000
  -V(xc)+E(xc)   XCENC  =      -494.00324784
  PAW double counting   =     46155.12019120   -44034.17200843
  entropy T*S    EENTRO =        -0.00000000
  eigenvalues    EBANDS =     -3746.95356966
  atomic energy  EATOM  =     47711.13698397
  ---------------------------------------------------
  free energy    TOTEN  =       -98.01788787 eV

  energy without entropy =      -98.01788787  energy(sigma->0) =      -98.01788787


--------------------------------------------------------------------------------------------------------




----------------------------------------- Iteration    1(   6)  ---------------------------------------


    POTLOK:  cpu time    0.21: real time    0.21
    SETDIJ:  cpu time    0.01: real time    0.09
     EDDAV:  cpu time    5.17: real time    5.17
       DOS:  cpu time    0.00: real time    0.00
    CHARGE:  cpu time    0.13: real time    0.13
    MIXING:  cpu time    0.00: real time    0.00
    --------------------------------------------
      LOOP:  cpu time    5.53: real time    5.62

 eigenvalue-minimisations  :  1320
 total energy-change (2. order) : 0.5060156E+02  (-0.1579866E+02)
 number of electron     506.0000444 magnetization      37.8372248
 augmentation part      242.5540886 magnetization      22.5840385

 Broyden mixing:
  rms(total) = 0.24091E+01    rms(broyden)= 0.24090E+01
  rms(prec ) = 0.24315E+01
  weight for this iteration     100.00

 eigenvalues of (default mixing * dielectric matrix)
  average eigenvalue GAMMA=   0.8786
  0.8786

 Free energy of the ion-electron system (eV)
  ---------------------------------------------------
  alpha Z        PSCENC =       154.88617003
  Ewald energy   TEWEN  =    135608.83141848
  -Hartree energ DENC   =   -181244.47751952
  -exchange      EXHF   =         0.00000000
  -V(xc)+E(xc)   XCENC  =      -474.67315929
  PAW double counting   =     48186.36773798   -46106.73752201
  entropy T*S    EENTRO =         0.00000000
  eigenvalues    EBANDS =     -3882.75044167
  atomic energy  EATOM  =     47711.13698397
  ---------------------------------------------------
  free energy    TOTEN  =       -47.41633204 eV

  energy without entropy =      -47.41633204  energy(sigma->0) =      -47.41633204


--------------------------------------------------------------------------------------------------------




----------------------------------------- Iteration    1(   7)  ---------------------------------------


    POTLOK:  cpu time    0.26: real time    0.26
    SETDIJ:  cpu time    0.01: real time    0.01
     EDDAV:  cpu time    5.33: real time    5.34
       DOS:  cpu time    0.00: real time    0.00
    CHARGE:  cpu time    0.13: real time    0.13
    MIXING:  cpu time    0.00: real time    0.00
    --------------------------------------------
      LOOP:  cpu time    5.74: real time    5.94

 eigenvalue-minimisations  :  1384
 total energy-change (2. order) : 0.1029718E+02  (-0.1057071E+01)
 number of electron     506.0000442 magnetization      32.6177479
 augmentation part      242.5783283 magnetization      17.8013731

 Broyden mixing:
  rms(total) = 0.14029E+01    rms(broyden)= 0.14029E+01
  rms(prec ) = 0.14118E+01
  weight for this iteration     100.00

 eigenvalues of (default mixing * dielectric matrix)
  average eigenvalue GAMMA=   1.1216
  0.7711  1.4720

 Free energy of the ion-electron system (eV)
  ---------------------------------------------------
  alpha Z        PSCENC =       154.88617003
  Ewald energy   TEWEN  =    135608.83141848
  -Hartree energ DENC   =   -181354.56189862
  -exchange      EXHF   =         0.00000000
  -V(xc)+E(xc)   XCENC  =      -466.86301483
  PAW double counting   =     49420.83903570   -47368.18888193
  entropy T*S    EENTRO =         0.00000000
  eigenvalues    EBANDS =     -3743.19896441
  atomic energy  EATOM  =     47711.13698397
  ---------------------------------------------------
  free energy    TOTEN  =       -37.11915162 eV

  energy without entropy =      -37.11915162  energy(sigma->0) =      -37.11915162


--------------------------------------------------------------------------------------------------------




----------------------------------------- Iteration    1(   8)  ---------------------------------------


    POTLOK:  cpu time    0.21: real time    0.21
    SETDIJ:  cpu time    0.01: real time    0.01
     EDDAV:  cpu time    5.47: real time    5.47
       DOS:  cpu time    0.00: real time    0.00
    CHARGE:  cpu time    0.13: real time    0.13
    MIXING:  cpu time    0.00: real time    0.00
    --------------------------------------------
      LOOP:  cpu time    5.83: real time    5.84

 eigenvalue-minimisations  :  1416
 total energy-change (2. order) : 0.5059481E+01  (-0.3054766E+00)
 number of electron     506.0000440 magnetization      29.6460694
 augmentation part      242.5239683 magnetization      15.0208307

 Broyden mixing:
  rms(total) = 0.70446E+00    rms(broyden)= 0.70444E+00
  rms(prec ) = 0.70723E+00
  weight for this iteration     100.00

 eigenvalues of (default mixing * dielectric matrix)
  average eigenvalue GAMMA=   1.2779
  2.3176  0.8982  0.6178

 Free energy of the ion-electron system (eV)
  ---------------------------------------------------
  alpha Z        PSCENC =       154.88617003
  Ewald energy   TEWEN  =    135608.83141848
  -Hartree energ DENC   =   -181468.04676211
  -exchange      EXHF   =         0.00000000
  -V(xc)+E(xc)   XCENC  =      -462.90260246
  PAW double counting   =     50835.24144243   -48810.52060955
  entropy T*S    EENTRO =         0.00000000
  eigenvalues    EBANDS =     -3600.68571158
  atomic energy  EATOM  =     47711.13698397
  ---------------------------------------------------
  free energy    TOTEN  =       -32.05967079 eV

  energy without entropy =      -32.05967079  energy(sigma->0) =      -32.05967079


--------------------------------------------------------------------------------------------------------




----------------------------------------- Iteration    1(   9)  ---------------------------------------


    POTLOK:  cpu time    0.22: real time    0.21
    SETDIJ:  cpu time    0.01: real time    0.01
     EDDAV:  cpu time    5.52: real time    5.53
       DOS:  cpu time    0.00: real time    0.00
    CHARGE:  cpu time    0.13: real time    0.13
    MIXING:  cpu time    0.00: real time    0.01
    --------------------------------------------
      LOOP:  cpu time    5.88: real time    5.95

 eigenvalue-minimisations  :  1432
 total energy-change (2. order) :-0.3463829E+01  (-0.6134206E-01)
 number of electron     506.0000440 magnetization      26.2948701
 augmentation part      242.4280460 magnetization      11.8685528

 Broyden mixing:
  rms(total) = 0.44407E+00    rms(broyden)= 0.44407E+00
  rms(prec ) = 0.44679E+00
  weight for this iteration     100.00

 eigenvalues of (default mixing * dielectric matrix)
  average eigenvalue GAMMA=   1.2346
  2.3528  0.6195  0.8044  1.1618

 Free energy of the ion-electron system (eV)
  ---------------------------------------------------
  alpha Z        PSCENC =       154.88617003
  Ewald energy   TEWEN  =    135608.83141848
  -Hartree energ DENC   =   -181501.94600120
  -exchange      EXHF   =         0.00000000
  -V(xc)+E(xc)   XCENC  =      -465.27993413
  PAW double counting   =     51209.25216736   -49191.75125423
  entropy T*S    EENTRO =         0.00000000
  eigenvalues    EBANDS =     -3560.65304967
  atomic energy  EATOM  =     47711.13698397
  ---------------------------------------------------
  free energy    TOTEN  =       -35.52349938 eV

  energy without entropy =      -35.52349938  energy(sigma->0) =      -35.52349938


--------------------------------------------------------------------------------------------------------




----------------------------------------- Iteration    1(  10)  ---------------------------------------


    POTLOK:  cpu time    0.21: real time    0.21
    SETDIJ:  cpu time    0.01: real time    0.01
     EDDAV:  cpu time    5.27: real time    5.27
       DOS:  cpu time    0.00: real time    0.00
    CHARGE:  cpu time    0.13: real time    0.13
    MIXING:  cpu time    0.01: real time    0.01
    --------------------------------------------
      LOOP:  cpu time    5.63: real time    5.64

 eigenvalue-minimisations  :  1344
 total energy-change (2. order) :-0.1178203E+02  (-0.2720040E+00)
 number of electron     506.0000441 magnetization      22.1977959
 augmentation part      242.3527875 magnetization      10.1935145

 Broyden mixing:
  rms(total) = 0.39364E+00    rms(broyden)= 0.39357E+00
  rms(prec ) = 0.39816E+00
  weight for this iteration     100.00

 eigenvalues of (default mixing * dielectric matrix)
  average eigenvalue GAMMA=   1.2122
  2.4371  1.5471  0.8382  0.6193  0.6193

 Free energy of the ion-electron system (eV)
  ---------------------------------------------------
  alpha Z        PSCENC =       154.88617003
  Ewald energy   TEWEN  =    135608.83141848
  -Hartree energ DENC   =   -181508.78917020
  -exchange      EXHF   =         0.00000000
  -V(xc)+E(xc)   XCENC  =      -474.04666023
  PAW double counting   =     51237.80770271   -49220.70503722
  entropy T*S    EENTRO =         0.00000000
  eigenvalues    EBANDS =     -3556.42693329
  atomic energy  EATOM  =     47711.13698397
  ---------------------------------------------------
  free energy    TOTEN  =       -47.30552575 eV

  energy without entropy =      -47.30552575  energy(sigma->0) =      -47.30552575


--------------------------------------------------------------------------------------------------------




----------------------------------------- Iteration    1(  11)  ---------------------------------------


    POTLOK:  cpu time    0.21: real time    0.21
    SETDIJ:  cpu time    0.01: real time    0.01
     EDDAV:  cpu time    5.36: real time    5.36
       DOS:  cpu time    0.00: real time    0.00
    CHARGE:  cpu time    0.13: real time    0.13
    MIXING:  cpu time    0.01: real time    0.01
    --------------------------------------------
      LOOP:  cpu time    5.72: real time    5.80

 eigenvalue-minimisations  :  1368
 total energy-change (2. order) :-0.9799009E+01  (-0.3253803E+00)
 number of electron     506.0000442 magnetization      18.3771208
 augmentation part      242.2682543 magnetization       8.8045128

 Broyden mixing:
  rms(total) = 0.33515E+00    rms(broyden)= 0.33508E+00
  rms(prec ) = 0.34068E+00
  weight for this iteration     100.00

 eigenvalues of (default mixing * dielectric matrix)
  average eigenvalue GAMMA=   1.2916
  2.8431  2.0406  0.8706  0.8037  0.5426  0.6488

 Free energy of the ion-electron system (eV)
  ---------------------------------------------------
  alpha Z        PSCENC =       154.88617003
  Ewald energy   TEWEN  =    135608.83141848
  -Hartree energ DENC   =   -181525.58749739
  -exchange      EXHF   =         0.00000000
  -V(xc)+E(xc)   XCENC  =      -481.09837539
  PAW double counting   =     51266.66220052   -49250.21758621
  entropy T*S    EENTRO =         0.00000000
  eigenvalues    EBANDS =     -3541.71784923
  atomic energy  EATOM  =     47711.13698397
  ---------------------------------------------------
  free energy    TOTEN  =       -57.10453523 eV

  energy without entropy =      -57.10453523  energy(sigma->0) =      -57.10453523


--------------------------------------------------------------------------------------------------------




----------------------------------------- Iteration    1(  12)  ---------------------------------------


    POTLOK:  cpu time    0.21: real time    0.21
    SETDIJ:  cpu time    0.01: real time    0.01
     EDDAV:  cpu time    5.35: real time    5.35
       DOS:  cpu time    0.00: real time    0.00
    CHARGE:  cpu time    0.14: real time    0.15
    MIXING:  cpu time    0.01: real time    0.01
    --------------------------------------------
      LOOP:  cpu time    5.72: real time    5.73

 eigenvalue-minimisations  :  1384
 total energy-change (2. order) :-0.8459788E+01  (-0.2970225E+00)
 number of electron     506.0000441 magnetization      14.2932372
 augmentation part      242.1919235 magnetization       5.2184641

 Broyden mixing:
  rms(total) = 0.23954E+00    rms(broyden)= 0.23952E+00
  rms(prec ) = 0.24311E+00
  weight for this iteration     100.00

 eigenvalues of (default mixing * dielectric matrix)
  average eigenvalue GAMMA=   1.4866
  4.2751  2.3126  1.1322  0.9142  0.6331  0.5694  0.5694

 Free energy of the ion-electron system (eV)
  ---------------------------------------------------
  alpha Z        PSCENC =       154.88617003
  Ewald energy   TEWEN  =    135608.83141848
  -Hartree energ DENC   =   -181535.73575481
  -exchange      EXHF   =         0.00000000
  -V(xc)+E(xc)   XCENC  =      -487.28624561
  PAW double counting   =     51250.89252814   -49234.61679704
  entropy T*S    EENTRO =         0.00000000
  eigenvalues    EBANDS =     -3533.67262607
  atomic energy  EATOM  =     47711.13698397
  ---------------------------------------------------
  free energy    TOTEN  =       -65.56432292 eV

  energy without entropy =      -65.56432292  energy(sigma->0) =      -65.56432292


--------------------------------------------------------------------------------------------------------




----------------------------------------- Iteration    1(  13)  ---------------------------------------


    POTLOK:  cpu time    0.25: real time    0.25
    SETDIJ:  cpu time    0.01: real time    0.01
     EDDAV:  cpu time    5.28: real time    5.29
       DOS:  cpu time    0.00: real time    0.00
    CHARGE:  cpu time    0.13: real time    0.13
    MIXING:  cpu time    0.01: real time    0.01
    --------------------------------------------
      LOOP:  cpu time    5.68: real time    5.72

 eigenvalue-minimisations  :  1360
 total energy-change (2. order) :-0.1221604E+02  (-0.5427193E+00)
 number of electron     506.0000441 magnetization      12.7425289
 augmentation part      242.1244152 magnetization       6.0965661

 Broyden mixing:
  rms(total) = 0.20644E+00    rms(broyden)= 0.20632E+00
  rms(prec ) = 0.21664E+00
  weight for this iteration     100.00

 eigenvalues of (default mixing * dielectric matrix)
  average eigenvalue GAMMA=   1.4597
  4.9553  2.3499  1.0040  1.0040  0.6350  0.6350  0.6296  0.4646

 Free energy of the ion-electron system (eV)
  ---------------------------------------------------
  alpha Z        PSCENC =       154.88617003
  Ewald energy   TEWEN  =    135608.83141848
  -Hartree energ DENC   =   -181525.91498144
  -exchange      EXHF   =         0.00000000
  -V(xc)+E(xc)   XCENC  =      -496.63067692
  PAW double counting   =     51142.78456866   -49125.66419798
  entropy T*S    EENTRO =         0.00000000
  eigenvalues    EBANDS =     -3547.20964937
  atomic energy  EATOM  =     47711.13698397
  ---------------------------------------------------
  free energy    TOTEN  =       -77.78036457 eV

  energy without entropy =      -77.78036457  energy(sigma->0) =      -77.78036457


--------------------------------------------------------------------------------------------------------




----------------------------------------- Iteration    1(  14)  ---------------------------------------


    POTLOK:  cpu time    0.21: real time    0.21
    SETDIJ:  cpu time    0.01: real time    0.01
     EDDAV:  cpu time    5.55: real time    5.55
       DOS:  cpu time    0.00: real time    0.00
    CHARGE:  cpu time    0.13: real time    0.13
    MIXING:  cpu time    0.00: real time    0.01
    --------------------------------------------
      LOOP:  cpu time    5.91: real time    5.92

 eigenvalue-minimisations  :  1432
 total energy-change (2. order) :-0.3313349E+01  (-0.6700445E-01)
 number of electron     506.0000440 magnetization      11.9363370
 augmentation part      242.1297465 magnetization       7.3766695

 Broyden mixing:
  rms(total) = 0.21820E+00    rms(broyden)= 0.21810E+00
  rms(prec ) = 0.22771E+00
  weight for this iteration     100.00

 eigenvalues of (default mixing * dielectric matrix)
  average eigenvalue GAMMA=   1.3412
  5.1595  2.3451  0.9913  0.9913  0.6283  0.6410  0.6410  0.3367  0.3367

 Free energy of the ion-electron system (eV)
  ---------------------------------------------------
  alpha Z        PSCENC =       154.88617003
  Ewald energy   TEWEN  =    135608.83141848
  -Hartree energ DENC   =   -181514.68264654
  -exchange      EXHF   =         0.00000000
  -V(xc)+E(xc)   XCENC  =      -499.30063287
  PAW double counting   =     51108.08107683   -49090.91472489
  entropy T*S    EENTRO =         0.00000000
  eigenvalues    EBANDS =     -3559.13135853
  atomic energy  EATOM  =     47711.13698397
  ---------------------------------------------------
  free energy    TOTEN  =       -81.09371353 eV

  energy without entropy =      -81.09371353  energy(sigma->0) =      -81.09371353


--------------------------------------------------------------------------------------------------------




----------------------------------------- Iteration    1(  15)  ---------------------------------------


    POTLOK:  cpu time    0.21: real time    0.21
    SETDIJ:  cpu time    0.01: real time    0.01
     EDDAV:  cpu time    5.46: real time    5.46
       DOS:  cpu time    0.00: real time    0.00
    CHARGE:  cpu time    0.14: real time    0.13
    MIXING:  cpu time    0.00: real time    0.01
    --------------------------------------------
      LOOP:  cpu time    5.82: real time    5.89

 eigenvalue-minimisations  :  1400
 total energy-change (2. order) :-0.9659225E+00  (-0.9014568E-02)
 number of electron     506.0000440 magnetization       9.6388373
 augmentation part      242.1337758 magnetization       5.1603407

 Broyden mixing:
  rms(total) = 0.18563E+00    rms(broyden)= 0.18562E+00
  rms(prec ) = 0.19354E+00
  weight for this iteration     100.00

 eigenvalues of (default mixing * dielectric matrix)
  average eigenvalue GAMMA=   1.4304
  6.0136  2.3219  1.0656  0.9500  0.8376  0.8376  0.5686  0.5686  0.6292  0.5117

 Free energy of the ion-electron system (eV)
  ---------------------------------------------------
  alpha Z        PSCENC =       154.88617003
  Ewald energy   TEWEN  =    135608.83141848
  -Hartree energ DENC   =   -181511.10754412
  -exchange      EXHF   =         0.00000000
  -V(xc)+E(xc)   XCENC  =      -500.09505131
  PAW double counting   =     51097.99070186   -49080.91131242
  entropy T*S    EENTRO =         0.00000000
  eigenvalues    EBANDS =     -3562.79100256
  atomic energy  EATOM  =     47711.13698397
  ---------------------------------------------------
  free energy    TOTEN  =       -82.05963607 eV

  energy without entropy =      -82.05963607  energy(sigma->0) =      -82.05963607


--------------------------------------------------------------------------------------------------------




----------------------------------------- Iteration    1(  16)  ---------------------------------------


    POTLOK:  cpu time    0.22: real time    0.22
    SETDIJ:  cpu time    0.01: real time    0.01
     EDDAV:  cpu time    5.27: real time    5.28
       DOS:  cpu time    0.00: real time    0.00
    CHARGE:  cpu time    0.13: real time    0.13
    MIXING:  cpu time    0.01: real time    0.01
    --------------------------------------------
      LOOP:  cpu time    5.64: real time    5.65

 eigenvalue-minimisations  :  1352
 total energy-change (2. order) :-0.3926301E+01  (-0.8664814E-01)
 number of electron     506.0000440 magnetization       8.3771081
 augmentation part      242.1467020 magnetization       5.9872022

 Broyden mixing:
  rms(total) = 0.19320E+00    rms(broyden)= 0.19311E+00
  rms(prec ) = 0.20466E+00
  weight for this iteration     100.00

 eigenvalues of (default mixing * dielectric matrix)
  average eigenvalue GAMMA=   1.3891
  6.4798  2.3022  1.1975  0.8843  0.8843  0.9238  0.5939  0.5939  0.6222  0.4934
  0.3041

 Free energy of the ion-electron system (eV)
  ---------------------------------------------------
  alpha Z        PSCENC =       154.88617003
  Ewald energy   TEWEN  =    135608.83141848
  -Hartree energ DENC   =   -181492.78984903
  -exchange      EXHF   =         0.00000000
  -V(xc)+E(xc)   XCENC  =      -503.51080156
  PAW double counting   =     51050.18261242   -49033.22353577
  entropy T*S    EENTRO =        -0.00000000
  eigenvalues    EBANDS =     -3581.49893557
  atomic energy  EATOM  =     47711.13698397
  ---------------------------------------------------
  free energy    TOTEN  =       -85.98593703 eV

  energy without entropy =      -85.98593703  energy(sigma->0) =      -85.98593703


--------------------------------------------------------------------------------------------------------




----------------------------------------- Iteration    1(  17)  ---------------------------------------


    POTLOK:  cpu time    0.21: real time    0.21
    SETDIJ:  cpu time    0.01: real time    0.01
     EDDAV:  cpu time    5.47: real time    5.47
       DOS:  cpu time    0.00: real time    0.00
    CHARGE:  cpu time    0.13: real time    0.13
    MIXING:  cpu time    0.01: real time    0.01
    --------------------------------------------
      LOOP:  cpu time    5.83: real time    5.84

 eigenvalue-minimisations  :  1408
 total energy-change (2. order) :-0.1266210E+01  (-0.1463497E-01)
 number of electron     506.0000441 magnetization       6.0068052
 augmentation part      242.1562172 magnetization       3.7170403

 Broyden mixing:
  rms(total) = 0.14588E+00    rms(broyden)= 0.14587E+00
  rms(prec ) = 0.15394E+00
  weight for this iteration     100.00

 eigenvalues of (default mixing * dielectric matrix)
  average eigenvalue GAMMA=   1.4747
  7.6846  2.2465  1.2261  1.2261  0.8566  0.8566  0.7634  0.6736  0.6736  0.5435
  0.4730  0.4730

 Free energy of the ion-electron system (eV)
  ---------------------------------------------------
  alpha Z        PSCENC =       154.88617003
  Ewald energy   TEWEN  =    135608.83141848
  -Hartree energ DENC   =   -181485.23864638
  -exchange      EXHF   =         0.00000000
  -V(xc)+E(xc)   XCENC  =      -504.66165795
  PAW double counting   =     51033.11481529   -49016.21316517
  entropy T*S    EENTRO =         0.00000000
  eigenvalues    EBANDS =     -3589.10806536
  atomic energy  EATOM  =     47711.13698397
  ---------------------------------------------------
  free energy    TOTEN  =       -87.25214710 eV

  energy without entropy =      -87.25214710  energy(sigma->0) =      -87.25214710


--------------------------------------------------------------------------------------------------------




----------------------------------------- Iteration    1(  18)  ---------------------------------------


    POTLOK:  cpu time    0.21: real time    0.21
    SETDIJ:  cpu time    0.00: real time    0.01
     EDDAV:  cpu time    5.20: real time    5.20
       DOS:  cpu time    0.00: real time    0.00
    CHARGE:  cpu time    0.15: real time    0.15
    MIXING:  cpu time    0.01: real time    0.01
    --------------------------------------------
      LOOP:  cpu time    5.58: real time    5.59

 eigenvalue-minimisations  :  1328
 total energy-change (2. order) :-0.2740604E+01  (-0.5013726E-01)
 number of electron     506.0000441 magnetization       4.4158587
 augmentation part      242.1625809 magnetization       2.2781517

 Broyden mixing:
  rms(total) = 0.88245E-01    rms(broyden)= 0.88223E-01
  rms(prec ) = 0.93681E-01
  weight for this iteration     100.00

 eigenvalues of (default mixing * dielectric matrix)
  average eigenvalue GAMMA=   1.5710
  8.7481  2.1181  2.1181  1.3107  0.9169  0.9169  0.8082  0.6924  0.6924  0.6113
  0.5299  0.4798  0.4798

 Free energy of the ion-electron system (eV)
  ---------------------------------------------------
  alpha Z        PSCENC =       154.88617003
  Ewald energy   TEWEN  =    135608.83141848
  -Hartree energ DENC   =   -181464.36945076
  -exchange      EXHF   =         0.00000000
  -V(xc)+E(xc)   XCENC  =      -507.22636608
  PAW double counting   =     50997.80181066   -48980.90485440
  entropy T*S    EENTRO =         0.00000000
  eigenvalues    EBANDS =     -3610.14846314
  atomic energy  EATOM  =     47711.13698397
  ---------------------------------------------------
  free energy    TOTEN  =       -89.99275124 eV

  energy without entropy =      -89.99275124  energy(sigma->0) =      -89.99275124


--------------------------------------------------------------------------------------------------------




----------------------------------------- Iteration    1(  19)  ---------------------------------------


    POTLOK:  cpu time    0.21: real time    0.21
    SETDIJ:  cpu time    0.01: real time    0.01
     EDDAV:  cpu time    5.33: real time    5.33
       DOS:  cpu time    0.00: real time    0.00
    CHARGE:  cpu time    0.13: real time    0.13
    MIXING:  cpu time    0.01: real time    0.01
    --------------------------------------------
      LOOP:  cpu time    5.69: real time    5.70

 eigenvalue-minimisations  :  1352
 total energy-change (2. order) :-0.2185768E+01  (-0.3133563E-01)
 number of electron     506.0000441 magnetization       3.4715560
 augmentation part      242.1592606 magnetization       1.4044860

 Broyden mixing:
  rms(total) = 0.57047E-01    rms(broyden)= 0.57022E-01
  rms(prec ) = 0.62006E-01
  weight for this iteration     100.00

 eigenvalues of (default mixing * dielectric matrix)
  average eigenvalue GAMMA=   1.6440
  9.7631  2.6896  2.1598  1.0474  1.0474  1.2221  0.7813  0.7813  0.8402  0.6317
  0.5435  0.5435  0.4825  0.4825

 Free energy of the ion-electron system (eV)
  ---------------------------------------------------
  alpha Z        PSCENC =       154.88617003
  Ewald energy   TEWEN  =    135608.83141848
  -Hartree energ DENC   =   -181437.16240048
  -exchange      EXHF   =         0.00000000
  -V(xc)+E(xc)   XCENC  =      -509.42437970
  PAW double counting   =     50964.39050747   -48947.17509175
  entropy T*S    EENTRO =        -0.00000000
  eigenvalues    EBANDS =     -3637.66172767
  atomic energy  EATOM  =     47711.13698397
  ---------------------------------------------------
  free energy    TOTEN  =       -92.17851964 eV

  energy without entropy =      -92.17851964  energy(sigma->0) =      -92.17851964


--------------------------------------------------------------------------------------------------------




----------------------------------------- Iteration    1(  20)  ---------------------------------------


    POTLOK:  cpu time    0.27: real time    0.27
    SETDIJ:  cpu time    0.01: real time    0.01
     EDDAV:  cpu time    5.40: real time    5.40
       DOS:  cpu time    0.00: real time    0.00
    CHARGE:  cpu time    0.13: real time    0.13
    MIXING:  cpu time    0.01: real time    0.01
    --------------------------------------------
      LOOP:  cpu time    5.82: real time    5.84

 eigenvalue-minimisations  :  1392
 total energy-change (2. order) :-0.1364454E+01  (-0.1054742E-01)
 number of electron     506.0000441 magnetization       3.1755047
 augmentation part      242.1848533 magnetization       1.1479061

 Broyden mixing:
  rms(total) = 0.42867E-01    rms(broyden)= 0.42846E-01
  rms(prec ) = 0.47463E-01
  weight for this iteration     100.00

 eigenvalues of (default mixing * dielectric matrix)
  average eigenvalue GAMMA=   1.6719
 10.1397  3.0659  2.2958  1.3055  1.3055  0.8424  0.8424  0.9917  0.8992  0.6395
  0.6395  0.6228  0.4798  0.4798  0.5283

 Free energy of the ion-electron system (eV)
  ---------------------------------------------------
  alpha Z        PSCENC =       154.88617003
  Ewald energy   TEWEN  =    135608.83141848
  -Hartree energ DENC   =   -181414.94470166
  -exchange      EXHF   =         0.00000000
  -V(xc)+E(xc)   XCENC  =      -510.90303634
  PAW double counting   =     50945.90315747   -48928.32341388
  entropy T*S    EENTRO =         0.00000000
  eigenvalues    EBANDS =     -3660.12955149
  atomic energy  EATOM  =     47711.13698397
  ---------------------------------------------------
  free energy    TOTEN  =       -93.54297343 eV

  energy without entropy =      -93.54297343  energy(sigma->0) =      -93.54297343


--------------------------------------------------------------------------------------------------------




----------------------------------------- Iteration    1(  21)  ---------------------------------------


    POTLOK:  cpu time    0.22: real time    0.22
    SETDIJ:  cpu time    0.01: real time    0.01
     EDDAV:  cpu time    5.35: real time    5.35
       DOS:  cpu time    0.00: real time    0.00
    CHARGE:  cpu time    0.13: real time    0.13
    MIXING:  cpu time    0.01: real time    0.01
    --------------------------------------------
      LOOP:  cpu time    5.71: real time    5.72

 eigenvalue-minimisations  :  1376
 total energy-change (2. order) :-0.9318496E+00  (-0.4528170E-02)
 number of electron     506.0000442 magnetization       2.8486635
 augmentation part      242.1828860 magnetization       0.8094191

 Broyden mixing:
  rms(total) = 0.27838E-01    rms(broyden)= 0.27825E-01
  rms(prec ) = 0.32793E-01
  weight for this iteration     100.00

 eigenvalues of (default mixing * dielectric matrix)
  average eigenvalue GAMMA=   1.6951
 10.4821  3.6404  2.2992  1.4207  1.4207  1.1939  0.8710  0.8710  0.8725  0.6793
  0.6793  0.4802  0.4802  0.6320  0.5496  0.5496

 Free energy of the ion-electron system (eV)
  ---------------------------------------------------
  alpha Z        PSCENC =       154.88617003
  Ewald energy   TEWEN  =    135608.83141848
  -Hartree energ DENC   =   -181398.09848159
  -exchange      EXHF   =         0.00000000
  -V(xc)+E(xc)   XCENC  =      -511.91006754
  PAW double counting   =     50957.29540825   -48939.63043231
  entropy T*S    EENTRO =         0.00000000
  eigenvalues    EBANDS =     -3676.98582231
  atomic energy  EATOM  =     47711.13698397
  ---------------------------------------------------
  free energy    TOTEN  =       -94.47482302 eV

  energy without entropy =      -94.47482302  energy(sigma->0) =      -94.47482302


--------------------------------------------------------------------------------------------------------




----------------------------------------- Iteration    1(  22)  ---------------------------------------


    POTLOK:  cpu time    0.21: real time    0.21
    SETDIJ:  cpu time    0.01: real time    0.01
     EDDAV:  cpu time    5.34: real time    5.35
       DOS:  cpu time    0.00: real time    0.00
    CHARGE:  cpu time    0.13: real time    0.13
    MIXING:  cpu time    0.01: real time    0.01
    --------------------------------------------
      LOOP:  cpu time    5.70: real time    5.71

 eigenvalue-minimisations  :  1368
 total energy-change (2. order) :-0.6383701E+00  (-0.2504306E-02)
 number of electron     506.0000442 magnetization       2.5391689
 augmentation part      242.1881497 magnetization       0.4946155

 Broyden mixing:
  rms(total) = 0.18917E-01    rms(broyden)= 0.18908E-01
  rms(prec ) = 0.22097E-01
  weight for this iteration     100.00

 eigenvalues of (default mixing * dielectric matrix)
  average eigenvalue GAMMA=   1.7099
 10.9032  4.1944  2.2551  1.4720  1.4720  1.1540  0.9255  0.9255  0.8627  0.8627
  0.4794  0.4794  0.6951  0.6951  0.5780  0.5780  0.5369

 Free energy of the ion-electron system (eV)
  ---------------------------------------------------
  alpha Z        PSCENC =       154.88617003
  Ewald energy   TEWEN  =    135608.83141848
  -Hartree energ DENC   =   -181380.20473574
  -exchange      EXHF   =         0.00000000
  -V(xc)+E(xc)   XCENC  =      -512.63799302
  PAW double counting   =     50964.95329644   -48947.12686516
  entropy T*S    EENTRO =        -0.00000000
  eigenvalues    EBANDS =     -3694.95146812
  atomic energy  EATOM  =     47711.13698397
  ---------------------------------------------------
  free energy    TOTEN  =       -95.11319312 eV

  energy without entropy =      -95.11319312  energy(sigma->0) =      -95.11319312


--------------------------------------------------------------------------------------------------------




----------------------------------------- Iteration    1(  23)  ---------------------------------------


    POTLOK:  cpu time    0.21: real time    0.21
    SETDIJ:  cpu time    0.01: real time    0.01
     EDDAV:  cpu time    5.35: real time    5.36
       DOS:  cpu time    0.00: real time    0.00
    CHARGE:  cpu time    0.13: real time    0.13
    MIXING:  cpu time    0.01: real time    0.01
    --------------------------------------------
      LOOP:  cpu time    5.72: real time    6.18

 eigenvalue-minimisations  :  1368
 total energy-change (2. order) :-0.2025377E+00  (-0.6457015E-03)
 number of electron     506.0000442 magnetization       2.2810613
 augmentation part      242.1963009 magnetization       0.2469784

 Broyden mixing:
  rms(total) = 0.12774E-01    rms(broyden)= 0.12765E-01
  rms(prec ) = 0.15156E-01
  weight for this iteration     100.00

 eigenvalues of (default mixing * dielectric matrix)
  average eigenvalue GAMMA=   1.7020
 11.1672  4.3632  2.3779  1.5372  1.5372  1.1233  1.1233  0.8778  0.8778  0.8849
  0.4796  0.4796  0.7531  0.6346  0.6346  0.6712  0.5568  0.5568

 Free energy of the ion-electron system (eV)
  ---------------------------------------------------
  alpha Z        PSCENC =       154.88617003
  Ewald energy   TEWEN  =    135608.83141848
  -Hartree energ DENC   =   -181370.58252183
  -exchange      EXHF   =         0.00000000
  -V(xc)+E(xc)   XCENC  =      -512.89507339
  PAW double counting   =     50969.15963936   -48951.29509314
  entropy T*S    EENTRO =         0.00000000
  eigenvalues    EBANDS =     -3704.55725434
  atomic energy  EATOM  =     47711.13698397
  ---------------------------------------------------
  free energy    TOTEN  =       -95.31573087 eV

  energy without entropy =      -95.31573087  energy(sigma->0) =      -95.31573087


--------------------------------------------------------------------------------------------------------




----------------------------------------- Iteration    1(  24)  ---------------------------------------


    POTLOK:  cpu time    0.22: real time    0.22
    SETDIJ:  cpu time    0.01: real time    0.01
     EDDAV:  cpu time    5.38: real time    5.39
       DOS:  cpu time    0.00: real time    0.00
    CHARGE:  cpu time    0.13: real time    0.13
    MIXING:  cpu time    0.01: real time    0.01
    --------------------------------------------
      LOOP:  cpu time    5.74: real time    5.75

 eigenvalue-minimisations  :  1376
 total energy-change (2. order) :-0.1025636E+00  (-0.2286032E-03)
 number of electron     506.0000442 magnetization       2.1382316
 augmentation part      242.1979934 magnetization       0.1135554

 Broyden mixing:
  rms(total) = 0.95213E-02    rms(broyden)= 0.95170E-02
  rms(prec ) = 0.11914E-01
  weight for this iteration     100.00

 eigenvalues of (default mixing * dielectric matrix)
  average eigenvalue GAMMA=   1.7240
 11.3865  4.6756  2.5551  1.6391  1.3928  1.3928  1.1145  1.1145  0.8964  0.8964
  0.8973  0.4797  0.4797  0.7049  0.7049  0.6525  0.6525  0.5602  0.5602

 Free energy of the ion-electron system (eV)
  ---------------------------------------------------
  alpha Z        PSCENC =       154.88617003
  Ewald energy   TEWEN  =    135608.83141848
  -Hartree energ DENC   =   -181364.24527060
  -exchange      EXHF   =         0.00000000
  -V(xc)+E(xc)   XCENC  =      -513.03042037
  PAW double counting   =     50975.86669287   -48958.05939403
  entropy T*S    EENTRO =         0.00000000
  eigenvalues    EBANDS =     -3710.80447485
  atomic energy  EATOM  =     47711.13698397
  ---------------------------------------------------
  free energy    TOTEN  =       -95.41829450 eV

  energy without entropy =      -95.41829450  energy(sigma->0) =      -95.41829450


--------------------------------------------------------------------------------------------------------




----------------------------------------- Iteration    1(  25)  ---------------------------------------


    POTLOK:  cpu time    0.21: real time    0.21
    SETDIJ:  cpu time    0.01: real time    0.01
     EDDAV:  cpu time    4.88: real time    4.89
       DOS:  cpu time    0.00: real time    0.00
    CHARGE:  cpu time    0.13: real time    0.13
    MIXING:  cpu time    0.01: real time    0.01
    --------------------------------------------
      LOOP:  cpu time    5.25: real time    5.25

 eigenvalue-minimisations  :  1216
 total energy-change (2. order) :-0.6293860E-01  (-0.1303371E-03)
 number of electron     506.0000442 magnetization       2.0920558
 augmentation part      242.1955076 magnetization       0.0692353

 Broyden mixing:
  rms(total) = 0.65752E-02    rms(broyden)= 0.65742E-02
  rms(prec ) = 0.83706E-02
  weight for this iteration     100.00

 eigenvalues of (default mixing * dielectric matrix)
  average eigenvalue GAMMA=   1.7321
 11.4269  4.9158  2.4539  2.4539  1.4087  1.4087  1.0885  1.0885  0.8966  0.8966
  0.9650  0.9650  0.4796  0.4796  0.6766  0.6766  0.6234  0.5849  0.5849  0.5672

 Free energy of the ion-electron system (eV)
  ---------------------------------------------------
  alpha Z        PSCENC =       154.88617003
  Ewald energy   TEWEN  =    135608.83141848
  -Hartree energ DENC   =   -181358.66434542
  -exchange      EXHF   =         0.00000000
  -V(xc)+E(xc)   XCENC  =      -513.11154302
  PAW double counting   =     50981.35487532   -48963.58000863
  entropy T*S    EENTRO =        -0.00000000
  eigenvalues    EBANDS =     -3716.33478382
  atomic energy  EATOM  =     47711.13698397
  ---------------------------------------------------
  free energy    TOTEN  =       -95.48123310 eV

  energy without entropy =      -95.48123310  energy(sigma->0) =      -95.48123310


--------------------------------------------------------------------------------------------------------




----------------------------------------- Iteration    1(  26)  ---------------------------------------


    POTLOK:  cpu time    0.26: real time    0.26
    SETDIJ:  cpu time    0.01: real time    0.01
     EDDAV:  cpu time    4.11: real time    4.12
       DOS:  cpu time    0.00: real time    0.00
    CHARGE:  cpu time    0.13: real time    0.13
    MIXING:  cpu time    0.01: real time    0.01
    --------------------------------------------
      LOOP:  cpu time    4.53: real time    4.55

 eigenvalue-minimisations  :   960
 total energy-change (2. order) :-0.2655514E-01  (-0.5878681E-04)
 number of electron     506.0000442 magnetization       2.0709350
 augmentation part      242.1959413 magnetization       0.0478637

 Broyden mixing:
  rms(total) = 0.41059E-02    rms(broyden)= 0.41053E-02
  rms(prec ) = 0.54175E-02
  weight for this iteration     100.00

 eigenvalues of (default mixing * dielectric matrix)
  average eigenvalue GAMMA=   1.7281
 11.4303  5.0369  2.8582  2.3202  1.4478  1.4478  1.3238  1.1796  1.1796  0.8799
  0.8799  0.8521  0.7252  0.7252  0.4796  0.4796  0.6507  0.6507  0.6206  0.5614
  0.5614

 Free energy of the ion-electron system (eV)
  ---------------------------------------------------
  alpha Z        PSCENC =       154.88617003
  Ewald energy   TEWEN  =    135608.83141848
  -Hartree energ DENC   =   -181354.85971238
  -exchange      EXHF   =         0.00000000
  -V(xc)+E(xc)   XCENC  =      -513.14865715
  PAW double counting   =     50983.01753983   -48965.24214432
  entropy T*S    EENTRO =         0.00000000
  eigenvalues    EBANDS =     -3720.12938670
  atomic energy  EATOM  =     47711.13698397
  ---------------------------------------------------
  free energy    TOTEN  =       -95.50778824 eV

  energy without entropy =      -95.50778824  energy(sigma->0) =      -95.50778824


--------------------------------------------------------------------------------------------------------




----------------------------------------- Iteration    1(  27)  ---------------------------------------


    POTLOK:  cpu time    0.21: real time    0.21
    SETDIJ:  cpu time    0.01: real time    0.01
     EDDAV:  cpu time    4.06: real time    4.07
       DOS:  cpu time    0.00: real time    0.00
    CHARGE:  cpu time    0.13: real time    0.13
    MIXING:  cpu time    0.01: real time    0.01
    --------------------------------------------
      LOOP:  cpu time    4.43: real time    5.18

 eigenvalue-minimisations  :   928
 total energy-change (2. order) :-0.1648467E-01  (-0.3558936E-04)
 number of electron     506.0000442 magnetization       2.0600250
 augmentation part      242.1971109 magnetization       0.0357893

 Broyden mixing:
  rms(total) = 0.26988E-02    rms(broyden)= 0.26975E-02
  rms(prec ) = 0.35976E-02
  weight for this iteration     100.00

 eigenvalues of (default mixing * dielectric matrix)
  average eigenvalue GAMMA=   1.7415
 11.4333  5.3198  3.0365  2.0964  2.0964  1.4005  1.4005  1.2237  1.2237  0.8896
  0.8896  0.9298  0.9298  0.4796  0.4796  0.6861  0.6861  0.7339  0.6495  0.5722
  0.5722  0.5843

 Free energy of the ion-electron system (eV)
  ---------------------------------------------------
  alpha Z        PSCENC =       154.88617003
  Ewald energy   TEWEN  =    135608.83141848
  -Hartree energ DENC   =   -181351.89622370
  -exchange      EXHF   =         0.00000000
  -V(xc)+E(xc)   XCENC  =      -513.17499752
  PAW double counting   =     50984.07043777   -48966.31234293
  entropy T*S    EENTRO =         0.00000000
  eigenvalues    EBANDS =     -3723.06571901
  atomic energy  EATOM  =     47711.13698397
  ---------------------------------------------------
  free energy    TOTEN  =       -95.52427291 eV

  energy without entropy =      -95.52427291  energy(sigma->0) =      -95.52427291


--------------------------------------------------------------------------------------------------------




----------------------------------------- Iteration    1(  28)  ---------------------------------------


    POTLOK:  cpu time    0.22: real time    0.22
    SETDIJ:  cpu time    0.01: real time    0.01
     EDDAV:  cpu time    4.10: real time    4.10
       DOS:  cpu time    0.00: real time    0.00
    CHARGE:  cpu time    0.13: real time    0.13
    MIXING:  cpu time    0.01: real time    0.01
    --------------------------------------------
      LOOP:  cpu time    4.47: real time    4.48

 eigenvalue-minimisations  :   936
 total energy-change (2. order) :-0.1127941E-01  (-0.3173570E-04)
 number of electron     506.0000442 magnetization       2.0527950
 augmentation part      242.1978361 magnetization       0.0270700

 Broyden mixing:
  rms(total) = 0.17878E-02    rms(broyden)= 0.17870E-02
  rms(prec ) = 0.23683E-02
  weight for this iteration     100.00

 eigenvalues of (default mixing * dielectric matrix)
  average eigenvalue GAMMA=   1.7480
 11.3920  5.5826  3.0364  2.3548  2.3548  1.5119  1.5119  1.2250  1.2250  1.1455
  0.8864  0.8864  0.8273  0.8273  0.4796  0.4796  0.7029  0.7029  0.6836  0.6281
  0.6281  0.5660  0.5660

 Free energy of the ion-electron system (eV)
  ---------------------------------------------------
  alpha Z        PSCENC =       154.88617003
  Ewald energy   TEWEN  =    135608.83141848
  -Hartree energ DENC   =   -181348.84445902
  -exchange      EXHF   =         0.00000000
  -V(xc)+E(xc)   XCENC  =      -513.19631649
  PAW double counting   =     50983.97088255   -48966.22185143
  entropy T*S    EENTRO =         0.00000000
  eigenvalues    EBANDS =     -3726.09838041
  atomic energy  EATOM  =     47711.13698397
  ---------------------------------------------------
  free energy    TOTEN  =       -95.53555233 eV

  energy without entropy =      -95.53555233  energy(sigma->0) =      -95.53555233


--------------------------------------------------------------------------------------------------------




----------------------------------------- Iteration    1(  29)  ---------------------------------------


    POTLOK:  cpu time    0.21: real time    0.21
    SETDIJ:  cpu time    0.01: real time    0.01
     EDDAV:  cpu time    4.09: real time    4.10
       DOS:  cpu time    0.00: real time    0.00
    CHARGE:  cpu time    0.13: real time    0.13
    MIXING:  cpu time    0.01: real time    0.01
    --------------------------------------------
      LOOP:  cpu time    4.46: real time    4.46

 eigenvalue-minimisations  :   936
 total energy-change (2. order) :-0.6085679E-02  (-0.1360237E-04)
 number of electron     506.0000442 magnetization       2.0380184
 augmentation part      242.1985653 magnetization       0.0118663

 Broyden mixing:
  rms(total) = 0.16541E-02    rms(broyden)= 0.16538E-02
  rms(prec ) = 0.20006E-02
  weight for this iteration     100.00

 eigenvalues of (default mixing * dielectric matrix)
  average eigenvalue GAMMA=   1.7571
 11.3570  5.9208  3.2826  2.3886  2.3886  1.5416  1.5416  1.4808  1.2666  1.2666
  0.8875  0.8875  0.8832  0.8832  0.8577  0.4796  0.4796  0.6916  0.6916  0.5633
  0.5633  0.6215  0.6215  0.6246

 Free energy of the ion-electron system (eV)
  ---------------------------------------------------
  alpha Z        PSCENC =       154.88617003
  Ewald energy   TEWEN  =    135608.83141848
  -Hartree energ DENC   =   -181346.84412974
  -exchange      EXHF   =         0.00000000
  -V(xc)+E(xc)   XCENC  =      -513.20832101
  PAW double counting   =     50983.38585660   -48965.63016860
  entropy T*S    EENTRO =        -0.00000000
[...]
  0.000   0.012  -0.013  -0.035  -0.000   0.000   0.012  -0.013
  0.012   0.000   0.021  -0.011  -0.036   0.012   0.000   0.020
 total augmentation occupancy for first ion, spin component:           1
  2.819   0.064   0.045   0.048   0.121  -0.810  -0.058  -0.040  -0.039  -0.093   0.027  -0.018  -0.165  -0.015  -0.003  -0.007
  0.064   2.681  -0.020  -0.097   0.072  -0.058  -0.710   0.016   0.083  -0.059   0.017  -0.003  -0.061   0.061  -0.020  -0.002
  0.045  -0.020   2.755   0.131  -0.012  -0.040   0.016  -0.762  -0.098   0.017  -0.046  -0.022  -0.034  -0.087   0.050  -0.002
  0.048  -0.097   0.131   2.893  -0.042  -0.039   0.083  -0.098  -0.889   0.040   0.035   0.020  -0.011  -0.198   0.012   0.001
  0.121   0.072  -0.012  -0.042   2.729  -0.093  -0.059   0.017   0.040  -0.730  -0.055   0.035  -0.078   0.027  -0.082  -0.002
 -0.810  -0.058  -0.040  -0.039  -0.093   0.773   0.053   0.037   0.032   0.069  -0.020   0.015   0.191   0.017  -0.007  -0.012
 -0.058  -0.710   0.016   0.083  -0.059   0.053   0.704  -0.013  -0.072   0.049  -0.012   0.003   0.072  -0.069   0.021  -0.004
 -0.040   0.016  -0.762  -0.098   0.017   0.037  -0.013   0.737   0.071  -0.023   0.057   0.009   0.035   0.094  -0.066  -0.002
 -0.039   0.083  -0.098  -0.889   0.040   0.032  -0.072   0.071   0.859  -0.039  -0.038  -0.014   0.013   0.221  -0.003  -0.001
 -0.093  -0.059   0.017   0.040  -0.730   0.069   0.049  -0.023  -0.039   0.700   0.029  -0.019   0.087  -0.030   0.113  -0.005
  0.027   0.017  -0.046   0.035  -0.055  -0.020  -0.012   0.057  -0.038   0.029   1.913  -0.267  -0.075   0.075   0.235   0.007
 -0.018  -0.003  -0.022   0.020   0.035   0.015   0.003   0.009  -0.014  -0.019  -0.267   0.057   0.015  -0.015  -0.048  -0.001
 -0.165  -0.061  -0.034  -0.011  -0.078   0.191   0.072   0.035   0.013   0.087  -0.075   0.015   0.085  -0.001   0.002  -0.005
 -0.015   0.061  -0.087  -0.198   0.027   0.017  -0.069   0.094   0.221  -0.030   0.075  -0.015  -0.001   0.100  -0.007   0.000
 -0.003  -0.020   0.050   0.012  -0.082  -0.007   0.021  -0.066  -0.003   0.113   0.235  -0.048   0.002  -0.007   0.067   0.000
 -0.007  -0.002  -0.002   0.001  -0.002  -0.012  -0.004  -0.002  -0.001  -0.005   0.007  -0.001  -0.005   0.000   0.000   0.001
  0.001   0.002  -0.002  -0.007  -0.001  -0.001   0.004  -0.005  -0.012   0.002  -0.007   0.001   0.000  -0.006  -0.000  -0.000
  0.005   0.001   0.007  -0.005  -0.011   0.001  -0.001   0.004  -0.000  -0.008  -0.022   0.004   0.000  -0.000  -0.006  -0.000
 total augmentation occupancy for first ion, spin component:           2
 -0.000  -0.000   0.000  -0.000  -0.000   0.000   0.000  -0.000   0.000   0.000  -0.000   0.000   0.000  -0.000   0.000  -0.000
 -0.000  -0.000  -0.000   0.000  -0.000   0.000   0.000   0.000  -0.000   0.000  -0.000   0.000  -0.000   0.000  -0.000   0.000
  0.000  -0.000  -0.000   0.000   0.000  -0.000   0.000  -0.000  -0.000  -0.000  -0.000   0.000   0.000   0.000   0.000  -0.000
 -0.000   0.000   0.000   0.000  -0.000   0.000  -0.000  -0.000  -0.000   0.000   0.000  -0.000   0.000   0.000  -0.000   0.000
 -0.000  -0.000   0.000  -0.000   0.000   0.000   0.000  -0.000   0.000  -0.000  -0.000   0.000   0.000   0.000  -0.000  -0.000
  0.000   0.000  -0.000   0.000   0.000  -0.000   0.000   0.000  -0.000  -0.000   0.000  -0.000  -0.000  -0.000  -0.000   0.000
  0.000   0.000   0.000  -0.000   0.000   0.000   0.000   0.000  -0.000   0.000   0.000  -0.000   0.000  -0.000   0.000  -0.000
 -0.000   0.000  -0.000  -0.000  -0.000   0.000   0.000   0.000   0.000   0.000   0.000  -0.000   0.000  -0.000  -0.000   0.000
  0.000  -0.000  -0.000  -0.000   0.000  -0.000  -0.000   0.000  -0.000   0.000  -0.000   0.000  -0.000  -0.000   0.000   0.000
  0.000   0.000  -0.000   0.000  -0.000  -0.000   0.000   0.000   0.000   0.000   0.000  -0.000   0.000   0.000   0.000   0.000
 -0.000  -0.000  -0.000   0.000  -0.000   0.000   0.000   0.000  -0.000   0.000   0.000  -0.000   0.000  -0.000  -0.000   0.000
  0.000   0.000   0.000  -0.000   0.000  -0.000  -0.000  -0.000   0.000  -0.000  -0.000   0.000  -0.000  -0.000   0.000  -0.000
  0.000  -0.000   0.000   0.000   0.000  -0.000   0.000   0.000  -0.000   0.000   0.000  -0.000   0.000  -0.000   0.000   0.000
 -0.000   0.000   0.000   0.000   0.000  -0.000  -0.000  -0.000  -0.000   0.000  -0.000  -0.000  -0.000   0.000  -0.000  -0.000
  0.000  -0.000   0.000  -0.000  -0.000  -0.000   0.000  -0.000   0.000   0.000  -0.000   0.000   0.000  -0.000  -0.000  -0.000
 -0.000   0.000  -0.000   0.000  -0.000   0.000  -0.000   0.000   0.000   0.000   0.000  -0.000   0.000  -0.000  -0.000   0.000
  0.000  -0.000  -0.000  -0.000  -0.000   0.000   0.000   0.000   0.000   0.000   0.000   0.000   0.000  -0.000   0.000   0.000
 -0.000   0.000  -0.000   0.000   0.000  -0.000  -0.000   0.000  -0.000  -0.000   0.000  -0.000  -0.000   0.000   0.000   0.000


------------------------ aborting loop because EDIFF is reached ----------------------------------------


    CHARGE:  cpu time    0.13: real time    0.13
    FORLOC:  cpu time    0.02: real time    0.02
    FORNL :  cpu time    3.81: real time    3.81
    STRESS:  cpu time    4.62: real time    4.62
    FORCOR:  cpu time    0.24: real time    0.24
    FORHAR:  cpu time    0.04: real time    0.04
    MIXING:  cpu time    0.00: real time    0.00
    OFIELD:  cpu time    0.00: real time    0.00

  FORCE on cell =-STRESS in cart. coord.  units (eV):
  Direction    XX          YY          ZZ          XY          YZ          ZX
  --------------------------------------------------------------------------------------
  Alpha Z   154.88617   154.88617   154.88617
  Ewald   46604.34380 41556.66717 40337.84095 10299.11104  7826.98626 -1122.33811
  Hartree 61722.65710 56937.29972 55686.93133  9638.99867  7321.18712  -965.55091
  E(xc)   -2667.79984 -2668.08207 -2667.85110     0.91796     0.66555    -0.45710
  Local  ************************************-19934.22740-15148.43302  2084.47779
  n-local  -477.00664  -476.94216  -477.30434     1.26367     2.44093    -0.07689
  augment  4227.76972  4227.95230  4227.09479    -1.85514    -0.93276     1.18754
  Kinetic  6297.20090  6297.54229  6295.14393    -4.30932    -1.74443     2.67143
  Fock        0.00000     0.00000     0.00000     0.00000     0.00000     0.00000
  -------------------------------------------------------------------------------------
  Total     -16.43503   -15.82795   -16.04230    -0.10051     0.16965    -0.08625
  in kB      -2.26602    -2.18232    -2.21187    -0.01386     0.02339    -0.01189
  external pressure =       -2.22 kB  Pullay stress =        0.00 kB


 VOLUME and BASIS-vectors are now :
 -----------------------------------------------------------------------------
  energy-cutoff  :      249.84
  volume of cell :    11620.30
      direct lattice vectors                 reciprocal lattice vectors
    22.650218774  0.000000000  0.000000000     0.044149684  0.000000000  0.000000000
     0.000000000 22.650218774  0.000000000     0.000000000  0.044149684  0.000000000
     0.000000000  0.000000000 22.650218774     0.000000000  0.000000000  0.044149684

  length of vectors
    22.650218774 22.650218774 22.650218774     0.044149684  0.044149684  0.044149684


 FORCES acting on ions
    electron-ion (+dipol)            ewald-force                    non-local-force                 convergence-correction
 -----------------------------------------------------------------------------------------------
   0.167E+04 -.337E+03 0.563E+03   -.167E+04 0.336E+03 -.561E+03   -.514E+01 0.169E+01 -.165E+01   0.382E-02 -.651E-02 0.117E-03
   0.231E+03 0.986E+02 0.169E+04   -.231E+03 -.980E+02 -.169E+04   -.249E+00 -.618E+00 -.402E+01   0.717E-02 -.468E-02 0.387E-02
   0.744E+03 0.995E+03 0.120E+04   -.742E+03 -.992E+03 -.119E+04   -.191E+01 -.234E+01 -.332E+01   -.109E-01 -.879E-02 0.321E-02
   0.107E+04 -.148E+03 0.127E+04   -.107E+04 0.149E+03 -.127E+04   -.136E+01 -.473E+00 -.503E+00   0.279E-02 0.182E-01 0.340E-02
   0.163E+04 0.332E+03 -.248E+03   -.162E+04 -.333E+03 0.248E+03   -.268E+01 0.353E+00 0.108E+00   -.181E-02 0.577E-02 -.166E-02
   0.136E+04 0.880E+03 0.623E+03   -.136E+04 -.879E+03 -.622E+03   -.348E+01 -.425E+00 -.118E+01   0.416E-02 0.108E-01 0.240E-02
   0.148E+04 -.778E+03 -.218E+03   -.148E+04 0.776E+03 0.219E+03   -.227E+01 0.136E+01 -.446E+00   0.166E-02 -.479E-02 -.457E-02
   0.252E+03 -.842E+03 0.150E+04   -.253E+03 0.840E+03 -.150E+04   0.441E+00 0.203E+01 -.238E+01   0.780E-03 -.587E-04 -.144E-02
   0.107E+04 -.106E+04 0.826E+03   -.106E+04 0.106E+04 -.825E+03   -.216E+01 0.595E+00 -.152E+01   0.421E-03 -.241E-02 -.610E-03
   0.303E+03 0.141E+04 0.510E+03   -.302E+03 -.141E+04 -.510E+03   -.649E+00 -.119E+01 -.689E+00   -.525E-02 0.298E-02 -.551E-03
   -.378E+03 0.124E+04 0.118E+04   0.376E+03 -.123E+04 -.117E+04   0.219E+01 -.343E+01 -.195E+01   0.117E-01 -.588E-02 -.128E-01
   -.828E+03 0.177E+03 0.154E+04   0.825E+03 -.177E+03 -.153E+04   0.292E+01 -.423E-01 -.441E+01   0.510E-04 -.188E-01 0.799E-02
   0.735E+03 0.175E+03 0.261E+03   -.734E+03 -.175E+03 -.261E+03   -.121E+01 -.161E+00 -.545E+00   -.390E-02 -.928E-03 0.300E-02
   -.823E+03 0.148E+04 0.423E+03   0.821E+03 -.147E+04 -.422E+03   0.246E+01 -.265E+01 -.104E+01   -.703E-02 -.440E-02 -.682E-02
   0.124E+03 -.146E+04 0.102E+04   -.124E+03 0.145E+04 -.102E+04   -.545E+00 0.364E+01 -.225E+01   0.174E-02 -.795E-02 -.478E-02
   -.123E+03 0.343E+03 0.869E+03   0.124E+03 -.343E+03 -.867E+03   -.651E+00 -.383E-01 -.137E+01   0.125E-02 0.377E-03 0.174E-02
   0.115E+04 0.794E+03 -.996E+03   -.115E+04 -.791E+03 0.992E+03   -.303E+01 -.266E+01 0.411E+01   0.320E-02 0.794E-02 0.107E-01
   0.125E+04 -.103E+03 -.122E+04   -.125E+04 0.104E+03 0.121E+04   -.212E+01 -.145E+00 0.313E+01   0.669E-02 0.344E-02 -.327E-02
   0.906E+03 0.144E+04 -.596E+02   -.906E+03 -.144E+04 0.591E+02   -.429E+00 -.359E+01 0.533E+00   0.825E-03 -.761E-02 -.352E-02
   0.886E+03 -.135E+04 0.835E+02   -.886E+03 0.135E+04 -.835E+02   -.387E-01 0.868E+00 -.245E-02   0.198E-02 -.145E-02 0.415E-02
   0.313E+02 -.489E+03 0.403E+03   -.311E+02 0.488E+03 -.403E+03   -.197E+00 0.980E+00 -.122E+00   -.181E-02 0.253E-01 -.980E-02
   -.712E+03 -.658E+03 0.129E+04   0.712E+03 0.657E+03 -.129E+04   0.300E+00 0.849E+00 -.159E+01   -.225E-02 0.108E-02 -.900E-02
   -.456E+02 -.171E+04 0.206E+03   0.438E+02 0.171E+04 -.205E+03   0.182E+01 0.458E+01 -.312E+00   0.469E-02 -.871E-02 -.137E-01
   -.292E+03 0.167E+04 -.260E+03   0.290E+03 -.166E+04 0.260E+03   0.204E+01 -.251E+01 0.722E+00   -.204E-02 -.691E-02 -.114E-02
   0.465E+03 0.650E+03 -.833E+03   -.465E+03 -.649E+03 0.833E+03   -.262E+00 -.463E+00 -.517E+00   0.100E-01 0.639E-02 0.903E-02
   0.563E+03 -.143E+04 -.781E+03   -.562E+03 0.143E+04 0.780E+03   -.106E+01 0.330E+01 0.132E+01   0.847E-02 0.371E-02 -.868E-02
   -.859E+03 -.122E+04 0.704E+03   0.859E+03 0.122E+04 -.702E+03   0.575E+00 0.242E+01 -.153E+01   -.651E-02 -.521E-02 -.340E-02
   -.121E+04 0.686E+03 0.849E+03   0.121E+04 -.685E+03 -.849E+03   0.578E+00 -.161E+01 -.214E+00   0.520E-02 -.907E-02 0.866E-02
   0.387E+03 -.268E+03 -.626E+03   -.386E+03 0.268E+03 0.626E+03   -.527E+00 0.353E+00 0.414E+00   -.157E-01 0.788E-02 -.107E-02
   -.275E+03 0.625E+03 -.160E+03   0.275E+03 -.624E+03 0.160E+03   0.175E+00 -.376E+00 -.270E-01   0.650E-02 -.513E-03 -.204E-02
   -.293E+03 -.813E+03 -.366E+03   0.293E+03 0.811E+03 0.366E+03   -.126E-01 0.141E+01 0.452E+00   -.532E-02 -.156E-02 0.443E-02
   0.198E+03 0.134E+04 -.104E+04   -.197E+03 -.134E+04 0.104E+04   -.997E+00 -.364E+01 0.381E+01   -.911E-02 0.248E-02 0.517E-03
   0.105E+04 -.860E+03 -.114E+04   -.104E+04 0.859E+03 0.113E+04   -.240E+01 0.143E+01 0.271E+01   0.694E-02 0.685E-02 -.564E-02
   -.146E+04 -.390E+03 0.932E+03   0.146E+04 0.389E+03 -.929E+03   0.381E+01 0.995E+00 -.282E+01   -.587E-02 0.433E-02 -.848E-03
   -.871E+03 -.238E+02 0.119E+02   0.870E+03 0.242E+02 -.118E+02   0.119E+01 -.330E+00 -.986E-01   -.130E-02 -.782E-02 0.205E-02
   -.438E+03 -.126E+04 -.109E+04   0.437E+03 0.125E+04 0.109E+04   0.618E+00 0.403E+01 0.212E+01   0.280E-04 -.177E-02 0.185E-01
   0.181E+03 0.230E+03 -.175E+04   -.180E+03 -.229E+03 0.175E+04   -.537E+00 -.146E+01 0.460E+01   -.428E-02 -.822E-02 0.277E-02
   -.107E+04 -.133E+04 -.230E+03   0.107E+04 0.132E+04 0.230E+03   0.110E+01 0.421E+01 -.202E+00   -.120E-01 0.472E-02 0.264E-02
   -.589E+03 0.104E+04 -.129E+04   0.587E+03 -.103E+04 0.128E+04   0.133E+01 -.245E+01 0.293E+01   0.680E-02 -.407E-02 -.454E-02
   -.632E+03 0.263E+03 -.123E+04   0.632E+03 -.263E+03 0.123E+04   -.108E+00 -.462E+00 0.123E+00   0.396E-02 0.210E-03 -.630E-02
   -.113E+04 0.120E+04 -.458E+03   0.113E+04 -.120E+04 0.456E+03   0.181E+01 -.228E+01 0.158E+01   0.988E-02 0.371E-02 -.415E-03
   -.287E+02 -.531E+03 -.161E+04   0.282E+02 0.531E+03 0.160E+04   0.463E+00 -.127E+00 0.309E+01   -.413E-02 0.105E-01 -.491E-02
   -.160E+04 -.570E+03 -.161E+03   0.160E+04 0.571E+03 0.160E+03   0.339E+01 -.991E+00 0.136E+01   -.924E-02 0.346E-02 0.664E-02
   -.164E+04 0.602E+03 0.103E+03   0.163E+04 -.601E+03 -.102E+03   0.436E+01 -.105E+01 -.120E+01   0.412E-02 0.102E-01 0.902E-02
   -.107E+04 -.429E+03 -.127E+04   0.106E+04 0.428E+03 0.126E+04   0.214E+01 0.107E+01 0.251E+01   -.460E-02 -.237E-02 0.125E-02
   -.137E+04 0.404E+03 -.102E+04   0.137E+04 -.402E+03 0.102E+04   0.240E+01 -.236E+01 0.294E+01   -.479E-02 0.329E-02 -.168E-02
 -----------------------------------------------------------------------------------------------
   -.222E+01 0.168E+01 -.264E+01   0.432E-11 0.159E-11 0.682E-12   0.208E+01 -.171E+01 0.263E+01   -.300E-02 0.132E-01 -.708E-02
 
 
 POSITION                                       TOTAL-FORCE (eV/Angst)
 -----------------------------------------------------------------------------------
      6.77057     11.57960      9.93620        -0.006714     -0.000862     -0.001611
     10.66912     10.38386      6.14367        -0.003574     -0.009858      0.010939
      9.11172      8.32788      7.31304        -0.008553     -0.003808     -0.000353
      8.63602     11.03740      7.93374         0.006557      0.003252     -0.007273
      7.03638      9.98716     12.25093         0.000620     -0.009750      0.006944
      7.55428      8.83110      9.61735        -0.000171      0.002924      0.000247
      7.87192     12.83186     12.23017        -0.006652     -0.000988     -0.001087
     10.86139     12.79881      7.63247         0.000123     -0.000725     -0.005233
      8.97572     13.40518      9.60227        -0.001103      0.003475      0.001890
     10.24952      8.02054      9.82902         0.001570      0.002142     -0.007494
     11.92613      8.09750      7.37015         0.001268     -0.000658     -0.005596
     13.39471     10.56556      6.79474         0.006223     -0.014420      0.005366
      9.34995     10.72518     10.78026         0.013746     -0.001232      0.004617
     13.04960      8.06499     10.06121        -0.005899     -0.000447     -0.001054
     11.55846     15.02221      9.50414         0.004567      0.014987     -0.013698
     11.65391     10.36319      8.90166         0.001243     -0.000893      0.005306
      7.35534      8.39953     14.51269         0.006753      0.009876     -0.000212
      7.89885     11.30280     14.61262         0.001936      0.000345     -0.001285
      8.45823      7.51917     11.99189         0.003875      0.006175      0.002263
      9.87110     14.85507     11.84718        -0.002669     -0.004070     -0.002049
     11.54690     12.59453     10.60801         0.000330     -0.013500      0.009551
     13.49079     12.75148      8.57043         0.002888     -0.001356     -0.008474
     12.18535     16.59839     11.83112         0.004159     -0.003850     -0.008962
     11.38832      7.25968     12.25773        -0.007061      0.000413     -0.001202
      9.70548      9.48099     13.51566        -0.000595     -0.007235     -0.001964
     10.62609     16.09361     14.18028         0.003983      0.008256     -0.001775
     14.26201     14.66813     10.47396         0.000178     -0.004742      0.008427
     14.66799     10.20165      9.28002         0.001363     -0.002126      0.003273
     10.48337     12.17983     13.13481         0.003821     -0.003817     -0.002401
     11.89935     10.01460     11.74530        -0.002433      0.012460     -0.001263
     12.68851     14.09968     12.78298        -0.004749     -0.000569     -0.000901
      9.90732      6.96162     14.57996        -0.009775      0.005734      0.001651
      8.99021     13.90593     14.64887        -0.002489      0.006527      0.003863
     16.11117     12.66454      9.44532        -0.005672      0.000677      0.003100
     14.16956     11.93216     11.49489        -0.004471      0.000545     -0.005168
     13.29596     16.05143     14.87375         0.006461     -0.000561      0.007260
     10.63503     11.11553     15.65806         0.004894     -0.000758     -0.002111
     15.12591     15.89204     12.81604        -0.000745      0.003550      0.004673
     12.26786      8.82852     14.42003         0.006379     -0.001248     -0.004118
     13.07634     11.45667     14.12277        -0.011392     -0.002127     -0.002191
     14.45447      9.15708     12.33222         0.002597      0.000411      0.004501
     11.75463     13.74323     15.39293        -0.005862     -0.004445      0.003238
     16.39893     13.53942     12.10381        -0.003043      0.003385      0.000805
     16.67842     10.54850     11.24778         0.004664      0.001580     -0.001471
     14.77881     13.67328     14.58378        -0.003746      0.003424     -0.003574
     15.86633     11.23209     13.79659         0.007174      0.003907      0.004607
 -----------------------------------------------------------------------------------
    total drift:                               -0.138105     -0.024256     -0.010178


--------------------------------------------------------------------------------------------------------



  FREE ENERGIE OF THE ION-ELECTRON SYSTEM (eV)
  ---------------------------------------------------
  free  energy   TOTEN  =       -99.79838792 eV

  energy  without entropy=      -99.79838792  energy(sigma->0) =      -99.79838792
 
 d Force = 0.4854480E-04[ 0.357E-04, 0.614E-04]  d Energy = 0.1200838E-03-0.715E-04
 d Force =-0.1452008E+01[-0.145E+01,-0.145E+01]  d Ewald  =-0.1452009E+01 0.108E-05


--------------------------------------------------------------------------------------------------------


    POTLOK:  cpu time    0.23: real time    0.23


--------------------------------------------------------------------------------------------------------




--------------------------------------------------------------------------------------------------------


  
 reached required accuracy - stopping structural energy minimisation
     LOOP+:  cpu time   19.96: real time   20.09
    4ORBIT:  cpu time    0.00: real time    0.00

 total amount of memory used by VASP on root node    56840. kBytes
========================================================================

   base      :      30000. kBytes
   nonl-proj :       2868. kBytes
   fftplans  :       4335. kBytes
   grid      :      10964. kBytes
   one-center:         46. kBytes
   wavefun   :       8627. kBytes
 
  
  
 General timing and accounting informations for this job:
 ========================================================
  
                  Total CPU time used (sec):     2607.095
                            User time (sec):     2591.966
                          System time (sec):       15.129
                         Elapsed time (sec):     2676.926
  
                   Maximum memory used (kb):       69768.
                   Average memory used (kb):           0.
  
                          Minor page faults:      1091117
                          Major page faults:            0
                 Voluntary context switches:        54781
