unknown system                          
           1
    22.650219    0.000000    0.000000
     0.000000   22.650219    0.000000
     0.000000    0.000000   22.650219
   Ag
  46
Direct configuration=     1
   0.29890280  0.50866336  0.43582635
   0.47992577  0.45415310  0.27173265
   0.45918273  0.35954642  0.33843362
   0.39093673  0.46973141  0.35919959
   0.29683175  0.44278838  0.54343586
   0.32746361  0.39118759  0.43325303
   0.34405373  0.56779578  0.53563812
   0.48008878  0.56144147  0.32478176
   0.39618385  0.58271678  0.41481285
   0.44293988  0.36603436  0.45323571
   0.57269049  0.38874027  0.31033635
   0.58495496  0.50184810  0.30069364
   0.39702483  0.47456570  0.48208050
   0.55443053  0.34468793  0.42047576
   0.51378211  0.65748763  0.43052916
   0.51035321  0.45749387  0.38738723
   0.34280603  0.39791728  0.64999579
   0.34746567  0.50673689  0.63153983
   0.36553010  0.33673742  0.54847906
   0.44195834  0.65169458  0.51678039
   0.49442538  0.54528964  0.47506715
   0.58300481  0.57145582  0.39172096
   0.55052079  0.73050241  0.52879547
   0.49347262  0.31960884  0.55114064
   0.43893801  0.42733468  0.58083448
   0.47587392  0.68765968  0.62188259
   0.63630175  0.65876583  0.45699202
   0.62901184  0.44969009  0.41438874
   0.46079498  0.54938452  0.59164186
   0.53594513  0.43043435  0.50967045
   0.55978048  0.61971705  0.55525522
   0.43640003  0.33759627  0.65510307
   0.40067567  0.60776325  0.66398259
   0.69713980  0.55691674  0.41569764
   0.62317197  0.52635666  0.50700598
   0.58480123  0.69718541  0.64546721
   0.45176885  0.46636734  0.68824222
   0.66082066  0.69404152  0.56440136
   0.54232852  0.38623587  0.63417712
   0.56955256  0.49462511  0.61958193
   0.63857621  0.40859104  0.53965893
   0.53335238  0.59439104  0.68124887
   0.71932522  0.59405076  0.53145947
   0.73013459  0.47632588  0.49325713
   0.65529052  0.59844947  0.63769795
   0.69337739  0.49401974  0.60167808
Direct configuration=     2
   0.29844431  0.50888149  0.43561146
   0.47959007  0.45422428  0.27125177
   0.45885307  0.35920973  0.33824984
   0.39087841  0.46969023  0.35902493
   0.29668444  0.44271277  0.54340870
   0.32728748  0.39083515  0.43318619
   0.34408137  0.56818503  0.53544651
   0.47990710  0.56167988  0.32492184
   0.39619060  0.58289987  0.41480998
   0.44275866  0.36593644  0.45340143
   0.57301105  0.38826489  0.31021487
   0.58539072  0.50208037  0.30041474
   0.39750767  0.47460632  0.48215201
   0.55462785  0.34454326  0.42070311
   0.51386480  0.65766486  0.43018503
   0.51027646  0.45763867  0.38775531
   0.34218877  0.39761075  0.65025797
   0.34740520  0.50714493  0.63180061
   0.36541862  0.33659598  0.54824430
   0.44145398  0.65168787  0.51692232
   0.49464803  0.54516847  0.47506702
   0.58301827  0.57146998  0.39176882
   0.55031302  0.73085498  0.52860364
   0.49357507  0.31928124  0.55083382
   0.43893311  0.42749365  0.58057514
   0.47545093  0.68786488  0.62198204
   0.63634381  0.65874494  0.45682227
   0.62915201  0.44954700  0.41426297
   0.46093868  0.54912167  0.59134513
   0.53534646  0.43065218  0.50937965
   0.55980633  0.61927476  0.55525711
   0.43663355  0.33701056  0.65549153
   0.40040534  0.60805292  0.66440234
   0.69734795  0.55709787  0.41537587
   0.62272695  0.52653639  0.50707447
   0.58499731  0.69752210  0.64614755
   0.45192710  0.46653745  0.68850946
   0.66143930  0.69432900  0.56425873
   0.54265287  0.38603882  0.63439198
   0.56969220  0.49502302  0.61948877
   0.63908766  0.40814351  0.53987860
   0.53322768  0.59433766  0.68137171
   0.71957942  0.59418915  0.53146170
   0.73051305  0.47600273  0.49304161
   0.65518545  0.59841765  0.63782394
   0.69352900  0.49392199  0.60211758
Direct configuration=     3
   0.29706885  0.50953588  0.43496679
   0.47858294  0.45443784  0.26980912
   0.45786408  0.35819967  0.33769853
   0.39070345  0.46956670  0.35850097
   0.29624252  0.44248596  0.54332723
   0.32675910  0.38977781  0.43298568
   0.34416428  0.56935280  0.53487168
   0.47936205  0.56239512  0.32534209
   0.39621087  0.58344913  0.41480136
   0.44221500  0.36564267  0.45389857
   0.57397274  0.38683874  0.30985043
   0.58669801  0.50277717  0.29957806
   0.39895620  0.47472819  0.48236654
   0.55521982  0.34410925  0.42138515
   0.51411287  0.65819656  0.42915266
   0.51004620  0.45807306  0.38885953
   0.34033698  0.39669116  0.65104450
   0.34722378  0.50836905  0.63258297
   0.36508419  0.33617165  0.54754005
   0.43994092  0.65166771  0.51734810
   0.49531598  0.54480496  0.47506665
   0.58305868  0.57151244  0.39191241
   0.54968972  0.73191270  0.52802814
   0.49388243  0.31829843  0.54991336
   0.43891843  0.42797059  0.57979710
   0.47418194  0.68848047  0.62228039
   0.63647000  0.65868225  0.45631299
   0.62957253  0.44911775  0.41388568
   0.46136977  0.54833312  0.59045493
   0.53355047  0.43130567  0.50850723
   0.55988386  0.61794790  0.55526278
   0.43733412  0.33525341  0.65665692
   0.39959434  0.60892193  0.66566157
   0.69797240  0.55764126  0.41441056
   0.62139187  0.52707556  0.50727996
   0.58558556  0.69853219  0.64818855
   0.45240185  0.46704777  0.68931121
   0.66329523  0.69519143  0.56383083
   0.54362594  0.38544767  0.63503656
   0.57011111  0.49621675  0.61920929
   0.64062203  0.40680089  0.54053761
   0.53285360  0.59417754  0.68174024
   0.72034204  0.59460432  0.53146837
   0.73164842  0.47503327  0.49239507
   0.65487024  0.59832220  0.63820191
   0.69398383  0.49362872  0.60343607
Direct configuration=     4
   0.29431792  0.51084466  0.43367745
   0.47656868  0.45486494  0.26692382
   0.45588611  0.35617956  0.33659591
   0.39035353  0.46931965  0.35745304
   0.29535869  0.44203234  0.54316429
   0.32570234  0.38766314  0.43258465
   0.34433009  0.57168833  0.53372202
   0.47827194  0.56382559  0.32618260
   0.39625139  0.58454766  0.41478413
   0.44112768  0.36505515  0.45489286
   0.57589612  0.38398645  0.30912154
   0.58931257  0.50417077  0.29790470
   0.40185324  0.47497194  0.48279560
   0.55640376  0.34324122  0.42274924
   0.51460901  0.65925995  0.42708790
   0.50958568  0.45894184  0.39106799
   0.33663341  0.39485198  0.65261756
   0.34686095  0.51081728  0.63414769
   0.36441531  0.33532299  0.54613154
   0.43691478  0.65162741  0.51819968
   0.49665188  0.54407795  0.47506590
   0.58313949  0.57159737  0.39219957
   0.54844311  0.73402814  0.52687714
   0.49449714  0.31633282  0.54807244
   0.43888907  0.42892445  0.57824102
   0.47164396  0.68971167  0.62287708
   0.63672236  0.65855689  0.45529444
   0.63041358  0.44825923  0.41313110
   0.46223196  0.54675602  0.58867453
   0.52995848  0.43261266  0.50676240
   0.56003893  0.61529418  0.55527412
   0.43873525  0.33173912  0.65898768
   0.39797235  0.61065996  0.66818005
   0.69922129  0.55872803  0.41247994
   0.61872172  0.52815391  0.50769094
   0.58676207  0.70055237  0.65227055
   0.45335133  0.46806842  0.69091469
   0.66700709  0.69691629  0.56297503
   0.54557207  0.38426535  0.63632572
   0.57094892  0.49860420  0.61865034
   0.64369076  0.40411566  0.54185562
   0.53210543  0.59385729  0.68247728
   0.72186726  0.59543466  0.53148171
   0.73391917  0.47309435  0.49110197
   0.65423983  0.59813129  0.63895784
   0.69489349  0.49304220  0.60607305
Direct configuration=     5
   0.29462336  0.51069935  0.43382061
   0.47679233  0.45481752  0.26724418
   0.45610573  0.35640385  0.33671834
   0.39039238  0.46934708  0.35756939
   0.29545682  0.44208271  0.54318238
   0.32581968  0.38789794  0.43262917
   0.34431168  0.57142901  0.53384967
   0.47839298  0.56366676  0.32608928
   0.39624689  0.58442569  0.41478605
   0.44124841  0.36512039  0.45478246
   0.57568256  0.38430314  0.30920247
   0.58902227  0.50401603  0.29809050
   0.40153158  0.47494487  0.48274796
   0.55627231  0.34333760  0.42259778
   0.51455392  0.65914188  0.42731715
   0.50963681  0.45884537  0.39082278
   0.33704463  0.39505619  0.65244290
   0.34690123  0.51054545  0.63397396
   0.36448958  0.33541722  0.54628793
   0.43725078  0.65163188  0.51810513
   0.49650355  0.54415867  0.47506598
   0.58313052  0.57158794  0.39216769
   0.54858153  0.73379326  0.52700494
   0.49442889  0.31655107  0.54827684
   0.43889233  0.42881854  0.57841379
   0.47192576  0.68957497  0.62281083
   0.63669434  0.65857081  0.45540753
   0.63032019  0.44835456  0.41321488
   0.46213623  0.54693113  0.58887221
   0.53035731  0.43246755  0.50695613
   0.56002172  0.61558883  0.55527286
   0.43857968  0.33212932  0.65872889
   0.39815244  0.61046698  0.66790042
   0.69908262  0.55860736  0.41269430
   0.61901819  0.52803417  0.50764531
   0.58663144  0.70032807  0.65181732
   0.45324591  0.46795509  0.69073665
   0.66659496  0.69672477  0.56307005
   0.54535599  0.38439663  0.63618258
   0.57085590  0.49833912  0.61871240
   0.64335003  0.40441381  0.54170928
   0.53218851  0.59389285  0.68239545
   0.72169791  0.59534247  0.53148023
   0.73366704  0.47330963  0.49124555
   0.65430983  0.59815249  0.63887391
   0.69479249  0.49310732  0.60578026
Direct configuration=     6
   0.29442442  0.51077918  0.43367873
   0.47663732  0.45492835  0.26698699
   0.45574418  0.35619501  0.33646578
   0.39019620  0.46924444  0.35734640
   0.29548762  0.44211306  0.54310028
   0.32550360  0.38757143  0.43260121
   0.34431825  0.57191394  0.53347484
   0.47821258  0.56388500  0.32635105
   0.39618340  0.58472639  0.41490210
   0.44091526  0.36468353  0.45451089
   0.57579699  0.38398870  0.30920239
   0.58942918  0.50385608  0.29768815
   0.40111463  0.47546794  0.48193161
   0.55649453  0.34318900  0.42304767
   0.51423226  0.65952625  0.42708621
   0.50956742  0.45866688  0.39026433
   0.33652591  0.39465882  0.65256691
   0.34675462  0.51055724  0.63430374
   0.36428721  0.33526117  0.54610799
   0.43669048  0.65172505  0.51796358
   0.49698299  0.54477069  0.47477149
   0.58324947  0.57136121  0.39203551
   0.54822655  0.73372385  0.52690090
   0.49475919  0.31609378  0.54805659
   0.43853848  0.42802673  0.57974495
   0.47186060  0.69006949  0.62301841
   0.63681372  0.65863239  0.45535004
   0.63068407  0.44815579  0.41305103
   0.46167927  0.54693992  0.58911228
   0.53086004  0.43245051  0.50691484
   0.55993603  0.61627975  0.55571383
   0.43872646  0.33171390  0.65892154
   0.39812815  0.61074264  0.66839793
   0.69946430  0.55872542  0.41237912
   0.61930931  0.52761971  0.50740711
   0.58693463  0.70067008  0.65239998
   0.45356495  0.46820317  0.69082663
   0.66703165  0.69730395  0.56329610
   0.54581381  0.38426696  0.63628173
   0.57116573  0.49851472  0.61860812
   0.64333133  0.40394866  0.54180582
   0.53171354  0.59410294  0.68258899
   0.72204340  0.59521731  0.53135642
   0.73379904  0.47303919  0.49102066
   0.65399444  0.59838034  0.63900099
   0.69516403  0.49283675  0.60615453
Direct configuration=     7
   0.29382761  0.51101869  0.43325308
   0.47617229  0.45526085  0.26621543
   0.45465952  0.35556847  0.33570809
   0.38960767  0.46893652  0.35667742
   0.29558003  0.44220413  0.54285400
   0.32455536  0.38659193  0.43251730
   0.34433795  0.57336872  0.53235034
   0.47767138  0.56453973  0.32713634
   0.39599292  0.58562851  0.41525027
   0.43991581  0.36337296  0.45369618
   0.57614026  0.38304539  0.30920215
   0.59064991  0.50337621  0.29648108
   0.39986377  0.47703715  0.47948258
   0.55716120  0.34274321  0.42439733
   0.51326727  0.66067937  0.42639338
   0.50935927  0.45813141  0.38858895
   0.33496977  0.39346672  0.65293893
   0.34631477  0.51059262  0.63529310
   0.36368011  0.33479302  0.54556819
   0.43500958  0.65200455  0.51753895
   0.49842130  0.54660676  0.47388802
   0.58360635  0.57068103  0.39163898
   0.54716163  0.73351564  0.52658878
   0.49575008  0.31472190  0.54739583
   0.43747692  0.42565129  0.58373840
   0.47166513  0.69155306  0.62364115
   0.63717187  0.65881714  0.45517758
   0.63177571  0.44755947  0.41255946
   0.46030840  0.54696628  0.58983247
   0.53236824  0.43239939  0.50679097
   0.55967899  0.61835252  0.55703672
   0.43916680  0.33046766  0.65949951
   0.39805528  0.61156961  0.66989049
   0.70060935  0.55907959  0.41143356
   0.62018265  0.52637633  0.50669252
   0.58784421  0.70169612  0.65414795
   0.45452207  0.46894742  0.69109657
   0.66834173  0.69904147  0.56397426
   0.54718725  0.38387795  0.63657920
   0.57209521  0.49904152  0.61829528
   0.64327521  0.40255321  0.54209545
   0.53028864  0.59473321  0.68316963
   0.72307986  0.59484183  0.53098500
   0.73419503  0.47222785  0.49034598
   0.65304826  0.59906389  0.63938222
   0.69627865  0.49202504  0.60727734
Direct configuration=     8
   0.29358061  0.51111781  0.43307693
   0.47597984  0.45539846  0.26589611
   0.45421062  0.35530917  0.33539452
   0.38936410  0.46880908  0.35640055
   0.29561827  0.44224182  0.54275208
   0.32416293  0.38618655  0.43248258
   0.34434610  0.57397080  0.53188495
   0.47744740  0.56481069  0.32746134
   0.39591409  0.58600186  0.41539436
   0.43950217  0.36283057  0.45335901
   0.57628232  0.38265499  0.30920205
   0.59115512  0.50317761  0.29598153
   0.39934608  0.47768658  0.47846901
   0.55743710  0.34255871  0.42495590
   0.51286790  0.66115660  0.42610665
   0.50927312  0.45790980  0.38789558
   0.33432575  0.39297336  0.65309290
   0.34613273  0.51060726  0.63570255
   0.36342886  0.33459927  0.54534479
   0.43431392  0.65212022  0.51736321
   0.49901655  0.54736664  0.47352238
   0.58375404  0.57039952  0.39147487
   0.54672090  0.73342947  0.52645960
   0.49616017  0.31415413  0.54712236
   0.43703758  0.42466819  0.58539113
   0.47158424  0.69216705  0.62389887
   0.63732009  0.65889360  0.45510620
   0.63222749  0.44731269  0.41235601
   0.45974105  0.54697720  0.59013053
   0.53299242  0.43237824  0.50673970
   0.55957260  0.61921035  0.55758421
   0.43934904  0.32995189  0.65973870
   0.39802512  0.61191186  0.67050820
   0.70108324  0.55922617  0.41104223
   0.62054409  0.52586174  0.50639678
   0.58822064  0.70212075  0.65487136
   0.45491818  0.46925544  0.69120828
   0.66888392  0.69976056  0.56425492
   0.54775567  0.38371696  0.63670231
   0.57247988  0.49925954  0.61816581
   0.64325198  0.40197569  0.54221531
   0.52969893  0.59499406  0.68340993
   0.72350882  0.59468644  0.53083128
   0.73435891  0.47189207  0.49006676
   0.65265667  0.59934678  0.63953999
   0.69673994  0.49168910  0.60774203
Direct configuration=     9
   0.29323306  0.51109910  0.43283189
   0.47612151  0.45554931  0.26596196
   0.45397464  0.35539778  0.33496659
   0.38900507  0.46862216  0.35591091
   0.29630748  0.44235399  0.54279405
   0.32386749  0.38599063  0.43251465
   0.34407820  0.57418723  0.53195343
   0.47743405  0.56478857  0.32780029
   0.39567846  0.58670866  0.41542105
   0.43942910  0.36261771  0.45317009
   0.57594878  0.38248021  0.30947753
   0.59132669  0.50260179  0.29567541
   0.39990340  0.47735545  0.47897690
   0.55748190  0.34258493  0.42548730
   0.51248669  0.66142093  0.42585165
   0.50935476  0.45739856  0.38713238
   0.33375402  0.39245677  0.65292686
   0.34605137  0.51038327  0.63569940
   0.36305512  0.33452433  0.54517748
   0.43408143  0.65278565  0.51735902
   0.49929682  0.54778066  0.47364867
   0.58413661  0.57022911  0.39110474
   0.54617155  0.73330132  0.52642943
   0.49651903  0.31399460  0.54702577
   0.43649579  0.42415832  0.58488846
   0.47177961  0.69275935  0.62394902
   0.63742016  0.65856894  0.45571685
   0.63262696  0.44702254  0.41195969
   0.45901927  0.54687851  0.59014542
   0.53268365  0.43238337  0.50716832
   0.55971972  0.61977229  0.55803792
   0.43964001  0.32935396  0.65984776
   0.39822697  0.61210961  0.67096524
   0.70154360  0.55931493  0.41077589
   0.62121321  0.52586305  0.50634291
   0.58840027  0.70242023  0.65518042
   0.45559823  0.47000836  0.69170720
   0.66917460  0.70010474  0.56460025
   0.54820001  0.38380087  0.63637561
   0.57260576  0.49926586  0.61809866
   0.64302910  0.40173349  0.54226956
   0.52897606  0.59548025  0.68344700
   0.72338896  0.59453279  0.53066562
   0.73422745  0.47151386  0.49014499
   0.65237115  0.59941395  0.63942505
   0.69725346  0.49165537  0.60768710
Direct configuration=    10
   0.29219040  0.51104296  0.43209678
   0.47654653  0.45600188  0.26615952
   0.45326670  0.35566360  0.33368280
   0.38792800  0.46806140  0.35444198
   0.29837509  0.44269051  0.54291998
   0.32298117  0.38540285  0.43261085
   0.34327449  0.57483654  0.53215889
   0.47739401  0.56472219  0.32881714
   0.39497157  0.58882906  0.41550111
   0.43920990  0.36197911  0.45260336
   0.57494815  0.38195587  0.31030397
   0.59184141  0.50087432  0.29475704
   0.40157533  0.47636203  0.48050055
   0.55761630  0.34266361  0.42708148
   0.51134304  0.66221390  0.42508663
   0.50959969  0.45586483  0.38484279
   0.33203883  0.39090698  0.65242875
   0.34580728  0.50971128  0.63568994
   0.36193391  0.33429950  0.54467558
   0.43338396  0.65478193  0.51734643
   0.50013761  0.54902274  0.47402752
   0.58528431  0.56971787  0.38999436
   0.54452350  0.73291687  0.52633890
   0.49759560  0.31351600  0.54673598
   0.43487042  0.42262870  0.58338045
   0.47236573  0.69453626  0.62409948
   0.63772037  0.65759495  0.45754879
   0.63382538  0.44615210  0.41077072
   0.45685393  0.54658245  0.59019008
   0.53175732  0.43239875  0.50845417
   0.56016109  0.62145811  0.55939904
   0.44051292  0.32756018  0.66017494
   0.39883252  0.61270287  0.67233636
   0.70292470  0.55958121  0.40997688
   0.62322058  0.52586697  0.50618130
   0.58893916  0.70331867  0.65610761
   0.45763835  0.47226714  0.69320393
   0.67004663  0.70113728  0.56563623
   0.54953304  0.38405263  0.63539554
   0.57298338  0.49928481  0.61789723
   0.64236044  0.40100687  0.54243229
   0.52680747  0.59693882  0.68355820
   0.72302937  0.59407184  0.53016863
   0.73383305  0.47037925  0.49037968
   0.65151458  0.59961545  0.63908021
   0.69879401  0.49155416  0.60752229
Direct configuration=    11
   0.29273196  0.51069280  0.43208229
   0.47673614  0.45634704  0.26587789
   0.45281304  0.35572465  0.33312323
   0.38741264  0.46800846  0.35446393
   0.29945438  0.44305106  0.54284029
   0.32299229  0.38557514  0.43265597
   0.34305029  0.57470293  0.53226271
   0.47750747  0.56448342  0.32957016
   0.39459933  0.58930822  0.41584310
   0.43922874  0.36166372  0.45231980
   0.57447711  0.38117585  0.31061139
   0.59197310  0.50014663  0.29448053
   0.40218111  0.47665818  0.48037838
   0.55762474  0.34289316  0.42795927
   0.51126977  0.66195051  0.42461235
   0.50977160  0.45565112  0.38530221
   0.33165735  0.39008122  0.65205096
   0.34605514  0.50943814  0.63588770
   0.36128919  0.33372394  0.54431335
   0.43327605  0.65579078  0.51761698
   0.50057161  0.54915797  0.47414188
   0.58567658  0.56980450  0.38972822
   0.54365041  0.73321423  0.52610574
   0.49790345  0.31358869  0.54667195
   0.43444470  0.42228686  0.58414159
   0.47239389  0.69536604  0.62418424
   0.63743319  0.65661883  0.45863735
   0.63418106  0.44601734  0.41034759
   0.45635650  0.54637394  0.58972679
   0.53093290  0.43301844  0.50860422
   0.56028745  0.62095798  0.55977102
   0.44101810  0.32711065  0.65979892
   0.39920720  0.61277066  0.67282646
   0.70352779  0.55947040  0.40980523
   0.62338393  0.52613742  0.50614318
   0.58901086  0.70363527  0.65640800
   0.45866475  0.47337136  0.69254341
   0.67030597  0.70129862  0.56609921
   0.54959275  0.38419461  0.63469562
   0.57277502  0.49987559  0.61782316
   0.64196593  0.40105916  0.54240557
   0.52584218  0.59747278  0.68326010
   0.72280725  0.59412992  0.53017119
   0.73360481  0.46965957  0.49039677
   0.65138620  0.59927547  0.63884020
   0.69926529  0.49179407  0.60716624
Direct configuration=    12
   0.29435665  0.50964230  0.43203880
   0.47730495  0.45738253  0.26503303
   0.45145205  0.35590781  0.33144450
   0.38586656  0.46784965  0.35452978
   0.30269226  0.44413269  0.54260123
   0.32302563  0.38609202  0.43279132
   0.34237766  0.57430212  0.53257417
   0.47784786  0.56376711  0.33182922
   0.39348260  0.59074569  0.41686906
   0.43928528  0.36071753  0.45146913
   0.57306400  0.37883578  0.31153367
   0.59236816  0.49796357  0.29365100
   0.40399844  0.47754662  0.48001186
   0.55765008  0.34358182  0.43059262
   0.51104998  0.66116033  0.42318949
   0.51028730  0.45501000  0.38668049
   0.33051293  0.38760391  0.65091758
   0.34679871  0.50861870  0.63648098
   0.35935502  0.33199728  0.54322669
   0.43295233  0.65881732  0.51842864
   0.50187362  0.54956368  0.47448498
   0.58685337  0.57006437  0.38892981
   0.54103116  0.73410628  0.52540625
   0.49882701  0.31380678  0.54647983
   0.43316754  0.42126134  0.58642503
   0.47247837  0.69785537  0.62443854
   0.63657165  0.65369045  0.46190304
   0.63524812  0.44561306  0.40907820
   0.45486418  0.54574840  0.58833694
   0.52845965  0.43487750  0.50905437
   0.56066652  0.61945758  0.56088698
   0.44253366  0.32576205  0.65867086
   0.40033127  0.61297404  0.67429675
   0.70533708  0.55913797  0.40929028
   0.62387401  0.52694876  0.50602882
   0.58922596  0.70458506  0.65730916
   0.46174394  0.47668403  0.69056186
   0.67108401  0.70178263  0.56748814
   0.54977186  0.38462057  0.63259587
   0.57214991  0.50164790  0.61760095
   0.64078239  0.40121602  0.54232542
   0.52294631  0.59907466  0.68236579
   0.72214086  0.59430417  0.53017888
   0.73292011  0.46750054  0.49044806
   0.65100108  0.59825555  0.63812019
   0.70067914  0.49251380  0.60609811
Direct configuration=    13
   0.29545401  0.50931616  0.43216142
   0.47733467  0.45780453  0.26537500
   0.45055184  0.35647160  0.33084670
   0.38626380  0.46782111  0.35459906
   0.30384733  0.44443724  0.54242282
   0.32358792  0.38633893  0.43277282
   0.34272823  0.57434187  0.53281369
   0.47784427  0.56317856  0.33324901
   0.39340887  0.59109808  0.41783466
   0.43876521  0.36018017  0.45126486
   0.57223779  0.37758985  0.31211450
   0.59228594  0.49704746  0.29414482
   0.40521419  0.47795455  0.47944835
   0.55824797  0.34404448  0.43208520
   0.51091258  0.66037840  0.42304484
   0.51014653  0.45493032  0.38710097
   0.33027573  0.38639865  0.65036000
   0.34731979  0.50840122  0.63761747
   0.35891440  0.33126568  0.54242425
   0.43273223  0.65933859  0.51835254
   0.50240256  0.55064862  0.47379357
   0.58769975  0.56958199  0.38814215
   0.54001124  0.73335821  0.52512955
   0.49886044  0.31404531  0.54588296
   0.43206642  0.42072707  0.58714624
   0.47213551  0.69898435  0.62497737
   0.63544640  0.65262052  0.46327156
   0.63553104  0.44589952  0.40879281
   0.45446814  0.54614904  0.58676137
   0.52765175  0.43567681  0.50981164
   0.55982660  0.62022368  0.56105539
   0.44299269  0.32480179  0.65805377
   0.40062687  0.61277996  0.67434490
   0.70583980  0.55847352  0.40962534
   0.62363323  0.52638688  0.50536954
   0.58919028  0.70432162  0.65737205
   0.46386463  0.47858127  0.68957859
   0.67114528  0.70179157  0.56822736
   0.54960631  0.38555769  0.63180588
   0.57172312  0.50211293  0.61755522
   0.63958724  0.40186909  0.54187271
   0.52250067  0.59966791  0.68180243
   0.72279508  0.59452554  0.53054875
   0.73259073  0.46665451  0.48982756
   0.65121188  0.59835360  0.63838446
   0.70081025  0.49259690  0.60553025
Direct configuration=    14
   0.29769970  0.50864872  0.43241235
   0.47739550  0.45866814  0.26607484
   0.44870960  0.35762535  0.32962335
   0.38707673  0.46776269  0.35474082
   0.30621111  0.44506048  0.54205771
   0.32473862  0.38684421  0.43273498
   0.34344564  0.57442322  0.53330384
   0.47783694  0.56197411  0.33615454
   0.39325798  0.59181921  0.41981070
   0.43770092  0.35908049  0.45084683
   0.57054701  0.37504013  0.31330314
   0.59211767  0.49517268  0.29515539
   0.40770216  0.47878937  0.47829514
   0.55947152  0.34499129  0.43513966
   0.51063142  0.65877824  0.42274883
   0.50985847  0.45476727  0.38796144
   0.32979032  0.38393216  0.64921894
   0.34838614  0.50795616  0.63994324
   0.35801269  0.32976852  0.54078211
   0.43228182  0.66040535  0.51819678
   0.50348501  0.55286888  0.47237865
   0.58943181  0.56859483  0.38653024
   0.53792404  0.73182732  0.52456328
   0.49892887  0.31453346  0.54466151
   0.42981305  0.41963372  0.58862216
   0.47143387  0.70129474  0.62608006
   0.63314365  0.65043097  0.46607214
   0.63611001  0.44648573  0.40820877
   0.45365767  0.54696893  0.58353707
   0.52599844  0.43731255  0.51136135
   0.55810775  0.62179146  0.56140004
   0.44393208  0.32283668  0.65679093
   0.40123179  0.61238278  0.67444343
   0.70686858  0.55711376  0.41031104
   0.62314047  0.52523704  0.50402038
   0.58911725  0.70378250  0.65750073
   0.46820449  0.48246386  0.68756638
   0.67127065  0.70180986  0.56974012
   0.54926752  0.38747544  0.63018921
   0.57084973  0.50306458  0.61746163
   0.63714146  0.40320555  0.54094626
   0.52158869  0.60088196  0.68064953
   0.72413390  0.59497855  0.53130565
   0.73191667  0.46492318  0.48855776
   0.65164329  0.59855423  0.63892526
   0.70107855  0.49276696  0.60436816
Direct configuration=    15
   0.29858116  0.50881162  0.43255962
   0.47733045  0.45902298  0.26647848
   0.44733388  0.35810748  0.32933738
   0.38778816  0.46783709  0.35449520
   0.30747749  0.44532212  0.54231084
   0.32483316  0.38702752  0.43235203
   0.34357428  0.57434986  0.53406836
   0.47758982  0.56177982  0.33741449
   0.39328263  0.59229213  0.42058265
   0.43820271  0.35845300  0.45025803
   0.56946177  0.37399443  0.31420488
   0.59198437  0.49353365  0.29557782
   0.40912316  0.47870822  0.47809739
   0.56031087  0.34593169  0.43678051
   0.51063794  0.65903718  0.42202581
   0.51001314  0.45387448  0.38845708
   0.32939672  0.38264676  0.64872286
   0.34896052  0.50739978  0.64119087
   0.35780031  0.32906736  0.54006127
   0.43195970  0.66085693  0.51844826
   0.50442636  0.55326921  0.47145124
   0.59057666  0.56862077  0.38600129
   0.53692793  0.73177912  0.52394779
   0.49883457  0.31472987  0.54423164
   0.42872771  0.41967112  0.58876115
   0.47044876  0.70234487  0.62676902
   0.63207566  0.64951092  0.46707122
   0.63609506  0.44632947  0.40757330
   0.45337923  0.54721122  0.58222648
   0.52442961  0.43831808  0.51217370
   0.55745064  0.62185321  0.56225683
   0.44429984  0.32144562  0.65612999
   0.40128571  0.61219918  0.67384898
   0.70731126  0.55665951  0.41114249
   0.62304796  0.52517057  0.50380114
   0.58875801  0.70346881  0.65773755
   0.47027906  0.48446138  0.68667529
   0.67148965  0.70161897  0.57008648
   0.54824411  0.38802218  0.63000506
   0.57137293  0.50437679  0.61686698
   0.63617880  0.40372462  0.54006547
   0.52208217  0.60138753  0.68014661
   0.72466888  0.59494135  0.53161414
   0.73187998  0.46405107  0.48799592
   0.65168421  0.59863225  0.63910749
   0.70069425  0.49287554  0.60358531
Direct configuration=    16
   0.29999695  0.50907326  0.43279616
   0.47722598  0.45959291  0.26712679
   0.44512424  0.35888186  0.32887806
   0.38893084  0.46795659  0.35410069
   0.30951153  0.44574235  0.54271741
   0.32498502  0.38732195  0.43173693
   0.34378090  0.57423201  0.53529631
   0.47719290  0.56146775  0.33943821
   0.39332222  0.59305172  0.42182254
   0.43900868  0.35744513  0.44931232
   0.56771868  0.37231486  0.31565324
   0.59177025  0.49090107  0.29625632
   0.41140554  0.47857788  0.47777975
   0.56165901  0.34744215  0.43941602
   0.51064841  0.65945308  0.42086451
   0.51026157  0.45244050  0.38925317
   0.32876452  0.38058218  0.64792607
   0.34988308  0.50650613  0.64319480
   0.35745919  0.32794117  0.53890346
   0.43144232  0.66158225  0.51885218
   0.50593834  0.55391222  0.46996165
   0.59241549  0.56866244  0.38515170
   0.53532800  0.73170171  0.52295918
   0.49868312  0.31504533  0.54354119
   0.42698445  0.41973119  0.58898439
   0.46886651  0.70403156  0.62787562
   0.63036025  0.64803315  0.46867592
   0.63607106  0.44607849  0.40655262
   0.45293200  0.54760037  0.58012144
   0.52190978  0.43993316  0.51347849
   0.55639522  0.62195241  0.56363300
   0.44489053  0.31921133  0.65506839
   0.40137232  0.61190429  0.67289419
   0.70802228  0.55592991  0.41247795
   0.62289937  0.52506381  0.50344901
   0.58818100  0.70296496  0.65811792
   0.47361119  0.48766976  0.68524404
   0.67184140  0.70131236  0.57064280
   0.54660033  0.38890034  0.62970929
   0.57221330  0.50648444  0.61591186
   0.63463259  0.40455834  0.53865076
   0.52287479  0.60219957  0.67933882
   0.72552815  0.59488159  0.53210962
   0.73182105  0.46265031  0.48709349
   0.65174994  0.59875755  0.63940018
   0.70007699  0.49304995  0.60232790
Direct configuration=    17
   0.29929067  0.50894274  0.43267816
   0.47727810  0.45930859  0.26680337
   0.44622654  0.35849556  0.32910720
   0.38836080  0.46789698  0.35429750
   0.30849683  0.44553271  0.54251459
   0.32490926  0.38717507  0.43204378
   0.34367782  0.57429080  0.53468373
   0.47739091  0.56162342  0.33842866
   0.39330247  0.59267279  0.42120401
   0.43860661  0.35794792  0.44978410
   0.56858824  0.37315273  0.31493071
   0.59187706  0.49221436  0.29591785
   0.41026695  0.47864290  0.47793821
   0.56098647  0.34668864  0.43810127
   0.51064318  0.65924561  0.42144383
   0.51013763  0.45315585  0.38885603
   0.32907990  0.38161211  0.64832356
   0.34942285  0.50695194  0.64219512
   0.35762936  0.32850298  0.53948104
   0.43170042  0.66122042  0.51865068
   0.50518407  0.55359145  0.47070475
   0.59149817  0.56864166  0.38557553
   0.53612614  0.73174033  0.52345236
   0.49875867  0.31488796  0.54388563
   0.42785409  0.41970122  0.58887303
   0.46965583  0.70319014  0.62732358
   0.63121600  0.64877035  0.46787540
   0.63608303  0.44620369  0.40706180
   0.45315510  0.54740624  0.58117156
   0.52316682  0.43912746  0.51282758
   0.55692173  0.62190292  0.56294649
   0.44459586  0.32032592  0.65559798
   0.40132912  0.61205140  0.67337050
   0.70766758  0.55629388  0.41181174
   0.62297350  0.52511707  0.50362467
   0.58846884  0.70321631  0.65792817