   42   42 1000    2
  0.2661611E+03  0.2235963E-08  0.2235963E-08  0.2235963E-08  0.1000000E-15
  1.000000000000000E-004
  CAR 
 unknown system                          
    462      1    300
 
  0.0000000E+00  0.0000000E+00  0.0000000E+00  0.1000000E+01
    1       -9.693698     -9.693698
    2       -9.202377     -9.202377
    3       -9.114937     -9.114937
    4       -9.035876     -9.035876
    5       -9.024258     -9.024258
    6       -9.014276     -9.014276
    7       -8.949712     -8.949712
    8       -8.925334     -8.925334
    9       -8.896142     -8.896142
   10       -8.880255     -8.880255
   11       -8.859913     -8.859913
   12       -8.842867     -8.842867
   13       -8.782685     -8.782685
   14       -8.766406     -8.766406
   15       -8.753565     -8.753566
   16       -8.722048     -8.722048
   17       -8.677262     -8.677262
   18       -8.670241     -8.670241
   19       -8.663908     -8.663908
   20       -8.644490     -8.644490
   21       -8.629210     -8.629210
   22       -8.623979     -8.623979
   23       -8.598600     -8.598600
   24       -8.569884     -8.569884
   25       -8.545670     -8.545670
   26       -8.533713     -8.533713
   27       -8.526498     -8.526498
   28       -8.514685     -8.514685
   29       -8.494518     -8.494518
   30       -8.483373     -8.483373
   31       -8.471588     -8.471588
   32       -8.458448     -8.458448
   33       -8.427497     -8.427497
   34       -8.409339     -8.409339
   35       -8.397348     -8.397348
   36       -8.378866     -8.378866
   37       -8.364513     -8.364513
   38       -8.344348     -8.344348
   39       -8.335241     -8.335241
   40       -8.314636     -8.314636
   41       -8.297754     -8.297754
   42       -8.282856     -8.282856
   43       -8.267671     -8.267671
   44       -8.245335     -8.245335
   45       -8.230682     -8.230682
   46       -8.204452     -8.204452
   47       -8.180728     -8.180728
   48       -8.178149     -8.178149
   49       -8.171214     -8.171214
   50       -8.140185     -8.140185
   51       -8.131749     -8.131749
   52       -8.124191     -8.124191
   53       -8.112770     -8.112770
   54       -8.096759     -8.096759
   55       -8.091030     -8.091030
   56       -8.057660     -8.057660
   57       -8.046839     -8.046839
   58       -8.030337     -8.030337
   59       -8.022272     -8.022272
   60       -8.010622     -8.010622
   61       -7.989780     -7.989780
   62       -7.981292     -7.981292
   63       -7.951036     -7.951036
   64       -7.935800     -7.935800
   65       -7.933900     -7.933900
   66       -7.914741     -7.914741
   67       -7.897812     -7.897812
   68       -7.883936     -7.883936
   69       -7.870004     -7.870004
   70       -7.842416     -7.842416
   71       -7.809927     -7.809927
   72       -7.796221     -7.796221
   73       -7.788314     -7.788314
   74       -7.781029     -7.781029
   75       -7.763179     -7.763179
   76       -7.750452     -7.750452
   77       -7.727704     -7.727704
   78       -7.715685     -7.715685
   79       -7.685126     -7.685126
   80       -7.681739     -7.681739
   81       -7.664451     -7.664451
   82       -7.660131     -7.660131
   83       -7.636829     -7.636829
   84       -7.607534     -7.607534
   85       -7.598033     -7.598033
   86       -7.587049     -7.587049
   87       -7.583936     -7.583936
   88       -7.560248     -7.560248
   89       -7.541458     -7.541458
   90       -7.529360     -7.529360
   91       -7.510420     -7.510420
   92       -7.502334     -7.502334
   93       -7.482800     -7.482800
   94       -7.471385     -7.471385
   95       -7.461990     -7.461990
   96       -7.442324     -7.442324
   97       -7.430343     -7.430343
   98       -7.408447     -7.408447
   99       -7.380251     -7.380251
  100       -7.364994     -7.364994
  101       -7.363317     -7.363317
  102       -7.334674     -7.334674
  103       -7.326673     -7.326673
  104       -7.314861     -7.314861
  105       -7.284113     -7.284113
  106       -7.268656     -7.268656
  107       -7.258798     -7.258798
  108       -7.254174     -7.254174
  109       -7.233638     -7.233638
  110       -7.218137     -7.218137
  111       -7.207325     -7.207325
  112       -7.197780     -7.197780
  113       -7.177582     -7.177582
  114       -7.163500     -7.163500
  115       -7.146858     -7.146858
  116       -7.141499     -7.141499
  117       -7.119769     -7.119769
  118       -7.109135     -7.109135
  119       -7.086787     -7.086787
  120       -7.083615     -7.083615
  121       -7.067866     -7.067866
  122       -7.057748     -7.057748
  123       -7.041650     -7.041650
  124       -7.027355     -7.027355
  125       -7.023772     -7.023772
  126       -7.008030     -7.008030
  127       -6.991430     -6.991430
  128       -6.987303     -6.987303
  129       -6.964368     -6.964368
  130       -6.948003     -6.948003
  131       -6.945391     -6.945391
  132       -6.929290     -6.929290
  133       -6.912025     -6.912025
  134       -6.907827     -6.907827
  135       -6.898662     -6.898662
  136       -6.881890     -6.881890
  137       -6.873054     -6.873054
  138       -6.858411     -6.858411
  139       -6.842579     -6.842579
  140       -6.838038     -6.838038
  141       -6.836301     -6.836301
  142       -6.818882     -6.818882
  143       -6.814521     -6.814521
  144       -6.802062     -6.802062
  145       -6.797745     -6.797745
  146       -6.784713     -6.784713
  147       -6.767136     -6.767136
  148       -6.749892     -6.749892
  149       -6.742653     -6.742653
  150       -6.729041     -6.729041
  151       -6.724776     -6.724776
  152       -6.720511     -6.720511
  153       -6.709422     -6.709422
  154       -6.694049     -6.694049
  155       -6.689612     -6.689612
  156       -6.680058     -6.680058
  157       -6.672566     -6.672566
  158       -6.662599     -6.662599
  159       -6.652509     -6.652509
  160       -6.648295     -6.648295
  161       -6.640802     -6.640802
  162       -6.629429     -6.629429
  163       -6.627006     -6.627006
  164       -6.623114     -6.623114
  165       -6.602875     -6.602875
  166       -6.596681     -6.596681
  167       -6.588747     -6.588747
  168       -6.580315     -6.580315
  169       -6.573200     -6.573201
  170       -6.569805     -6.569805
  171       -6.554676     -6.554676
  172       -6.538753     -6.538753
  173       -6.537690     -6.537690
  174       -6.529244     -6.529244
  175       -6.518651     -6.518651
  176       -6.516317     -6.516317
  177       -6.511853     -6.511853
  178       -6.493206     -6.493206
  179       -6.486750     -6.486750
  180       -6.471626     -6.471626
  181       -6.459598     -6.459598
  182       -6.450512     -6.450512
  183       -6.441006     -6.441006
  184       -6.436703     -6.436703
  185       -6.427477     -6.427477
  186       -6.405892     -6.405892
  187       -6.394564     -6.394564
  188       -6.365372     -6.365372
  189       -6.357205     -6.357205
  190       -6.350231     -6.350231
  191       -6.346913     -6.346913
  192       -6.342763     -6.342763
  193       -6.325789     -6.325789
  194       -6.311796     -6.311797
  195       -6.301753     -6.301754
  196       -6.296944     -6.296944
  197       -6.287524     -6.287524
  198       -6.273379     -6.273379
  199       -6.262380     -6.262380
  200       -6.255225     -6.255225
  201       -6.237959     -6.237959
  202       -6.216138     -6.216138
  203       -6.212070     -6.212070
  204       -6.193397     -6.193397
  205       -6.188291     -6.188291
  206       -6.169439     -6.169439
  207       -6.162894     -6.162894
  208       -6.157417     -6.157417
  209       -6.134962     -6.134962
  210       -6.123764     -6.123764
  211       -6.099715     -6.099715
  212       -6.070933     -6.070933
  213       -6.039316     -6.039316
  214       -6.025638     -6.025638
  215       -6.021971     -6.021971
  216       -5.877644     -5.877644
  217       -5.815476     -5.815476
  218       -5.642692     -5.642692
  219       -5.513877     -5.513877
  220       -5.222781     -5.222781
  221       -5.101984     -5.101984
  222       -4.978691     -4.978691
  223       -4.509015     -4.509015
  224       -4.416610     -4.416610
  225       -4.163497     -4.163497
  226       -4.028838     -4.028838
  227       -3.993557     -3.993556
  228       -3.752208     -3.752208
  229       -3.639701     -3.639701
  230       -3.572802     -3.572802
  231       -3.460122     -3.460121
  232       -3.156977     -3.156977
  233       -2.974230     -2.974230
  234       -2.881094     -2.881094
  235       -2.721036     -2.721036
  236       -2.579931     -2.579931
  237       -2.383197     -2.383196
  238       -2.256629     -2.256629
  239       -2.170303     -2.170303
  240       -2.093434     -2.093434
  241       -2.053723     -2.053723
  242       -1.932369     -1.932369
  243       -1.893067     -1.893067
  244       -1.841860     -1.841860
  245       -1.794040     -1.794040
  246       -1.637682     -1.637682
  247       -1.508212     -1.508212
  248       -1.431610     -1.431609
  249       -1.372741     -1.372741
  250       -1.174112     -1.174112
  251       -0.990639     -0.990639
  252       -0.877691     -0.877691
  253       -0.852004     -0.852004
  254       -0.727999     -0.727999
  255       -0.682219     -0.682219
  256       -0.625769     -0.625769
  257       -0.557223     -0.557222
  258       -0.463758     -0.463758
  259       -0.410765     -0.410764
  260       -0.333585     -0.333584
  261       -0.259488     -0.259488
  262       -0.202830     -0.202830
  263       -0.133546     -0.133545
  264       -0.085370     -0.085369
  265        0.082893      0.082894
  266        0.130336      0.130337
  267        0.190788      0.190789
  268        0.261513      0.261514
  269        0.350070      0.350071
  270        0.427107      0.427110
  271        0.553358      0.553362
  272        0.623646      0.623653
  273        0.641567      0.641569
  274        0.764569      0.764578
  275        0.807072      0.807087
  276        0.828023      0.828034
  277        0.884887      0.884895
  278        0.931764      0.931769
  279        0.976769      0.976771
  280        1.022316      1.022322
  281        1.077704      1.077711
  282        1.092135      1.092137
  283        1.111939      1.111944
  284        1.131596      1.131603
  285        1.140812      1.140819
  286        1.154431      1.154434
  287        1.164100      1.164106
  288        1.172594      1.172597
  289        1.206499      1.206503
  290        1.220392      1.220399
  291        1.235849      1.235854
  292        1.280847      1.280852
  293        1.319853      1.319855
  294        1.348794      1.348797
  295        1.381458      1.381464
  296        1.397139      1.397143
  297        1.422136      1.422140
  298        1.450765      1.450769
  299        1.476130      1.476137
  300        1.493022      1.493024
