  31  31   0   0
  0.3542444E+03  0.2222738E-08  0.2222738E-08  0.2222738E-08  0.1000000E-15
  1.000000000000000E-004
  CAR 
 unknown system                          
      1.61796274    -10.12463627  301     -3.49006783      1.00000000
    -10.125  0.0000E+00  0.0000E+00  0.0000E+00  0.0000E+00
    -10.085  0.0000E+00  0.0000E+00  0.0000E+00  0.0000E+00
    -10.046  0.0000E+00  0.0000E+00  0.0000E+00  0.0000E+00
    -10.007  0.0000E+00  0.0000E+00  0.0000E+00  0.0000E+00
     -9.968  0.0000E+00  0.0000E+00  0.0000E+00  0.0000E+00
     -9.929  0.0000E+00  0.0000E+00  0.0000E+00  0.0000E+00
     -9.890  0.0000E+00  0.0000E+00  0.0000E+00  0.0000E+00
     -9.851  0.0000E+00  0.0000E+00  0.0000E+00  0.0000E+00
     -9.812  0.0000E+00  0.0000E+00  0.0000E+00  0.0000E+00
     -9.772  0.0000E+00  0.0000E+00  0.0000E+00  0.0000E+00
     -9.733  0.0000E+00  0.0000E+00  0.0000E+00  0.0000E+00
     -9.694  0.0000E+00  0.0000E+00  0.0000E+00  0.0000E+00
     -9.655  0.0000E+00  0.0000E+00  0.0000E+00  0.0000E+00
     -9.616  0.0000E+00  0.0000E+00  0.0000E+00  0.0000E+00
     -9.577  0.0000E+00  0.0000E+00  0.1000E-02  0.0000E+00
     -9.538  0.0000E+00  0.0000E+00  0.1000E-02  0.1000E-02
     -9.498  0.0000E+00  0.0000E+00  0.1000E-02  0.1000E-02
     -9.459  0.0000E+00  0.0000E+00  0.1000E-02  0.1000E-02
     -9.420  0.0000E+00  0.0000E+00  0.1000E-02  0.1000E-02
     -9.381  0.0000E+00  0.0000E+00  0.1000E-02  0.1000E-02
     -9.342  0.0000E+00  0.0000E+00  0.1000E-02  0.1000E-02
     -9.303  0.0000E+00  0.0000E+00  0.1000E-02  0.1000E-02
     -9.264  0.0000E+00  0.0000E+00  0.2000E-02  0.2000E-02
     -9.224  0.0000E+00  0.0000E+00  0.2000E-02  0.2000E-02
     -9.185  0.0000E+00  0.0000E+00  0.2000E-02  0.2000E-02
     -9.146  0.0000E+00  0.0000E+00  0.2000E-02  0.2000E-02
     -9.107  0.0000E+00  0.0000E+00  0.3000E-02  0.3000E-02
     -9.068  0.0000E+00  0.0000E+00  0.4000E-02  0.3000E-02
     -9.029  0.0000E+00  0.2555E-01  0.6000E-02  0.6000E-02
     -8.990  0.1902E-03  0.0000E+00  0.7007E-02  0.6000E-02
     -8.950  0.0000E+00  0.0000E+00  0.8000E-02  0.8000E-02
     -8.911  0.0000E+00  0.0000E+00  0.9000E-02  0.8000E-02
     -8.872  0.0000E+00  0.5207E-06  0.1100E-01  0.1000E-01
     -8.833  0.0000E+00  0.0000E+00  0.1300E-01  0.1200E-01
     -8.794  0.0000E+00  0.0000E+00  0.1500E-01  0.1500E-01
     -8.755  0.0000E+00  0.0000E+00  0.1600E-01  0.1600E-01
     -8.716  0.0000E+00  0.0000E+00  0.1700E-01  0.1700E-01
     -8.676  0.0000E+00  0.0000E+00  0.1800E-01  0.1700E-01
     -8.637  0.0000E+00  0.0000E+00  0.2000E-01  0.2000E-01
     -8.598  0.0000E+00  0.2555E-01  0.2200E-01  0.2200E-01
     -8.559  0.0000E+00  0.0000E+00  0.2300E-01  0.2300E-01
     -8.520  0.0000E+00  0.0000E+00  0.2500E-01  0.2400E-01
     -8.481  0.0000E+00  0.0000E+00  0.2600E-01  0.2600E-01
     -8.442  0.0000E+00  0.0000E+00  0.2800E-01  0.2700E-01
     -8.402  0.0000E+00  0.0000E+00  0.2900E-01  0.2900E-01
     -8.363  0.0000E+00  0.0000E+00  0.3100E-01  0.3100E-01
     -8.324  0.0000E+00  0.0000E+00  0.3400E-01  0.3300E-01
     -8.285  0.0000E+00  0.0000E+00  0.3500E-01  0.3400E-01
     -8.246  0.0000E+00  0.0000E+00  0.3700E-01  0.3700E-01
     -8.207  0.0000E+00  0.0000E+00  0.4000E-01  0.3900E-01
     -8.168  0.0000E+00  0.0000E+00  0.4100E-01  0.4100E-01
     -8.128  0.0000E+00  0.0000E+00  0.4300E-01  0.4200E-01
     -8.089  0.0000E+00  0.0000E+00  0.4500E-01  0.4500E-01
     -8.050  0.0000E+00  0.0000E+00  0.4700E-01  0.4600E-01
     -8.011  0.0000E+00  0.0000E+00  0.4800E-01  0.4800E-01
     -7.972  0.0000E+00  0.0000E+00  0.4900E-01  0.4900E-01
     -7.933  0.0000E+00  0.0000E+00  0.5200E-01  0.5200E-01
     -7.894  0.0000E+00  0.0000E+00  0.5500E-01  0.5500E-01
     -7.854  0.2553E-01  0.0000E+00  0.5700E-01  0.5600E-01
     -7.815  0.0000E+00  0.0000E+00  0.5800E-01  0.5800E-01
     -7.776  0.0000E+00  0.0000E+00  0.6000E-01  0.6000E-01
     -7.737  0.0000E+00  0.0000E+00  0.6200E-01  0.6200E-01
     -7.698  0.0000E+00  0.0000E+00  0.6400E-01  0.6300E-01
     -7.659  0.0000E+00  0.0000E+00  0.6600E-01  0.6500E-01
     -7.620  0.0000E+00  0.0000E+00  0.6700E-01  0.6700E-01
     -7.580  0.0000E+00  0.0000E+00  0.7000E-01  0.7000E-01
     -7.541  0.0000E+00  0.0000E+00  0.7200E-01  0.7200E-01
     -7.502  0.0000E+00  0.2555E-01  0.7500E-01  0.7500E-01
     -7.463  0.0000E+00  0.0000E+00  0.7600E-01  0.7500E-01
     -7.424  0.0000E+00  0.0000E+00  0.7700E-01  0.7700E-01
     -7.385  0.0000E+00  0.0000E+00  0.8000E-01  0.7900E-01
     -7.346  0.0000E+00  0.0000E+00  0.8000E-01  0.8000E-01
     -7.306  0.0000E+00  0.0000E+00  0.8300E-01  0.8300E-01
     -7.267  0.0000E+00  0.0000E+00  0.8700E-01  0.8700E-01
     -7.228  0.0000E+00  0.0000E+00  0.8800E-01  0.8800E-01
     -7.189  0.0000E+00  0.0000E+00  0.9000E-01  0.9000E-01
     -7.150  0.0000E+00  0.0000E+00  0.9200E-01  0.9100E-01
     -7.111  0.0000E+00  0.0000E+00  0.9400E-01  0.9400E-01
     -7.072  0.0000E+00  0.0000E+00  0.9700E-01  0.9600E-01
     -7.032  0.0000E+00  0.0000E+00  0.1000E+00  0.1000E+00
     -6.993  0.0000E+00  0.0000E+00  0.1020E+00  0.1020E+00
     -6.954  0.0000E+00  0.0000E+00  0.1050E+00  0.1040E+00
     -6.915  0.0000E+00  0.0000E+00  0.1090E+00  0.1080E+00
     -6.876  0.0000E+00  0.0000E+00  0.1130E+00  0.1120E+00
     -6.837  0.0000E+00  0.0000E+00  0.1160E+00  0.1150E+00
     -6.798  0.0000E+00  0.0000E+00  0.1200E+00  0.1190E+00
     -6.758  0.0000E+00  0.0000E+00  0.1220E+00  0.1220E+00
     -6.719  0.2555E-01  0.0000E+00  0.1260E+00  0.1250E+00
     -6.680  0.0000E+00  0.0000E+00  0.1270E+00  0.1270E+00
     -6.641  0.0000E+00  0.0000E+00  0.1300E+00  0.1300E+00
     -6.602  0.0000E+00  0.0000E+00  0.1330E+00  0.1320E+00
     -6.563  0.0000E+00  0.0000E+00  0.1360E+00  0.1350E+00
     -6.524  0.0000E+00  0.0000E+00  0.1380E+00  0.1370E+00
     -6.484  0.0000E+00  0.0000E+00  0.1410E+00  0.1400E+00
     -6.445  0.0000E+00  0.0000E+00  0.1440E+00  0.1430E+00
     -6.406  0.0000E+00  0.0000E+00  0.1470E+00  0.1470E+00
     -6.367  0.1264E-06  0.0000E+00  0.1500E+00  0.1500E+00
     -6.328  0.0000E+00  0.0000E+00  0.1530E+00  0.1530E+00
     -6.289  0.0000E+00  0.0000E+00  0.1550E+00  0.1550E+00
     -6.250  0.0000E+00  0.0000E+00  0.1570E+00  0.1570E+00
     -6.210  0.0000E+00  0.2555E-01  0.1590E+00  0.1590E+00
     -6.171  0.0000E+00  0.0000E+00  0.1590E+00  0.1590E+00
     -6.132  0.0000E+00  0.0000E+00  0.1590E+00  0.1590E+00
     -6.093  0.0000E+00  0.0000E+00  0.1590E+00  0.1590E+00
     -6.054  0.0000E+00  0.0000E+00  0.1590E+00  0.1590E+00
     -6.015  0.0000E+00  0.0000E+00  0.1590E+00  0.1590E+00
     -5.976  0.0000E+00  0.0000E+00  0.1590E+00  0.1590E+00
     -5.936  0.0000E+00  0.0000E+00  0.1590E+00  0.1590E+00
     -5.897  0.0000E+00  0.0000E+00  0.1590E+00  0.1590E+00
     -5.858  0.0000E+00  0.0000E+00  0.1590E+00  0.1590E+00
     -5.819  0.0000E+00  0.0000E+00  0.1610E+00  0.1600E+00
     -5.780  0.0000E+00  0.0000E+00  0.1620E+00  0.1620E+00
     -5.741  0.0000E+00  0.0000E+00  0.1620E+00  0.1620E+00
     -5.702  0.0000E+00  0.0000E+00  0.1620E+00  0.1620E+00
     -5.662  0.0000E+00  0.0000E+00  0.1620E+00  0.1620E+00
     -5.623  0.0000E+00  0.0000E+00  0.1620E+00  0.1620E+00
     -5.584  0.0000E+00  0.0000E+00  0.1620E+00  0.1620E+00
     -5.545  0.0000E+00  0.0000E+00  0.1620E+00  0.1620E+00
     -5.506  0.0000E+00  0.0000E+00  0.1620E+00  0.1620E+00
     -5.467  0.0000E+00  0.0000E+00  0.1620E+00  0.1620E+00
     -5.428  0.0000E+00  0.0000E+00  0.1620E+00  0.1620E+00
     -5.388  0.0000E+00  0.0000E+00  0.1620E+00  0.1620E+00
     -5.349  0.0000E+00  0.0000E+00  0.1620E+00  0.1620E+00
     -5.310  0.0000E+00  0.0000E+00  0.1620E+00  0.1620E+00
     -5.271  0.0000E+00  0.0000E+00  0.1620E+00  0.1620E+00
     -5.232  0.0000E+00  0.0000E+00  0.1620E+00  0.1620E+00
     -5.193  0.0000E+00  0.0000E+00  0.1620E+00  0.1620E+00
     -5.154  0.0000E+00  0.0000E+00  0.1620E+00  0.1620E+00
     -5.114  0.0000E+00  0.0000E+00  0.1630E+00  0.1620E+00
     -5.075  0.0000E+00  0.0000E+00  0.1630E+00  0.1630E+00
     -5.036  0.0000E+00  0.0000E+00  0.1630E+00  0.1630E+00
     -4.997  0.0000E+00  0.0000E+00  0.1630E+00  0.1630E+00
     -4.958  0.0000E+00  0.0000E+00  0.1630E+00  0.1630E+00
     -4.919  0.0000E+00  0.0000E+00  0.1630E+00  0.1630E+00
     -4.880  0.0000E+00  0.0000E+00  0.1630E+00  0.1630E+00
     -4.840  0.0000E+00  0.0000E+00  0.1630E+00  0.1630E+00
     -4.801  0.0000E+00  0.0000E+00  0.1630E+00  0.1630E+00
     -4.762  0.0000E+00  0.0000E+00  0.1640E+00  0.1640E+00
     -4.723  0.0000E+00  0.0000E+00  0.1640E+00  0.1640E+00
     -4.684  0.0000E+00  0.0000E+00  0.1640E+00  0.1640E+00
     -4.645  0.0000E+00  0.0000E+00  0.1640E+00  0.1640E+00
     -4.606  0.0000E+00  0.0000E+00  0.1650E+00  0.1650E+00
     -4.566  0.0000E+00  0.0000E+00  0.1650E+00  0.1650E+00
     -4.527  0.0000E+00  0.0000E+00  0.1650E+00  0.1650E+00
     -4.488  0.0000E+00  0.0000E+00  0.1660E+00  0.1650E+00
     -4.449  0.0000E+00  0.0000E+00  0.1660E+00  0.1660E+00
     -4.410  0.0000E+00  0.0000E+00  0.1670E+00  0.1660E+00
     -4.371  0.0000E+00  0.0000E+00  0.1670E+00  0.1670E+00
     -4.332  0.0000E+00  0.0000E+00  0.1670E+00  0.1670E+00
     -4.292  0.0000E+00  0.0000E+00  0.1670E+00  0.1670E+00
     -4.253  0.0000E+00  0.0000E+00  0.1670E+00  0.1670E+00
     -4.214  0.0000E+00  0.0000E+00  0.1670E+00  0.1670E+00
     -4.175  0.0000E+00  0.0000E+00  0.1670E+00  0.1670E+00
     -4.136  0.0000E+00  0.0000E+00  0.1670E+00  0.1670E+00
     -4.097  0.0000E+00  0.0000E+00  0.1680E+00  0.1670E+00
     -4.058  0.0000E+00  0.0000E+00  0.1680E+00  0.1680E+00
     -4.018  0.0000E+00  0.0000E+00  0.1680E+00  0.1680E+00
     -3.979  0.0000E+00  0.0000E+00  0.1680E+00  0.1680E+00
     -3.940  0.0000E+00  0.0000E+00  0.1680E+00  0.1680E+00
     -3.901  0.0000E+00  0.0000E+00  0.1680E+00  0.1680E+00
     -3.862  0.0000E+00  0.0000E+00  0.1690E+00  0.1690E+00
     -3.823  0.0000E+00  0.0000E+00  0.1690E+00  0.1690E+00
     -3.784  0.0000E+00  0.0000E+00  0.1690E+00  0.1690E+00
     -3.744  0.0000E+00  0.0000E+00  0.1690E+00  0.1690E+00
     -3.705  0.0000E+00  0.0000E+00  0.1690E+00  0.1690E+00
     -3.666  0.0000E+00  0.0000E+00  0.1700E+00  0.1690E+00
     -3.627  0.0000E+00  0.0000E+00  0.1700E+00  0.1700E+00
     -3.588  0.0000E+00  0.0000E+00  0.1700E+00  0.1700E+00
     -3.549  0.0000E+00  0.0000E+00  0.1700E+00  0.1700E+00
     -3.510  0.0000E+00  0.0000E+00  0.1700E+00  0.1700E+00
     -3.470  0.0000E+00  0.0000E+00  0.1710E+00  0.1700E+00
     -3.431  0.0000E+00  0.0000E+00  0.1710E+00  0.1700E+00
     -3.392  0.0000E+00  0.0000E+00  0.1710E+00  0.1710E+00
     -3.353  0.0000E+00  0.0000E+00  0.1710E+00  0.1710E+00
     -3.314  0.0000E+00  0.0000E+00  0.1710E+00  0.1710E+00
     -3.275  0.0000E+00  0.0000E+00  0.1710E+00  0.1710E+00
     -3.236  0.0000E+00  0.0000E+00  0.1710E+00  0.1710E+00
     -3.197  0.0000E+00  0.0000E+00  0.1710E+00  0.1710E+00
     -3.157  0.0000E+00  0.0000E+00  0.1710E+00  0.1710E+00
     -3.118  0.0000E+00  0.0000E+00  0.1710E+00  0.1710E+00
     -3.079  0.0000E+00  0.0000E+00  0.1710E+00  0.1710E+00
     -3.040  0.0000E+00  0.0000E+00  0.1710E+00  0.1710E+00
     -3.001  0.0000E+00  0.0000E+00  0.1720E+00  0.1720E+00
     -2.962  0.0000E+00  0.0000E+00  0.1720E+00  0.1720E+00
     -2.923  0.0000E+00  0.0000E+00  0.1720E+00  0.1720E+00
     -2.883  0.0000E+00  0.0000E+00  0.1720E+00  0.1720E+00
     -2.844  0.0000E+00  0.0000E+00  0.1720E+00  0.1720E+00
     -2.805  0.0000E+00  0.0000E+00  0.1730E+00  0.1720E+00
     -2.766  0.0000E+00  0.0000E+00  0.1730E+00  0.1730E+00
     -2.727  0.0000E+00  0.0000E+00  0.1740E+00  0.1730E+00
     -2.688  0.0000E+00  0.0000E+00  0.1740E+00  0.1740E+00
     -2.649  0.0000E+00  0.0000E+00  0.1740E+00  0.1740E+00
     -2.609  0.0000E+00  0.0000E+00  0.1740E+00  0.1740E+00
     -2.570  0.0000E+00  0.0000E+00  0.1750E+00  0.1740E+00
     -2.531  0.0000E+00  0.0000E+00  0.1750E+00  0.1750E+00
     -2.492  0.0000E+00  0.0000E+00  0.1760E+00  0.1750E+00
     -2.453  0.0000E+00  0.0000E+00  0.1760E+00  0.1760E+00
     -2.414  0.0000E+00  0.0000E+00  0.1760E+00  0.1760E+00
     -2.375  0.0000E+00  0.0000E+00  0.1770E+00  0.1770E+00
     -2.335  0.0000E+00  0.0000E+00  0.1770E+00  0.1770E+00
     -2.296  0.2555E-01  0.0000E+00  0.1780E+00  0.1770E+00
     -2.257  0.0000E+00  0.0000E+00  0.1780E+00  0.1780E+00
     -2.218  0.0000E+00  0.0000E+00  0.1790E+00  0.1780E+00
     -2.179  0.0000E+00  0.0000E+00  0.1790E+00  0.1790E+00
     -2.140  0.0000E+00  0.0000E+00  0.1790E+00  0.1790E+00
     -2.101  0.0000E+00  0.0000E+00  0.1800E+00  0.1790E+00
     -2.061  0.0000E+00  0.0000E+00  0.1800E+00  0.1800E+00
     -2.022  0.0000E+00  0.0000E+00  0.1810E+00  0.1810E+00
     -1.983  0.0000E+00  0.0000E+00  0.1820E+00  0.1810E+00
     -1.944  0.0000E+00  0.0000E+00  0.1820E+00  0.1820E+00
     -1.905  0.0000E+00  0.0000E+00  0.1820E+00  0.1820E+00
     -1.866  0.0000E+00  0.0000E+00  0.1820E+00  0.1820E+00
     -1.827  0.0000E+00  0.0000E+00  0.1820E+00  0.1820E+00
     -1.787  0.0000E+00  0.0000E+00  0.1820E+00  0.1820E+00
     -1.748  0.0000E+00  0.0000E+00  0.1820E+00  0.1820E+00
     -1.709  0.0000E+00  0.0000E+00  0.1820E+00  0.1820E+00
     -1.670  0.0000E+00  0.0000E+00  0.1820E+00  0.1820E+00
     -1.631  0.0000E+00  0.0000E+00  0.1820E+00  0.1820E+00
     -1.592  0.0000E+00  0.0000E+00  0.1830E+00  0.1820E+00
     -1.553  0.0000E+00  0.0000E+00  0.1830E+00  0.1830E+00
     -1.513  0.0000E+00  0.0000E+00  0.1840E+00  0.1830E+00
     -1.474  0.0000E+00  0.0000E+00  0.1840E+00  0.1840E+00
     -1.435  0.0000E+00  0.0000E+00  0.1840E+00  0.1840E+00
     -1.396  0.0000E+00  0.0000E+00  0.1840E+00  0.1840E+00
     -1.357  0.0000E+00  0.0000E+00  0.1850E+00  0.1840E+00
     -1.318  0.0000E+00  0.0000E+00  0.1850E+00  0.1840E+00
     -1.279  0.0000E+00  0.0000E+00  0.1850E+00  0.1850E+00
     -1.239  0.0000E+00  0.0000E+00  0.1850E+00  0.1850E+00
     -1.200  0.0000E+00  0.0000E+00  0.1850E+00  0.1850E+00
     -1.161  0.0000E+00  0.0000E+00  0.1850E+00  0.1850E+00
     -1.122  0.0000E+00  0.0000E+00  0.1860E+00  0.1850E+00
     -1.083  0.0000E+00  0.0000E+00  0.1860E+00  0.1860E+00
     -1.044  0.0000E+00  0.0000E+00  0.1860E+00  0.1860E+00
     -1.005  0.0000E+00  0.0000E+00  0.1860E+00  0.1860E+00
     -0.965  0.0000E+00  0.0000E+00  0.1870E+00  0.1860E+00
     -0.926  0.0000E+00  0.0000E+00  0.1870E+00  0.1870E+00
     -0.887  0.0000E+00  0.0000E+00  0.1890E+00  0.1870E+00
     -0.848  0.0000E+00  0.0000E+00  0.1890E+00  0.1890E+00
     -0.809  0.0000E+00  0.0000E+00  0.1890E+00  0.1890E+00
     -0.770  0.0000E+00  0.0000E+00  0.1900E+00  0.1890E+00
     -0.731  0.0000E+00  0.0000E+00  0.1900E+00  0.1900E+00
     -0.691  0.0000E+00  0.0000E+00  0.1910E+00  0.1910E+00
     -0.652  0.0000E+00  0.0000E+00  0.1920E+00  0.1910E+00
     -0.613  0.0000E+00  0.0000E+00  0.1930E+00  0.1920E+00
     -0.574  0.0000E+00  0.0000E+00  0.1940E+00  0.1930E+00
     -0.535  0.0000E+00  0.0000E+00  0.1950E+00  0.1930E+00
     -0.496  0.0000E+00  0.0000E+00  0.1950E+00  0.1950E+00
     -0.457  0.0000E+00  0.0000E+00  0.1950E+00  0.1950E+00
     -0.417  0.0000E+00  0.0000E+00  0.1950E+00  0.1950E+00
     -0.378  0.0000E+00  0.0000E+00  0.1950E+00  0.1950E+00
     -0.339  0.0000E+00  0.0000E+00  0.1950E+00  0.1950E+00
     -0.300  0.0000E+00  0.0000E+00  0.1960E+00  0.1950E+00
     -0.261  0.0000E+00  0.0000E+00  0.1960E+00  0.1960E+00
     -0.222  0.0000E+00  0.0000E+00  0.1960E+00  0.1960E+00
     -0.183  0.0000E+00  0.0000E+00  0.1970E+00  0.1960E+00
     -0.143  0.0000E+00  0.0000E+00  0.1970E+00  0.1970E+00
     -0.104  0.0000E+00  0.0000E+00  0.1980E+00  0.1970E+00
     -0.065  0.0000E+00  0.0000E+00  0.1990E+00  0.1980E+00
     -0.026  0.0000E+00  0.0000E+00  0.1990E+00  0.1990E+00
      0.013  0.0000E+00  0.0000E+00  0.2000E+00  0.1990E+00
      0.052  0.0000E+00  0.0000E+00  0.2000E+00  0.1990E+00
      0.091  0.0000E+00  0.0000E+00  0.2000E+00  0.2000E+00
      0.131  0.0000E+00  0.0000E+00  0.2000E+00  0.2000E+00
      0.170  0.0000E+00  0.0000E+00  0.2010E+00  0.2000E+00
      0.209  0.0000E+00  0.0000E+00  0.2010E+00  0.2010E+00
      0.248  0.0000E+00  0.0000E+00  0.2010E+00  0.2010E+00
      0.287  0.0000E+00  0.0000E+00  0.2010E+00  0.2010E+00
      0.326  0.0000E+00  0.0000E+00  0.2010E+00  0.2010E+00
      0.365  0.0000E+00  0.0000E+00  0.2010E+00  0.2010E+00
      0.405  0.0000E+00  0.0000E+00  0.2010E+00  0.2010E+00
      0.444  0.0000E+00  0.0000E+00  0.2010E+00  0.2010E+00
      0.483  0.0000E+00  0.0000E+00  0.2030E+00  0.2020E+00
      0.522  0.0000E+00  0.0000E+00  0.2030E+00  0.2030E+00
      0.561  0.0000E+00  0.0000E+00  0.2030E+00  0.2030E+00
      0.600  0.0000E+00  0.0000E+00  0.2040E+00  0.2030E+00
      0.639  0.0000E+00  0.0000E+00  0.2050E+00  0.2040E+00
      0.679  0.0000E+00  0.0000E+00  0.2050E+00  0.2050E+00
      0.718  0.0000E+00  0.0000E+00  0.2060E+00  0.2050E+00
      0.757  0.0000E+00  0.0000E+00  0.2090E+00  0.2070E+00
      0.796  0.0000E+00  0.0000E+00  0.2090E+00  0.2090E+00
      0.835  0.0000E+00  0.0000E+00  0.2110E+00  0.2100E+00
      0.874  0.0000E+00  0.0000E+00  0.2110E+00  0.2110E+00
      0.913  0.0000E+00  0.0000E+00  0.2120E+00  0.2110E+00
      0.953  0.2555E-01  0.1062E-13  0.2140E+00  0.2120E+00
      0.992  0.0000E+00  0.0000E+00  0.2160E+00  0.2150E+00
      1.031  0.0000E+00  0.0000E+00  0.2190E+00  0.2180E+00
      1.070  0.0000E+00  0.0000E+00  0.2200E+00  0.2190E+00
      1.109  0.0000E+00  0.0000E+00  0.2200E+00  0.2200E+00
      1.148  0.0000E+00  0.0000E+00  0.2200E+00  0.2200E+00
      1.187  0.0000E+00  0.0000E+00  0.2200E+00  0.2200E+00
      1.227  0.0000E+00  0.0000E+00  0.2200E+00  0.2200E+00
      1.266  0.0000E+00  0.0000E+00  0.2200E+00  0.2200E+00
      1.305  0.0000E+00  0.0000E+00  0.2200E+00  0.2200E+00
      1.344  0.0000E+00  0.0000E+00  0.2200E+00  0.2200E+00
      1.383  0.0000E+00  0.0000E+00  0.2200E+00  0.2200E+00
      1.422  0.0000E+00  0.0000E+00  0.2200E+00  0.2200E+00
      1.461  0.0000E+00  0.0000E+00  0.2200E+00  0.2200E+00
      1.501  0.0000E+00  0.0000E+00  0.2200E+00  0.2200E+00
      1.540  0.0000E+00  0.0000E+00  0.2200E+00  0.2200E+00
      1.579  0.0000E+00  0.0000E+00  0.2200E+00  0.2200E+00
      1.618  0.0000E+00  0.0000E+00  0.2200E+00  0.2200E+00
