   31   31 1000    2
  0.3542444E+03  0.2222738E-08  0.2222738E-08  0.2222738E-08  0.1000000E-15
  1.000000000000000E-004
  CAR 
 unknown system                          
    341      1    220
 
  0.0000000E+00  0.0000000E+00  0.0000000E+00  0.1000000E+01
    1       -9.590882     -9.566309
    2       -9.285233     -9.267795
    3       -9.123440     -9.110916
    4       -9.075289     -9.066448
    5       -9.062703     -9.050666
    6       -9.042278     -9.029255
    7       -8.996710     -8.986475
    8       -8.989346     -8.979026
    9       -8.924914     -8.910355
   10       -8.899986     -8.890685
   11       -8.881433     -8.871802
   12       -8.870827     -8.857252
   13       -8.842001     -8.830325
   14       -8.824254     -8.815164
   15       -8.808349     -8.797206
   16       -8.786203     -8.776827
   17       -8.729910     -8.721391
   18       -8.687607     -8.674595
   19       -8.672815     -8.663638
   20       -8.654434     -8.639551
   21       -8.627925     -8.610867
   22       -8.611452     -8.598831
   23       -8.573183     -8.564755
   24       -8.554691     -8.545520
   25       -8.528384     -8.518853
   26       -8.501280     -8.493208
   27       -8.464006     -8.449725
   28       -8.442807     -8.433910
   29       -8.419593     -8.409402
   30       -8.396195     -8.386564
   31       -8.393998     -8.385165
   32       -8.360602     -8.350131
   33       -8.335208     -8.325375
   34       -8.325087     -8.317956
   35       -8.287062     -8.279519
   36       -8.269921     -8.261554
   37       -8.261440     -8.251716
   38       -8.241060     -8.233120
   39       -8.223497     -8.215073
   40       -8.214604     -8.205078
   41       -8.186427     -8.178421
   42       -8.155333     -8.144567
   43       -8.135132     -8.124715
   44       -8.109072     -8.101187
   45       -8.099479     -8.090175
   46       -8.071951     -8.063918
   47       -8.054152     -8.045437
   48       -8.043401     -8.034227
   49       -7.987981     -7.979202
   50       -7.970833     -7.961506
   51       -7.962806     -7.951085
   52       -7.949971     -7.941348
   53       -7.928954     -7.919961
   54       -7.908361     -7.899013
   55       -7.907353     -7.898206
   56       -7.884069     -7.873364
   57       -7.854622     -7.846137
   58       -7.835968     -7.827976
   59       -7.795805     -7.787929
   60       -7.788864     -7.779439
   61       -7.775110     -7.761778
   62       -7.749272     -7.740570
   63       -7.718302     -7.710231
   64       -7.704109     -7.693341
   65       -7.682927     -7.673016
   66       -7.668318     -7.657228
   67       -7.639389     -7.631249
   68       -7.612776     -7.601356
   69       -7.598574     -7.590076
   70       -7.590050     -7.582560
   71       -7.573295     -7.564673
   72       -7.552500     -7.543844
   73       -7.538249     -7.529192
   74       -7.517634     -7.509182
   75       -7.512269     -7.502704
   76       -7.466216     -7.457840
   77       -7.459912     -7.451623
   78       -7.421608     -7.412252
   79       -7.401844     -7.394510
   80       -7.386575     -7.377464
   81       -7.340594     -7.332212
   82       -7.327297     -7.318437
   83       -7.318780     -7.310834
   84       -7.303353     -7.294995
   85       -7.294616     -7.286663
   86       -7.287193     -7.278262
   87       -7.277787     -7.269417
   88       -7.245792     -7.236124
   89       -7.222280     -7.212472
   90       -7.200307     -7.190877
   91       -7.167114     -7.157952
   92       -7.155768     -7.147380
   93       -7.145829     -7.136156
   94       -7.133842     -7.125858
   95       -7.105441     -7.095482
   96       -7.096505     -7.086039
   97       -7.078230     -7.067383
   98       -7.066161     -7.057777
   99       -7.055307     -7.045385
  100       -7.050301     -7.040661
  101       -7.022668     -7.011733
  102       -7.005112     -6.997335
  103       -6.991954     -6.983387
  104       -6.982753     -6.972809
  105       -6.959517     -6.950715
  106       -6.947766     -6.938268
  107       -6.938860     -6.926567
  108       -6.931440     -6.922015
  109       -6.921539     -6.913264
  110       -6.912499     -6.904068
  111       -6.898225     -6.890369
  112       -6.884323     -6.877432
  113       -6.879229     -6.870298
  114       -6.863968     -6.853687
  115       -6.848806     -6.839889
  116       -6.841352     -6.831053
  117       -6.826475     -6.815472
  118       -6.816614     -6.807155
  119       -6.811611     -6.801377
  120       -6.801710     -6.792097
  121       -6.790231     -6.783723
  122       -6.783859     -6.775428
  123       -6.748432     -6.741559
  124       -6.739477     -6.729284
  125       -6.730774     -6.721688
  126       -6.719625     -6.712363
  127       -6.702716     -6.695975
  128       -6.676359     -6.670091
  129       -6.662886     -6.654267
  130       -6.657696     -6.648960
  131       -6.627141     -6.621391
  132       -6.621306     -6.614768
  133       -6.606406     -6.597980
  134       -6.593247     -6.585996
  135       -6.578790     -6.570765
  136       -6.565996     -6.558458
  137       -6.540126     -6.529027
  138       -6.529210     -6.521261
  139       -6.522328     -6.513234
  140       -6.510537     -6.499690
  141       -6.491509     -6.481814
  142       -6.480228     -6.472178
  143       -6.464881     -6.456691
  144       -6.447088     -6.435981
  145       -6.433707     -6.423481
  146       -6.426138     -6.418093
  147       -6.419335     -6.408596
  148       -6.390081     -6.383083
  149       -6.385337     -6.378066
  150       -6.378938     -6.369943
  151       -6.366692     -6.356657
  152       -6.347176     -6.335059
  153       -6.341828     -6.333404
  154       -6.320521     -6.309405
  155       -6.312629     -6.305335
  156       -6.285676     -6.276480
  157       -6.261704     -6.254581
  158       -6.240004     -6.232633
  159       -6.218022     -6.211063
  160       -5.846775     -5.831868
  161       -5.840525     -5.815638
  162       -5.812849     -5.787002
  163       -5.139869     -5.113633
  164       -4.797622     -4.778694
  165       -4.632407     -4.608946
  166       -4.502605     -4.473311
  167       -4.414378     -4.386115
  168       -4.116735     -4.093978
  169       -3.895916     -3.866753
  170       -3.671719     -3.649355
  171       -3.500251     -3.398394
  172       -3.026258     -3.003598
  173       -2.811144     -2.789748
  174       -2.736952     -2.716274
  175       -2.606107     -2.565784
  176       -2.497739     -2.471970
  177       -2.407779     -2.380047
  178       -2.296767     -2.263626
  179       -2.239246     -2.201027
  180       -2.121844     -2.085057
  181       -2.051722     -2.023664
  182       -1.986222     -1.959808
  183       -1.616840     -1.565881
  184       -1.526639     -1.487864
  185       -1.361044     -1.287345
  186       -1.143986     -1.104748
  187       -0.968728     -0.942530
  188       -0.915904     -0.882446
  189       -0.889706     -0.861764
  190       -0.800400     -0.759101
  191       -0.729708     -0.700644
  192       -0.670303     -0.636625
  193       -0.632455     -0.587610
  194       -0.578330     -0.527232
  195       -0.538252     -0.511266
  196       -0.302665     -0.273977
  197       -0.192389     -0.153755
  198       -0.117903     -0.088859
  199       -0.072118     -0.040483
  200        0.010661      0.055434
  201        0.145595      0.179391
  202        0.444564      0.462832
  203        0.472368      0.509896
  204        0.582497      0.601854
  205        0.636881      0.661274
  206        0.693231      0.733135
  207        0.724878      0.736172
  208        0.745440      0.763547
  209        0.749244      0.770239
  210        0.811155      0.819520
  211        0.824035      0.837965
  212        0.899547      0.922509
  213        0.942247      0.953055
  214        0.952210      0.974699
  215        0.968399      0.990546
  216        0.986720      1.007525
  217        0.999120      1.013453
  218        1.013856      1.019725
  219        1.021164      1.035601
  220        1.064101      1.084208
