33
Energy = -103.23937495 eV
Al 8.251962638290092 6.41885047091476 12.089346088117155
Al 7.249256806686949 8.759161487593587 11.017491276634006
Al 8.4044471693669 8.7205293507648 13.600857923513509
Al 9.580129652730001 7.710506680861152 10.056406068031675
Al 8.484719581316003 11.330551200337188 13.89996278529316
Al 7.383616521649901 11.413418132010696 11.440417052800385
Al 10.720390282630962 7.641065473912252 12.68913110741505
Al 8.349411640424345 10.0778650464039 9.010269290136426
Al 10.829956394587974 9.833270848038861 14.380269697625511
Al 9.782687649634546 10.050924763660252 11.581703664261848
Al 10.847466227959382 9.103680788492403 8.1849102685468
Al 8.763861591963131 12.807210002591493 9.614469886399725
Al 12.05023222914027 8.78280080286166 10.681642965129429
Al 10.760393253683707 12.568234723835578 14.591076482150765
Al 9.917045307248825 12.727056802235913 12.016950180238567
Al 13.12129201465291 8.946635605534134 13.284843610468487
Al 11.411109963602998 14.757034281928815 13.012057145274738
Al 10.046842622601591 15.069867590479436 10.755135441455886
Al 12.326072150360663 11.321517682055585 12.156361466780972
Al 9.711720230550553 11.586658333969593 7.326872458444224
Al 11.267547175694663 11.438044948282776 9.641395718813477
Al 12.867103873807753 14.12710193014015 15.302124408414935
Al 13.165550965212661 11.352424180068978 14.786251792380824
Al 14.56647398021588 9.532952842295773 11.147529188312035
Al 13.95025744119049 13.566014661987008 12.886321318275982
Al 13.596534164961808 10.018197902784685 8.819587400797968
Al 12.29142048465288 10.767002061374606 6.678444631283364
Al 15.232403337761808 11.195121809879366 13.090308115397034
Al 12.40409614790188 13.777540787508755 10.66961045313922
Al 10.860206264859539 14.03379565700335 8.419660797850549
Al 14.52731797389047 12.2006952040031 10.553521874478617
Al 11.579567197713004 13.20045733759031 6.022034748140519
Al 13.33298155349236 12.797885099035804 8.227109184433269
