unknown system                          
           1
    23.666381    0.000000    0.000000
     0.000000   23.666381    0.000000
     0.000000    0.000000   23.666381
   Ag
  35
Direct configuration=     1
   0.75523446  0.41331019  0.53232232
   0.69445393  0.49840472  0.48053374
   0.69870577  0.39732032  0.42602782
   0.67267138  0.57862590  0.55807185
   0.67890431  0.46707090  0.59843850
   0.63953231  0.38431948  0.52647531
   0.61406917  0.57823546  0.45593278
   0.62337788  0.48084261  0.39078356
   0.59440137  0.53667381  0.63223645
   0.58481599  0.37415533  0.42349272
   0.56998602  0.62765068  0.55270566
   0.56868431  0.42553224  0.61019338
   0.53892693  0.55595599  0.37067619
   0.52842557  0.35690500  0.52482123
   0.51461717  0.63660136  0.45196905
   0.50981220  0.61091273  0.65052519
   0.52459529  0.43941590  0.34921624
   0.45217601  0.51755513  0.30354702
   0.48960087  0.49594498  0.65913809
   0.45739418  0.65161449  0.55657014
   0.41199761  0.41306716  0.33634846
   0.40727604  0.67973033  0.45797350
   0.43380019  0.60602714  0.37332722
   0.45598430  0.39577084  0.60918733
   0.41583596  0.33990386  0.51699827
   0.47183325  0.35992803  0.41928820
   0.40349279  0.57649874  0.63123190
   0.35952330  0.50797862  0.37444483
   0.34962324  0.61243358  0.53392285
   0.36431626  0.40986176  0.44112068
   0.32498877  0.60556070  0.42050753
   0.37944880  0.46565231  0.66060842
   0.35059120  0.42486393  0.55596114
   0.31432597  0.50819932  0.48073921
   0.30574588  0.52595961  0.59393519
Direct configuration=     2
   0.75532932  0.41323539  0.53230585
   0.69450352  0.49832543  0.48057874
   0.69880473  0.39726582  0.42600820
   0.67276367  0.57869048  0.55812598
   0.67897579  0.46707896  0.59846704
   0.63965874  0.38434707  0.52646267
   0.61411351  0.57827252  0.45592972
   0.62345090  0.48080819  0.39075689
   0.59443823  0.53672605  0.63225575
   0.58486033  0.37412945  0.42346647
   0.57003255  0.62768763  0.55275226
   0.56870358  0.42550416  0.61024523
   0.53891669  0.55598550  0.37061250
   0.52841640  0.35685551  0.52480488
   0.51461018  0.63666988  0.45194646
   0.50984168  0.61099497  0.65063899
   0.52457545  0.43939283  0.34914491
   0.45214957  0.51755558  0.30341072
   0.48958832  0.49597338  0.65920877
   0.45736502  0.65166946  0.55659676
   0.41196848  0.41300412  0.33623480
   0.40724993  0.67985728  0.45794442
   0.43373200  0.60605177  0.37328870
   0.45595546  0.39571747  0.60922962
   0.41577414  0.33975309  0.51701321
   0.47180298  0.35986777  0.41925165
   0.40346629  0.57649941  0.63128739
   0.35953769  0.50797257  0.37436316
   0.34957000  0.61246945  0.53389312
   0.36427852  0.40982302  0.44108153
   0.32489244  0.60563221  0.42048405
   0.37938848  0.46563957  0.66070963
   0.35056893  0.42484784  0.55601163
   0.31425026  0.50822923  0.48074436
   0.30563493  0.52595006  0.59401587
Direct configuration=     3
   0.75561389  0.41301100  0.53225643
   0.69465230  0.49808755  0.48071373
   0.69910159  0.39710233  0.42594935
   0.67304053  0.57888425  0.55828835
   0.67919024  0.46710315  0.59855268
   0.64003801  0.38442983  0.52642476
   0.61424652  0.57838370  0.45592054
   0.62366993  0.48070493  0.39067690
   0.59454883  0.53688278  0.63231366
   0.58499336  0.37405184  0.42338774
   0.57017215  0.62779845  0.55289205
   0.56876137  0.42541993  0.61040075
   0.53888598  0.55607406  0.37042143
   0.52838887  0.35670705  0.52475584
   0.51458923  0.63687543  0.45187868
   0.50993012  0.61124169  0.65098038
   0.52451592  0.43932362  0.34893092
   0.45207023  0.51755693  0.30300182
   0.48955066  0.49605858  0.65942082
   0.45727755  0.65183436  0.55667665
   0.41188108  0.41281500  0.33589382
   0.40717159  0.68023813  0.45785717
   0.43352743  0.60612567  0.37317314
   0.45586892  0.39555735  0.60935650
   0.41558868  0.33930076  0.51705806
   0.47171218  0.35968699  0.41914200
   0.40338680  0.57650144  0.63145388
   0.35958087  0.50795444  0.37411814
   0.34941028  0.61257706  0.53380393
   0.36416528  0.40970682  0.44096410
   0.32460346  0.60584673  0.42041359
   0.37920754  0.46560135  0.66101327
   0.35050213  0.42479955  0.55616310
   0.31402313  0.50831896  0.48075982
   0.30530207  0.52592143  0.59425793
Direct configuration=     4
   0.75618303  0.41256220  0.53215760
   0.69494985  0.49761179  0.48098371
   0.69969533  0.39677534  0.42583165
   0.67359424  0.57927177  0.55861310
   0.67961913  0.46715152  0.59872396
   0.64079655  0.38459536  0.52634893
   0.61451254  0.57860606  0.45590217
   0.62410800  0.48049842  0.39051690
   0.59477003  0.53719623  0.63242946
   0.58525941  0.37389660  0.42323027
   0.57045133  0.62802011  0.55317164
   0.56887695  0.42525146  0.61071181
   0.53882454  0.55625118  0.37003929
   0.52833382  0.35641012  0.52465777
   0.51454731  0.63728652  0.45174313
   0.51010701  0.61173511  0.65166315
   0.52439687  0.43918520  0.34850295
   0.45191155  0.51755964  0.30218402
   0.48947534  0.49622900  0.65984491
   0.45710259  0.65216416  0.55683641
   0.41170628  0.41243677  0.33521185
   0.40701492  0.68099984  0.45768269
   0.43311830  0.60627346  0.37294203
   0.45569585  0.39523712  0.60961026
   0.41521777  0.33839610  0.51714774
   0.47153059  0.35932543  0.41892270
   0.40322783  0.57650550  0.63178685
   0.35966723  0.50791816  0.37362812
   0.34909083  0.61279228  0.53362556
   0.36393881  0.40947441  0.44072923
   0.32402549  0.60627577  0.42027269
   0.37884564  0.46552491  0.66162055
   0.35036853  0.42470297  0.55646604
   0.31356886  0.50849841  0.48079073
   0.30463635  0.52586416  0.59474206
Direct configuration=     5
   0.75732130  0.41166461  0.53195993
   0.69554496  0.49666028  0.48152369
   0.70088279  0.39612137  0.42559625
   0.67470167  0.58004682  0.55926261
   0.68047692  0.46724827  0.59906651
   0.64231364  0.38492643  0.52619728
   0.61504457  0.57905078  0.45586545
   0.62498414  0.48008540  0.39019692
   0.59521244  0.53782314  0.63266108
   0.58579151  0.37358613  0.42291533
   0.57100970  0.62846342  0.55373082
   0.56910812  0.42491452  0.61133392
   0.53870167  0.55660542  0.36927500
   0.52822373  0.35581626  0.52446163
   0.51446349  0.63810872  0.45147203
   0.51046077  0.61272197  0.65302870
   0.52415876  0.43890837  0.34764701
   0.45159420  0.51756505  0.30054842
   0.48932472  0.49656982  0.66069308
   0.45675268  0.65282375  0.55715595
   0.41135667  0.41168031  0.33384791
   0.40670158  0.68252326  0.45733371
   0.43230002  0.60656906  0.37247981
   0.45534970  0.39459665  0.61011778
   0.41447595  0.33658679  0.51732712
   0.47116740  0.35860232  0.41848410
   0.40290989  0.57651362  0.63245279
   0.35983994  0.50784562  0.37264807
   0.34845195  0.61322272  0.53326881
   0.36348586  0.40900959  0.44025950
   0.32286956  0.60713385  0.41999087
   0.37812185  0.46537204  0.66283510
   0.35010134  0.42450982  0.55707193
   0.31266031  0.50885733  0.48085257
   0.30330491  0.52574962  0.59571030
Direct configuration=     6
   0.75959786  0.40986943  0.53156459
   0.69673519  0.49475725  0.48260363
   0.70325771  0.39481343  0.42512544
   0.67691654  0.58159693  0.56056161
   0.68219251  0.46744178  0.59975161
   0.64534782  0.38558855  0.52589398
   0.61610864  0.57994023  0.45579199
   0.62673642  0.47925934  0.38955694
   0.59609724  0.53907697  0.63312431
   0.58685571  0.37296520  0.42228545
   0.57212643  0.62935003  0.55484918
   0.56957045  0.42424064  0.61257815
   0.53845594  0.55731389  0.36774643
   0.52800354  0.35462855  0.52406934
   0.51429583  0.63975310  0.45092982
   0.51116830  0.61469568  0.65575979
   0.52368255  0.43835470  0.34593513
   0.45095950  0.51757586  0.29727722
   0.48902346  0.49725148  0.66238944
   0.45605285  0.65414295  0.55779502
   0.41065745  0.41016738  0.33112004
   0.40607490  0.68557011  0.45663576
   0.43066348  0.60716024  0.37155537
   0.45465741  0.39331571  0.61113282
   0.41299230  0.33296816  0.51768587
   0.47044102  0.35715610  0.41760689
   0.40227399  0.57652986  0.63378467
   0.36018536  0.50770054  0.37068796
   0.34717418  0.61408360  0.53255530
   0.36257997  0.40807994  0.43932002
   0.32055770  0.60885002  0.41942723
   0.37667427  0.46506628  0.66526421
   0.34956695  0.42412351  0.55828371
   0.31084323  0.50957516  0.48097623
   0.30064204  0.52552054  0.59764679
Direct configuration=     7
   0.75806103  0.41108130  0.53183147
   0.69593171  0.49604192  0.48187460
   0.70165448  0.39569638  0.42544327
   0.67542136  0.58055050  0.55968469
   0.68103437  0.46731115  0.59928912
   0.64329955  0.38514157  0.52609873
   0.61539032  0.57933979  0.45584158
   0.62555351  0.47981698  0.38998897
   0.59549994  0.53823055  0.63281160
   0.58613730  0.37338437  0.42271066
   0.57137256  0.62875151  0.55409421
   0.56925834  0.42469555  0.61173821
   0.53862183  0.55683562  0.36877832
   0.52815218  0.35543034  0.52433416
   0.51440901  0.63864303  0.45129585
   0.51069067  0.61336329  0.65391612
   0.52400402  0.43872846  0.34709077
   0.45138797  0.51756856  0.29948550
   0.48922683  0.49679131  0.66124429
   0.45652528  0.65325240  0.55736360
   0.41112947  0.41118871  0.33296154
   0.40649795  0.68351328  0.45710692
   0.43176826  0.60676115  0.37217943
   0.45512475  0.39418043  0.61044760
   0.41399386  0.33541098  0.51744369
   0.47093138  0.35813240  0.41819907
   0.40270326  0.57651890  0.63288556
   0.35995218  0.50779848  0.37201116
   0.34803676  0.61350245  0.53303696
   0.36319151  0.40870752  0.43995423
   0.32211836  0.60769149  0.41980772
   0.37765149  0.46527269  0.66362440
   0.34992770  0.42438430  0.55746568
   0.31206988  0.50909057  0.48089275
   0.30243966  0.52567518  0.59633953
Direct configuration=     8
   0.75867791  0.41062980  0.53193068
   0.69578050  0.49614243  0.48226207
   0.70212471  0.39543180  0.42523080
   0.67577948  0.58049022  0.55953566
   0.68135108  0.46745358  0.59940742
   0.64293306  0.38519022  0.52606797
   0.61552340  0.57919865  0.45586422
   0.62538947  0.47993559  0.38990563
   0.59550099  0.53819330  0.63283124
   0.58610700  0.37342914  0.42268589
   0.57122289  0.62896719  0.55411655
   0.56935758  0.42469993  0.61172114
   0.53869105  0.55675313  0.36869016
   0.52842070  0.35550929  0.52431061
   0.51442573  0.63876725  0.45132913
   0.51044718  0.61354250  0.65398632
   0.52407844  0.43873792  0.34699244
   0.45136184  0.51761120  0.29924690
   0.48922508  0.49682422  0.66138379
   0.45651627  0.65327567  0.55754016
   0.41104253  0.41103807  0.33273125
   0.40640375  0.68365821  0.45708022
   0.43152377  0.60675215  0.37209086
   0.45499403  0.39415478  0.61053011
   0.41378895  0.33531739  0.51743962
   0.47086372  0.35798171  0.41811129
   0.40261474  0.57663502  0.63286482
   0.35980810  0.50800903  0.37220332
   0.34789031  0.61334018  0.53323769
   0.36314452  0.40867961  0.44002400
   0.32203092  0.60759817  0.41961963
   0.37760205  0.46526131  0.66383843
   0.34999329  0.42431073  0.55733954
   0.31205030  0.50913837  0.48077075
   0.30250338  0.52582536  0.59635163
Direct configuration=     9
   0.75918126  0.41026140  0.53201163
   0.69565711  0.49622445  0.48257824
   0.70250841  0.39521592  0.42505744
   0.67607169  0.58044103  0.55941405
   0.68160951  0.46756979  0.59950394
   0.64263402  0.38522992  0.52604287
   0.61563198  0.57908348  0.45588270
   0.62525561  0.48003236  0.38983764
   0.59550185  0.53816290  0.63284727
   0.58608228  0.37346567  0.42266568
   0.57110076  0.62914318  0.55413477
   0.56943855  0.42470351  0.61170721
   0.53874754  0.55668582  0.36861822
   0.52863980  0.35557371  0.52429139
   0.51443938  0.63886860  0.45135628
   0.51024850  0.61368874  0.65404361
   0.52413916  0.43874564  0.34691221
   0.45134052  0.51764598  0.29905222
   0.48922366  0.49685107  0.66149762
   0.45650892  0.65329465  0.55768423
   0.41097159  0.41091515  0.33254334
   0.40632688  0.68377646  0.45705843
   0.43132427  0.60674480  0.37201859
   0.45488737  0.39413386  0.61059743
   0.41362174  0.33524102  0.51743631
   0.47080851  0.35785875  0.41803966
   0.40254250  0.57672977  0.63284789
   0.35969054  0.50818084  0.37236012
   0.34777082  0.61320777  0.53340147
   0.36310618  0.40865684  0.44008094
   0.32195956  0.60752202  0.41946616
   0.37756171  0.46525203  0.66401307
   0.35004682  0.42425071  0.55723661
   0.31203433  0.50917737  0.48067121
   0.30255538  0.52594791  0.59636151
Direct configuration=    10
   0.75935377  0.40994503  0.53205833
   0.69553199  0.49584271  0.48276986
   0.70271756  0.39526208  0.42513047
   0.67609915  0.58049069  0.55933070
   0.68195616  0.46753565  0.59950440
   0.64257959  0.38545880  0.52592216
   0.61557329  0.57899642  0.45595183
   0.62523960  0.48003780  0.38993399
   0.59545518  0.53819185  0.63276084
   0.58610331  0.37359747  0.42259821
   0.57112479  0.62922954  0.55412427
   0.56946323  0.42480273  0.61168647
   0.53868686  0.55669530  0.36862892
   0.52858644  0.35567100  0.52429692
   0.51443080  0.63885432  0.45132940
   0.51007779  0.61368906  0.65400806
   0.52409525  0.43874683  0.34684095
   0.45127687  0.51764466  0.29906185
   0.48922813  0.49685121  0.66155488
   0.45638731  0.65331922  0.55768447
   0.41089162  0.41098505  0.33254830
   0.40624775  0.68364902  0.45715956
   0.43128818  0.60671478  0.37198756
   0.45485223  0.39416579  0.61058788
   0.41366474  0.33531648  0.51740991
   0.47075911  0.35778311  0.41800022
   0.40248133  0.57679153  0.63284795
   0.35970364  0.50815471  0.37247215
   0.34773540  0.61315557  0.53341924
   0.36314140  0.40868704  0.44006414
   0.32195597  0.60750827  0.41944004
   0.37756295  0.46528302  0.66404060
   0.35010177  0.42432987  0.55716241
   0.31206624  0.50914480  0.48066419
   0.30274931  0.52595172  0.59629080
Direct configuration=    11
   0.75971133  0.40928927  0.53215513
   0.69527265  0.49505148  0.48316706
   0.70315107  0.39535778  0.42528183
   0.67615606  0.58059364  0.55915795
   0.68267469  0.46746488  0.59950536
   0.64246678  0.38593320  0.52567195
   0.61545163  0.57881598  0.45609512
   0.62520640  0.48004907  0.39013371
   0.59535845  0.53825186  0.63258170
   0.58614690  0.37387064  0.42245835
   0.57117460  0.62940855  0.55410249
   0.56951437  0.42500840  0.61164347
   0.53856110  0.55671494  0.36865112
   0.52847582  0.35587264  0.52430837
   0.51441302  0.63882472  0.45127369
   0.50972395  0.61368974  0.65393438
   0.52400425  0.43874929  0.34669325
   0.45114494  0.51764190  0.29908183
   0.48923738  0.49685150  0.66167357
   0.45613525  0.65337014  0.55768498
   0.41072588  0.41112994  0.33255859
   0.40608373  0.68338485  0.45736918
   0.43121338  0.60665255  0.37192324
   0.45477939  0.39423197  0.61056810
   0.41375388  0.33547287  0.51735519
   0.47065671  0.35762634  0.41791847
   0.40235454  0.57691953  0.63284808
   0.35973079  0.50810056  0.37270437
   0.34766199  0.61304737  0.53345605
   0.36321441  0.40874962  0.44002931
   0.32194852  0.60747979  0.41938590
   0.37756553  0.46534725  0.66409768
   0.35021565  0.42449393  0.55700861
   0.31213240  0.50907729  0.48064966
   0.30315126  0.52595964  0.59614422
Direct configuration=    12
   0.76042646  0.40797775  0.53234872
   0.69475396  0.49346902  0.48396145
   0.70401809  0.39554916  0.42558455
   0.67626988  0.58079954  0.55881243
   0.68411174  0.46732333  0.59950727
   0.64224116  0.38688202  0.52517153
   0.61520831  0.57845509  0.45638171
   0.62514000  0.48007161  0.39053315
   0.59516500  0.53837186  0.63222342
   0.58623409  0.37441700  0.42217864
   0.57127421  0.62976657  0.55405893
   0.56961666  0.42541973  0.61155748
   0.53830957  0.55675423  0.36869551
   0.52825460  0.35627593  0.52433128
   0.51437746  0.63876551  0.45116226
   0.50901628  0.61369110  0.65378703
   0.52382225  0.43875420  0.34639784
   0.45088106  0.51763640  0.29912179
   0.48925590  0.49685209  0.66191095
   0.45563112  0.65347199  0.55768599
   0.41039438  0.41141971  0.33257917
   0.40575570  0.68285652  0.45778842
   0.43106377  0.60652808  0.37179460
   0.45463373  0.39436433  0.61052852
   0.41393214  0.33578567  0.51724574
   0.47045191  0.35731280  0.41775496
   0.40210096  0.57717554  0.63284833
   0.35978510  0.50799225  0.37316881
   0.34751516  0.61283097  0.53352968
   0.36336042  0.40887479  0.43995967
   0.32193362  0.60742281  0.41927762
   0.37757068  0.46547572  0.66421185
   0.35044343  0.42482207  0.55670100
   0.31226470  0.50894226  0.48062058
   0.30395518  0.52597547  0.59585108
Direct configuration=    13
   0.76005354  0.40866167  0.53224777
   0.69502444  0.49429422  0.48354720
   0.70356597  0.39544936  0.42542669
   0.67621052  0.58069217  0.55899261
   0.68336237  0.46739714  0.59950627
   0.64235882  0.38638724  0.52543248
   0.61533519  0.57864328  0.45623226
   0.62517463  0.48005986  0.39032485
   0.59526588  0.53830928  0.63241025
   0.58618863  0.37413209  0.42232450
   0.57122226  0.62957987  0.55408164
   0.56956332  0.42520523  0.61160233
   0.53844074  0.55673374  0.36867236
   0.52836996  0.35606563  0.52431934
   0.51439600  0.63879639  0.45122036
   0.50938531  0.61369039  0.65386387
   0.52391716  0.43875164  0.34655189
   0.45101867  0.51763927  0.29910095
   0.48924625  0.49685178  0.66178717
   0.45589401  0.65341888  0.55768546
   0.41056724  0.41126861  0.33256844
   0.40592676  0.68313203  0.45756980
   0.43114179  0.60659298  0.37186168
   0.45470969  0.39429530  0.61054916
   0.41383918  0.33562256  0.51730281
   0.47055871  0.35747630  0.41784023
   0.40223320  0.57704204  0.63284820
   0.35975678  0.50804873  0.37292662
   0.34759172  0.61294382  0.53349129
   0.36328428  0.40880952  0.43999598
   0.32194139  0.60745252  0.41933408
   0.37756800  0.46540873  0.66415231
   0.35032465  0.42465096  0.55686141
   0.31219571  0.50901267  0.48063575
   0.30353596  0.52596721  0.59600394
Direct configuration=    14
   0.76026737  0.40800273  0.53231145
   0.69470964  0.49403514  0.48398064
   0.70382701  0.39526600  0.42535848
   0.67614681  0.58061002  0.55884950
   0.68366305  0.46747956  0.59977261
   0.64227485  0.38677876  0.52529772
   0.61523524  0.57841539  0.45638611
   0.62513427  0.48011444  0.39044682
   0.59542493  0.53835708  0.63206130
   0.58612404  0.37424317  0.42228350
   0.57112916  0.62976704  0.55412606
   0.56966576  0.42540803  0.61149592
   0.53838935  0.55668194  0.36871173
   0.52837587  0.35632518  0.52421870
   0.51431199  0.63877181  0.45123272
   0.50939869  0.61365836  0.65374782
   0.52383311  0.43876555  0.34645003
   0.45089554  0.51765223  0.29911701
   0.48921669  0.49686562  0.66187271
   0.45589815  0.65346327  0.55770931
   0.41049319  0.41131033  0.33258943
   0.40584531  0.68291752  0.45755437
   0.43110599  0.60664232  0.37188706
   0.45476209  0.39442940  0.61057390
   0.41388200  0.33571717  0.51728571
   0.47064591  0.35742048  0.41765799
   0.40215900  0.57709562  0.63299586
   0.35982106  0.50803808  0.37298739
   0.34747837  0.61300392  0.53332332
   0.36333904  0.40878811  0.43998730
   0.32187340  0.60745281  0.41936690
   0.37761248  0.46544291  0.66417786
   0.35047819  0.42474178  0.55684246
   0.31217562  0.50899719  0.48062881
   0.30357555  0.52582418  0.59598343
Direct configuration=    15
   0.76058586  0.40702130  0.53240630
   0.69424077  0.49364927  0.48462621
   0.70421580  0.39499291  0.42525690
   0.67605192  0.58048766  0.55863636
   0.68411089  0.46760231  0.60016931
   0.64214980  0.38736188  0.52509701
   0.61508637  0.57807597  0.45661524
   0.62507416  0.48019575  0.39062847
   0.59566182  0.53842828  0.63154158
   0.58602785  0.37440861  0.42222243
   0.57099049  0.63004579  0.55419222
   0.56981833  0.42571006  0.61133745
   0.53831282  0.55660479  0.36877036
   0.52838468  0.35671176  0.52406881
   0.51418685  0.63873522  0.45125112
   0.50941862  0.61361064  0.65357499
   0.52370793  0.43878627  0.34629831
   0.45071217  0.51767153  0.29914093
   0.48917266  0.49688622  0.66200012
   0.45590432  0.65352939  0.55774482
   0.41038289  0.41137248  0.33262070
   0.40572400  0.68259803  0.45753139
   0.43105267  0.60671581  0.37192486
   0.45484013  0.39462911  0.61061076
   0.41394577  0.33585809  0.51726023
   0.47077579  0.35733733  0.41738658
   0.40204850  0.57717541  0.63321580
   0.35991678  0.50802221  0.37307791
   0.34730955  0.61309343  0.53307316
   0.36342059  0.40875622  0.43997437
   0.32177213  0.60745323  0.41941577
   0.37767873  0.46549381  0.66421590
   0.35070686  0.42487706  0.55681425
   0.31214570  0.50897414  0.48061848
   0.30363451  0.52561114  0.59595288
Direct configuration=    16
   0.76033996  0.40642222  0.53243709
   0.69402865  0.49320205  0.48490755
   0.70421543  0.39480629  0.42521891
   0.67598884  0.58058645  0.55854207
   0.68438293  0.46750115  0.60062286
   0.64221031  0.38778440  0.52502624
   0.61477457  0.57791285  0.45680482
   0.62510440  0.48009255  0.39073866
   0.59565529  0.53852348  0.63119392
   0.58609328  0.37443234  0.42218375
   0.57099675  0.63030069  0.55413893
   0.56988585  0.42592898  0.61118592
   0.53824982  0.55652409  0.36883308
   0.52838863  0.35711354  0.52389185
   0.51417123  0.63865681  0.45133184
   0.50972743  0.61344840  0.65352235
   0.52370911  0.43885719  0.34618163
   0.45062095  0.51776305  0.29910956
   0.48937026  0.49703972  0.66203995
   0.45584645  0.65356572  0.55777770
   0.41035899  0.41126501  0.33256101
   0.40574211  0.68259422  0.45738848
   0.43104519  0.60674771  0.37189580
   0.45510211  0.39477253  0.61060598
   0.41408820  0.33590847  0.51723083
   0.47087017  0.35727031  0.41721218
   0.40194156  0.57729439  0.63334341
   0.35994555  0.50812669  0.37308849
   0.34716684  0.61307804  0.53316603
   0.36345533  0.40869158  0.44001727
   0.32154178  0.60740667  0.41933704
   0.37770073  0.46549614  0.66429494
   0.35095173  0.42489601  0.55685582
   0.31205721  0.50895054  0.48061834
   0.30344108  0.52552283  0.59596767
Direct configuration=    17
   0.76015342  0.40596774  0.53246044
   0.69386773  0.49286279  0.48512098
   0.70421514  0.39466472  0.42519009
   0.67594098  0.58066140  0.55847054
   0.68458931  0.46742441  0.60096693
   0.64225621  0.38810493  0.52497256
   0.61453802  0.57778910  0.45694863
   0.62512734  0.48001425  0.39082225
   0.59565035  0.53859571  0.63093018
   0.58614292  0.37445034  0.42215440
   0.57100150  0.63049406  0.55409850
   0.56993708  0.42609506  0.61107096
   0.53820203  0.55646287  0.36888066
   0.52839162  0.35741834  0.52375761
   0.51415937  0.63859733  0.45139308
   0.50996171  0.61332532  0.65348241
   0.52371001  0.43891100  0.34609312
   0.45055175  0.51783248  0.29908577
   0.48952016  0.49715617  0.66207017
   0.45580255  0.65359328  0.55780264
   0.41034086  0.41118348  0.33251572
   0.40575585  0.68259133  0.45728007
   0.43103952  0.60677191  0.37187376
   0.45530086  0.39488133  0.61060235
   0.41419624  0.33594668  0.51720853
   0.47094177  0.35721946  0.41707987
   0.40186042  0.57738465  0.63344021
   0.35996737  0.50820596  0.37309651
   0.34705858  0.61306637  0.53323649
   0.36348168  0.40864254  0.44004981
   0.32136704  0.60737135  0.41927731
   0.37771741  0.46549790  0.66435491
   0.35113749  0.42491039  0.55688735
   0.31199007  0.50893264  0.48061824
   0.30329434  0.52545583  0.59597889
Direct configuration=    18
   0.75978801  0.40587851  0.53253996
   0.69385194  0.49288749  0.48512884
   0.70403293  0.39455848  0.42509995
   0.67606784  0.58070135  0.55841281
   0.68462202  0.46732738  0.60117960
   0.64212050  0.38803630  0.52510279
   0.61445967  0.57758733  0.45701584
   0.62514868  0.47996529  0.39081411
   0.59571795  0.53856555  0.63082797
   0.58621654  0.37430215  0.42206829
   0.57112816  0.63075960  0.55402719
   0.56998635  0.42612728  0.61100946
   0.53818397  0.55638742  0.36890610
   0.52844962  0.35770165  0.52362076
   0.51406418  0.63857847  0.45140179
   0.50993188  0.61338906  0.65350713
   0.52378922  0.43893344  0.34604604
   0.45058447  0.51783594  0.29901592
   0.48950874  0.49721306  0.66205940
   0.45565672  0.65354658  0.55784702
   0.41036160  0.41116742  0.33246981
   0.40574932  0.68267296  0.45727534
   0.43101383  0.60678351  0.37183420
   0.45546383  0.39495731  0.61059403
   0.41439563  0.33589091  0.51720420
   0.47093210  0.35718739  0.41707552
   0.40191938  0.57743742  0.63344631
   0.35996577  0.50813466  0.37307128
   0.34705669  0.61304091  0.53335340
   0.36348971  0.40868794  0.44001216
   0.32126478  0.60741057  0.41928435
   0.37784661  0.46555669  0.66435454
   0.35126145  0.42496148  0.55695992
   0.31195245  0.50886049  0.48064183
   0.30318619  0.52545114  0.59606410
Direct configuration=    19
   0.75970096  0.40585725  0.53255890
   0.69384818  0.49289337  0.48513071
   0.70398952  0.39453317  0.42507848
   0.67609806  0.58071087  0.55839906
   0.68462981  0.46730426  0.60123027
   0.64208817  0.38801995  0.52513381
   0.61444100  0.57753926  0.45703185
   0.62515377  0.47995363  0.39081217
   0.59573405  0.53855836  0.63080362
   0.58623408  0.37426685  0.42204778
   0.57115833  0.63082286  0.55401021
   0.56999809  0.42613495  0.61099480
   0.53817967  0.55636945  0.36891216
   0.52846344  0.35776915  0.52358816
   0.51404150  0.63857397  0.45140386
   0.50992477  0.61340424  0.65351302
   0.52380809  0.43893878  0.34603483
   0.45059227  0.51783677  0.29899928
   0.48950602  0.49722662  0.66205683
   0.45562197  0.65353545  0.55785760
   0.41036654  0.41116359  0.33245887
   0.40574777  0.68269240  0.45727421
   0.43100771  0.60678627  0.37182478
   0.45550266  0.39497541  0.61059204
   0.41444313  0.33587762  0.51720316
   0.47092979  0.35717975  0.41707448
   0.40193342  0.57744999  0.63344776
   0.35996539  0.50811768  0.37306527
   0.34705624  0.61303484  0.53338125
   0.36349162  0.40869876  0.44000319
   0.32124042  0.60741991  0.41928603
   0.37787739  0.46557069  0.66435445
   0.35129098  0.42497366  0.55697721
   0.31194348  0.50884331  0.48064745
   0.30316042  0.52545002  0.59608440
Direct configuration=    20
   0.75955277  0.40592713  0.53261415
   0.69389635  0.49290478  0.48507899
   0.70385703  0.39454754  0.42510862
   0.67616448  0.58069908  0.55842049
   0.68456307  0.46730700  0.60119925
   0.64208585  0.38786947  0.52515660
   0.61439908  0.57749084  0.45706160
   0.62515448  0.47992063  0.39075860
   0.59571246  0.53864063  0.63080609
   0.58621442  0.37414654  0.42193254
   0.57119750  0.63093510  0.55403553
   0.56998974  0.42615169  0.61109145
   0.53815639  0.55635355  0.36893237
   0.52842615  0.35785975  0.52352258
   0.51401239  0.63853725  0.45140568
   0.50996576  0.61347324  0.65347163
   0.52383233  0.43887117  0.34603691
   0.45062656  0.51781143  0.29897600
   0.48957009  0.49727186  0.66202664
   0.45566228  0.65351414  0.55784662
   0.41043446  0.41117252  0.33243768
   0.40568340  0.68269812  0.45731198
   0.43095034  0.60676875  0.37181440
   0.45551816  0.39496983  0.61056794
   0.41447749  0.33590807  0.51723825
   0.47092942  0.35721384  0.41703735
   0.40190669  0.57739848  0.63344324
   0.35993957  0.50814463  0.37306944
   0.34702742  0.61300806  0.53333351
   0.36353262  0.40867723  0.44004574
   0.32128386  0.60737566  0.41937164
   0.37792138  0.46562107  0.66434329
   0.35138323  0.42496606  0.55695765
   0.31195296  0.50887067  0.48066131
   0.30318852  0.52545733  0.59615618
Direct configuration=    21
   0.75949161  0.40595597  0.53263695
   0.69391623  0.49290949  0.48505765
   0.70380236  0.39455347  0.42512106
   0.67619189  0.58069421  0.55842933
   0.68453552  0.46730812  0.60118645
   0.64208490  0.38780737  0.52516601
   0.61438178  0.57747085  0.45707387
   0.62515477  0.47990702  0.39073649
   0.59570355  0.53867458  0.63080710
   0.58620630  0.37409689  0.42188498
   0.57121367  0.63098142  0.55404598
   0.56998629  0.42615859  0.61113134
   0.53814679  0.55634699  0.36894071
   0.52841077  0.35789715  0.52349552
   0.51400037  0.63852209  0.45140643
   0.50998268  0.61350171  0.65345455
   0.52384233  0.43884327  0.34603778
   0.45064071  0.51780097  0.29896639
   0.48959654  0.49729054  0.66201418
   0.45567891  0.65350534  0.55784208
   0.41046249  0.41117620  0.33242894
   0.40565683  0.68270048  0.45732757
   0.43092667  0.60676152  0.37181012
   0.45552456  0.39496752  0.61055800
   0.41449168  0.33592064  0.51725273
   0.47092927  0.35722790  0.41702203
   0.40189565  0.57737723  0.63344137
   0.35992892  0.50815576  0.37307116
   0.34701552  0.61299700  0.53331380
   0.36354954  0.40866835  0.44006329
   0.32130178  0.60735739  0.41940697
   0.37793954  0.46564186  0.66433869
   0.35142129  0.42496293  0.55694958
   0.31195687  0.50888196  0.48066703
   0.30320012  0.52546035  0.59618581
