15
Energy = -35.04743778 eV
Be 13.474800010737813 10.337918733891213 11.202954792685574
Be 12.519804000381551 8.575961380928817 11.123365150716781
Be 11.071045533580799 8.245132123513166 9.643953359065366
Be 12.129560321283046 10.013953666254224 9.620053120726302
Be 10.459224888296658 8.500319476916939 11.50155839652212
Be 11.427340605178529 10.294115368500103 11.723875844720666
Be 9.020457081851553 8.665467509595869 9.960423425620995
Be 10.729059159813133 11.435818532425738 10.153420638792364
Be 10.286991378575514 9.885836099757197 8.571606446137816
Be 9.322824578749941 10.275399766579858 11.487416239222396
Be 9.445396695675793 11.769723727678945 8.573958697587535
Be 8.79500120367893 12.030876062518937 10.542149374698289
Be 8.215573778230127 9.936640092831313 8.453442381134955
Be 7.594520206660302 10.192063142939086 10.353260429231822
Be 7.43741928360392 11.769793041966507 9.017580429434636
