11
Energy = -24.74849991 eV
Be 10.163401875010573 8.909898123003591 7.42252002559073
Be 9.025201729099601 10.101041656212871 11.4173296279622
Be 10.875880307079752 9.26733620080812 11.435858661743119
Be 8.841028975981054 7.929780910986746 8.555454818778669
Be 10.40771388169014 10.717767143064409 8.507981801307094
Be 10.863754249037843 8.91920175168526 9.382055224531118
Be 10.61527592087772 11.022735972668237 10.514959892423507
Be 9.380132807035508 8.069557060544266 10.5198440395201
Be 8.694123101100516 11.10021734699118 9.55002899121864
Be 7.849296788354691 9.274857661455872 9.911309888990996
Be 8.42568875099169 9.82910455883881 7.92415541419332
