11
Energy = -24.76198099 eV
Be 8.956462920172763 6.790789369083318 8.549736828840068
Be 8.350283897144154 6.015895754007463 6.763105937648004
Be 6.719067762054729 8.376159124727756 7.458739086487928
Be 6.307965268078358 6.431163265995657 6.634087896338978
Be 8.581948484140549 8.840533551399972 8.430750119099635
Be 7.6433455705525 7.6408612285159645 5.659834623093374
Be 5.536206945869293 6.949535255246163 8.474743251917463
Be 8.267401320543222 9.428288723356848 6.479139925290964
Be 7.24484995880561 7.631215683429054 9.404696239071455
Be 9.462146423471152 7.816315286719802 6.77080183851571
Be 7.140755774461742 5.711422928070158 8.469257336313811
