13
Energy = -30.18316503 eV
Be 9.098370202728857 9.08610832149648 10.467064904762653
Be 11.058408097262083 10.114274531456646 10.072159390256584
Be 9.207009689666442 10.919173855558602 9.507634798682693
Be 7.336990473677287 10.098274591371002 9.933349390518467
Be 7.138935806925114 8.065771639400602 10.052386726028635
Be 7.819467388118042 7.834202479418728 7.918043694382561
Be 6.289797127792552 9.012507527359729 8.55004640359345
Be 8.329326837046976 9.840036434320082 7.9559574239294895
Be 10.378655322910323 10.38489628590836 7.942064387644341
Be 11.908082919328427 9.194793026630606 8.553069754998123
Be 10.860260212096428 8.084185903146237 9.915652116784509
Be 9.868741881517224 8.378957183904634 7.942927689966318
Be 8.990178880971781 7.271139812456457 9.473916534687095
