27
Energy = -71.19186669 eV
Be 8.679526527346477 8.311813732134157 12.541313338111147
Be 9.258896880323148 7.308428345937939 10.699972258302811
Be 9.544060503750202 13.582882251628721 8.863818190802885
Be 9.377059088966144 11.409807394988217 8.464582688469005
Be 9.727339700210765 7.504833937044192 7.222101397697922
Be 11.692386495153688 9.725310768430496 11.094134433192927
Be 11.041484642337926 13.473191217732438 10.163021102533373
Be 11.238876108829286 8.805038830689238 7.7067384288495555
Be 9.132795077253729 12.874344138357372 10.827015314692925
Be 7.83017478111901 9.968353146248912 8.825399111440749
Be 11.393262453672062 7.602169148349305 11.091765812770909
Be 10.94065370329941 10.75950919031095 7.211840702130991
Be 10.103287585937585 6.839333477919425 12.533477823313255
Be 11.253094887682687 12.485156668468766 8.396243542877496
Be 9.95701796099879 9.437916566330557 9.605708190101398
Be 10.577109441329686 7.267439130949011 9.089127939620788
Be 9.270180799873696 9.510696014594734 7.392173833914982
Be 8.385764364016518 10.946596279409546 10.48728762701801
Be 10.778996871172664 8.681619565343027 12.80306126762145
Be 11.928754863567773 10.545369122829253 9.007114664692807
Be 9.746521841227603 10.129693738113765 11.828666808884348
Be 7.8816725905293605 8.869293533840388 10.613632525241043
Be 10.600491297284892 11.445930910524218 10.39660951202627
Be 12.181891301632769 8.53548548353606 9.460459466305188
Be 7.677660861965436 10.100720198147757 12.192782338346756
Be 8.534809374861446 7.974469258475095 8.772219962426853
Be 7.834736639747517 12.473104593756316 9.278238362704291
