26
Energy = -68.77188013 eV
Be 12.125175198811935 7.42962637589051 9.97016664088018
Be 9.056090157431361 11.838030371457434 10.751356765767147
Be 10.220357123425975 7.8858390980151105 10.325114517190151
Be 10.990392964787308 8.183982167923944 8.395703736638575
Be 10.988468278608352 12.07445859802295 7.683512519605617
Be 10.889030563970573 12.31045735941734 9.765982066855193
Be 11.84799671927476 8.915093935226961 11.317111391509178
Be 7.608910961497599 10.86139775106995 13.84796192273455
Be 10.423961373532482 10.055805774540913 9.662745772666009
Be 9.69429938851335 10.93820451748232 6.636736805338722
Be 10.89880781784722 12.112577670796917 11.796664829636558
Be 12.522706423232018 9.346183322068784 9.312642467089374
Be 8.843155074847221 8.606847464175722 8.980827703543579
Be 9.170334248141163 11.646091080099174 8.642291145610962
Be 12.179052816959645 10.851994083268405 10.834560531031396
Be 7.916522885038968 10.296890229110282 9.727394525285556
Be 9.71404838123447 8.992043869271527 7.013217488737209
Be 12.453782767690656 11.353861344175796 8.849287910306245
Be 8.920007424494084 9.436306002174065 13.190852692180975
Be 11.584864155223366 10.036965491092559 7.4536667630442865
Be 10.86526319638243 10.207027000100616 12.696194872196449
Be 8.546693259482492 8.853387348781006 11.170949810369228
Be 7.678406704953734 10.644385261213134 11.83290707544186
Be 9.235067455050043 11.583557068981808 12.914121373488609
Be 10.257090773662178 8.188724758117253 12.325631533381095
Be 8.1159179328972 10.09666610451684 7.648801186462467
