26
Energy = -68.71479374 eV
Be 11.402638436872692 9.513796250013492 12.5347235231277
Be 8.410416178572651 12.398694128847994 11.61194902718023
Be 9.107900699528045 10.706233977403667 9.970702181372827
Be 8.707024349749165 10.48724745336087 12.248643133131532
Be 12.408979673846522 8.848414174827706 14.249837650915387
Be 11.970216555825791 9.911487825715195 10.527782831275683
Be 7.740032888231043 12.64708869604347 9.739492707105075
Be 9.734107327440608 12.864691241557868 10.151448785877774
Be 8.98911924967077 9.955367595825793 7.697007278901081
Be 10.945353919217139 7.028609341936428 8.843366034947346
Be 9.931486145381283 9.181853498362006 11.248048474156478
Be 10.410957395323642 9.31958180846519 9.193346339434047
Be 7.409884752537669 10.985089904588742 8.690197653131003
Be 7.938589957994344 8.97621445331898 9.181686134444018
Be 9.285077061044731 11.980357679846824 8.239328214245736
Be 12.429342415776988 10.059283306295747 8.44723893126268
Be 11.366260745957108 7.80063494591331 10.717919262379846
Be 9.239637085245356 7.57563767641604 10.093504749801049
Be 11.133852389222838 11.506636190222482 9.368293744496503
Be 10.834228750138944 10.777824565956585 7.44865516972033
Be 11.251892525183122 8.615294976124565 7.39912927463483
Be 7.9015464395818595 8.877942344561438 11.195880247220193
Be 9.299547116231263 7.860524896970114 7.9786969111307116
Be 7.126971615626046 10.840952429134589 10.800838074018998
Be 12.590419441358481 8.166770866616174 9.097047670477897
Be 10.55943378023657 11.238686667468418 11.450152891405715
