25
Energy = -66.9371731 eV
Be 9.280338898637458 12.758327417021833 9.116146522033405
Be 10.997643844431298 11.580068997675442 8.627277456814278
Be 9.29128593349042 11.615026247280461 7.391237569922985
Be 7.517378990738451 11.798327980937808 8.57292075336654
Be 8.010885463885296 11.81925273845598 10.563803995660008
Be 9.090487427862454 10.601639378442135 9.261408945620113
Be 10.735285210125214 9.596805323769788 9.551928257056973
Be 12.3226335313815 9.869488663931152 8.37930402293495
Be 10.338525029633214 9.78338160071969 7.503429855827333
Be 10.254359284283304 11.385227627584761 10.787347418083861
Be 12.209855921531894 10.75733188904228 10.272492028084292
Be 8.014809301581005 9.777086962478096 7.742571737198294
Be 9.073882130040811 8.624821006952798 9.830418808312064
Be 7.168703368009907 9.919026885149137 9.784434944444529
Be 8.720676368291711 10.052320699081822 11.395909548862464
Be 12.372037070722293 8.569182343562055 10.069423268234868
Be 10.779854619618849 9.386036162093346 11.562605346626514
Be 9.158949913077278 8.09063785176371 7.621644463818498
Be 11.084510315615924 7.904291706476172 8.453703119010862
Be 7.320740344077247 8.352760057828812 11.127295706353907
Be 7.3935166767166045 7.931328839346126 8.960350824676526
Be 9.186039182564127 8.040959948729919 12.030424040448635
Be 10.679161730490689 7.390398934291517 10.582368942869198
Be 9.514595128946643 6.645034544492484 9.022638139085366
Be 8.438948086466489 6.706339965112496 10.744018056873218
