20
Energy = -52.37196234 eV
Be 9.12358752003452 8.835034916661664 6.543025920010564
Be 7.045723266372117 8.676970292511925 7.441017278908243
Be 8.025891040756187 10.504333062756013 6.899189451001163
Be 11.141732299689918 9.165858892110302 6.921343596799193
Be 8.312520449270266 7.035771556635335 7.1910094285013875
Be 9.879530595940048 10.500656007917177 7.817853655868218
Be 6.280407271380414 10.534822595894177 7.960365851077147
Be 10.308487936757711 7.414478951154432 7.60180180664732
Be 8.792777665457011 8.741600938236994 8.809311025113129
Be 9.063887078174643 6.0146150187675325 8.734774019224538
Be 7.25487279966033 7.1610422206293665 9.10269370571751
Be 6.695651860505328 9.23436473478546 9.45672067079643
Be 10.981359428056779 9.05859222269324 8.973145537820491
Be 9.860853876175394 10.540498684178203 9.91861040206605
Be 8.078108242616864 10.985590946082608 8.912945521240818
Be 10.469443289513002 7.207767928765688 9.660036403090889
Be 8.755328148245864 6.653749415252177 10.634700548454388
Be 7.550143819288097 8.184098629075134 10.988750814775033
Be 9.620703932346437 8.676561759209754 10.92350377425244
Be 8.033659101504833 10.148260848428308 10.78387021038054
