32
Energy = -89.74486726 eV
Be 8.479959370173743 7.976043368828088 9.41872706543139
Be 9.903856125861653 8.669076496623346 5.703918973040632
Be 8.716351361990695 10.373548587539542 5.5975242564529895
Be 6.882597454181706 9.64637081879079 9.1426804023608
Be 10.326018007947583 8.30739911119773 8.684083573547092
Be 10.790218568848957 6.971272176508613 6.702349671812642
Be 8.939606022285849 10.02083116819945 11.750274588517412
Be 6.311593578357765 7.716743118936948 9.636179382412296
Be 7.055190013044305 8.121733871501508 7.747896503279291
Be 10.451701905808067 10.687302370908109 6.854400028066706
Be 10.57858914486635 6.917137047723596 10.274135268572328
Be 7.320836177173882 6.695451872651294 11.013189839009353
Be 11.805209666193713 7.042566984065962 8.438256334593492
Be 9.879186679562185 6.040137194058714 8.50762049277161
Be 8.753130936889265 12.038427243221308 10.654754654664915
Be 9.85884389394591 11.889468410077063 8.749826065883253
Be 9.102671010854774 7.715153820957452 11.5766542647344
Be 7.6573083138340134 6.176030556611923 8.766272223183229
Be 11.523349457418462 8.835639683341654 7.053074218539269
Be 11.11736434468446 10.177492906487263 8.798467627679637
Be 7.838178031217844 8.616797111038544 5.856954902722246
Be 8.627906604084904 11.727605069057178 7.101767830993789
Be 10.501189004015618 11.061642178325076 10.623302913574653
Be 7.069382778503664 10.336803517963071 7.119558103967617
Be 7.290962573181304 8.788361645177917 11.169909719166156
Be 9.016771993821019 9.995447558381953 9.604857980647724
Be 8.866249238683933 9.358929224427646 7.65233191417635
Be 8.798255992304163 7.1566258986196845 7.115288708869599
Be 7.168333386371489 10.852060297122858 10.839542422887007
Be 7.624933381777737 11.66662192024416 8.914667877700602
Be 8.959229391631299 5.724152705397099 10.381332287827691
Be 10.5528174468772 8.965712059497932 10.679566725533213
