30
Energy = -80.81505013 eV
Be 11.99583315582241 13.329877140181157 9.91009661852328
Be 12.678284914932213 12.866505673666346 6.945002546953746
Be 9.982267271000303 13.547259383199526 9.00840975510506
Be 10.605838826704169 10.829736366731575 12.12238838240093
Be 8.645697528762685 11.17345474972027 11.506219336827451
Be 10.118779449050432 10.15053153835576 9.991751134471793
Be 12.085626256198857 11.318716893423398 10.71838505315429
Be 7.92761956799188 9.873800263504675 10.057516901389699
Be 10.249316454281752 12.377715860368596 10.802153630893258
Be 9.5091542843048 8.87703486055212 11.505828542746073
Be 11.869354151045743 11.030606605802259 7.189645626036506
Be 9.091359989824626 8.451954524377133 9.14877553745564
Be 13.494184930284367 13.767858885459706 8.583287409302743
Be 11.826696746533234 9.26837908160828 11.201731853218128
Be 11.03783834953674 8.074645778560011 9.77520426670298
Be 11.05281602728036 9.095126790498979 13.123090762736311
Be 8.829441656094927 11.723574349158005 9.42699461928307
Be 10.627481774999653 12.820859482264487 7.093276434960695
Be 7.76420408616376 8.05525698562222 13.132715881524046
Be 7.71013856221552 7.8749770166858095 10.821433286768043
Be 12.065842837282158 9.861689227949647 9.154262133831082
Be 10.977605590774067 7.355716190587005 11.883093850791074
Be 9.698996240745833 7.73016019750767 13.680592816679221
Be 11.626996999241756 14.339335017815793 8.054592226026093
Be 7.322147948889028 9.659779644087768 11.983129651204143
Be 8.874190329298802 6.654987354289336 12.18924018331399
Be 9.558398159893748 6.8269314590771035 10.288701303928
Be 13.090920203449187 11.735343914364929 8.801757933400546
Be 10.971746886166097 11.758648518471661 8.866103878191852
Be 8.992549351766366 9.850864776644551 13.315946972715446
