31
Energy = -86.2107725 eV
Be 10.708562770852696 11.668362399472647 7.124206858424306
Be 8.789590284314967 10.658707822225189 6.4052856321628475
Be 8.947089166002934 12.545678907509496 7.3253233522586285
Be 11.719104642199737 10.57668415135704 8.655466334028558
Be 10.4515516774048 9.61768732048736 7.298727404928949
Be 10.674472509881458 12.222153024870615 9.21660175071458
Be 7.2607297562097175 11.034591249631301 7.709929008331044
Be 8.896398594251737 8.56007191281312 6.263879001838561
Be 9.094187168086728 11.088374260499739 8.684432827573143
Be 11.513019816802787 10.697506068855938 10.670539858148235
Be 11.710736720892337 8.517758548678497 8.80956133423834
Be 9.92931755834966 7.715954163537434 7.935099730072921
Be 9.449155200297863 11.09954823800088 10.747453556138982
Be 6.886752317837301 9.142359829669484 6.669915945240887
Be 8.366814895425515 9.18274933481325 8.145230049012289
Be 7.901522484121025 7.110044430029356 7.4960002759537225
Be 6.070979780929611 9.631044789051302 8.575918850205948
Be 9.924090626795602 9.323596192356687 9.668819259369311
Be 7.635157004641153 10.194866858173079 9.839880035667784
Be 6.10511944927899 7.685158279869876 8.218043188323545
Be 6.613236175764467 8.349714629046495 10.161917098841588
Be 10.682359442431093 6.953239718912867 9.81380215696949
Be 10.30247359004961 9.625556139051735 12.00333767064552
Be 7.201606898524943 6.237838966875951 9.438193828031272
Be 8.60652122539813 7.769622709434234 9.652365492472892
Be 8.375109314910462 9.110461651554832 11.434129838835863
Be 11.664170276502213 8.560522267601007 10.915220322427114
Be 7.733355646205065 7.077394176339265 11.452958092525316
Be 9.103057827327268 5.858397242015206 10.66110107464332
Be 9.83193608549644 7.58141772637326 11.66938543331707
Be 9.161875337179481 5.912991235259124 8.647328983023288
