31
Energy = -86.75420979 eV
Be 9.325525202658943 8.214804927534795 12.530489522411678
Be 7.8678526983948975 9.671106596124226 12.980155822743338
Be 10.896564448750008 7.182191796409679 11.100717788510119
Be 9.865802184965405 10.061994917671573 13.303680063494117
Be 12.586150775853763 8.449988679542082 10.591387233153215
Be 10.657470309182687 11.315287277203165 11.780711896465927
Be 7.253133159449914 10.982169054276113 11.496611720983953
Be 8.909161427100534 7.504911178550353 10.71106919779772
Be 11.090334018939677 9.204770708825942 11.786367579083892
Be 9.961274051589825 6.876815263746526 8.988459441829525
Be 12.047082884420302 7.000355861801982 9.377226359974086
Be 11.924846792044953 10.46500506455513 10.331382550358917
Be 8.784063373698846 11.641596682507343 12.671909054953993
Be 7.353526808110146 8.9161291054634 11.073192158620236
Be 12.434755971000063 9.174933871939839 8.610824662170183
Be 8.339756955865123 8.573065371297565 9.116938036666891
Be 8.814700491872584 12.199579214482021 10.608317335447007
Be 10.493810545766278 8.879968526255443 9.579825070179954
Be 9.182111377394795 9.88577747860203 10.970521215994228
Be 9.402948727321304 8.229392212402278 7.426109957138926
Be 11.889793949722335 11.252231730776993 8.356789327894573
Be 11.331024261559378 7.715563657300942 7.625953760613079
Be 9.981325574042016 10.915236814263245 9.326922207115002
Be 10.806820762762097 9.79089172168739 7.353913297574514
Be 8.705475835620833 10.182522439727 7.695598675100243
Be 8.307051986048906 12.144845318956932 8.483262561074362
Be 11.14277766907967 12.5457519679564 10.099289285939333
Be 7.662621848402055 10.466852749800301 9.505632403520535
Be 9.636971778182225 13.489285240690318 9.089807288862033
Be 11.361312663045167 13.271344005046577 8.152788099734012
Be 10.067785188083548 11.879464285531036 7.35798014552133
