35
Energy = -98.35085064 eV
Be 9.781709909905063 12.14837530942642 8.780850301290464
Be 11.530425583401897 7.1288532721557445 7.860848930672649
Be 7.892042274599478 6.706923943643535 8.582876626183698
Be 8.372872844563007 11.937562872007405 10.376042808416859
Be 8.642015126784303 8.5674098159821 9.53903111188034
Be 9.381144193380575 7.599120494004706 7.407246948861957
Be 6.46522442565717 11.934701580274966 7.513175896082406
Be 9.866158367010916 6.37946300200252 9.068420443570274
Be 7.387212433593769 8.498697880328205 7.628163630584177
Be 12.41177290296843 9.235986259174085 8.112144717677145
Be 5.5778587817899625 9.686957398255064 10.42069123492595
Be 12.651294544690233 8.759944437047285 10.251455071744665
Be 7.888126258749202 12.85418945097014 8.609628096780133
Be 13.328471976949247 7.544547096071474 8.754891001534908
Be 9.449668868893415 7.990765517415481 11.863717446972093
Be 7.110310601562094 10.299471992661337 6.609593179908316
Be 9.003418838252042 9.525073338811566 6.631483997719127
Be 7.453174893924479 10.155396575464907 10.386821652074264
Be 6.561452677498957 8.066219877980464 9.579845854190665
Be 5.970093397301802 9.941315815309217 8.396732728156284
Be 8.219813550242254 6.685227439106352 10.626497364709191
Be 7.344848633400642 8.418557807438361 11.46449866524667
Be 10.95446612073096 8.767886771682676 6.766464098299909
Be 6.328829187632889 11.707364083864508 9.525800889176882
Be 11.914451244046928 6.616739091922839 9.881394387167724
Be 11.660538577331472 10.516570107637287 9.55742305835191
Be 11.609200152982435 7.609288212510434 11.664102023533408
Be 8.864194236947451 9.942843757017638 11.778976620457215
Be 8.187665040896787 10.477166658495047 8.477992732004044
Be 10.696227467874222 8.485458007481483 9.367656734200827
Be 8.695835459904874 11.741209879354946 6.909759055283339
Be 9.697050746263445 10.42558274652069 9.970786106540327
Be 10.229222778036293 6.233543702926759 11.04543850074072
Be 10.50387047325025 10.482403289103434 7.803667685935149
Be 10.951568671672636 9.511413758640664 11.368111641817325
