38
Energy = -108.51677875 eV
Be 8.539775270021664 7.917815576285013 6.2010562114537295
Be 6.18375429291314 8.93046744698486 6.288870979310564
Be 6.855786123132093 6.860833823357981 6.824163768238828
Be 9.990607889082153 11.144782464300791 5.80533091414574
Be 10.273180349621162 9.073379126890778 6.226695334105135
Be 8.102053122774366 9.935694154987885 5.729520646350257
Be 11.10644497078626 10.47411651406321 7.6238955760034965
Be 5.291298938820488 7.610363985143625 7.886764044939348
Be 10.337645028515842 7.078238809721905 6.794920004798892
Be 8.624976363721109 6.424544135466699 7.875061641297775
Be 7.469935441388032 8.882251164397719 7.8435409021483435
Be 8.191884314864977 12.028096299771251 6.267026519057758
Be 6.783715145989792 10.810156117800492 7.255436246411188
Be 9.004208452499755 10.297088257555421 7.528964101060719
Be 11.602569692497655 8.369597445737895 7.960534275912766
Be 9.87217945306403 12.372486658416973 7.436455227514438
Be 9.526487279406881 8.442683653044988 8.278049805703198
Be 5.269943285585137 9.595098133148506 8.090410421247059
Be 6.688087906244432 6.432924389169665 8.871925953276575
Be 10.578293032171269 6.677611169711432 8.846715404805021
Be 8.061434733521875 11.917094805225423 8.477248300197477
Be 10.938292340245525 9.669105299464613 9.627611315075447
Be 8.606266068059703 9.913392158499466 9.478320738809854
Be 11.785061704912625 7.800703592584406 10.227961392633228
Be 9.994814616330771 11.440594524521925 9.257137782885948
Be 6.611218419184311 10.405927669151332 9.405568268802119
Be 7.9464841764896015 7.831824738642874 9.481967967408217
Be 9.522403409501107 10.215794300914814 11.237100232705957
Be 5.982893963617524 8.393326183660013 9.777425860576447
Be 10.826504268094556 5.979968496290431 10.80490701175596
Be 9.670019877517719 8.085038526224382 10.465725931152939
Be 11.155976633510146 9.130961882220813 11.770753042605767
Be 8.814558696157931 6.035455572247618 9.969604617516614
Be 7.602841339962128 9.216163405712265 11.116034098582478
Be 11.094433301409588 7.252591741630614 12.373647449754232
Be 7.618259221329804 7.206391682394212 11.39179521950656
Be 9.316488557118545 6.325507922059252 12.102965826093453
Be 9.173774371800036 8.461103741046378 12.49499614690894
