4
Energy = -5.48416728 eV
Be 7.827186006605693 9.000149425875662 7.4410439941608555
Be 7.582279888524021 8.287808246168666 9.341057287737605
Be 8.691900874847848 7.229939778701326 7.98549591944593
Be 9.406646162793137 8.99011548202517 8.740415731426546
