46
Energy = -128.31308475 eV
Be 15.998304053828306 14.891933737248081 15.601376974252274
Be 14.732440195285047 15.7609547983079 12.52411801851065
Be 16.61500693060054 13.12372330154071 14.398170170231367
Be 13.84888549129997 19.35352541676654 14.73321713687084
Be 17.358461927587992 17.148494102275414 18.24705082880484
Be 16.23901807440283 17.15474930958455 13.013794578208124
Be 19.340764177453966 16.23247233333555 15.211245560930509
Be 20.323994434287304 14.46405301403013 15.750375884298052
Be 15.653001712612616 18.385128027643802 14.921831490573503
Be 17.393430922216805 14.677501315547888 18.397256028233322
Be 16.46204804965848 15.20305993355124 13.72808228299128
Be 11.704517151541836 17.309238608033716 17.417905074568207
Be 17.955606703015825 14.682152825563485 14.999246570465312
Be 14.486804501128907 14.3525794970286 14.050202119503442
Be 17.47934216082176 15.68856858654207 16.70528926191426
Be 17.01102418668122 13.280226785853126 16.481676704453033
Be 16.649825642689702 18.579573583497567 16.86537070064036
Be 15.26042374800547 17.986329055207705 18.366376135235136
Be 18.858705249143533 13.906938823366819 16.95911724406003
Be 15.75790777140756 13.696419222349807 12.508540131128358
Be 12.325908978678044 18.96540070421001 16.203517401859642
Be 15.010178363959835 16.392377915924236 14.589268506935564
Be 14.030387983819606 15.132904650839132 15.97553512035898
Be 14.988261992269718 13.170892046622885 15.727854001155956
Be 17.179817378359317 16.840222393715738 14.945869628655286
Be 13.265560738962396 18.416610497260137 17.989953132878046
Be 13.629530005147677 17.301714872825965 15.845994177755788
Be 12.124911417750074 15.623537864446748 16.3885495142858
Be 12.915174282431382 7.158351798998947 19.897059878774257
Be 18.913500041211954 12.935828261835152 14.988042780469492
Be 11.261124331466402 17.167254066344185 15.444105778099258
Be 19.41109241710972 15.852092095208768 17.29138215869879
Be 14.626447369730634 19.160275186375642 16.673352532422378
Be 13.75810289769909 16.25862104523657 17.851710412606607
Be 15.750724718102958 16.029633505348382 18.81193242858607
Be 15.40738299139913 14.491472481196439 17.5399987894992
Be 16.813960141179837 15.346202548888133 11.766353754335116
Be 14.163647456457007 17.779909267971806 13.311687491748076
Be 12.328362246392302 18.21628411610545 14.137511028508278
Be 17.949479715272766 13.864140182275227 12.904439874186584
Be 15.549843998326988 16.661488689297503 16.65095942919964
Be 14.025067518095398 9.2086955999516 19.80130172818247
Be 18.478276933548646 17.61972623994017 16.518506657653514
Be 19.721994687612824 14.544463894747688 13.805049543314112
Be 12.9381458675937 16.108223574967806 14.166413395635466
Be 18.31927695769208 15.979561043640611 13.252093314671903
