42
Energy = -122.13434206 eV
Be 7.075782705149983 11.276946978674344 11.483922285995495
Be 8.062094027046657 10.004904528904673 13.042368108799119
Be 8.385882005628027 12.372895282183611 10.242744025190937
Be 5.521981357920548 10.375830197681676 10.473529783347038
Be 9.025396227499964 10.584344137678302 11.380612413468807
Be 10.288898048146281 9.47198828400024 12.577887143231363
Be 6.768439676162718 9.163153237249306 11.702639146438239
Be 8.598041503965767 8.136137833122454 12.471816866937745
Be 6.699845486169478 11.704811452986364 9.29873221133104
Be 5.531686877626322 10.215896460580325 8.476110330826828
Be 11.174367029428172 10.355317772132999 10.906269549081141
Be 10.260029603848588 12.200900320431272 11.149677284636004
Be 7.7238697416200095 9.783501084998624 9.870054404893303
Be 10.69360618131456 7.486489716845119 12.328346206126655
Be 5.987591795810946 8.483187369108313 9.594040671986825
Be 9.762840715002504 8.687777659812667 10.470902351858884
Be 7.762844603892747 7.625906856501974 10.50562338680594
Be 8.612818645294679 12.07854968648596 8.105263817181875
Be 10.120056520506994 12.994829750035096 9.285217676740322
Be 7.502458060758446 10.296223432753546 7.746703095709454
Be 12.02370133192736 8.527879200944193 11.086137661249873
Be 11.152673445123291 6.764859594154344 10.318758049543668
Be 9.0714319734821 8.713391345770011 8.515609051135971
Be 9.297757723317323 6.50630606472503 11.32677137260879
Be 13.001283748894139 10.027492012862774 9.817670531391864
Be 11.159002943372453 9.437822741981027 8.706413582447432
Be 11.849532200506673 11.914684821090637 9.718641076579527
Be 7.4167546709598735 7.150638440479923 8.470012244947922
Be 6.313506654171889 8.54732826757835 7.523209974551908
Be 9.618710842164422 10.66050956351671 9.365182940082187
Be 8.17496027686878 8.601819471319947 6.57075042459373
Be 9.222337211341385 6.601089702814849 9.31992300133416
Be 10.821974748960706 11.746727848857391 7.795041066617318
Be 9.549642378947434 10.27824535185607 7.1053691538029415
Be 12.751484501149513 7.9099151334354305 9.18983518749988
Be 13.543230663034429 9.380183426819388 7.902863690198105
Be 10.917689464387527 7.16580585117688 8.290023526412272
Be 10.34587063601047 8.417363332074379 6.613705860988776
Be 9.112293996400489 6.883197072702967 7.225704929774467
Be 12.32131569247319 8.039390885393656 7.093800881406386
Be 12.815147555192777 11.232773814013223 8.047587281394636
Be 11.762031599085315 10.05727312580459 6.683414718328357
