44
Energy = -127.96253359 eV
Be 10.309882686447322 14.098633579384796 12.602834538811274
Be 10.229666412392238 12.655713875283832 11.112972337676661
Be 12.978969521885999 10.211189229706001 10.355353060349247
Be 12.208430275753692 12.343338627839694 10.109380526966351
Be 12.229883146934872 16.157420993260374 10.429146812415699
Be 14.114357812648198 15.750285857955445 11.104243032256134
Be 14.244316575129842 12.050575109535757 9.995195839219958
Be 10.336247093924344 11.968885472042764 13.067770287042043
Be 10.890662694507466 15.20870502789043 14.29952796026563
Be 13.008092528107728 14.319384410492603 9.624232795538205
Be 12.080532799664903 12.874143145317705 12.13599431262294
Be 11.351952422366729 10.93598287550217 11.564940133856188
Be 9.721748278193681 13.361092949507983 14.456231416151192
Be 11.269635554069215 14.400948048757968 10.79292163395404
Be 12.813354420158753 17.178781872383944 12.081506079471566
Be 11.068362286364888 16.10729777392331 12.289525850411934
Be 13.55113567237006 11.476493058293777 11.867619437653733
Be 11.902224082233921 9.063272604848079 12.122757922818652
Be 10.805095180910543 9.959007525007332 13.724235941727311
Be 11.833730487732863 13.323334785305779 14.060721181007635
Be 15.129733851408853 11.868370015865466 14.883391947278666
Be 16.263859590355622 11.317170444318194 13.183738058408549
Be 14.698789739865365 13.978419692308867 15.170700216550642
Be 13.921626915640708 12.95253473413803 13.384795703384128
Be 15.20844784602768 14.574840469511955 12.488048758968477
Be 15.273787632481007 10.561972606080829 11.346400749594912
Be 13.033718512568042 12.348442204533718 15.563062943748077
Be 12.710756308844546 14.81645581025964 15.302740925833172
Be 15.933763375251187 15.38391474423337 14.188586423045479
Be 13.832888634096514 13.60659548601695 11.300080432504023
Be 13.887073123971696 10.298679551162714 15.370615221238214
Be 11.13987104714713 13.567529947784731 15.949959751851882
Be 14.477553528958085 16.498066176857865 13.089337907188645
Be 14.251899319583563 16.113024570782127 15.094287365070832
Be 13.852127518074978 9.139910282735187 11.929273085643592
Be 12.833897502921241 9.016170985452343 13.976629012831536
Be 14.554441536212734 10.26360506044941 13.44447454970093
Be 11.913544249000413 10.057543568133909 15.554647636346425
Be 12.451214419994955 11.294072754415804 13.630873709444076
Be 12.779041166596821 14.820033765718884 12.802324790164812
Be 12.455418521604871 16.58865185964419 14.04984203936109
Be 10.799795557418411 11.6819446609411 15.092105096634693
Be 15.594260292903996 12.602495427525508 11.744740496657153
Be 16.152039977369338 13.302898458984911 13.760062178428448
