54
Energy = -160.60631559 eV
Be 4.439123175536229 7.560884339486531 6.274623092766639
Be 10.134435256502542 9.605758204680914 12.17878400444314
Be 11.35154693117334 6.793020470057177 7.849758218713634
Be 8.368050481084088 6.374666451586124 10.08364612917186
Be 5.268431755258543 4.151838985228276 5.927111218026995
Be 9.367371999752592 10.17017228494225 6.006995711316681
Be 8.29205503694316 8.78004356033022 7.242673824545634
Be 7.14555428116496 4.900580711170334 5.147563849016431
Be 7.891442085360952 6.77574855643998 8.062895319141752
Be 5.871891571863515 8.06295875167697 4.881196915170014
Be 4.531001556348175 6.7609777103971025 8.330990207939298
Be 8.711529367333217 12.668932816688256 9.555311723262875
Be 9.32242112886853 8.183476503107547 5.167722381631176
Be 4.460886072767349 8.869382158361987 7.920078059184303
Be 9.235583686354772 7.838433062507155 11.266546825949534
Be 7.579289619069049 7.137218337479888 5.966052060856854
Be 9.077928666718583 11.829079908404179 7.63275423752948
Be 7.285879385572981 6.6789371022130055 4.03097410286961
Be 6.8858421340815745 3.7509403821664677 7.016310512282321
Be 8.162340825192041 9.750354409911344 11.538288786467527
Be 7.536841853584313 9.31359671901712 5.2210849661675125
Be 9.471721880462969 6.938348497209363 6.816909483416398
Be 9.568290491171467 7.864299573452161 8.675689890544467
Be 7.551906068248891 11.645067698023066 10.872290021247952
Be 6.278645463853019 9.871898636025339 8.2932729199942
Be 6.46763175271986 9.965271965084781 10.332872126080378
Be 10.668816782447522 6.71475851722451 10.00550705985025
Be 10.807503319515426 8.57372438381336 6.767218980771462
Be 4.087496224346617 5.562140208680692 6.705799991420081
Be 10.522450763878247 5.188031227477465 6.510752790268931
Be 8.417767726985003 5.104996682964131 6.796114154071743
Be 9.863374154023223 9.49952703038123 9.982556770731867
Be 6.265838046519004 7.9173197408808615 7.56246449682301
Be 6.282471439107387 5.918102014792609 7.0398697457590025
Be 7.026095426483416 7.837272351013557 11.166951311286223
Be 9.612298963680965 5.608789257336212 8.464546318316684
Be 7.466743605017145 10.817289300854775 6.786784110084059
Be 5.486895386087412 8.26093327439971 9.62293304092719
Be 10.340334241343445 11.520431557986544 9.310464629990694
Be 7.488044287952172 4.806954629036022 8.703340624671313
Be 9.608421230879237 11.419055575170553 11.2244397051922
Be 5.329159513177687 6.057004804672489 4.9527856634599186
Be 7.629393795031084 8.41293058431248 9.340696641972166
Be 11.559425286083536 8.620692205640266 8.989951974872502
Be 11.479219921470122 10.37460859357075 10.787296329717243
Be 10.096616820736731 9.988934231335588 7.958344098069132
Be 8.262951849505026 10.389416870723267 9.050332763906567
Be 11.05609740166636 6.8942745630643945 5.534563017984943
Be 5.289383345007881 4.573679076726463 8.224210732937042
Be 6.285344501480174 6.346696038741288 9.44358793999951
Be 9.159705181066883 5.949188024307022 4.949391543984983
Be 6.881601289871485 11.834269779111116 8.78665836477072
Be 11.370739277855325 8.325033560182037 11.083681590451699
Be 5.723519894475399 9.567410322631977 6.281711222651686
