5
Energy = -2.00202246 eV
Be 8.410982309334123 8.185468796512758 10.247287543378436
Be 6.776090140612338 7.712717709817965 8.96161990778487
Be 7.566393799842763 9.65912723593998 9.304934697908903
Be 12.437309791292357 12.100796387699736 10.177460175102391
Be 12.819600092715033 10.332982807182285 9.319224976700681
