6
Energy = -9.11402741 eV
Be 10.68835310465729 10.059932139610916 9.63763826417838
Be 8.44294600709056 7.853717533270237 7.95313817417908
Be 9.189782646835393 8.678521527103351 9.942545510074744
Be 7.256590138890807 8.126223436942714 9.568900418847106
Be 8.048529488868155 9.675912528981357 8.45252172177058
Be 10.001708777434876 9.189057958571386 7.951082605044854
