7
Energy = -11.8779615 eV
Be 8.842043784374793 7.790572623624402 6.465256198660608
Be 9.04252020296203 8.415433094661886 8.38160669395449
Be 8.05370486311201 6.4353383281101575 7.938649216415091
Be 7.030584822335006 8.075393325654996 8.792274763157646
Be 7.776967302717413 9.276849630076043 7.219510947757533
Be 6.806576996485571 7.35943112425653 6.648762122231799
Be 6.091730849568064 6.3263626989331945 8.23292334965273
