9
Energy = -18.49910481 eV
Be 7.374754485433207 6.588475097589894 8.797187250526324
Be 6.575089214514693 5.544825510196255 7.169533257410845
Be 8.55608785492822 6.213483362211083 7.123907512703643
Be 5.7557524770401916 7.448869518677724 7.4602528541871855
Be 6.9423325744745945 7.071817322819988 5.785313306506901
Be 9.07315405012476 7.674299825250963 8.45827866522859
Be 8.502846405805709 8.26790873892891 6.571980726978272
Be 6.585749851340858 8.988017904764959 6.402483394551898
Be 7.273801497802025 8.65797189194411 8.313688953158307
