   17   17 1000    2
  0.4670813E+03  0.1995019E-08  0.1995019E-08  0.1995019E-08  0.1000000E-15
  1.000000000000000E-004
  CAR 
 unknown system                          
    187      1    124
 
  0.0000000E+00  0.0000000E+00  0.0000000E+00  0.1000000E+01
    1       -9.730410     -9.716311
    2       -9.368513     -9.336897
    3       -9.300230     -9.289273
    4       -9.292812     -9.275599
    5       -9.187668     -9.176592
    6       -9.159954     -9.148782
    7       -8.760193     -8.739834
    8       -8.703176     -8.678156
    9       -8.631818     -8.612319
   10       -8.601642     -8.585394
   11       -8.590532     -8.573787
   12       -8.553825     -8.538330
   13       -8.512372     -8.495745
   14       -8.502049     -8.477286
   15       -8.450121     -8.434327
   16       -8.434944     -8.417989
   17       -8.409208     -8.392148
   18       -8.381429     -8.363419
   19       -8.359789     -8.337862
   20       -8.351239     -8.332983
   21       -8.331334     -8.318798
   22       -8.322397     -8.303863
   23       -8.266922     -8.239398
   24       -8.233388     -8.223081
   25       -8.215524     -8.197366
   26       -8.165395     -8.154566
   27       -8.093663     -8.076956
   28       -8.088521     -8.068560
   29       -8.003625     -7.977652
   30       -7.958223     -7.939238
   31       -7.949933     -7.933280
   32       -7.941777     -7.924254
   33       -7.902142     -7.885625
   34       -7.899545     -7.884054
   35       -7.786206     -7.769542
   36       -7.775108     -7.759108
   37       -7.749620     -7.732533
   38       -7.693660     -7.681516
   39       -7.682976     -7.668392
   40       -7.668486     -7.654278
   41       -7.609147     -7.599212
   42       -7.569181     -7.554591
   43       -7.548212     -7.528701
   44       -7.525001     -7.511665
   45       -7.492861     -7.478249
   46       -7.325815     -7.314982
   47       -7.299522     -7.288216
   48       -7.252431     -7.229587
   49       -7.213023     -7.196133
   50       -7.176186     -7.159007
   51       -7.165009     -7.144151
   52       -7.148241     -7.133546
   53       -7.110624     -7.096802
   54       -7.101373     -7.086561
   55       -7.071592     -7.058933
   56       -7.060189     -7.041873
   57       -7.053080     -7.034453
   58       -7.025618     -7.013064
   59       -7.009155     -6.994518
   60       -6.995221     -6.977680
   61       -6.974875     -6.962184
   62       -6.951373     -6.933485
   63       -6.935437     -6.923704
   64       -6.918137     -6.900948
   65       -6.901217     -6.889458
   66       -6.890583     -6.878464
   67       -6.846223     -6.834915
   68       -6.841747     -6.829721
   69       -6.833819     -6.819541
   70       -6.806752     -6.789841
   71       -6.796391     -6.778934
   72       -6.765850     -6.749336
   73       -6.734717     -6.722024
   74       -6.724971     -6.712651
   75       -6.722880     -6.704764
   76       -6.699042     -6.680747
   77       -6.634507     -6.619845
   78       -6.599369     -6.585376
   79       -6.579962     -6.566889
   80       -6.566734     -6.555926
   81       -6.555330     -6.537790
   82       -6.500157     -6.492624
   83       -6.458177     -6.445526
   84       -6.397128     -6.387864
   85       -6.386309     -6.373247
   86       -6.348153     -6.337247
   87       -6.308382     -6.294299
   88       -6.141385     -6.090878
   89       -5.906380     -5.843719
   90       -4.702936     -4.656685
   91       -4.536646     -4.507721
   92       -4.312859     -4.278636
   93       -3.982514     -3.939707
   94       -3.772199     -3.596461
   95       -3.215065     -3.157131
   96       -2.549603     -2.518684
   97       -2.515242     -2.468321
   98       -2.209136     -2.184262
   99       -2.205046     -2.172545
  100       -2.093019     -2.057496
  101       -2.067374     -1.978503
  102       -1.663148     -1.531265
  103       -1.380933     -1.339021
  104       -1.330862     -1.236468
  105       -1.209458     -1.105442
  106       -0.598237     -0.552414
  107       -0.481349     -0.447896
  108       -0.416302     -0.385336
  109       -0.399110     -0.369773
  110       -0.307749     -0.283986
  111       -0.123828     -0.093633
  112       -0.027388      0.045618
  113        0.035529      0.132463
  114        0.287208      0.333907
  115        0.347196      0.382801
  116        0.525637      0.584907
  117        0.576327      0.606049
  118        0.682607      0.691554
  119        0.699709      0.714971
  120        0.726666      0.743142
  121        0.773308      0.796739
  122        0.795794      0.849771
  123        0.821689      0.871798
  124        0.881453      0.922550
