 vasp.5.3.5 31Mar14 (build Feb 01 2018 12:10:03) gamma-only                     
  
 executed on             LinuxIFC date 2019.03.21  20:16:17
 running on   32 total cores
 distrk:  each k-point on   32 cores,    1 groups
 distr:  one band on NCORES_PER_BAND=   8 cores,    4 groups


--------------------------------------------------------------------------------------------------------


 INCAR:
 POTCAR:    PAW_PBE Ag 02Apr2005                  
 POTCAR:    PAW_PBE Ag 02Apr2005                  
   VRHFIN =Ag : s1 d10                                                          
   LEXCH  = PE                                                                  
   EATOM  =  1037.2675 eV,   76.2370 Ry                                         
                                                                                
   TITEL  = PAW_PBE Ag 02Apr2005                                                
   LULTRA =        F    use ultrasoft PP ?                                      
   IUNSCR =        1    unscreen: 0-lin 1-nonlin 2-no                           
   RPACOR =    2.000    partial core radius                                     
   POMASS =  107.868; ZVAL   =   11.000    mass and valenz                      
   RCORE  =    2.500    outmost cutoff radius                                   
   RWIGS  =    2.840; RWIGS  =    1.503    wigner-seitz radius (au A)           
   ENMAX  =  249.844; ENMIN  =  187.383 eV                                      
   ICORE  =        3    local potential                                         
   LCOR   =        T    correct aug charges                                     
   LPAW   =        T    paw PP                                                  
   EAUG   =  412.496                                                            
   DEXC   =    0.000                                                            
   RMAX   =    2.560    core radius for proj-oper                               
   RAUG   =    1.300    factor for augmentation sphere                          
   RDEP   =    2.576    radius for radial grids                                 
   RDEPT  =    2.072    core radius for aug-charge                              
                                                                                
   Atomic configuration                                                         
   12 entries                                                                   
     n  l   j            E        occ.                                          
     1  0  0.50    -25324.9161   2.0000                                         
     2  0  0.50     -3728.5341   2.0000                                         
     2  1  1.50     -3344.0404   6.0000                                         
     3  0  0.50      -683.5581   2.0000                                         
     3  1  1.50      -557.3225   6.0000                                         
     3  2  2.50      -358.3853  10.0000                                         
     4  0  0.50       -95.0341   2.0000                                         
     4  1  1.50       -58.5511   6.0000                                         
     4  2  2.50        -7.4440  10.0000                                         
     5  0  0.50        -4.4045   1.0000                                         
     5  1  0.50        -1.3606   0.0000                                         
     4  3  2.50        -1.3606   0.0000                                         
   Description                                                                  
     l       E           TYP  RCUT    TYP  RCUT                                 
     2     -7.4439781     23  2.400                                             
     2     -8.8045607     23  2.400                                             
     0     -4.4044681     23  2.400                                             
     0      1.9520038     23  2.400                                             
     1     -1.3605826     23  2.500                                             
     1     27.2116520     23  2.500                                             
     3     -4.0817478     23  2.400                                             
  local pseudopotential read in
  partial core-charges read in
  partial kinetic energy density read in
  atomic valenz-charges read in
  non local Contribution for L=           2  read in
    real space projection operators read in
  non local Contribution for L=           2  read in
    real space projection operators read in
  non local Contribution for L=           0  read in
    real space projection operators read in
  non local Contribution for L=           0  read in
    real space projection operators read in
  non local Contribution for L=           1  read in
    real space projection operators read in
  non local Contribution for L=           1  read in
    real space projection operators read in
    PAW grid and wavefunctions read in
 
   number of l-projection  operators is LMAX  =           6
   number of lm-projection operators is LMMAX =          18
 

 ----------------------------------------------------------------------------- 
|                                                                             |
|  ADVICE TO THIS USER RUNNING 'VASP/VAMP'   (HEAR YOUR MASTER'S VOICE ...):  |
|                                                                             |
|      You have a (more or less) 'large supercell' and for larger cells       |
|      it might be more efficient to use real space projection opertators     |
|      So try LREAL= Auto  in the INCAR   file.                               |
|      Mind: At the moment your POTCAR file does not contain real space       |
|       projectors, and has to be modified,  BUT if you                       |
|      want to do an extremely  accurate calculation you might also keep the  |
|      reciprocal projection scheme          (i.e. LREAL=.FALSE.)             |
|                                                                             |
 ----------------------------------------------------------------------------- 

  PAW_PBE Ag 02Apr2005                  :
 energy of atom  1       EATOM=-1037.2675
 kinetic energy error for atom=    0.0689 (will be added to EATOM!!)
 
 
 POSCAR: Al17, -49.71700281 <s> Ag </s>          
  positions in direct lattice
  No initial velocities read in
 exchange correlation table for  LEXCH =        8
   RHO(1)=    0.500       N(1)  =     2000
   RHO(2)=  100.500       N(2)  =     4000
 


--------------------------------------------------------------------------------------------------------


 ion  position               nearest neighbor table
   1  0.511  0.333  0.600-   5 2.74   8 2.77   2 2.83   4 2.89
   2  0.601  0.438  0.570-   6 2.81   7 2.83   1 2.83  10 2.84   8 2.86   3 2.87   4 2.89
   3  0.671  0.552  0.517-   9 2.75  10 2.79   7 2.84   2 2.87  13 3.04   6 3.25
   4  0.467  0.470  0.614-   6 2.70  15 2.73  11 2.84   5 2.86   2 2.89   1 2.89  10 2.91   8 3.12

   5  0.386  0.368  0.554-   1 2.74  12 2.78   8 2.78   4 2.86  15 2.93
   6  0.569  0.554  0.644-   9 2.66   4 2.70   2 2.81  10 2.82  11 2.90   3 3.25
   7  0.608  0.459  0.430-   8 2.67  13 2.74  10 2.78   2 2.83   3 2.84  17 2.87
   8  0.499  0.399  0.478-   7 2.67   1 2.77  17 2.77   5 2.78  12 2.80   2 2.86  10 3.06  15 3.10
                             4 3.12
   9  0.605  0.660  0.573-  14 2.63   6 2.66   3 2.75  10 3.02  11 3.36
  10  0.531  0.546  0.508-  11 2.67  17 2.74   7 2.78  13 2.79   3 2.79   6 2.82   2 2.84  16 2.88
                             4 2.91  15 2.93   9 3.02  14 3.02   8 3.06
  11  0.446  0.609  0.589-  10 2.67   4 2.84  15 2.85   6 2.90  16 2.92   9 3.36  14 3.51
  12  0.372  0.394  0.419-   5 2.78   8 2.80  15 2.86  17 3.07
  13  0.595  0.590  0.391-  14 2.71   7 2.74  10 2.79  17 2.92   3 3.04  16 3.58
  14  0.539  0.690  0.463-   9 2.63  16 2.65  13 2.71  10 3.02  11 3.51
  15  0.390  0.506  0.507-  16 2.72   4 2.73  11 2.85  12 2.86  17 2.92   5 2.93  10 2.93   8 3.10

  16  0.426  0.622  0.444-  14 2.65  15 2.72  17 2.82  10 2.88  11 2.92  13 3.58
  17  0.477  0.502  0.389-  10 2.74   8 2.77  16 2.82   7 2.87  15 2.92  13 2.92  12 3.07
 
  LATTYP: Found a simple cubic cell.
 ALAT       =    19.9501944177
  
  Lattice vectors:
  
 A1 = (  19.9501944177,   0.0000000000,   0.0000000000)
 A2 = (   0.0000000000,  19.9501944177,   0.0000000000)
 A3 = (   0.0000000000,   0.0000000000,  19.9501944177)


Analysis of symmetry for initial positions (statically):
=====================================================================
 Subroutine PRICEL returns:
 Original cell was already a primitive cell.
 

 Routine SETGRP: Setting up the symmetry group for a 
 simple cubic supercell.


 Subroutine GETGRP returns: Found  1 space group operations
 (whereof  1 operations were pure point group operations)
 out of a pool of 48 trial point group operations.


The static configuration has the point symmetry C_1 .


Analysis of symmetry for dynamics (positions and initial velocities):
=====================================================================
 Subroutine PRICEL returns:
 Original cell was already a primitive cell.
 

 Routine SETGRP: Setting up the symmetry group for a 
 simple cubic supercell.


 Subroutine GETGRP returns: Found  1 space group operations
 (whereof  1 operations were pure point group operations)
 out of a pool of 48 trial point group operations.


The dynamic configuration has the point symmetry C_1 .


Analysis of magnetic symmetry:
=====================================================================
 Subroutine PRICEL returns:
 Original cell was already a primitive cell.
 

 Subroutine MAGSYM returns: Found  1 space group operations
 (whereof  1 operations were pure point group operations)
 out of a pool of  1 trial space group operations
 (whereof  1 operations were pure point group operations)
 and found also     1 'primitive' translations


The magnetic configuration has the point symmetry C_1 .
 
 
 KPOINTS: Gamma-point only                        
  k-points in reciprocal lattice
Space group operators:
 irot       det(A)        alpha          n_x          n_y          n_z        tau_x        tau_y        tau_z
    1     1.000000     0.000000     1.000000     0.000000     0.000000     0.000000     0.000000     0.000000


--------------------------------------------------------------------------------------------------------




 Dimension of arrays:
   k-points           NKPTS =      1   k-points in BZ     NKDIM =      1   number of bands    NBANDS=    124
   number of dos      NEDOS =    301   number of ions     NIONS =     17
   non local maximal  LDIM  =      6   non local SUM 2l+1 LMDIM =     18
   total plane-waves  NPLWV = 512000
   max r-space proj   IRMAX =      1   max aug-charges    IRDMAX=   3370
   dimension x,y,z NGX =    80 NGY =   80 NGZ =   80
   dimension x,y,z NGXF=   160 NGYF=  160 NGZF=  160
   support grid    NGXF=   160 NGYF=  160 NGZF=  160
   ions per type =              17
 NGX,Y,Z   is equivalent  to a cutoff of   6.67,  6.67,  6.67 a.u.
 NGXF,Y,Z  is equivalent  to a cutoff of  13.33, 13.33, 13.33 a.u.


 I would recommend the setting:
   dimension x,y,z NGX =    77 NGY =   77 NGZ =   77
 SYSTEM =  unknown system                          
 POSCAR =  Al17, -49.71700281 <s> Ag </s>          

 Startparameter for this run:
   NWRITE =      2    write-flag & timer
   PREC   = normal    normal or accurate (medium, high low for compatibility)
   ISTART =      0    job   : 0-new  1-cont  2-samecut
   ICHARG =      2    charge: 1-file 2-atom 10-const
   ISPIN  =      2    spin polarized calculation?
   LNONCOLLINEAR =      F non collinear calculations
   LSORBIT =      F    spin-orbit coupling
   INIWAV =      1    electr: 0-lowe 1-rand  2-diag
   LASPH  =      F    aspherical Exc in radial PAW
   METAGGA=      F    non-selfconsistent MetaGGA calc.

 Electronic Relaxation 1
   ENCUT  =  249.8 eV  18.36 Ry    4.29 a.u.  25.71 25.71 25.71*2*pi/ulx,y,z
   ENINI  =  249.8     initial cutoff
   ENAUG  =  412.5 eV  augmentation charge cutoff
   NELM   =     60;   NELMIN=  2; NELMDL= -5     # of ELM steps 
   EDIFF  = 0.1E-03   stopping-criterion for ELM
   LREAL  =      F    real-space projection
   NLSPLINE    = F    spline interpolate recip. space projectors
   LCOMPAT=      F    compatible to vasp.4.4
   GGA_COMPAT  = T    GGA compatible to vasp.4.4-vasp.4.6
   LMAXPAW     = -100 max onsite density
   LMAXMIX     =    2 max onsite mixed and CHGCAR
   VOSKOWN=      0    Vosko Wilk Nusair interpolation
   ROPT   =    0.00000
 Ionic relaxation
   EDIFFG = 0.1E-02   stopping-criterion for IOM
   NSW    =   1000    number of steps for IOM
   NBLOCK =      1;   KBLOCK =   1000    inner block; outer block 
   IBRION =      2    ionic relax: 0-MD 1-quasi-New 2-CG
   NFREE  =      1    steps in history (QN), initial steepest desc. (CG)
   ISIF   =      2    stress and relaxation
   IWAVPR =     11    prediction:  0-non 1-charg 2-wave 3-comb
   ISYM   =      2    0-nonsym 1-usesym 2-fastsym
   LCORR  =      T    Harris-Foulkes like correction to forces

   POTIM  = 0.1000    time-step for ionic-motion
   TEIN   =    0.0    initial temperature
   TEBEG  =    0.0;   TEEND  =   0.0 temperature during run
   SMASS  =  -3.00    Nose mass-parameter (am)
   estimated Nose-frequenzy (Omega)   =  0.10E-29 period in steps =****** mass=  -0.910E-26a.u.
   SCALEE = 1.0000    scale energy and forces
   NPACO  =    256;   APACO  = 16.0  distance and # of slots for P.C.
   PSTRESS=    0.0 pullay stress

  Mass of Ions in am
   POMASS = 107.87
  Ionic Valenz
   ZVAL   =  11.00
  Atomic Wigner-Seitz radii
   RWIGS  =  -1.00
  virtual crystal weights 
   VCA    =   1.00
   NELECT =     187.0000    total number of electrons
   NUPDOWN=      -1.0000    fix difference up-down

 DOS related values:
   EMIN   =  10.00;   EMAX   =-10.00  energy-range for DOS
   EFERMI =   0.00
   ISMEAR =     0;   SIGMA  =   0.00  broadening in eV -4-tet -1-fermi 0-gaus

 Electronic relaxation 2 (details)
   IALGO  =     38    algorithm
   LDIAG  =      T    sub-space diagonalisation (order eigenvalues)
   LSUBROT=      F    optimize rotation matrix (better conditioning)
   TURBO    =      0    0=normal 1=particle mesh
   IRESTART =      0    0=no restart 2=restart with 2 vectors
   NREBOOT  =      0    no. of reboots
   NMIN     =      0    reboot dimension
   EREF     =   0.00    reference energy to select bands
   IMIX   =      4    mixing-type and parameters
     AMIX     =   0.40;   BMIX     =  1.00
     AMIX_MAG =   1.60;   BMIX_MAG =  1.00
     AMIN     =   0.10
     WC   =   100.;   INIMIX=   1;  MIXPRE=   1;  MAXMIX= -45

 Intra band minimization:
   WEIMIN = 0.0010     energy-eigenvalue tresh-hold
   EBREAK =  0.20E-06  absolut break condition
   DEPER  =   0.30     relativ break condition  

   TIME   =   0.40     timestep for ELM

  volume/ion in A,a.u.               =     467.08      3152.02
  Fermi-wavevector in a.u.,A,eV,Ry     =   0.469254  0.886762  2.995997  0.220200
  Thomas-Fermi vector in A             =   1.460690
 
 Write flags
   LWAVE  =      F    write WAVECAR
   LCHARG =      F    write CHGCAR
   LVTOT  =      F    write LOCPOT, total local potential
   LVHAR  =      F    write LOCPOT, Hartree potential only
   LELF   =      F    write electronic localiz. function (ELF)
   LORBIT =      0    0 simple, 1 ext, 2 COOP (PROOUT)


 Dipole corrections
   LMONO  =      F    monopole corrections only (constant potential shift)
   LDIPOL =      F    correct potential (dipole corrections)
   IDIPOL =      0    1-x, 2-y, 3-z, 4-all directions 
   EPSILON=  1.0000000 bulk dielectric constant

 Exchange correlation treatment:
   GGA     =    PE    GGA type
   LEXCH   =     8    internal setting for exchange type
   VOSKOWN=      0    Vosko Wilk Nusair interpolation
   LHFCALC =     F    Hartree Fock is set to
   LHFONE  =     F    Hartree Fock one center treatment
   AEXX    =    0.0000 exact exchange contribution

 Linear response parameters
   LEPSILON=     F    determine dielectric tensor
   LRPA    =     F    only Hartree local field effects (RPA)
   LNABLA  =     F    use nabla operator in PAW spheres
   LVEL    =     F    velocity operator in full k-point grid
   LINTERFAST=   F  fast interpolation
   KINTER  =     0    interpolate to denser k-point grid
   CSHIFT  =0.1000    complex shift for real part using Kramers Kronig
   OMEGAMAX=  -1.0    maximum frequency
   DEG_THRESHOLD= 0.2000000E-02 threshold for treating states as degnerate
   RTIME   =    0.100 relaxation time in fs

 Orbital magnetization related:
   ORBITALMAG=     F  switch on orbital magnetization
   LCHIMAG   =     F  perturbation theory with respect to B field
   DQ        =  0.001000  dq finite difference perturbation B field



--------------------------------------------------------------------------------------------------------


 conjugate gradient relaxation of ions
 charge density and potential will be updated during run
 spin polarized calculation
 Variant of blocked Davidson
 Davidson routine will perform the subspace rotation
 perform sub-space diagonalisation
    after iterative eigenvector-optimisation
 modified Broyden-mixing scheme, WC =      100.0
 initial mixing is a Kerker type mixing with AMIX =  0.4000 and BMIX =      1.0000
 Hartree-type preconditioning will be used
 using additional bands           30
 reciprocal scheme for non local part
 use partial core corrections
 calculate Harris-corrections to forces 
   (improved forces if not selfconsistent)
 use gradient corrections 
 use of overlap-Matrix (Vanderbilt PP)
 Gauss-broadening in eV      SIGMA  =   0.00


--------------------------------------------------------------------------------------------------------


  energy-cutoff  :      249.84
  volume of cell :     7940.38
      direct lattice vectors                 reciprocal lattice vectors
    19.950194418  0.000000000  0.000000000     0.050124825  0.000000000  0.000000000
     0.000000000 19.950194418  0.000000000     0.000000000  0.050124825  0.000000000
     0.000000000  0.000000000 19.950194418     0.000000000  0.000000000  0.050124825

  length of vectors
    19.950194418 19.950194418 19.950194418     0.050124825  0.050124825  0.050124825


 
 k-points in units of 2pi/SCALE and weight: Gamma-point only                        
   0.00000000  0.00000000  0.00000000       1.000
 
 k-points in reciprocal lattice and weights: Gamma-point only                        
   0.00000000  0.00000000  0.00000000       1.000
 
 position of ions in fractional coordinates (direct lattice) 
   0.51097517  0.33291434  0.60000445
   0.60113602  0.43849765  0.57036135
   0.67094808  0.55244938  0.51720323
   0.46667947  0.47017926  0.61401331
   0.38613264  0.36750939  0.55442742
   0.56873868  0.55399156  0.64394297
   0.60784172  0.45904604  0.43015091
   0.49870648  0.39866087  0.47849839
   0.60534417  0.66029668  0.57272857
   0.53137451  0.54569664  0.50763437
   0.44587601  0.60887786  0.58896316
   0.37154823  0.39442569  0.41867724
   0.59467537  0.59010902  0.39096860
   0.53853072  0.69049351  0.46333119
   0.38997494  0.50612983  0.50653534
   0.42647940  0.62178310  0.44448083
   0.47723094  0.50238479  0.38880243
 
 position of ions in cartesian coordinates  (Angst):
  10.19405403  6.64170577 11.97020534
  11.99278040  8.74811345 11.37881990
  13.38554466 11.02147264 10.31830497
   9.31034624  9.38016768 12.24968494
   7.70342119  7.33188376 11.06093492
  11.34644729 11.05223933 12.84678745
  12.12656057  9.15805783  8.58159428
   9.94929120  7.95336187  9.54613593
  12.07673395 13.17304724 11.42604624
  10.60102484 10.88675407 10.12740429
   8.89531305 12.14723164 11.74992953
   7.41245932  7.86886922  8.35269237
  11.86388923 11.77278969  7.79989955
  10.74379250 13.77547976  9.24354731
   7.78007584 10.09738855 10.10547850
   8.50834696 12.40469378  8.86747891
   9.52084998 10.02267430  7.75668415
 


--------------------------------------------------------------------------------------------------------


 use parallel FFT for wavefunctions z direction half grid
 k-point  1 :   0.0000 0.0000 0.0000  plane waves:   35664

 maximum and minimum number of plane-waves per node :      4463     4453

 maximum number of plane-waves:     35664
 maximum index in each direction: 
   IXMAX=   25   IYMAX=   25   IZMAX=   25
   IXMIN=  -25   IYMIN=  -25   IZMIN=    0

 WARNING: aliasing errors must be expected set NGX to 102 to avoid them
 WARNING: aliasing errors must be expected set NGY to 102 to avoid them
 WARNING: aliasing errors must be expected set NGZ to 102 to avoid them
 aliasing errors are usually negligible using standard VASP settings
 and one can safely disregard these warnings

 parallel 3D FFT for wavefunctions:
    minimum data exchange during FFTs selected (reduces bandwidth)
 parallel 3D FFT for charge:
    minimum data exchange during FFTs selected (reduces bandwidth)


 total amount of memory used by VASP on root node    56570. kBytes
========================================================================

   base      :      30000. kBytes
   nonl-proj :       1853. kBytes
   fftplans  :       5772. kBytes
   grid      :      14451. kBytes
   one-center:         46. kBytes
   wavefun   :       4448. kBytes
 
     INWAV:  cpu time    0.00: real time    0.00
 Broyden mixing: mesh for mixing (old mesh)
   NGX = 51   NGY = 51   NGZ = 51
  (NGX  =160   NGY  =160   NGZ  =160)
  gives a total of 132651 points

 initial charge density was supplied:
 charge density of overlapping atoms calculated
 number of electron     187.0000000 magnetization      17.0000000
 keeping initial charge density in first step


--------------------------------------------------------------------------------------------------------


 Maximum index for augmentation-charges          257 (set IRDMAX)


--------------------------------------------------------------------------------------------------------


 First call to EWALD:  gamma=   0.089
 Maximum number of real-space cells 3x 3x 3
 Maximum number of reciprocal cells 3x 3x 3

 FEWALD executed in parallel
    FEWALD:  cpu time    0.00: real time    0.00


----------------------------------------- Iteration    1(   1)  ---------------------------------------


    POTLOK:  cpu time    0.24: real time    0.24
    SETDIJ:  cpu time    0.00: real time    0.01
     EDDAV:  cpu time    1.36: real time    1.36
       DOS:  cpu time    0.00: real time    0.00
    --------------------------------------------
      LOOP:  cpu time    1.60: real time    1.62

 eigenvalue-minimisations  :   496
 total energy-change (2. order) : 0.1660723E+04  (-0.3134313E+04)
 number of electron     187.0000000 magnetization      17.0000000
 augmentation part      187.0000000 magnetization      17.0000000

 Free energy of the ion-electron system (eV)
  ---------------------------------------------------
  alpha Z        PSCENC =        30.95783824
  Ewald energy   TEWEN  =     26519.43837352
  -Hartree energ DENC   =    -43397.64926600
  -exchange      EXHF   =         0.00000000
  -V(xc)+E(xc)   XCENC  =      -187.76988443
  PAW double counting   =     17057.32702718   -16273.49835094
  entropy T*S    EENTRO =         0.00000000
  eigenvalues    EBANDS =       279.54082210
  atomic energy  EATOM  =     17632.37671147
  ---------------------------------------------------
  free energy    TOTEN  =      1660.72327115 eV

  energy without entropy =     1660.72327115  energy(sigma->0) =     1660.72327115


--------------------------------------------------------------------------------------------------------




----------------------------------------- Iteration    1(   2)  ---------------------------------------


     EDDAV:  cpu time    2.23: real time    2.23
       DOS:  cpu time    0.00: real time    0.00
    --------------------------------------------
      LOOP:  cpu time    2.23: real time    2.24

 eigenvalue-minimisations  :   904
 total energy-change (2. order) :-0.1195354E+04  (-0.1054504E+04)
 number of electron     187.0000000 magnetization      17.0000000
 augmentation part      187.0000000 magnetization      17.0000000

 Free energy of the ion-electron system (eV)
  ---------------------------------------------------
  alpha Z        PSCENC =        30.95783824
  Ewald energy   TEWEN  =     26519.43837352
  -Hartree energ DENC   =    -43397.64926600
  -exchange      EXHF   =         0.00000000
  -V(xc)+E(xc)   XCENC  =      -187.76988443
  PAW double counting   =     17057.32702718   -16273.49835094
  entropy T*S    EENTRO =         0.00000000
  eigenvalues    EBANDS =      -915.81321577
  atomic energy  EATOM  =     17632.37671147
  ---------------------------------------------------
  free energy    TOTEN  =       465.36923328 eV

  energy without entropy =      465.36923328  energy(sigma->0) =      465.36923328


--------------------------------------------------------------------------------------------------------




----------------------------------------- Iteration    1(   3)  ---------------------------------------


     EDDAV:  cpu time    1.79: real time    1.79
       DOS:  cpu time    0.00: real time    0.00
    --------------------------------------------
      LOOP:  cpu time    1.80: real time    1.81

 eigenvalue-minimisations  :   688
 total energy-change (2. order) :-0.4641028E+03  (-0.4271528E+03)
 number of electron     187.0000000 magnetization      17.0000000
 augmentation part      187.0000000 magnetization      17.0000000

 Free energy of the ion-electron system (eV)
  ---------------------------------------------------
  alpha Z        PSCENC =        30.95783824
  Ewald energy   TEWEN  =     26519.43837352
  -Hartree energ DENC   =    -43397.64926600
  -exchange      EXHF   =         0.00000000
  -V(xc)+E(xc)   XCENC  =      -187.76988443
  PAW double counting   =     17057.32702718   -16273.49835094
  entropy T*S    EENTRO =         0.00000000
  eigenvalues    EBANDS =     -1379.91598992
  atomic energy  EATOM  =     17632.37671147
  ---------------------------------------------------
  free energy    TOTEN  =         1.26645913 eV

  energy without entropy =        1.26645913  energy(sigma->0) =        1.26645913


--------------------------------------------------------------------------------------------------------




----------------------------------------- Iteration    1(   4)  ---------------------------------------


     EDDAV:  cpu time    1.53: real time    1.53
       DOS:  cpu time    0.00: real time    0.00
    --------------------------------------------
      LOOP:  cpu time    1.53: real time    1.53

 eigenvalue-minimisations  :   560
 total energy-change (2. order) :-0.3344309E+02  (-0.3275531E+02)
 number of electron     187.0000000 magnetization      17.0000000
 augmentation part      187.0000000 magnetization      17.0000000

 Free energy of the ion-electron system (eV)
  ---------------------------------------------------
  alpha Z        PSCENC =        30.95783824
  Ewald energy   TEWEN  =     26519.43837352
  -Hartree energ DENC   =    -43397.64926600
  -exchange      EXHF   =         0.00000000
  -V(xc)+E(xc)   XCENC  =      -187.76988443
  PAW double counting   =     17057.32702718   -16273.49835094
  entropy T*S    EENTRO =         0.00000000
  eigenvalues    EBANDS =     -1413.35908113
  atomic energy  EATOM  =     17632.37671147
  ---------------------------------------------------
  free energy    TOTEN  =       -32.17663208 eV

  energy without entropy =      -32.17663208  energy(sigma->0) =      -32.17663208


--------------------------------------------------------------------------------------------------------




----------------------------------------- Iteration    1(   5)  ---------------------------------------


     EDDAV:  cpu time    1.49: real time    1.49
       DOS:  cpu time    0.00: real time    0.00
    CHARGE:  cpu time    0.07: real time    0.07
    MIXING:  cpu time    0.01: real time    0.01
    --------------------------------------------
      LOOP:  cpu time    1.57: real time    1.58

 eigenvalue-minimisations  :   544
 total energy-change (2. order) :-0.4953274E+00  (-0.4947700E+00)
 number of electron     187.0000137 magnetization      14.6898888
 augmentation part       88.1753599 magnetization      14.0696959

 Broyden mixing:
  rms(total) = 0.23608E+01    rms(broyden)= 0.23604E+01
  rms(prec ) = 0.24080E+01
  weight for this iteration     100.00

 Free energy of the ion-electron system (eV)
  ---------------------------------------------------
  alpha Z        PSCENC =        30.95783824
  Ewald energy   TEWEN  =     26519.43837352
  -Hartree energ DENC   =    -43397.64926600
  -exchange      EXHF   =         0.00000000
  -V(xc)+E(xc)   XCENC  =      -187.76988443
  PAW double counting   =     17057.32702718   -16273.49835094
  entropy T*S    EENTRO =         0.00000000
  eigenvalues    EBANDS =     -1413.85440849
  atomic energy  EATOM  =     17632.37671147
  ---------------------------------------------------
  free energy    TOTEN  =       -32.67195944 eV

  energy without entropy =      -32.67195944  energy(sigma->0) =      -32.67195944


--------------------------------------------------------------------------------------------------------




----------------------------------------- Iteration    1(   6)  ---------------------------------------


    POTLOK:  cpu time    0.22: real time    0.23
    SETDIJ:  cpu time    0.01: real time    0.01
     EDDAV:  cpu time    1.41: real time    1.41
       DOS:  cpu time    0.00: real time    0.00
    CHARGE:  cpu time    0.07: real time    0.07
    MIXING:  cpu time    0.01: real time    0.01
    --------------------------------------------
      LOOP:  cpu time    1.72: real time    1.73

 eigenvalue-minimisations  :   504
 total energy-change (2. order) : 0.2266281E+02  (-0.7009623E+01)
 number of electron     187.0000139 magnetization      13.3738967
 augmentation part       90.0645459 magnetization       7.1669456

 Broyden mixing:
  rms(total) = 0.11805E+01    rms(broyden)= 0.11804E+01
  rms(prec ) = 0.11990E+01
  weight for this iteration     100.00

 eigenvalues of (default mixing * dielectric matrix)
  average eigenvalue GAMMA=   0.8518
  0.8518

 Free energy of the ion-electron system (eV)
  ---------------------------------------------------
  alpha Z        PSCENC =        30.95783824
  Ewald energy   TEWEN  =     26519.43837352
  -Hartree energ DENC   =    -43337.95237736
  -exchange      EXHF   =         0.00000000
  -V(xc)+E(xc)   XCENC  =      -176.24047750
  PAW double counting   =     17602.91643403   -16830.66667009
  entropy T*S    EENTRO =         0.00000000
  eigenvalues    EBANDS =     -1450.83897721
  atomic energy  EATOM  =     17632.37671147
  ---------------------------------------------------
  free energy    TOTEN  =       -10.00914490 eV

  energy without entropy =      -10.00914490  energy(sigma->0) =      -10.00914490


--------------------------------------------------------------------------------------------------------




----------------------------------------- Iteration    1(   7)  ---------------------------------------


    POTLOK:  cpu time    0.22: real time    0.23
    SETDIJ:  cpu time    0.01: real time    0.01
     EDDAV:  cpu time    1.44: real time    1.44
       DOS:  cpu time    0.00: real time    0.00
    CHARGE:  cpu time    0.07: real time    0.07
    MIXING:  cpu time    0.01: real time    0.01
    --------------------------------------------
      LOOP:  cpu time    1.76: real time    1.76

 eigenvalue-minimisations  :   520
 total energy-change (2. order) : 0.9479833E+00  (-0.3345841E+00)
 number of electron     187.0000139 magnetization      11.4320724
 augmentation part       89.9887476 magnetization       5.4290328

 Broyden mixing:
  rms(total) = 0.66511E+00    rms(broyden)= 0.66510E+00
  rms(prec ) = 0.67455E+00
  weight for this iteration     100.00

 eigenvalues of (default mixing * dielectric matrix)
  average eigenvalue GAMMA=   1.0112
  0.7646  1.2578

 Free energy of the ion-electron system (eV)
  ---------------------------------------------------
  alpha Z        PSCENC =        30.95783824
  Ewald energy   TEWEN  =     26519.43837352
  -Hartree energ DENC   =    -43372.54678612
  -exchange      EXHF   =         0.00000000
  -V(xc)+E(xc)   XCENC  =      -175.23075116
  PAW double counting   =     17938.42951993   -17173.54370640
  entropy T*S    EENTRO =         0.00000000
  eigenvalues    EBANDS =     -1408.94236112
  atomic energy  EATOM  =     17632.37671147
  ---------------------------------------------------
  free energy    TOTEN  =        -9.06116164 eV

  energy without entropy =       -9.06116164  energy(sigma->0) =       -9.06116164


--------------------------------------------------------------------------------------------------------




----------------------------------------- Iteration    1(   8)  ---------------------------------------


    POTLOK:  cpu time    0.23: real time    0.23
    SETDIJ:  cpu time    0.01: real time    0.01
     EDDAV:  cpu time    1.46: real time    1.46
       DOS:  cpu time    0.00: real time    0.00
    CHARGE:  cpu time    0.07: real time    0.07
    MIXING:  cpu time    0.01: real time    0.01
    --------------------------------------------
      LOOP:  cpu time    1.78: real time    2.25

 eigenvalue-minimisations  :   528
 total energy-change (2. order) :-0.1790898E+01  (-0.1488834E+00)
 number of electron     187.0000138 magnetization      10.2050111
 augmentation part       89.8908434 magnetization       4.3461110

 Broyden mixing:
  rms(total) = 0.32710E+00    rms(broyden)= 0.32709E+00
  rms(prec ) = 0.33027E+00
  weight for this iteration     100.00

 eigenvalues of (default mixing * dielectric matrix)
  average eigenvalue GAMMA=   1.2236
  2.1553  0.8952  0.6205

 Free energy of the ion-electron system (eV)
  ---------------------------------------------------
  alpha Z        PSCENC =        30.95783824
  Ewald energy   TEWEN  =     26519.43837352
  -Hartree energ DENC   =    -43406.85022153
  -exchange      EXHF   =         0.00000000
  -V(xc)+E(xc)   XCENC  =      -176.38960282
  PAW double counting   =     18310.43954885   -17552.89814526
  entropy T*S    EENTRO =        -0.00000000
  eigenvalues    EBANDS =     -1367.92656186
  atomic energy  EATOM  =     17632.37671147
  ---------------------------------------------------
  free energy    TOTEN  =       -10.85205938 eV

  energy without entropy =      -10.85205938  energy(sigma->0) =      -10.85205938


--------------------------------------------------------------------------------------------------------




----------------------------------------- Iteration    1(   9)  ---------------------------------------


    POTLOK:  cpu time    0.22: real time    0.23
    SETDIJ:  cpu time    0.01: real time    0.01
     EDDAV:  cpu time    1.49: real time    1.49
       DOS:  cpu time    0.00: real time    0.00
    CHARGE:  cpu time    0.07: real time    0.07
    MIXING:  cpu time    0.01: real time    0.01
    --------------------------------------------
      LOOP:  cpu time    1.80: real time    1.80

 eigenvalue-minimisations  :   540
 total energy-change (2. order) :-0.2798053E+01  (-0.6022777E-01)
 number of electron     187.0000138 magnetization       9.0671626
 augmentation part       89.8616767 magnetization       3.3191732

 Broyden mixing:
  rms(total) = 0.17445E+00    rms(broyden)= 0.17444E+00
  rms(prec ) = 0.17839E+00
  weight for this iteration     100.00

 eigenvalues of (default mixing * dielectric matrix)
  average eigenvalue GAMMA=   1.2003
  2.2009  0.6199  0.7983  1.1821

 Free energy of the ion-electron system (eV)
  ---------------------------------------------------
  alpha Z        PSCENC =        30.95783824
  Ewald energy   TEWEN  =     26519.43837352
  -Hartree energ DENC   =    -43416.24587131
  -exchange      EXHF   =         0.00000000
  -V(xc)+E(xc)   XCENC  =      -178.57110862
  PAW double counting   =     18434.66027048   -17679.57649092
  entropy T*S    EENTRO =         0.00000000
  eigenvalues    EBANDS =     -1356.68983535
  atomic energy  EATOM  =     17632.37671147
  ---------------------------------------------------
  free energy    TOTEN  =       -13.65011248 eV

  energy without entropy =      -13.65011248  energy(sigma->0) =      -13.65011248


--------------------------------------------------------------------------------------------------------




----------------------------------------- Iteration    1(  10)  ---------------------------------------


    POTLOK:  cpu time    0.23: real time    0.23
    SETDIJ:  cpu time    0.01: real time    0.01
     EDDAV:  cpu time    1.41: real time    1.41
       DOS:  cpu time    0.00: real time    0.00
    CHARGE:  cpu time    0.07: real time    0.07
    MIXING:  cpu time    0.01: real time    0.01
    --------------------------------------------
      LOOP:  cpu time    1.72: real time    1.73

 eigenvalue-minimisations  :   504
 total energy-change (2. order) :-0.5331146E+01  (-0.1502954E+00)
 number of electron     187.0000138 magnetization       8.9917923
 augmentation part       89.8591155 magnetization       5.3861248

 Broyden mixing:
  rms(total) = 0.24338E+00    rms(broyden)= 0.24323E+00
  rms(prec ) = 0.25971E+00
  weight for this iteration     100.00

 eigenvalues of (default mixing * dielectric matrix)
  average eigenvalue GAMMA=   0.9961
  2.2194  1.2213  0.6201  0.8085  0.1113

 Free energy of the ion-electron system (eV)
  ---------------------------------------------------
  alpha Z        PSCENC =        30.95783824
  Ewald energy   TEWEN  =     26519.43837352
  -Hartree energ DENC   =    -43414.18091235
  -exchange      EXHF   =         0.00000000
  -V(xc)+E(xc)   XCENC  =      -182.69946262
  PAW double counting   =     18439.50063790   -17684.72087844
  entropy T*S    EENTRO =         0.00000000
  eigenvalues    EBANDS =     -1359.65356588
  atomic energy  EATOM  =     17632.37671147
  ---------------------------------------------------
  free energy    TOTEN  =       -18.98125815 eV

  energy without entropy =      -18.98125815  energy(sigma->0) =      -18.98125815


--------------------------------------------------------------------------------------------------------




----------------------------------------- Iteration    1(  11)  ---------------------------------------


    POTLOK:  cpu time    0.23: real time    0.23
    SETDIJ:  cpu time    0.00: real time    0.01
     EDDAV:  cpu time    1.64: real time    1.64
       DOS:  cpu time    0.00: real time    0.00
    CHARGE:  cpu time    0.07: real time    0.07
    MIXING:  cpu time    0.01: real time    0.01
    --------------------------------------------
      LOOP:  cpu time    1.95: real time    2.75

 eigenvalue-minimisations  :   612
 total energy-change (2. order) :-0.3660080E-02  (-0.2549440E-02)
 number of electron     187.0000138 magnetization       8.9785522
 augmentation part       89.8479740 magnetization       5.3934023

 Broyden mixing:
  rms(total) = 0.23525E+00    rms(broyden)= 0.23525E+00
  rms(prec ) = 0.25130E+00
  weight for this iteration     100.00

 eigenvalues of (default mixing * dielectric matrix)
  average eigenvalue GAMMA=   0.8628
  2.2270  1.2200  0.6201  0.8109  0.1793  0.1196

 Free energy of the ion-electron system (eV)
  ---------------------------------------------------
  alpha Z        PSCENC =        30.95783824
  Ewald energy   TEWEN  =     26519.43837352
  -Hartree energ DENC   =    -43414.47334735
  -exchange      EXHF   =         0.00000000
  -V(xc)+E(xc)   XCENC  =      -182.67720058
  PAW double counting   =     18440.52386239   -17685.77973653
  entropy T*S    EENTRO =         0.00000000
  eigenvalues    EBANDS =     -1359.35141940
  atomic energy  EATOM  =     17632.37671147
  ---------------------------------------------------
  free energy    TOTEN  =       -18.98491823 eV

  energy without entropy =      -18.98491823  energy(sigma->0) =      -18.98491823


--------------------------------------------------------------------------------------------------------




----------------------------------------- Iteration    1(  12)  ---------------------------------------


    POTLOK:  cpu time    0.23: real time    0.23
    SETDIJ:  cpu time    0.00: real time    0.01
     EDDAV:  cpu time    1.35: real time    1.35
       DOS:  cpu time    0.00: real time    0.00
    CHARGE:  cpu time    0.07: real time    0.07
    MIXING:  cpu time    0.01: real time    0.01
    --------------------------------------------
      LOOP:  cpu time    1.66: real time    1.91

 eigenvalue-minimisations  :   472
 total energy-change (2. order) :-0.4337495E-02  (-0.6770470E-04)
 number of electron     187.0000138 magnetization       7.3173912
 augmentation part       89.8486210 magnetization       3.7344011

 Broyden mixing:
  rms(total) = 0.23414E+00    rms(broyden)= 0.23414E+00
  rms(prec ) = 0.25006E+00
  weight for this iteration     100.00

 eigenvalues of (default mixing * dielectric matrix)
  average eigenvalue GAMMA=   1.0564
  2.3462  1.0216  1.0216  1.2023  0.7780  0.6152  0.4097

 Free energy of the ion-electron system (eV)
  ---------------------------------------------------
  alpha Z        PSCENC =        30.95783824
  Ewald energy   TEWEN  =     26519.43837352
  -Hartree energ DENC   =    -43414.41617246
  -exchange      EXHF   =         0.00000000
  -V(xc)+E(xc)   XCENC  =      -182.67609378
  PAW double counting   =     18439.41987621   -17684.67222245
  entropy T*S    EENTRO =         0.00000000
  eigenvalues    EBANDS =     -1359.41756650
  atomic energy  EATOM  =     17632.37671147
  ---------------------------------------------------
  free energy    TOTEN  =       -18.98925573 eV

  energy without entropy =      -18.98925573  energy(sigma->0) =      -18.98925573


--------------------------------------------------------------------------------------------------------




----------------------------------------- Iteration    1(  13)  ---------------------------------------


    POTLOK:  cpu time    0.23: real time    0.23
    SETDIJ:  cpu time    0.00: real time    0.01
     EDDAV:  cpu time    1.42: real time    1.42
       DOS:  cpu time    0.00: real time    0.00
    CHARGE:  cpu time    0.07: real time    0.07
    MIXING:  cpu time    0.01: real time    0.01
    --------------------------------------------
      LOOP:  cpu time    1.74: real time    3.39

 eigenvalue-minimisations  :   508
 total energy-change (2. order) :-0.4022578E+01  (-0.1759885E+00)
 number of electron     187.0000139 magnetization       5.6350515
 augmentation part       89.8560178 magnetization       2.2448499

 Broyden mixing:
  rms(total) = 0.15477E+00    rms(broyden)= 0.15477E+00
  rms(prec ) = 0.15998E+00
  weight for this iteration     100.00

 eigenvalues of (default mixing * dielectric matrix)
  average eigenvalue GAMMA=   1.1199
  2.4904  1.6508  1.6508  0.9567  0.6480  0.5748  0.5748  0.4130

 Free energy of the ion-electron system (eV)
  ---------------------------------------------------
  alpha Z        PSCENC =        30.95783824
  Ewald energy   TEWEN  =     26519.43837352
  -Hartree energ DENC   =    -43413.88842206
  -exchange      EXHF   =         0.00000000
  -V(xc)+E(xc)   XCENC  =      -185.79154290
  PAW double counting   =     18339.99727631   -17585.63228635
  entropy T*S    EENTRO =         0.00000000
  eigenvalues    EBANDS =     -1360.46978188
  atomic energy  EATOM  =     17632.37671147
  ---------------------------------------------------
  free energy    TOTEN  =       -23.01183365 eV

  energy without entropy =      -23.01183365  energy(sigma->0) =      -23.01183365


--------------------------------------------------------------------------------------------------------




----------------------------------------- Iteration    1(  14)  ---------------------------------------


    POTLOK:  cpu time    0.23: real time    0.23
    SETDIJ:  cpu time    0.01: real time    0.01
     EDDAV:  cpu time    1.43: real time    1.43
       DOS:  cpu time    0.00: real time    0.00
    CHARGE:  cpu time    0.07: real time    0.07
    MIXING:  cpu time    0.01: real time    0.01
    --------------------------------------------
      LOOP:  cpu time    1.75: real time    2.39

 eigenvalue-minimisations  :   512
 total energy-change (2. order) :-0.3476618E+01  (-0.1233995E+00)
 number of electron     187.0000140 magnetization       5.5005660
 augmentation part       89.8692774 magnetization       4.2234121

 Broyden mixing:
  rms(total) = 0.22110E+00    rms(broyden)= 0.22093E+00
  rms(prec ) = 0.23495E+00
  weight for this iteration     100.00

 eigenvalues of (default mixing * dielectric matrix)
  average eigenvalue GAMMA=   1.0134
  2.6860  1.5772  1.5772  0.9732  0.6539  0.5593  0.5593  0.4217  0.1128

 Free energy of the ion-electron system (eV)
  ---------------------------------------------------
  alpha Z        PSCENC =        30.95783824
  Ewald energy   TEWEN  =     26519.43837352
  -Hartree energ DENC   =    -43411.21281226
  -exchange      EXHF   =         0.00000000
  -V(xc)+E(xc)   XCENC  =      -188.66003480
  PAW double counting   =     18272.51097287   -17518.20403814
  entropy T*S    EENTRO =         0.00000000
  eigenvalues    EBANDS =     -1363.69546227
  atomic energy  EATOM  =     17632.37671147
  ---------------------------------------------------
  free energy    TOTEN  =       -26.48845137 eV

  energy without entropy =      -26.48845137  energy(sigma->0) =      -26.48845137


--------------------------------------------------------------------------------------------------------




----------------------------------------- Iteration    1(  15)  ---------------------------------------


    POTLOK:  cpu time    0.23: real time    0.23
    SETDIJ:  cpu time    0.01: real time    0.01
     EDDAV:  cpu time    1.58: real time    1.58
       DOS:  cpu time    0.00: real time    0.00
    CHARGE:  cpu time    0.07: real time    0.07
    MIXING:  cpu time    0.01: real time    0.01
    --------------------------------------------
      LOOP:  cpu time    1.90: real time    1.90

 eigenvalue-minimisations  :   584
 total energy-change (2. order) :-0.6887817E-01  (-0.2974148E-02)
 number of electron     187.0000139 magnetization       4.8460394
 augmentation part       89.8620010 magnetization       3.5869579

 Broyden mixing:
  rms(total) = 0.20781E+00    rms(broyden)= 0.20781E+00
  rms(prec ) = 0.22205E+00
  weight for this iteration     100.00

 eigenvalues of (default mixing * dielectric matrix)
  average eigenvalue GAMMA=   1.0385
  3.1186  1.9997  1.3059  0.9073  0.6419  0.6101  0.6101  0.3999  0.3958  0.3958

 Free energy of the ion-electron system (eV)
  ---------------------------------------------------
  alpha Z        PSCENC =        30.95783824
  Ewald energy   TEWEN  =     26519.43837352
  -Hartree energ DENC   =    -43411.41005724
  -exchange      EXHF   =         0.00000000
  -V(xc)+E(xc)   XCENC  =      -188.70963757
  PAW double counting   =     18271.63132868   -17517.36752731
  entropy T*S    EENTRO =         0.00000000
  eigenvalues    EBANDS =     -1363.47435934
  atomic energy  EATOM  =     17632.37671147
  ---------------------------------------------------
  free energy    TOTEN  =       -26.55732954 eV

  energy without entropy =      -26.55732954  energy(sigma->0) =      -26.55732954


--------------------------------------------------------------------------------------------------------




----------------------------------------- Iteration    1(  16)  ---------------------------------------


    POTLOK:  cpu time    0.23: real time    0.23
    SETDIJ:  cpu time    0.00: real time    0.01
     EDDAV:  cpu time    1.46: real time    1.46
       DOS:  cpu time    0.00: real time    0.00
    CHARGE:  cpu time    0.07: real time    0.07
    MIXING:  cpu time    0.01: real time    0.01
    --------------------------------------------
      LOOP:  cpu time    1.78: real time    1.78

 eigenvalue-minimisations  :   528
 total energy-change (2. order) :-0.9067839E+00  (-0.1226906E-01)
 number of electron     187.0000139 magnetization       3.7570221
 augmentation part       89.8755150 magnetization       2.5461845

 Broyden mixing:
  rms(total) = 0.18620E+00    rms(broyden)= 0.18620E+00
  rms(prec ) = 0.19899E+00
  weight for this iteration     100.00

 eigenvalues of (default mixing * dielectric matrix)
  average eigenvalue GAMMA=   1.1778
  4.2989  1.9166  1.3554  0.9950  0.9950  0.8944  0.4826  0.4826  0.6436  0.4896
  0.4023

 Free energy of the ion-electron system (eV)
  ---------------------------------------------------
  alpha Z        PSCENC =        30.95783824
  Ewald energy   TEWEN  =     26519.43837352
  -Hartree energ DENC   =    -43410.86936015
  -exchange      EXHF   =         0.00000000
  -V(xc)+E(xc)   XCENC  =      -189.45423423
  PAW double counting   =     18270.80763924   -17516.52026826
  entropy T*S    EENTRO =         0.00000000
  eigenvalues    EBANDS =     -1364.20081330
  atomic energy  EATOM  =     17632.37671147
  ---------------------------------------------------
  free energy    TOTEN  =       -27.46411347 eV

  energy without entropy =      -27.46411347  energy(sigma->0) =      -27.46411347


--------------------------------------------------------------------------------------------------------




----------------------------------------- Iteration    1(  17)  ---------------------------------------


    POTLOK:  cpu time    0.23: real time    0.23
    SETDIJ:  cpu time    0.00: real time    0.01
     EDDAV:  cpu time    1.43: real time    1.43
       DOS:  cpu time    0.00: real time    0.00
    CHARGE:  cpu time    0.07: real time    0.07
    MIXING:  cpu time    0.01: real time    0.01
    --------------------------------------------
      LOOP:  cpu time    1.75: real time    1.75

 eigenvalue-minimisations  :   512
 total energy-change (2. order) :-0.1741972E+01  (-0.5515265E-01)
 number of electron     187.0000139 magnetization       2.2685215
 augmentation part       89.8366464 magnetization       1.1145594

 Broyden mixing:
  rms(total) = 0.11812E+00    rms(broyden)= 0.11812E+00
  rms(prec ) = 0.12538E+00
  weight for this iteration     100.00

 eigenvalues of (default mixing * dielectric matrix)
  average eigenvalue GAMMA=   1.3445
  6.0878  2.1043  1.2741  1.2741  1.0840  1.0840  0.6545  0.6545  0.6147  0.4507
  0.4507  0.4012

 Free energy of the ion-electron system (eV)
  ---------------------------------------------------
  alpha Z        PSCENC =        30.95783824
  Ewald energy   TEWEN  =     26519.43837352
  -Hartree energ DENC   =    -43413.77162911
  -exchange      EXHF   =         0.00000000
  -V(xc)+E(xc)   XCENC  =      -190.80034289
  PAW double counting   =     18343.04732171   -17588.82438605
  entropy T*S    EENTRO =         0.00000000
  eigenvalues    EBANDS =     -1361.62997228
  atomic energy  EATOM  =     17632.37671147
  ---------------------------------------------------
  free energy    TOTEN  =       -29.20608539 eV

  energy without entropy =      -29.20608539  energy(sigma->0) =      -29.20608539


--------------------------------------------------------------------------------------------------------




----------------------------------------- Iteration    1(  18)  ---------------------------------------


    POTLOK:  cpu time    0.23: real time    0.23
    SETDIJ:  cpu time    0.00: real time    0.01
     EDDAV:  cpu time    1.46: real time    1.46
       DOS:  cpu time    0.00: real time    0.00
    CHARGE:  cpu time    0.07: real time    0.07
    MIXING:  cpu time    0.01: real time    0.01
    --------------------------------------------
      LOOP:  cpu time    1.78: real time    1.79

 eigenvalue-minimisations  :   528
 total energy-change (2. order) :-0.1393372E+01  (-0.4333195E-01)
 number of electron     187.0000139 magnetization       1.7343031
 augmentation part       89.8464912 magnetization       0.6645586

 Broyden mixing:
  rms(total) = 0.67332E-01    rms(broyden)= 0.67321E-01
  rms(prec ) = 0.70341E-01
  weight for this iteration     100.00

 eigenvalues of (default mixing * dielectric matrix)
  average eigenvalue GAMMA=   1.3747
  6.8379  1.7803  1.7803  1.2652  1.2652  0.8755  0.7873  0.7873  0.4560  0.4560
  0.6322  0.5450  0.4035

 Free energy of the ion-electron system (eV)
  ---------------------------------------------------
  alpha Z        PSCENC =        30.95783824
  Ewald energy   TEWEN  =     26519.43837352
  -Hartree energ DENC   =    -43411.19317937
  -exchange      EXHF   =         0.00000000
  -V(xc)+E(xc)   XCENC  =      -192.05407483
  PAW double counting   =     18375.05544819   -17620.57890079
  entropy T*S    EENTRO =         0.00000000
  eigenvalues    EBANDS =     -1364.60167378
  atomic energy  EATOM  =     17632.37671147
  ---------------------------------------------------
  free energy    TOTEN  =       -30.59945736 eV

  energy without entropy =      -30.59945736  energy(sigma->0) =      -30.59945736


--------------------------------------------------------------------------------------------------------




----------------------------------------- Iteration    1(  19)  ---------------------------------------


    POTLOK:  cpu time    0.23: real time    0.23
    SETDIJ:  cpu time    0.01: real time    0.01
     EDDAV:  cpu time    1.46: real time    1.47
       DOS:  cpu time    0.00: real time    0.00
    CHARGE:  cpu time    0.07: real time    0.07
    MIXING:  cpu time    0.01: real time    0.01
    --------------------------------------------
      LOOP:  cpu time    1.78: real time    1.79

 eigenvalue-minimisations  :   528
 total energy-change (2. order) :-0.5369045E+00  (-0.7836795E-02)
 number of electron     187.0000139 magnetization       1.1132091
 augmentation part       89.8300848 magnetization       0.0648854

 Broyden mixing:
  rms(total) = 0.45647E-01    rms(broyden)= 0.45641E-01
  rms(prec ) = 0.48429E-01
  weight for this iteration     100.00

 eigenvalues of (default mixing * dielectric matrix)
  average eigenvalue GAMMA=   1.4931
  7.7644  2.1116  2.1116  1.2373  1.2373  1.2717  1.1569  0.4551  0.4551  0.7584
  0.6711  0.6711  0.6006  0.4019

 Free energy of the ion-electron system (eV)
  ---------------------------------------------------
  alpha Z        PSCENC =        30.95783824
  Ewald energy   TEWEN  =     26519.43837352
  -Hartree energ DENC   =    -43409.62176991
  -exchange      EXHF   =         0.00000000
  -V(xc)+E(xc)   XCENC  =      -192.55005849
  PAW double counting   =     18382.42324008   -17627.92871378
  entropy T*S    EENTRO =         0.00000000
  eigenvalues    EBANDS =     -1366.23198300
  atomic energy  EATOM  =     17632.37671147
  ---------------------------------------------------
  free energy    TOTEN  =       -31.13636186 eV

  energy without entropy =      -31.13636186  energy(sigma->0) =      -31.13636186


--------------------------------------------------------------------------------------------------------




----------------------------------------- Iteration    1(  20)  ---------------------------------------


    POTLOK:  cpu time    0.23: real time    0.23
    SETDIJ:  cpu time    0.01: real time    0.01
     EDDAV:  cpu time    1.44: real time    1.44
       DOS:  cpu time    0.00: real time    0.00
    CHARGE:  cpu time    0.07: real time    0.07
    MIXING:  cpu time    0.01: real time    0.01
    --------------------------------------------
      LOOP:  cpu time    1.76: real time    2.15

 eigenvalue-minimisations  :   512
 total energy-change (2. order) :-0.6674271E+00  (-0.6837498E-02)
 number of electron     187.0000139 magnetization       0.9565308
 augmentation part       89.8355571 magnetization      -0.0724752

 Broyden mixing:
  rms(total) = 0.32214E-01    rms(broyden)= 0.32208E-01
  rms(prec ) = 0.35088E-01
  weight for this iteration     100.00

 eigenvalues of (default mixing * dielectric matrix)
  average eigenvalue GAMMA=   1.5641
  8.4513  2.7860  1.9730  1.9730  1.2329  1.2329  0.4553  0.4553  0.8950  0.8950
  0.7965  0.4023  0.6855  0.6328  0.5947

 Free energy of the ion-electron system (eV)
  ---------------------------------------------------
  alpha Z        PSCENC =        30.95783824
  Ewald energy   TEWEN  =     26519.43837352
  -Hartree energ DENC   =    -43403.20909935
  -exchange      EXHF   =         0.00000000
  -V(xc)+E(xc)   XCENC  =      -193.26517715
  PAW double counting   =     18357.94936195   -17603.20054607
  entropy T*S    EENTRO =         0.00000000
  eigenvalues    EBANDS =     -1372.85125155
  atomic energy  EATOM  =     17632.37671147
  ---------------------------------------------------
  free energy    TOTEN  =       -31.80378894 eV

  energy without entropy =      -31.80378894  energy(sigma->0) =      -31.80378894


--------------------------------------------------------------------------------------------------------




----------------------------------------- Iteration    1(  21)  ---------------------------------------


    POTLOK:  cpu time    0.23: real time    0.23
    SETDIJ:  cpu time    0.01: real time    0.01
     EDDAV:  cpu time    1.49: real time    1.49
       DOS:  cpu time    0.00: real time    0.00
    CHARGE:  cpu time    0.07: real time    0.07
    MIXING:  cpu time    0.02: real time    0.01
    --------------------------------------------
      LOOP:  cpu time    1.81: real time    1.81

 eigenvalue-minimisations  :   536
 total energy-change (2. order) :-0.2108493E+00  (-0.8855249E-03)
 number of electron     187.0000139 magnetization       0.9501398
 augmentation part       89.8336599 magnetization      -0.0774055

 Broyden mixing:
  rms(total) = 0.26472E-01    rms(broyden)= 0.26471E-01
  rms(prec ) = 0.29107E-01
  weight for this iteration     100.00

 eigenvalues of (default mixing * dielectric matrix)
  average eigenvalue GAMMA=   1.5446
  8.5026  3.0688  1.9702  1.9702  1.2175  1.2175  1.0364  1.0364  0.4555  0.4555
  0.8182  0.4021  0.6667  0.6667  0.6583  0.5708

 Free energy of the ion-electron system (eV)
  ---------------------------------------------------
  alpha Z        PSCENC =        30.95783824
  Ewald energy   TEWEN  =     26519.43837352
  -Hartree energ DENC   =    -43399.57434496
  -exchange      EXHF   =         0.00000000
  -V(xc)+E(xc)   XCENC  =      -193.50177873
  PAW double counting   =     18349.92930357   -17595.11322278
  entropy T*S    EENTRO =         0.00000000
  eigenvalues    EBANDS =     -1376.52751860
  atomic energy  EATOM  =     17632.37671147
  ---------------------------------------------------
  free energy    TOTEN  =       -32.01463826 eV

  energy without entropy =      -32.01463826  energy(sigma->0) =      -32.01463826


--------------------------------------------------------------------------------------------------------




----------------------------------------- Iteration    1(  22)  ---------------------------------------


    POTLOK:  cpu time    0.23: real time    0.23
    SETDIJ:  cpu time    0.01: real time    0.01
     EDDAV:  cpu time    1.46: real time    1.46
       DOS:  cpu time    0.00: real time    0.00
    CHARGE:  cpu time    0.07: real time    0.07
    MIXING:  cpu time    0.01: real time    0.01
    --------------------------------------------
      LOOP:  cpu time    1.78: real time    1.80

 eigenvalue-minimisations  :   520
 total energy-change (2. order) :-0.6487228E-01  (-0.2392056E-03)
 number of electron     187.0000139 magnetization       0.9893226
 augmentation part       89.8352582 magnetization      -0.0402650

 Broyden mixing:
  rms(total) = 0.19632E-01    rms(broyden)= 0.19632E-01
  rms(prec ) = 0.21698E-01
  weight for this iteration     100.00

 eigenvalues of (default mixing * dielectric matrix)
  average eigenvalue GAMMA=   1.5528
  8.2529  3.5511  2.0348  1.6289  1.6289  1.2073  1.2073  1.3136  0.9447  0.4554
  0.4554  0.7293  0.7293  0.6661  0.5949  0.5949  0.4022

 Free energy of the ion-electron system (eV)
  ---------------------------------------------------
  alpha Z        PSCENC =        30.95783824
  Ewald energy   TEWEN  =     26519.43837352
  -Hartree energ DENC   =    -43397.18966097
  -exchange      EXHF   =         0.00000000
  -V(xc)+E(xc)   XCENC  =      -193.58431204
  PAW double counting   =     18349.83802242   -17595.01614215
  entropy T*S    EENTRO =         0.00000000
  eigenvalues    EBANDS =     -1378.90034104
  atomic energy  EATOM  =     17632.37671147
  ---------------------------------------------------
  free energy    TOTEN  =       -32.07951054 eV

  energy without entropy =      -32.07951054  energy(sigma->0) =      -32.07951054


--------------------------------------------------------------------------------------------------------




----------------------------------------- Iteration    1(  23)  ---------------------------------------


    POTLOK:  cpu time    0.23: real time    0.23
    SETDIJ:  cpu time    0.00: real time    0.01
     EDDAV:  cpu time    1.47: real time    1.47
       DOS:  cpu time    0.00: real time    0.00
    CHARGE:  cpu time    0.07: real time    0.07
    MIXING:  cpu time    0.02: real time    0.01
    --------------------------------------------
      LOOP:  cpu time    1.80: real time    1.81

 eigenvalue-minimisations  :   528
 total energy-change (2. order) :-0.4555185E-01  (-0.2764446E-03)
 number of electron     187.0000139 magnetization       1.0247146
 augmentation part       89.8365988 magnetization      -0.0106251

 Broyden mixing:
  rms(total) = 0.11475E-01    rms(broyden)= 0.11474E-01
  rms(prec ) = 0.12746E-01
  weight for this iteration     100.00

 eigenvalues of (default mixing * dielectric matrix)
  average eigenvalue GAMMA=   1.5706
  8.0649  4.1051  2.0145  2.0145  1.6660  1.6660  1.2050  1.2050  0.4554  0.4554
  0.8772  0.7920  0.7920  0.4022  0.6797  0.6797  0.5772  0.6182

 Free energy of the ion-electron system (eV)
  ---------------------------------------------------
  alpha Z        PSCENC =        30.95783824
  Ewald energy   TEWEN  =     26519.43837352
  -Hartree energ DENC   =    -43394.10361080
  -exchange      EXHF   =         0.00000000
  -V(xc)+E(xc)   XCENC  =      -193.65120171
  PAW double counting   =     18355.01825858   -17600.18080617
  entropy T*S    EENTRO =         0.00000000
  eigenvalues    EBANDS =     -1381.98062551
  atomic energy  EATOM  =     17632.37671147
  ---------------------------------------------------
  free energy    TOTEN  =       -32.12506239 eV

  energy without entropy =      -32.12506239  energy(sigma->0) =      -32.12506239


--------------------------------------------------------------------------------------------------------




----------------------------------------- Iteration    1(  24)  ---------------------------------------


    POTLOK:  cpu time    0.23: real time    0.23
    SETDIJ:  cpu time    0.01: real time    0.01
     EDDAV:  cpu time    1.36: real time    1.36
       DOS:  cpu time    0.00: real time    0.00
    CHARGE:  cpu time    0.07: real time    0.07
    MIXING:  cpu time    0.02: real time    0.01
    --------------------------------------------
      LOOP:  cpu time    1.68: real time    1.75

 eigenvalue-minimisations  :   472
 total energy-change (2. order) :-0.1239519E-01  (-0.7591351E-04)
 number of electron     187.0000139 magnetization       1.0865570
 augmentation part       89.8388361 magnetization       0.0477187

 Broyden mixing:
  rms(total) = 0.71304E-02    rms(broyden)= 0.71300E-02
  rms(prec ) = 0.79569E-02
  weight for this iteration     100.00

 eigenvalues of (default mixing * dielectric matrix)
  average eigenvalue GAMMA=   1.6009
  7.3207  5.1276  2.4309  2.4309  1.8352  1.2112  1.2112  1.5173  0.4554  0.4554
  0.9719  0.9719  0.4022  0.8132  0.7216  0.7216  0.6415  0.5890  0.5890

 Free energy of the ion-electron system (eV)
  ---------------------------------------------------
  alpha Z        PSCENC =        30.95783824
  Ewald energy   TEWEN  =     26519.43837352
  -Hartree energ DENC   =    -43392.18140921
  -exchange      EXHF   =         0.00000000
  -V(xc)+E(xc)   XCENC  =      -193.67809780
  PAW double counting   =     18358.02832630   -17603.16997010
  entropy T*S    EENTRO =        -0.00000000
  eigenvalues    EBANDS =     -1383.90923000
  atomic energy  EATOM  =     17632.37671147
  ---------------------------------------------------
  free energy    TOTEN  =       -32.13745758 eV

  energy without entropy =      -32.13745758  energy(sigma->0) =      -32.13745758


--------------------------------------------------------------------------------------------------------




----------------------------------------- Iteration    1(  25)  ---------------------------------------


    POTLOK:  cpu time    0.23: real time    0.23
    SETDIJ:  cpu time    0.01: real time    0.01
     EDDAV:  cpu time    1.49: real time    1.49
       DOS:  cpu time    0.00: real time    0.00
    CHARGE:  cpu time    0.07: real time    0.07
    MIXING:  cpu time    0.02: real time    0.01
    --------------------------------------------
      LOOP:  cpu time    1.81: real time    1.94

 eigenvalue-minimisations  :   536
 total energy-change (2. order) :-0.9403120E-02  (-0.1257394E-03)
 number of electron     187.0000139 magnetization       1.0867639
 augmentation part       89.8423284 magnetization       0.0434402

 Broyden mixing:
  rms(total) = 0.62162E-02    rms(broyden)= 0.62156E-02
  rms(prec ) = 0.66988E-02
  weight for this iteration     100.00

 eigenvalues of (default mixing * dielectric matrix)
  average eigenvalue GAMMA=   1.6397
  6.6601  6.6601  2.6337  2.6337  1.7936  1.5605  1.2146  1.2146  1.1652  1.1652
  0.4554  0.4554  0.8303  0.7422  0.7422  0.4022  0.6397  0.6397  0.5783  0.6076

 Free energy of the ion-electron system (eV)
  ---------------------------------------------------
  alpha Z        PSCENC =        30.95783824
  Ewald energy   TEWEN  =     26519.43837352
  -Hartree energ DENC   =    -43389.34279169
  -exchange      EXHF   =         0.00000000
  -V(xc)+E(xc)   XCENC  =      -193.70907513
  PAW double counting   =     18361.79833599   -17606.91454223
  entropy T*S    EENTRO =         0.00000000
  eigenvalues    EBANDS =     -1386.75171086
  atomic energy  EATOM  =     17632.37671147
  ---------------------------------------------------
  free energy    TOTEN  =       -32.14686070 eV

  energy without entropy =      -32.14686070  energy(sigma->0) =      -32.14686070


--------------------------------------------------------------------------------------------------------




----------------------------------------- Iteration    1(  26)  ---------------------------------------


    POTLOK:  cpu time    0.22: real time    0.23
    SETDIJ:  cpu time    0.01: real time    0.01
     EDDAV:  cpu time    1.18: real time    1.18
       DOS:  cpu time    0.00: real time    0.00
    CHARGE:  cpu time    0.07: real time    0.07
    MIXING:  cpu time    0.01: real time    0.02
    --------------------------------------------
      LOOP:  cpu time    1.50: real time    1.51

 eigenvalue-minimisations  :   384
 total energy-change (2. order) :-0.2294560E-02  (-0.3155546E-04)
 number of electron     187.0000139 magnetization       1.0648728
 augmentation part       89.8435579 magnetization       0.0208330

 Broyden mixing:
  rms(total) = 0.73287E-02    rms(broyden)= 0.73286E-02
  rms(prec ) = 0.77996E-02
  weight for this iteration     100.00

 eigenvalues of (default mixing * dielectric matrix)
  average eigenvalue GAMMA=   1.6370
  6.6237  6.6237  2.7437  2.7437  2.3672  1.4193  1.4193  1.2141  1.2141  1.1384
  0.4554  0.4554  0.8750  0.4022  0.7512  0.7512  0.6885  0.6885  0.5889  0.6038
  0.6103

 Free energy of the ion-electron system (eV)
  ---------------------------------------------------
  alpha Z        PSCENC =        30.95783824
  Ewald energy   TEWEN  =     26519.43837352
  -Hartree energ DENC   =    -43387.89415838
  -exchange      EXHF   =         0.00000000
  -V(xc)+E(xc)   XCENC  =      -193.72314436
  PAW double counting   =     18362.25416563   -17607.37088932
  entropy T*S    EENTRO =         0.00000000
  eigenvalues    EBANDS =     -1388.18805206
  atomic energy  EATOM  =     17632.37671147
  ---------------------------------------------------
  free energy    TOTEN  =       -32.14915526 eV

  energy without entropy =      -32.14915526  energy(sigma->0) =      -32.14915526


--------------------------------------------------------------------------------------------------------




----------------------------------------- Iteration    1(  27)  ---------------------------------------


    POTLOK:  cpu time    0.23: real time    0.23
    SETDIJ:  cpu time    0.01: real time    0.01
     EDDAV:  cpu time    1.14: real time    1.15
       DOS:  cpu time    0.00: real time    0.00
    CHARGE:  cpu time    0.07: real time    0.07
    MIXING:  cpu time    0.02: real time    0.02
    --------------------------------------------
      LOOP:  cpu time    1.47: real time    1.50

 eigenvalue-minimisations  :   368
 total energy-change (2. order) :-0.8107293E-03  (-0.5303578E-05)
 number of electron     187.0000139 magnetization       1.0348067
 augmentation part       89.8438057 magnetization      -0.0080008

 Broyden mixing:
  rms(total) = 0.52007E-02    rms(broyden)= 0.52007E-02
  rms(prec ) = 0.55904E-02
  weight for this iteration     100.00

 eigenvalues of (default mixing * dielectric matrix)
  average eigenvalue GAMMA=   1.6522
  6.6749  6.6749  3.0059  3.0059  2.1816  1.6857  1.6857  1.2099  1.2099  0.4554
  0.4554  1.0130  1.0130  0.9277  0.4022  0.7463  0.7463  0.7956  0.6360  0.6360
  0.5804  0.6078

 Free energy of the ion-electron system (eV)
  ---------------------------------------------------
  alpha Z        PSCENC =        30.95783824
  Ewald energy   TEWEN  =     26519.43837352
  -Hartree energ DENC   =    -43387.77320280
  -exchange      EXHF   =         0.00000000
  -V(xc)+E(xc)   XCENC  =      -193.72566972
  PAW double counting   =     18360.64239243   -17605.76826899
  entropy T*S    EENTRO =         0.00000000
  eigenvalues    EBANDS =     -1388.29814015
  atomic energy  EATOM  =     17632.37671147
  ---------------------------------------------------
  free energy    TOTEN  =       -32.14996599 eV

  energy without entropy =      -32.14996599  energy(sigma->0) =      -32.14996599


--------------------------------------------------------------------------------------------------------




----------------------------------------- Iteration    1(  28)  ---------------------------------------


    POTLOK:  cpu time    0.23: real time    0.23
    SETDIJ:  cpu time    0.01: real time    0.01
     EDDAV:  cpu time    1.13: real time    1.13
       DOS:  cpu time    0.00: real time    0.00
    CHARGE:  cpu time    0.07: real time    0.07
    MIXING:  cpu time    0.02: real time    0.02
    --------------------------------------------
      LOOP:  cpu time    1.45: real time    1.46

 eigenvalue-minimisations  :   360
 total energy-change (2. order) :-0.3778088E-03  (-0.9015509E-05)
 number of electron     187.0000139 magnetization       1.0166389
 augmentation part       89.8443941 magnetization      -0.0241789

 Broyden mixing:
  rms(total) = 0.32038E-02    rms(broyden)= 0.32037E-02
  rms(prec ) = 0.34662E-02
  weight for this iteration     100.00

 eigenvalues of (default mixing * dielectric matrix)
  average eigenvalue GAMMA=   1.6374
  7.1637  6.0441  3.0469  3.0469  2.1658  1.8664  1.8664  1.2109  1.2109  1.1264
  1.1264  0.4554  0.4554  1.0408  0.4022  0.7502  0.7502  0.7839  0.7041  0.6435
  0.5763  0.6118  0.6118

 Free energy of the ion-electron system (eV)
  ---------------------------------------------------
  alpha Z        PSCENC =        30.95783824
  Ewald energy   TEWEN  =     26519.43837352
  -Hartree energ DENC   =    -43387.49488810
  -exchange      EXHF   =         0.00000000
  -V(xc)+E(xc)   XCENC  =      -193.72912909
  PAW double counting   =     18358.92033382   -17604.05324825
  entropy T*S    EENTRO =         0.00000000
  eigenvalues    EBANDS =     -1388.56633540
  atomic energy  EATOM  =     17632.37671147
  ---------------------------------------------------
  free energy    TOTEN  =       -32.15034379 eV

  energy without entropy =      -32.15034379  energy(sigma->0) =      -32.15034379


--------------------------------------------------------------------------------------------------------




----------------------------------------- Iteration    1(  29)  ---------------------------------------


    POTLOK:  cpu time    0.23: real time    0.23
    SETDIJ:  cpu time    0.00: real time    0.01
     EDDAV:  cpu time    1.18: real time    1.18
       DOS:  cpu time    0.00: real time    0.00
    CHARGE:  cpu time    0.07: real time    0.07
    MIXING:  cpu time    0.02: real time    0.02
    --------------------------------------------
      LOOP:  cpu time    1.50: real time    1.62

 eigenvalue-minimisations  :   384
 total energy-change (2. order) :-0.1866194E-03  (-0.3373194E-05)
 number of electron     187.0000139 magnetization       1.0037454
 augmentation part       89.8436321 magnetization      -0.0360594

 Broyden mixing:
  rms(total) = 0.16458E-02    rms(broyden)= 0.16457E-02
  rms(prec ) = 0.18307E-02
  weight for this iteration     100.00

 eigenvalues of (default mixing * dielectric matrix)
  average eigenvalue GAMMA=   1.6255
  7.4853  5.5682  2.8930  2.8930  2.3842  2.3842  1.6178  1.6178  1.2102  1.2102
  0.4554  0.4554  1.0317  1.0317  0.9653  0.4022  0.7458  0.7458  0.7264  0.7264
  0.5784  0.6444  0.6201  0.6201

 Free energy of the ion-electron system (eV)
  ---------------------------------------------------
  alpha Z        PSCENC =        30.95783824
  Ewald energy   TEWEN  =     26519.43837352
  -Hartree energ DENC   =    -43387.55500743
  -exchange      EXHF   =         0.00000000
  -V(xc)+E(xc)   XCENC  =      -193.72791710
  PAW double counting   =     18358.83051517   -17603.97177785
  entropy T*S    EENTRO =         0.00000000
  eigenvalues    EBANDS =     -1388.49926645
  atomic energy  EATOM  =     17632.37671147
  ---------------------------------------------------
  free energy    TOTEN  =       -32.15053041 eV

  energy without entropy =      -32.15053041  energy(sigma->0) =      -32.15053041


--------------------------------------------------------------------------------------------------------




----------------------------------------- Iteration    1(  30)  ---------------------------------------


    POTLOK:  cpu time    0.23: real time    0.23
    SETDIJ:  cpu time    0.00: real time    0.01
     EDDAV:  cpu time    1.12: real time    1.12
       DOS:  cpu time    0.00: real time    0.00
    CHARGE:  cpu time    0.07: real time    0.07
    MIXING:  cpu time    0.02: real time    0.02
    --------------------------------------------
      LOOP:  cpu time    1.44: real time    1.45

 eigenvalue-minimisations  :   352
 total energy-change (2. order) :-0.3057610E-03  (-0.1754658E-05)
 number of electron     187.0000139 magnetization       0.9971023
 augmentation part       89.8435079 magnetization      -0.0419666

 Broyden mixing:
  rms(total) = 0.65175E-03    rms(broyden)= 0.65163E-03
  rms(prec ) = 0.82803E-03
  weight for this iteration     100.00

 eigenvalues of (default mixing * dielectric matrix)
  average eigenvalue GAMMA=   1.6720
  7.2977  6.2341  3.2572  3.1739  3.1739  1.8105  1.8105  1.8671  1.2106  1.2106
  1.1289  1.1289  0.4554  0.4554  0.4022  0.8811  0.8811  0.7455  0.7455  0.8153
  0.6603  0.6603  0.5766  0.6093  0.6093

 Free energy of the ion-electron system (eV)
  ---------------------------------------------------
  alpha Z        PSCENC =        30.95783824
  Ewald energy   TEWEN  =     26519.43837352
  -Hartree energ DENC   =    -43387.49935723
  -exchange      EXHF   =         0.00000000
  -V(xc)+E(xc)   XCENC  =      -193.72758647
  PAW double counting   =     18358.89396446   -17604.04012111
  entropy T*S    EENTRO =         0.00000000
  eigenvalues    EBANDS =     -1388.55065906
  atomic energy  EATOM  =     17632.37671147
  ---------------------------------------------------
  free energy    TOTEN  =       -32.15083617 eV

  energy without entropy =      -32.15083617  energy(sigma->0) =      -32.15083617


--------------------------------------------------------------------------------------------------------




----------------------------------------- Iteration    1(  31)  ---------------------------------------


    POTLOK:  cpu time    0.23: real time    0.23
    SETDIJ:  cpu time    0.01: real time    0.01
     EDDAV:  cpu time    1.12: real time    1.12
       DOS:  cpu time    0.00: real time    0.00
    CHARGE:  cpu time    0.07: real time    0.07
    MIXING:  cpu time    0.02: real time    0.02
    --------------------------------------------
      LOOP:  cpu time    1.45: real time    1.47

 eigenvalue-minimisations  :   356
 total energy-change (2. order) :-0.1559896E-03  (-0.1971973E-05)
 number of electron     187.0000139 magnetization       0.9921514
 augmentation part       89.8429468 magnetization      -0.0467882

 Broyden mixing:
  rms(total) = 0.35169E-03    rms(broyden)= 0.35157E-03
  rms(prec ) = 0.45655E-03
  weight for this iteration     100.00

 eigenvalues of (default mixing * dielectric matrix)
  average eigenvalue GAMMA=   1.6946
  7.8739  4.9916  4.9916  3.1147  3.1147  2.2098  1.7949  1.7949  1.2104  1.2104
  1.1540  1.1540  0.4554  0.4554  1.0776  0.9820  0.4022  0.7466  0.7466  0.7438
  0.7438  0.6482  0.6482  0.5759  0.6100  0.6100

 Free energy of the ion-electron system (eV)
  ---------------------------------------------------
  alpha Z        PSCENC =        30.95783824
  Ewald energy   TEWEN  =     26519.43837352
  -Hartree energ DENC   =    -43387.29591729
  -exchange      EXHF   =         0.00000000
  -V(xc)+E(xc)   XCENC  =      -193.72749992
  PAW double counting   =     18359.41275278   -17604.56237986
  entropy T*S    EENTRO =         0.00000000
  eigenvalues    EBANDS =     -1388.75087111
  atomic energy  EATOM  =     17632.37671147
  ---------------------------------------------------
  free energy    TOTEN  =       -32.15099216 eV

  energy without entropy =      -32.15099216  energy(sigma->0) =      -32.15099216


--------------------------------------------------------------------------------------------------------




----------------------------------------- Iteration    1(  32)  ---------------------------------------


    POTLOK:  cpu time    0.23: real time    0.23
    SETDIJ:  cpu time    0.01: real time    0.01
     EDDAV:  cpu time    1.11: real time    1.12
       DOS:  cpu time    0.00: real time    0.00
    CHARGE:  cpu time    0.07: real time    0.07
    MIXING:  cpu time    0.02: real time    0.02
    --------------------------------------------
      LOOP:  cpu time    1.44: real time    1.45

 eigenvalue-minimisations  :   352
 total energy-change (2. order) :-0.1780056E-03  (-0.9105675E-06)
 number of electron     187.0000139 magnetization       0.9976428
 augmentation part       89.8432164 magnetization      -0.0408858

 Broyden mixing:
  rms(total) = 0.64723E-03    rms(broyden)= 0.64719E-03
  rms(prec ) = 0.69798E-03
  weight for this iteration     100.00

 eigenvalues of (default mixing * dielectric matrix)
  average eigenvalue GAMMA=   1.6951
  7.3952  6.4408  4.0334  3.3641  3.3641  2.0509  1.8752  1.8752  1.2105  1.2105
  1.3230  1.3230  0.4554  0.4554  1.0652  1.0652  0.4022  0.7652  0.7652  0.7896
  0.7391  0.7391  0.6233  0.6233  0.6369  0.5770  0.5989

 Free energy of the ion-electron system (eV)
  ---------------------------------------------------
  alpha Z        PSCENC =        30.95783824
  Ewald energy   TEWEN  =     26519.43837352
[...]
     25      -8.1974      1.00000
     26      -8.1546      1.00000
     27      -8.0770      1.00000
     28      -8.0686      1.00000
     29      -7.9777      1.00000
     30      -7.9392      1.00000
     31      -7.9333      1.00000
     32      -7.9243      1.00000
     33      -7.8856      1.00000
     34      -7.8841      1.00000
     35      -7.7695      1.00000
     36      -7.7591      1.00000
     37      -7.7325      1.00000
     38      -7.6815      1.00000
     39      -7.6684      1.00000
     40      -7.6543      1.00000
     41      -7.5992      1.00000
     42      -7.5546      1.00000
     43      -7.5287      1.00000
     44      -7.5117      1.00000
     45      -7.4782      1.00000
     46      -7.3150      1.00000
     47      -7.2882      1.00000
     48      -7.2296      1.00000
     49      -7.1961      1.00000
     50      -7.1590      1.00000
     51      -7.1442      1.00000
     52      -7.1335      1.00000
     53      -7.0968      1.00000
     54      -7.0866      1.00000
     55      -7.0589      1.00000
     56      -7.0419      1.00000
     57      -7.0345      1.00000
     58      -7.0131      1.00000
     59      -6.9945      1.00000
     60      -6.9777      1.00000
     61      -6.9622      1.00000
     62      -6.9335      1.00000
     63      -6.9237      1.00000
     64      -6.9009      1.00000
     65      -6.8895      1.00000
     66      -6.8785      1.00000
     67      -6.8349      1.00000
     68      -6.8297      1.00000
     69      -6.8195      1.00000
     70      -6.7898      1.00000
     71      -6.7789      1.00000
     72      -6.7493      1.00000
     73      -6.7220      1.00000
     74      -6.7127      1.00000
     75      -6.7048      1.00000
     76      -6.6807      1.00000
     77      -6.6198      1.00000
     78      -6.5854      1.00000
     79      -6.5669      1.00000
     80      -6.5559      1.00000
     81      -6.5378      1.00000
     82      -6.4926      1.00000
     83      -6.4455      1.00000
     84      -6.3879      1.00000
     85      -6.3732      1.00000
     86      -6.3372      1.00000
     87      -6.2943      1.00000
     88      -6.0909      1.00000
     89      -5.8437      1.00000
     90      -4.6567      1.00000
     91      -4.5077      1.00000
     92      -4.2786      1.00000
     93      -3.9397      1.00000
     94      -3.5965      0.00000
     95      -3.1571      0.00000
     96      -2.5187      0.00000
     97      -2.4683      0.00000
     98      -2.1843      0.00000
     99      -2.1725      0.00000
    100      -2.0575      0.00000
    101      -1.9785      0.00000
    102      -1.5313      0.00000
    103      -1.3390      0.00000
    104      -1.2365      0.00000
    105      -1.1054      0.00000
    106      -0.5524      0.00000
    107      -0.4479      0.00000
    108      -0.3853      0.00000
    109      -0.3698      0.00000
    110      -0.2840      0.00000
    111      -0.0936      0.00000
    112       0.0456      0.00000
    113       0.1325      0.00000
    114       0.3339      0.00000
    115       0.3828      0.00000
    116       0.5849      0.00000
    117       0.6060      0.00000
    118       0.6916      0.00000
    119       0.7150      0.00000
    120       0.7431      0.00000
    121       0.7967      0.00000
    122       0.8498      0.00000
    123       0.8718      0.00000
    124       0.9226      0.00000


--------------------------------------------------------------------------------------------------------


 soft charge-density along one line, spin component           1
         0         1         2         3         4         5         6         7         8         9
 total charge-density along one line
 
 soft charge-density along one line, spin component           2
         0         1         2         3         4         5         6         7         8         9
 total charge-density along one line
 
 pseudopotential strength for first ion, spin component:           1
-10.300   0.003   0.001   0.008  -0.003 -10.275   0.003   0.001
  0.003 -10.300   0.009  -0.000  -0.002   0.003 -10.276   0.009
  0.001   0.009 -10.296   0.001  -0.006   0.001   0.009 -10.271
  0.008  -0.000   0.001 -10.284  -0.001   0.007  -0.000   0.001
 -0.003  -0.002  -0.006  -0.001 -10.302  -0.002  -0.002  -0.006
-10.275   0.003   0.001   0.007  -0.002 -10.226   0.003   0.001
  0.003 -10.276   0.009  -0.000  -0.002   0.003 -10.227   0.008
  0.001   0.009 -10.271   0.001  -0.006   0.001   0.008 -10.223
  0.007  -0.000   0.001 -10.259  -0.001   0.007  -0.000   0.001
 -0.002  -0.002  -0.006  -0.001 -10.277  -0.002  -0.002  -0.006
  0.000  -0.003  -0.002  -0.000  -0.002   0.000  -0.003  -0.002
  0.001  -0.005  -0.003  -0.000  -0.003   0.001  -0.005  -0.003
 -0.001   0.014   0.017  -0.000   0.029  -0.000   0.013   0.016
 -0.000  -0.029   0.016  -0.000  -0.000  -0.000  -0.028   0.015
 -0.029  -0.000   0.000   0.014  -0.000  -0.028  -0.000   0.000
 -0.001   0.017   0.020  -0.000   0.035  -0.001   0.016   0.019
 -0.000  -0.035   0.019  -0.000  -0.000  -0.000  -0.033   0.018
 -0.035  -0.000   0.000   0.017  -0.000  -0.033  -0.000   0.000
 pseudopotential strength for first ion, spin component:           2
-10.297   0.002   0.002   0.007  -0.002 -10.273   0.002   0.002
  0.002 -10.295   0.006   0.001  -0.004   0.002 -10.271   0.006
  0.002   0.006 -10.292   0.000  -0.005   0.002   0.006 -10.268
  0.007   0.001   0.000 -10.281  -0.001   0.007   0.001   0.000
 -0.002  -0.004  -0.005  -0.001 -10.299  -0.002  -0.004  -0.005
-10.273   0.002   0.002   0.007  -0.002 -10.224   0.002   0.002
  0.002 -10.271   0.006   0.001  -0.004   0.002 -10.222   0.005
  0.002   0.006 -10.268   0.000  -0.005   0.002   0.005 -10.219
  0.007   0.001   0.000 -10.257  -0.001   0.007   0.001   0.000
 -0.002  -0.004  -0.005  -0.001 -10.274  -0.002  -0.004  -0.005
  0.000  -0.003  -0.002   0.000  -0.001   0.000  -0.003  -0.002
  0.001  -0.005  -0.004   0.000  -0.002   0.001  -0.005  -0.004
 -0.000   0.014   0.017   0.000   0.029  -0.000   0.013   0.016
  0.000  -0.030   0.017  -0.001   0.000   0.000  -0.029   0.016
 -0.030   0.000   0.000   0.014  -0.000  -0.028   0.000   0.000
 -0.000   0.017   0.021   0.000   0.036  -0.000   0.016   0.020
  0.000  -0.036   0.020  -0.001   0.000   0.000  -0.035   0.020
 -0.036   0.000   0.000   0.017  -0.001  -0.035   0.000   0.000
 total augmentation occupancy for first ion, spin component:           1
  2.740   0.024   0.042  -0.168  -0.068  -0.764  -0.002  -0.028   0.196   0.037  -0.025  -0.010   0.007   0.000  -0.164  -0.001
  0.024   2.553  -0.061  -0.001   0.026  -0.002  -0.554   0.118   0.010  -0.005   0.262  -0.074   0.033  -0.098  -0.001   0.005
  0.042  -0.061   2.496   0.021   0.109  -0.028   0.118  -0.528  -0.018  -0.095   0.215  -0.042   0.066   0.061  -0.009   0.006
 -0.168  -0.001   0.021   2.508   0.021   0.196   0.010  -0.018  -0.455  -0.043  -0.047   0.009   0.003   0.013   0.080   0.000
 -0.068   0.026   0.109   0.021   2.476   0.037  -0.005  -0.095  -0.043  -0.521   0.083  -0.054   0.068   0.018   0.020   0.013
 -0.764  -0.002  -0.028   0.196   0.037   0.763  -0.016   0.016  -0.221  -0.011   0.017   0.012  -0.007  -0.003   0.195   0.001
 -0.002  -0.554   0.118   0.010  -0.005  -0.016   0.533  -0.165  -0.017  -0.011  -0.226   0.061  -0.038   0.131  -0.002   0.004
 -0.028   0.118  -0.528  -0.018  -0.095   0.016  -0.165   0.531   0.016   0.083  -0.187   0.035  -0.083  -0.085   0.007   0.006
  0.196   0.010  -0.018  -0.455  -0.043  -0.221  -0.017   0.016   0.386   0.062   0.043  -0.010  -0.005  -0.015  -0.092   0.000
  0.037  -0.005  -0.095  -0.043  -0.521  -0.011  -0.011   0.083   0.062   0.535  -0.061   0.036  -0.097  -0.023  -0.019   0.007
 -0.025   0.262   0.215  -0.047   0.083   0.017  -0.226  -0.187   0.043  -0.061   1.808  -0.208   0.231  -0.108  -0.010  -0.021
 -0.010  -0.074  -0.042   0.009  -0.054   0.012   0.061   0.035  -0.010   0.036  -0.208   0.041  -0.043   0.021   0.006   0.003
  0.007   0.033   0.066   0.003   0.068  -0.007  -0.038  -0.083  -0.005  -0.097   0.231  -0.043   0.059  -0.007  -0.002  -0.005
  0.000  -0.098   0.061   0.013   0.018  -0.003   0.131  -0.085  -0.015  -0.023  -0.108   0.021  -0.007   0.048   0.001   0.001
 -0.164  -0.001  -0.009   0.080   0.020   0.195  -0.002   0.007  -0.092  -0.019  -0.010   0.006  -0.002   0.001   0.067   0.000
 -0.001   0.005   0.006   0.000   0.013   0.001   0.004   0.006   0.000   0.007  -0.021   0.003  -0.005   0.001   0.000   0.001
  0.000  -0.012   0.006  -0.001  -0.000   0.000  -0.008   0.005   0.001   0.001   0.010  -0.002   0.001  -0.003  -0.000  -0.000
 -0.009   0.000   0.000   0.004  -0.001  -0.011   0.000  -0.000   0.005   0.001   0.001  -0.000   0.000  -0.000  -0.004  -0.000
 total augmentation occupancy for first ion, spin component:           2
  0.006  -0.020   0.018  -0.009   0.016  -0.005   0.016  -0.014   0.006  -0.012   0.003   0.000   0.004   0.008  -0.004  -0.000
 -0.020   0.068  -0.059   0.021  -0.044   0.016  -0.053   0.044  -0.015   0.034  -0.007  -0.000  -0.013  -0.026   0.011   0.000
  0.018  -0.059   0.033  -0.013   0.035  -0.014   0.044  -0.027   0.010  -0.026  -0.005   0.001   0.008   0.020  -0.009  -0.000
 -0.009   0.021  -0.013   0.001  -0.011   0.006  -0.015   0.010  -0.002   0.009   0.007  -0.001  -0.002  -0.007   0.003   0.000
  0.016  -0.044   0.035  -0.011   0.026  -0.012   0.034  -0.026   0.009  -0.021   0.006  -0.002   0.007   0.016  -0.008  -0.000
 -0.005   0.016  -0.014   0.006  -0.012   0.004  -0.013   0.011  -0.004   0.009  -0.003  -0.000  -0.003  -0.006   0.003   0.000
  0.016  -0.053   0.044  -0.015   0.034  -0.013   0.043  -0.032   0.011  -0.027   0.007  -0.000   0.010   0.020  -0.008  -0.000
 -0.014   0.044  -0.027   0.010  -0.026   0.011  -0.032   0.023  -0.008   0.019   0.005  -0.001  -0.006  -0.015   0.007   0.000
  0.006  -0.015   0.010  -0.002   0.009  -0.004   0.011  -0.008   0.004  -0.008  -0.006   0.001   0.002   0.005  -0.002  -0.000
 -0.012   0.034  -0.026   0.009  -0.021   0.009  -0.027   0.019  -0.008   0.016  -0.002   0.000  -0.005  -0.012   0.006   0.000
  0.003  -0.007  -0.005   0.007   0.006  -0.003   0.007   0.005  -0.006  -0.002   0.001  -0.002   0.001   0.001  -0.000  -0.000
  0.000  -0.000   0.001  -0.001  -0.002  -0.000  -0.000  -0.001   0.001   0.000  -0.002   0.000  -0.000   0.000  -0.000   0.000
  0.004  -0.013   0.008  -0.002   0.007  -0.003   0.010  -0.006   0.002  -0.005   0.001  -0.000   0.002   0.004  -0.002  -0.000
  0.008  -0.026   0.020  -0.007   0.016  -0.006   0.020  -0.015   0.005  -0.012   0.001   0.000   0.004   0.009  -0.004  -0.000
 -0.004   0.011  -0.009   0.003  -0.008   0.003  -0.008   0.007  -0.002   0.006  -0.000  -0.000  -0.002  -0.004   0.002   0.000
 -0.000   0.000  -0.000   0.000  -0.000   0.000  -0.000   0.000  -0.000   0.000  -0.000   0.000  -0.000  -0.000   0.000   0.000
 -0.000   0.000  -0.000   0.000  -0.000   0.000  -0.000   0.000  -0.000   0.000   0.000  -0.000  -0.000  -0.000   0.000   0.000
  0.000  -0.000   0.000  -0.000   0.000  -0.000   0.000  -0.000   0.000  -0.000  -0.000   0.000   0.000   0.000  -0.000  -0.000


------------------------ aborting loop because EDIFF is reached ----------------------------------------


    CHARGE:  cpu time    0.07: real time    0.07
    FORLOC:  cpu time    0.01: real time    0.01
    FORNL :  cpu time    0.74: real time    0.74
    STRESS:  cpu time    0.89: real time    0.90
    FORCOR:  cpu time    0.23: real time    0.23
    FORHAR:  cpu time    0.04: real time    0.03
    MIXING:  cpu time    0.00: real time    0.01
    OFIELD:  cpu time    0.00: real time    0.00

  FORCE on cell =-STRESS in cart. coord.  units (eV):
  Direction    XX          YY          ZZ          XY          YZ          ZX
  --------------------------------------------------------------------------------------
  Alpha Z    30.95784    30.95784    30.95784
  Ewald    9899.81343  9579.35654  7101.12611  1515.57850 -1226.54405  1693.39563
  Hartree 15439.47177 15128.32140 12889.01452  1351.94184 -1063.73535  1487.02938
  E(xc)    -985.29675  -985.25944  -985.81400     0.34583    -0.46029     0.52544
  Local  -28096.17742-27463.66401-22746.98297 -2865.95985  2287.38405 -3177.86396
  n-local  -185.72521  -186.02468  -187.14606     0.51193     0.00801     0.52185
  augment  1561.50703  1561.28752  1561.98418    -0.65009     0.95608    -0.99852
  Kinetic  2329.45266  2329.06366  2330.82491    -1.75678     2.43552    -2.46447
  Fock        0.00000     0.00000     0.00000     0.00000     0.00000     0.00000
  -------------------------------------------------------------------------------------
  Total      -5.99665    -5.96117    -6.03547     0.01137     0.04397     0.14535
  in kB      -1.20998    -1.20282    -1.21781     0.00229     0.00887     0.02933
  external pressure =       -1.21 kB  Pullay stress =        0.00 kB


 VOLUME and BASIS-vectors are now :
 -----------------------------------------------------------------------------
  energy-cutoff  :      249.84
  volume of cell :     7940.38
      direct lattice vectors                 reciprocal lattice vectors
    19.950194418  0.000000000  0.000000000     0.050124825  0.000000000  0.000000000
     0.000000000 19.950194418  0.000000000     0.000000000  0.050124825  0.000000000
     0.000000000  0.000000000 19.950194418     0.000000000  0.000000000  0.050124825

  length of vectors
    19.950194418 19.950194418 19.950194418     0.050124825  0.050124825  0.050124825


 FORCES acting on ions
    electron-ion (+dipol)            ewald-force                    non-local-force                 convergence-correction
 -----------------------------------------------------------------------------------------------
   -.224E+02 0.105E+04 -.514E+03   0.225E+02 -.104E+04 0.512E+03   -.935E-01 -.553E+01 0.257E+01   0.105E-01 -.632E-01 -.820E-02
   -.804E+03 0.739E+03 -.454E+03   0.802E+03 -.737E+03 0.453E+03   0.273E+01 -.166E+01 0.108E+01   0.118E-01 0.422E-01 -.155E-01
   -.122E+04 -.153E+03 -.100E+03   0.122E+04 0.152E+03 0.997E+02   0.423E+01 0.102E+01 0.780E+00   -.336E-01 -.147E-01 -.654E-01
   0.353E+03 0.247E+03 -.105E+04   -.353E+03 -.246E+03 0.104E+04   0.299E-01 -.926E+00 0.277E+01   -.486E-02 -.334E-01 0.940E-02
   0.901E+03 0.699E+03 -.303E+03   -.897E+03 -.695E+03 0.302E+03   -.356E+01 -.321E+01 0.131E+01   -.323E-01 -.933E-04 0.199E-01
   -.551E+03 -.209E+03 -.110E+04   0.549E+03 0.209E+03 0.109E+04   0.197E+01 0.312E+00 0.437E+01   -.382E-01 0.329E-01 0.446E-01
   -.837E+03 0.541E+03 0.756E+03   0.833E+03 -.538E+03 -.753E+03   0.391E+01 -.270E+01 -.341E+01   -.415E-01 0.745E-01 0.281E-01
   -.320E+02 0.970E+03 0.474E+03   0.320E+02 -.968E+03 -.474E+03   -.167E-01 -.185E+01 0.558E+00   0.113E-01 0.266E-01 -.441E-01
   -.494E+03 -.110E+04 -.285E+03   0.492E+03 0.110E+04 0.284E+03   0.225E+01 0.377E+01 0.707E+00   -.322E-01 -.839E-01 -.189E-01
   -.132E+03 -.994E+02 -.245E+02   0.131E+03 0.992E+02 0.245E+02   0.290E+00 0.215E+00 0.101E+00   0.132E+00 -.718E-02 -.116E+00
   0.487E+03 -.786E+03 -.845E+03   -.485E+03 0.782E+03 0.841E+03   -.226E+01 0.386E+01 0.378E+01   -.317E-01 0.177E-01 0.275E-01
   0.803E+03 0.534E+03 0.679E+03   -.800E+03 -.532E+03 -.676E+03   -.359E+01 -.197E+01 -.285E+01   0.568E-01 0.177E-01 0.392E-01
   -.645E+03 -.660E+03 0.833E+03   0.643E+03 0.658E+03 -.830E+03   0.202E+01 0.261E+01 -.354E+01   0.267E-01 -.752E-01 0.798E-01
   0.340E+03 -.107E+04 0.345E+03   -.339E+03 0.107E+04 -.345E+03   -.476E+00 0.323E+01 -.573E+00   0.225E-01 0.535E-01 -.491E-01
   0.102E+04 -.260E+03 -.256E+03   -.102E+04 0.259E+03 0.257E+03   -.161E+01 0.700E+00 -.875E+00   -.366E-01 0.750E-02 0.423E-01
   0.810E+03 -.477E+03 0.701E+03   -.806E+03 0.475E+03 -.698E+03   -.423E+01 0.222E+01 -.362E+01   -.403E-01 0.157E-01 0.388E-02
   0.196E+02 0.410E+02 0.113E+04   -.196E+02 -.420E+02 -.113E+04   -.715E-01 0.103E+01 -.290E+01   0.411E-01 -.247E-01 0.599E-02
 -----------------------------------------------------------------------------------------------
   -.151E+01 -.107E+01 -.238E+00   -.568E-13 -.270E-12 0.000E+00   0.154E+01 0.114E+01 0.243E+00   0.214E-01 -.142E-01 -.160E-01
 
 
 POSITION                                       TOTAL-FORCE (eV/Angst)
 -----------------------------------------------------------------------------------
     10.04489      6.69164     11.89105        -0.009604      0.014865      0.018025
     12.14595      8.44452     11.40074         0.003851     -0.007734     -0.006025
     13.57732     10.86768     10.52602        -0.011494     -0.000638      0.015856
      9.47151      9.35923     12.46527        -0.009700      0.005798      0.011427
      7.65458      7.89514     10.96044         0.012795     -0.005130     -0.012326
     11.88779     10.95807     12.85058         0.030117     -0.014162     -0.006187
     12.39018      9.19522      8.58255        -0.012311      0.002154      0.010807
     10.02685      7.91491      9.38676        -0.001214      0.001626      0.004907
     11.79028     13.15303     10.97109         0.009273      0.026350     -0.007462
     10.76366     10.62111     10.31829         0.020596     -0.004184     -0.009246
      9.39703     12.19011     12.13873         0.015756      0.018775     -0.001540
      7.60278      8.79576      8.31222        -0.023301     -0.014842     -0.016493
     12.09351     12.04831      8.33293        -0.016121      0.005655     -0.005989
      9.43521     12.83675      9.27223        -0.006637     -0.020112      0.011128
      7.79038     10.64931     10.46031         0.010995     -0.012347     -0.016405
      7.44134     11.57281      7.84135        -0.004526     -0.002524     -0.014142
      9.89766     10.24233      7.67107        -0.008475      0.006451      0.023666
 -----------------------------------------------------------------------------------
    total drift:                                0.053599      0.056957     -0.011468


--------------------------------------------------------------------------------------------------------



  FREE ENERGIE OF THE ION-ELECTRON SYSTEM (eV)
  ---------------------------------------------------
  free  energy   TOTEN  =       -33.37548469 eV

  energy  without entropy=      -33.37548469  energy(sigma->0) =      -33.37548469
 
 d Force = 0.9129244E-03[-0.480E-03, 0.231E-02]  d Energy = 0.1074275E-02-0.161E-03
 d Force =-0.5395957E+01[-0.544E+01,-0.535E+01]  d Ewald  =-0.5395911E+01-0.457E-04


--------------------------------------------------------------------------------------------------------


    POTLOK:  cpu time    0.24: real time    0.24


--------------------------------------------------------------------------------------------------------




--------------------------------------------------------------------------------------------------------


  
 reached required accuracy - stopping structural energy minimisation
     LOOP+:  cpu time    7.22: real time    7.37
    4ORBIT:  cpu time    0.00: real time    0.00

 total amount of memory used by VASP on root node    56570. kBytes
========================================================================

   base      :      30000. kBytes
   nonl-proj :       1853. kBytes
   fftplans  :       5772. kBytes
   grid      :      14451. kBytes
   one-center:         46. kBytes
   wavefun   :       4448. kBytes
 
  
  
 General timing and accounting informations for this job:
 ========================================================
  
                  Total CPU time used (sec):      926.138
                            User time (sec):      915.761
                          System time (sec):       10.377
                         Elapsed time (sec):      986.788
  
                   Maximum memory used (kb):       65408.
                   Average memory used (kb):           0.
  
                          Minor page faults:      1787926
                          Major page faults:            0
                 Voluntary context switches:        12995
