 vasp.5.3.5 31Mar14 (build Feb 01 2018 12:10:03) gamma-only                     
  
 executed on             LinuxIFC date 2019.03.24  21:06:47
 running on   64 total cores
 distrk:  each k-point on   64 cores,    1 groups
 distr:  one band on NCORES_PER_BAND=  16 cores,    4 groups


--------------------------------------------------------------------------------------------------------


 INCAR:
 POTCAR:    PAW_PBE Ag 02Apr2005                  
 POTCAR:    PAW_PBE Ag 02Apr2005                  
   VRHFIN =Ag : s1 d10                                                          
   LEXCH  = PE                                                                  
   EATOM  =  1037.2675 eV,   76.2370 Ry                                         
                                                                                
   TITEL  = PAW_PBE Ag 02Apr2005                                                
   LULTRA =        F    use ultrasoft PP ?                                      
   IUNSCR =        1    unscreen: 0-lin 1-nonlin 2-no                           
   RPACOR =    2.000    partial core radius                                     
   POMASS =  107.868; ZVAL   =   11.000    mass and valenz                      
   RCORE  =    2.500    outmost cutoff radius                                   
   RWIGS  =    2.840; RWIGS  =    1.503    wigner-seitz radius (au A)           
   ENMAX  =  249.844; ENMIN  =  187.383 eV                                      
   ICORE  =        3    local potential                                         
   LCOR   =        T    correct aug charges                                     
   LPAW   =        T    paw PP                                                  
   EAUG   =  412.496                                                            
   DEXC   =    0.000                                                            
   RMAX   =    2.560    core radius for proj-oper                               
   RAUG   =    1.300    factor for augmentation sphere                          
   RDEP   =    2.576    radius for radial grids                                 
   RDEPT  =    2.072    core radius for aug-charge                              
                                                                                
   Atomic configuration                                                         
   12 entries                                                                   
     n  l   j            E        occ.                                          
     1  0  0.50    -25324.9161   2.0000                                         
     2  0  0.50     -3728.5341   2.0000                                         
     2  1  1.50     -3344.0404   6.0000                                         
     3  0  0.50      -683.5581   2.0000                                         
     3  1  1.50      -557.3225   6.0000                                         
     3  2  2.50      -358.3853  10.0000                                         
     4  0  0.50       -95.0341   2.0000                                         
     4  1  1.50       -58.5511   6.0000                                         
     4  2  2.50        -7.4440  10.0000                                         
     5  0  0.50        -4.4045   1.0000                                         
     5  1  0.50        -1.3606   0.0000                                         
     4  3  2.50        -1.3606   0.0000                                         
   Description                                                                  
     l       E           TYP  RCUT    TYP  RCUT                                 
     2     -7.4439781     23  2.400                                             
     2     -8.8045607     23  2.400                                             
     0     -4.4044681     23  2.400                                             
     0      1.9520038     23  2.400                                             
     1     -1.3605826     23  2.500                                             
     1     27.2116520     23  2.500                                             
     3     -4.0817478     23  2.400                                             
  local pseudopotential read in
  partial core-charges read in
  partial kinetic energy density read in
  atomic valenz-charges read in
  non local Contribution for L=           2  read in
    real space projection operators read in
  non local Contribution for L=           2  read in
    real space projection operators read in
  non local Contribution for L=           0  read in
    real space projection operators read in
  non local Contribution for L=           0  read in
    real space projection operators read in
  non local Contribution for L=           1  read in
    real space projection operators read in
  non local Contribution for L=           1  read in
    real space projection operators read in
    PAW grid and wavefunctions read in
 
   number of l-projection  operators is LMAX  =           6
   number of lm-projection operators is LMMAX =          18
 

 ----------------------------------------------------------------------------- 
|                                                                             |
|  ADVICE TO THIS USER RUNNING 'VASP/VAMP'   (HEAR YOUR MASTER'S VOICE ...):  |
|                                                                             |
|      You have a (more or less) 'large supercell' and for larger cells       |
|      it might be more efficient to use real space projection opertators     |
|      So try LREAL= Auto  in the INCAR   file.                               |
|      Mind: At the moment your POTCAR file does not contain real space       |
|       projectors, and has to be modified,  BUT if you                       |
|      want to do an extremely  accurate calculation you might also keep the  |
|      reciprocal projection scheme          (i.e. LREAL=.FALSE.)             |
|                                                                             |
 ----------------------------------------------------------------------------- 

  PAW_PBE Ag 02Apr2005                  :
 energy of atom  1       EATOM=-1037.2675
 kinetic energy error for atom=    0.0689 (will be added to EATOM!!)
 
 
 POSCAR: Pt49, -247.06029033 <s> Ag </s>         
  positions in direct lattice
  No initial velocities read in
 exchange correlation table for  LEXCH =        8
   RHO(1)=    0.500       N(1)  =     2000
   RHO(2)=  100.500       N(2)  =     4000
 


--------------------------------------------------------------------------------------------------------


 ion  position               nearest neighbor table
   1  0.667  0.450  0.362-  13 2.64   2 2.72   7 2.86   5 2.95   6 3.03
   2  0.605  0.546  0.327-  15 2.67   3 2.72   1 2.72   9 2.87  10 2.92   7 3.02   5 3.09
   3  0.636  0.650  0.376-  16 2.63   2 2.72  10 2.90   5 2.92  11 2.94   8 3.43
   4  0.683  0.363  0.500-  13 2.64  17 2.72  18 2.86  12 2.93   6 2.99
   5  0.671  0.549  0.445-  22 2.85  14 2.89   3 2.92  13 2.95   1 2.95  12 2.98  16 3.05   2 3.09
                            15 3.39
   6  0.604  0.339  0.399-  13 2.67  20 2.78   7 2.79  18 2.80   4 2.99   1 3.03
   7  0.545  0.429  0.340-   9 2.78   6 2.79  15 2.82  24 2.86   1 2.86  20 2.89   2 3.02  13 3.07

   8  0.631  0.720  0.508-  16 2.63  23 2.73  36 2.89  14 2.93  11 2.95   3 3.43
   9  0.486  0.526  0.297-  24 2.76  27 2.76   7 2.78  10 2.78  15 2.83   2 2.87
  10  0.514  0.633  0.347-   9 2.78  11 2.82  27 2.85  15 2.88   3 2.90  33 2.90   2 2.92  16 3.05

  11  0.545  0.732  0.413-  16 2.67  33 2.77  10 2.82  36 2.82   3 2.94   8 2.95
  12  0.683  0.479  0.554-  22 2.88   4 2.93  19 2.93  31 2.93  13 2.95  14 2.96   5 2.98  17 3.09
                            26 3.32
  13  0.606  0.439  0.460-  22 2.63   1 2.64   4 2.64   6 2.67  15 2.89  26 2.90   5 2.95  12 2.95
                             7 3.07  18 3.11  28 3.26  20 3.46
  14  0.666  0.607  0.557-  22 2.86   5 2.89   8 2.93  12 2.96  21 2.97  31 2.98  23 3.02  16 3.07
                            25 3.38
  15  0.529  0.527  0.413-   2 2.67  22 2.68  28 2.76  35 2.78   7 2.82   9 2.83  16 2.86  10 2.88
                            13 2.89  27 3.12  24 3.14   5 3.39
  16  0.569  0.631  0.468-  22 2.61   8 2.63   3 2.63  11 2.67  15 2.86  25 2.86  36 3.02  10 3.05
                             5 3.05  14 3.07  35 3.08  33 3.31
  17  0.638  0.365  0.610-  26 2.66   4 2.72  19 2.72  29 2.85  18 2.94  34 2.94  12 3.09
  18  0.566  0.321  0.514-  29 2.79   6 2.80  26 2.82  30 2.85   4 2.86  20 2.88  17 2.94  13 3.11

  19  0.673  0.455  0.679-  31 2.65  17 2.72  34 2.85  12 2.93  39 2.99
  20  0.486  0.355  0.423-  28 2.76  32 2.78   6 2.78  30 2.85  24 2.86  18 2.88   7 2.89  13 3.46

  21  0.649  0.617  0.686-  31 2.64  23 2.72  44 2.85  14 2.97  39 3.02
  22  0.574  0.531  0.521-  16 2.61  31 2.63  13 2.63  25 2.67  15 2.68  26 2.69   5 2.85  14 2.86
                            12 2.88  35 3.08  40 3.09  28 3.11
  23  0.593  0.698  0.619-  25 2.66  21 2.72   8 2.73  37 2.89  36 2.93  14 3.02  44 3.09
  24  0.425  0.449  0.368-   9 2.76  32 2.79   7 2.86  20 2.86  38 2.86  28 2.89  27 2.93  15 3.14

  25  0.521  0.615  0.582-  23 2.66  22 2.67  40 2.77  35 2.78  37 2.80  44 2.82  16 2.86  31 2.87
                            36 2.88  48 3.13  46 3.14  14 3.38
  26  0.549  0.428  0.572-  17 2.66  22 2.69  28 2.76  40 2.77  18 2.82  34 2.84  29 2.87  13 2.90
                            31 2.90  30 3.15  41 3.17  12 3.32
  27  0.408  0.576  0.374-   9 2.76  43 2.79  10 2.85  38 2.85  33 2.86  35 2.88  24 2.93  15 3.12

  28  0.467  0.455  0.487-  20 2.76  15 2.76  40 2.76  26 2.76  35 2.77  30 2.87  24 2.89  32 2.92
                            42 2.96  38 2.96  22 3.11  13 3.26
  29  0.524  0.319  0.628-  30 2.75  41 2.76  34 2.78  18 2.79  17 2.85  26 2.87
  30  0.446  0.343  0.540-  29 2.75  32 2.79  20 2.85  18 2.85  42 2.87  28 2.87  41 2.92  26 3.15

  31  0.596  0.528  0.634-  22 2.63  21 2.64  19 2.65  39 2.67  25 2.87  26 2.90  12 2.93  14 2.98
                            44 3.08  34 3.09  40 3.22  45 3.47
  32  0.371  0.380  0.452-  20 2.78  38 2.78  42 2.78  24 2.79  30 2.79  28 2.92
  33  0.437  0.680  0.435-  11 2.77  35 2.77  43 2.77  46 2.86  27 2.86  10 2.90  36 2.92  16 3.31

  34  0.556  0.415  0.695-  29 2.78  39 2.80  26 2.84  41 2.85  19 2.85  45 2.90  17 2.94  31 3.09

  35  0.450  0.574  0.492-  40 2.77  33 2.77  28 2.77  25 2.78  15 2.78  46 2.85  27 2.88  43 2.91
                            47 2.95  38 2.99  16 3.08  22 3.08
  36  0.507  0.729  0.530-  37 2.78  11 2.82  46 2.86  25 2.88   8 2.89  33 2.92  23 2.93  16 3.02

  37  0.470  0.707  0.644-  46 2.77  48 2.77  44 2.78  36 2.78  25 2.80  23 2.89
  38  0.350  0.499  0.454-  32 2.78  43 2.79  27 2.85  42 2.86  24 2.86  47 2.87  28 2.96  35 2.99

  39  0.585  0.521  0.749-  31 2.67  45 2.77  44 2.79  34 2.80  19 2.99  21 3.02
  40  0.462  0.510  0.594-  45 2.75  28 2.76  25 2.77  35 2.77  26 2.77  41 2.87  48 2.88  49 2.91
                            47 2.98  42 2.98  22 3.09  31 3.22
  41  0.440  0.402  0.653-  29 2.76  49 2.79  34 2.85  45 2.85  42 2.87  40 2.87  30 2.92  26 3.17

  42  0.362  0.434  0.560-  49 2.78  32 2.78  38 2.86  47 2.86  41 2.87  30 2.87  28 2.96  40 2.98

  43  0.336  0.620  0.462-  33 2.77  47 2.78  27 2.79  38 2.79  46 2.80  35 2.91
  44  0.526  0.618  0.705-  37 2.78  39 2.79  25 2.82  48 2.85  21 2.85  45 2.88  31 3.08  23 3.09

  45  0.470  0.506  0.714-  40 2.75  49 2.77  39 2.77  41 2.85  48 2.86  44 2.88  34 2.90  31 3.47

  46  0.399  0.670  0.554-  37 2.77  43 2.80  35 2.85  33 2.86  36 2.86  47 2.87  48 2.92  25 3.14

  47  0.345  0.557  0.565-  43 2.78  49 2.78  42 2.86  38 2.87  48 2.87  46 2.87  35 2.95  40 2.98

  48  0.411  0.603  0.661-  37 2.77  49 2.79  44 2.85  45 2.86  47 2.87  40 2.88  46 2.92  25 3.13

  49  0.359  0.493  0.666-  45 2.77  47 2.78  42 2.78  48 2.79  41 2.79  40 2.91
 
  LATTYP: Found a simple cubic cell.
 ALAT       =    22.9106345919
  
  Lattice vectors:
  
 A1 = (  22.9106345919,   0.0000000000,   0.0000000000)
 A2 = (   0.0000000000,  22.9106345919,   0.0000000000)
 A3 = (   0.0000000000,   0.0000000000,  22.9106345919)


Analysis of symmetry for initial positions (statically):
=====================================================================
 Subroutine PRICEL returns:
 Original cell was already a primitive cell.
 

 Routine SETGRP: Setting up the symmetry group for a 
 simple cubic supercell.


 Subroutine GETGRP returns: Found  1 space group operations
 (whereof  1 operations were pure point group operations)
 out of a pool of 48 trial point group operations.


The static configuration has the point symmetry C_1 .


Analysis of symmetry for dynamics (positions and initial velocities):
=====================================================================
 Subroutine PRICEL returns:
 Original cell was already a primitive cell.
 

 Routine SETGRP: Setting up the symmetry group for a 
 simple cubic supercell.


 Subroutine GETGRP returns: Found  1 space group operations
 (whereof  1 operations were pure point group operations)
 out of a pool of 48 trial point group operations.


The dynamic configuration has the point symmetry C_1 .


Analysis of magnetic symmetry:
=====================================================================
 Subroutine PRICEL returns:
 Original cell was already a primitive cell.
 

 Subroutine MAGSYM returns: Found  1 space group operations
 (whereof  1 operations were pure point group operations)
 out of a pool of  1 trial space group operations
 (whereof  1 operations were pure point group operations)
 and found also     1 'primitive' translations


The magnetic configuration has the point symmetry C_1 .
 
 
 KPOINTS: Gamma-point only                        
  k-points in reciprocal lattice
Space group operators:
 irot       det(A)        alpha          n_x          n_y          n_z        tau_x        tau_y        tau_z
    1     1.000000     0.000000     1.000000     0.000000     0.000000     0.000000     0.000000     0.000000


--------------------------------------------------------------------------------------------------------




 Dimension of arrays:
   k-points           NKPTS =      1   k-points in BZ     NKDIM =      1   number of bands    NBANDS=    348
   number of dos      NEDOS =    301   number of ions     NIONS =     49
   non local maximal  LDIM  =      6   non local SUM 2l+1 LMDIM =     18
   total plane-waves  NPLWV = 729000
   max r-space proj   IRMAX =      1   max aug-charges    IRDMAX=   3180
   dimension x,y,z NGX =    90 NGY =   90 NGZ =   90
   dimension x,y,z NGXF=   180 NGYF=  180 NGZF=  180
   support grid    NGXF=   180 NGYF=  180 NGZF=  180
   ions per type =              49
 NGX,Y,Z   is equivalent  to a cutoff of   6.53,  6.53,  6.53 a.u.
 NGXF,Y,Z  is equivalent  to a cutoff of  13.06, 13.06, 13.06 a.u.


 I would recommend the setting:
   dimension x,y,z NGX =    89 NGY =   89 NGZ =   89
 SYSTEM =  unknown system                          
 POSCAR =  Pt49, -247.06029033 <s> Ag </s>         

 Startparameter for this run:
   NWRITE =      2    write-flag & timer
   PREC   = normal    normal or accurate (medium, high low for compatibility)
   ISTART =      0    job   : 0-new  1-cont  2-samecut
   ICHARG =      2    charge: 1-file 2-atom 10-const
   ISPIN  =      2    spin polarized calculation?
   LNONCOLLINEAR =      F non collinear calculations
   LSORBIT =      F    spin-orbit coupling
   INIWAV =      1    electr: 0-lowe 1-rand  2-diag
   LASPH  =      F    aspherical Exc in radial PAW
   METAGGA=      F    non-selfconsistent MetaGGA calc.

 Electronic Relaxation 1
   ENCUT  =  249.8 eV  18.36 Ry    4.29 a.u.  29.53 29.53 29.53*2*pi/ulx,y,z
   ENINI  =  249.8     initial cutoff
   ENAUG  =  412.5 eV  augmentation charge cutoff
   NELM   =     60;   NELMIN=  2; NELMDL= -5     # of ELM steps 
   EDIFF  = 0.1E-03   stopping-criterion for ELM
   LREAL  =      F    real-space projection
   NLSPLINE    = F    spline interpolate recip. space projectors
   LCOMPAT=      F    compatible to vasp.4.4
   GGA_COMPAT  = T    GGA compatible to vasp.4.4-vasp.4.6
   LMAXPAW     = -100 max onsite density
   LMAXMIX     =    2 max onsite mixed and CHGCAR
   VOSKOWN=      0    Vosko Wilk Nusair interpolation
   ROPT   =    0.00000
 Ionic relaxation
   EDIFFG = 0.1E-02   stopping-criterion for IOM
   NSW    =   1000    number of steps for IOM
   NBLOCK =      1;   KBLOCK =   1000    inner block; outer block 
   IBRION =      2    ionic relax: 0-MD 1-quasi-New 2-CG
   NFREE  =      1    steps in history (QN), initial steepest desc. (CG)
   ISIF   =      2    stress and relaxation
   IWAVPR =     11    prediction:  0-non 1-charg 2-wave 3-comb
   ISYM   =      2    0-nonsym 1-usesym 2-fastsym
   LCORR  =      T    Harris-Foulkes like correction to forces

   POTIM  = 0.1000    time-step for ionic-motion
   TEIN   =    0.0    initial temperature
   TEBEG  =    0.0;   TEEND  =   0.0 temperature during run
   SMASS  =  -3.00    Nose mass-parameter (am)
   estimated Nose-frequenzy (Omega)   =  0.10E-29 period in steps =****** mass=  -0.120E-25a.u.
   SCALEE = 1.0000    scale energy and forces
   NPACO  =    256;   APACO  = 16.0  distance and # of slots for P.C.
   PSTRESS=    0.0 pullay stress

  Mass of Ions in am
   POMASS = 107.87
  Ionic Valenz
   ZVAL   =  11.00
  Atomic Wigner-Seitz radii
   RWIGS  =  -1.00
  virtual crystal weights 
   VCA    =   1.00
   NELECT =     539.0000    total number of electrons
   NUPDOWN=      -1.0000    fix difference up-down

 DOS related values:
   EMIN   =  10.00;   EMAX   =-10.00  energy-range for DOS
   EFERMI =   0.00
   ISMEAR =     0;   SIGMA  =   0.00  broadening in eV -4-tet -1-fermi 0-gaus

 Electronic relaxation 2 (details)
   IALGO  =     38    algorithm
   LDIAG  =      T    sub-space diagonalisation (order eigenvalues)
   LSUBROT=      F    optimize rotation matrix (better conditioning)
   TURBO    =      0    0=normal 1=particle mesh
   IRESTART =      0    0=no restart 2=restart with 2 vectors
   NREBOOT  =      0    no. of reboots
   NMIN     =      0    reboot dimension
   EREF     =   0.00    reference energy to select bands
   IMIX   =      4    mixing-type and parameters
     AMIX     =   0.40;   BMIX     =  1.00
     AMIX_MAG =   1.60;   BMIX_MAG =  1.00
     AMIN     =   0.10
     WC   =   100.;   INIMIX=   1;  MIXPRE=   1;  MAXMIX= -45

 Intra band minimization:
   WEIMIN = 0.0010     energy-eigenvalue tresh-hold
   EBREAK =  0.72E-07  absolut break condition
   DEPER  =   0.30     relativ break condition  

   TIME   =   0.40     timestep for ELM

  volume/ion in A,a.u.               =     245.42      1656.20
  Fermi-wavevector in a.u.,A,eV,Ry     =   0.581524  1.098920  4.601077  0.338170
  Thomas-Fermi vector in A             =   1.626064
 
 Write flags
   LWAVE  =      F    write WAVECAR
   LCHARG =      F    write CHGCAR
   LVTOT  =      F    write LOCPOT, total local potential
   LVHAR  =      F    write LOCPOT, Hartree potential only
   LELF   =      F    write electronic localiz. function (ELF)
   LORBIT =      0    0 simple, 1 ext, 2 COOP (PROOUT)


 Dipole corrections
   LMONO  =      F    monopole corrections only (constant potential shift)
   LDIPOL =      F    correct potential (dipole corrections)
   IDIPOL =      0    1-x, 2-y, 3-z, 4-all directions 
   EPSILON=  1.0000000 bulk dielectric constant

 Exchange correlation treatment:
   GGA     =    PE    GGA type
   LEXCH   =     8    internal setting for exchange type
   VOSKOWN=      0    Vosko Wilk Nusair interpolation
   LHFCALC =     F    Hartree Fock is set to
   LHFONE  =     F    Hartree Fock one center treatment
   AEXX    =    0.0000 exact exchange contribution

 Linear response parameters
   LEPSILON=     F    determine dielectric tensor
   LRPA    =     F    only Hartree local field effects (RPA)
   LNABLA  =     F    use nabla operator in PAW spheres
   LVEL    =     F    velocity operator in full k-point grid
   LINTERFAST=   F  fast interpolation
   KINTER  =     0    interpolate to denser k-point grid
   CSHIFT  =0.1000    complex shift for real part using Kramers Kronig
   OMEGAMAX=  -1.0    maximum frequency
   DEG_THRESHOLD= 0.2000000E-02 threshold for treating states as degnerate
   RTIME   =    0.100 relaxation time in fs

 Orbital magnetization related:
   ORBITALMAG=     F  switch on orbital magnetization
   LCHIMAG   =     F  perturbation theory with respect to B field
   DQ        =  0.001000  dq finite difference perturbation B field



--------------------------------------------------------------------------------------------------------


 conjugate gradient relaxation of ions
 charge density and potential will be updated during run
 spin polarized calculation
 Variant of blocked Davidson
 Davidson routine will perform the subspace rotation
 perform sub-space diagonalisation
    after iterative eigenvector-optimisation
 modified Broyden-mixing scheme, WC =      100.0
 initial mixing is a Kerker type mixing with AMIX =  0.4000 and BMIX =      1.0000
 Hartree-type preconditioning will be used
 using additional bands           78
 reciprocal scheme for non local part
 use partial core corrections
 calculate Harris-corrections to forces 
   (improved forces if not selfconsistent)
 use gradient corrections 
 use of overlap-Matrix (Vanderbilt PP)
 Gauss-broadening in eV      SIGMA  =   0.00


--------------------------------------------------------------------------------------------------------


  energy-cutoff  :      249.84
  volume of cell :    12025.73
      direct lattice vectors                 reciprocal lattice vectors
    22.910634592  0.000000000  0.000000000     0.043647853  0.000000000  0.000000000
     0.000000000 22.910634592  0.000000000     0.000000000  0.043647853  0.000000000
     0.000000000  0.000000000 22.910634592     0.000000000  0.000000000  0.043647853

  length of vectors
    22.910634592 22.910634592 22.910634592     0.043647853  0.043647853  0.043647853


 
 k-points in units of 2pi/SCALE and weight: Gamma-point only                        
   0.00000000  0.00000000  0.00000000       1.000
 
 k-points in reciprocal lattice and weights: Gamma-point only                        
   0.00000000  0.00000000  0.00000000       1.000
 
 position of ions in fractional coordinates (direct lattice) 
   0.66661216  0.45009963  0.36241080
   0.60543484  0.54587998  0.32744776
   0.63611110  0.64964620  0.37616902
   0.68263388  0.36301247  0.50013200
   0.67126310  0.54860333  0.44526808
   0.60362942  0.33947093  0.39888449
   0.54538405  0.42908017  0.34042433
   0.63051706  0.71959364  0.50819835
   0.48563962  0.52551341  0.29722096
   0.51437830  0.63266068  0.34666860
   0.54461336  0.73152025  0.41324049
   0.68342910  0.47876984  0.55408747
   0.60568944  0.43877245  0.45958743
   0.66634373  0.60687704  0.55727862
   0.52863822  0.52694825  0.41300784
   0.56933912  0.63134110  0.46784700
   0.63828751  0.36495935  0.61019526
   0.56571157  0.32099333  0.51372670
   0.67277532  0.45505778  0.67935099
   0.48566657  0.35453556  0.42282698
   0.64879181  0.61675655  0.68550898
   0.57412095  0.53069265  0.52083166
   0.59340893  0.69786650  0.61914635
   0.42542761  0.44897402  0.36797324
   0.52129102  0.61480724  0.58187841
   0.54873536  0.42828692  0.57196187
   0.40759505  0.57551614  0.37422602
   0.46717105  0.45458049  0.48707428
   0.52383881  0.31927140  0.62818366
   0.44591186  0.34290735  0.54003851
   0.59608306  0.52831620  0.63351962
   0.37063891  0.37954481  0.45155674
   0.43732128  0.68029030  0.43538082
   0.55577751  0.41519161  0.69498001
   0.44995611  0.57432449  0.49242632
   0.50660056  0.72880998  0.53049076
   0.47011870  0.70684085  0.64407697
   0.35042965  0.49934911  0.45422135
   0.58458170  0.52105002  0.74921711
   0.46249021  0.51002917  0.59394082
   0.43958681  0.40172947  0.65291996
   0.36236103  0.43407809  0.55985309
   0.33555502  0.62010499  0.46164799
   0.52610988  0.61815046  0.70480670
   0.46977707  0.50597307  0.71370018
   0.39886811  0.66995549  0.55353074
   0.34483786  0.55748370  0.56493542
   0.41080685  0.60276213  0.66133199
   0.35926140  0.49257307  0.66621888
 
 position of ions in cartesian coordinates  (Angst):
  15.27250753 10.31206816  8.30306131
  13.87089641 12.50645665  7.50203589
  14.57370899 14.88380659  8.61827102
  15.63957541  8.31684602 11.45834150
  15.37906360 12.56885032 10.20137439
  13.82953317  7.77749435  9.13869685
  12.49509474  9.83049909  7.79933752
  14.44554589 16.48634701 11.64314670
  11.12631195 12.03984563  6.80952087
  11.78473334 14.49465766  7.94239766
  12.47743766 16.75959320  9.46760175
  15.65779437 10.96892091 12.69449561
  13.87672949 10.05255533 10.52943966
  15.26635777 13.90393805 12.76760690
  12.11143720 12.07271872  9.46227172
  13.04392062 14.46442534 10.71867174
  14.62357180  8.36145040 13.97996061
  12.96081098  7.35416089 11.76980476
  15.41370961 10.42566253 15.56436218
  11.12692937  8.12263465  9.68723447
  14.86423216 14.13028401 15.70544578
  13.15347518 12.15850540 11.93258386
  13.59537522 15.98856433 14.18503578
   9.74681661 10.28627977  8.43050043
  11.94310812 14.08562395 13.33120354
  12.57187523  9.81232504 13.10400943
   9.33826116 13.18544005  8.57375554
  10.70318530 10.41472741 11.15918093
  12.00147967  7.31471035 14.39208635
  10.21612365  7.85622503 12.37262492
  13.65664116 12.10405945 14.51433661
   8.49157273  8.69561247 10.34545150
  10.01930814 15.58588256  9.97485098
  12.73321548  9.51230334 15.92243304
  10.30878005 13.15813854 11.28179951
  11.60654028 16.69749918 12.15388000
  10.77071765 16.19417238 14.75621214
   8.02856562 11.44040495 10.40649940
  13.39313762 11.93758654 17.16503945
  10.59594411 11.68509195 13.60756109
  10.07121268  9.20387715 14.95881062
   8.30192108  9.94500448 12.82658957
   7.68777844 14.20699887 10.57664845
  12.05351121 14.16221939 16.14756869
  10.76289068 11.59216401 16.35132394
   9.13832150 15.34910531 12.68174055
   7.90045423 12.77230538 12.94302902
   9.41184556 13.80966282 15.15153551
   8.23090670 11.28516151 15.26349738
 


--------------------------------------------------------------------------------------------------------


 use parallel FFT for wavefunctions z direction half grid
 k-point  1 :   0.0000 0.0000 0.0000  plane waves:   53892

 maximum and minimum number of plane-waves per node :      3382     3359

 maximum number of plane-waves:     53892
 maximum index in each direction: 
   IXMAX=   29   IYMAX=   29   IZMAX=   29
   IXMIN=  -29   IYMIN=  -29   IZMIN=    0

 WARNING: aliasing errors must be expected set NGX to 118 to avoid them
 WARNING: aliasing errors must be expected set NGY to 118 to avoid them
 WARNING: aliasing errors must be expected set NGZ to 118 to avoid them
 aliasing errors are usually negligible using standard VASP settings
 and one can safely disregard these warnings

 parallel 3D FFT for wavefunctions:
    minimum data exchange during FFTs selected (reduces bandwidth)
 parallel 3D FFT for charge:
    minimum data exchange during FFTs selected (reduces bandwidth)


 total amount of memory used by VASP on root node    57933. kBytes
========================================================================

   base      :      30000. kBytes
   nonl-proj :       3118. kBytes
   fftplans  :       4335. kBytes
   grid      :      10964. kBytes
   one-center:         62. kBytes
   wavefun   :       9454. kBytes
 
     INWAV:  cpu time    0.00: real time    0.00
 Broyden mixing: mesh for mixing (old mesh)
   NGX = 59   NGY = 59   NGZ = 59
  (NGX  =180   NGY  =180   NGZ  =180)
  gives a total of 205379 points

 initial charge density was supplied:
 charge density of overlapping atoms calculated
 number of electron     539.0000000 magnetization      49.0000000
 keeping initial charge density in first step


--------------------------------------------------------------------------------------------------------


 Maximum index for augmentation-charges          242 (set IRDMAX)


--------------------------------------------------------------------------------------------------------


 First call to EWALD:  gamma=   0.077
 Maximum number of real-space cells 3x 3x 3
 Maximum number of reciprocal cells 3x 3x 3

 FEWALD executed in parallel
    FEWALD:  cpu time    0.00: real time    0.00


----------------------------------------- Iteration    1(   1)  ---------------------------------------


    POTLOK:  cpu time    0.22: real time    0.22
    SETDIJ:  cpu time    0.01: real time    0.01
     EDDAV:  cpu time    5.70: real time    5.71
       DOS:  cpu time    0.00: real time    0.00
    --------------------------------------------
      LOOP:  cpu time    5.93: real time    5.96

 eigenvalue-minimisations  :  1424
 total energy-change (2. order) : 0.4417291E+04  (-0.1151499E+05)
 number of electron     539.0000000 magnetization      49.0000000
 augmentation part      539.0000000 magnetization      49.0000000

 Free energy of the ion-electron system (eV)
  ---------------------------------------------------
  alpha Z        PSCENC =       169.82240414
  Ewald energy   TEWEN  =    149408.88674677
  -Hartree energ DENC   =   -198306.78490559
  -exchange      EXHF   =         0.00000000
  -V(xc)+E(xc)   XCENC  =      -529.96513152
  PAW double counting   =     49165.23672541   -46905.96583506
  entropy T*S    EENTRO =         0.00000000
  eigenvalues    EBANDS =       593.32790815
  atomic energy  EATOM  =     50822.73287423
  ---------------------------------------------------
  free energy    TOTEN  =      4417.29078653 eV

  energy without entropy =     4417.29078653  energy(sigma->0) =     4417.29078653


--------------------------------------------------------------------------------------------------------




----------------------------------------- Iteration    1(   2)  ---------------------------------------


     EDDAV:  cpu time    8.06: real time    8.07
       DOS:  cpu time    0.00: real time    0.00
    --------------------------------------------
      LOOP:  cpu time    8.06: real time    8.08

 eigenvalue-minimisations  :  2200
 total energy-change (2. order) :-0.3773005E+04  (-0.3410714E+04)
 number of electron     539.0000000 magnetization      49.0000000
 augmentation part      539.0000000 magnetization      49.0000000

 Free energy of the ion-electron system (eV)
  ---------------------------------------------------
  alpha Z        PSCENC =       169.82240414
  Ewald energy   TEWEN  =    149408.88674677
  -Hartree energ DENC   =   -198306.78490559
  -exchange      EXHF   =         0.00000000
  -V(xc)+E(xc)   XCENC  =      -529.96513152
  PAW double counting   =     49165.23672541   -46905.96583506
  entropy T*S    EENTRO =         0.00000000
  eigenvalues    EBANDS =     -3179.67721891
  atomic energy  EATOM  =     50822.73287423
  ---------------------------------------------------
  free energy    TOTEN  =       644.28565947 eV

  energy without entropy =      644.28565947  energy(sigma->0) =      644.28565947


--------------------------------------------------------------------------------------------------------




----------------------------------------- Iteration    1(   3)  ---------------------------------------


     EDDAV:  cpu time    6.64: real time    6.65
       DOS:  cpu time    0.00: real time    0.00
    --------------------------------------------
      LOOP:  cpu time    6.65: real time    6.73

 eigenvalue-minimisations  :  1728
 total energy-change (2. order) :-0.7266828E+03  (-0.6727412E+03)
 number of electron     539.0000000 magnetization      49.0000000
 augmentation part      539.0000000 magnetization      49.0000000

 Free energy of the ion-electron system (eV)
  ---------------------------------------------------
  alpha Z        PSCENC =       169.82240414
  Ewald energy   TEWEN  =    149408.88674677
  -Hartree energ DENC   =   -198306.78490559
  -exchange      EXHF   =         0.00000000
  -V(xc)+E(xc)   XCENC  =      -529.96513152
  PAW double counting   =     49165.23672541   -46905.96583506
  entropy T*S    EENTRO =         0.00000000
  eigenvalues    EBANDS =     -3906.36001790
  atomic energy  EATOM  =     50822.73287423
  ---------------------------------------------------
  free energy    TOTEN  =       -82.39713952 eV

  energy without entropy =      -82.39713952  energy(sigma->0) =      -82.39713952


--------------------------------------------------------------------------------------------------------




----------------------------------------- Iteration    1(   4)  ---------------------------------------


     EDDAV:  cpu time    5.91: real time    5.91
       DOS:  cpu time    0.00: real time    0.00
    --------------------------------------------
      LOOP:  cpu time    5.91: real time    5.92

 eigenvalue-minimisations  :  1496
 total energy-change (2. order) :-0.2593269E+02  (-0.2572045E+02)
 number of electron     539.0000000 magnetization      49.0000000
 augmentation part      539.0000000 magnetization      49.0000000

 Free energy of the ion-electron system (eV)
  ---------------------------------------------------
  alpha Z        PSCENC =       169.82240414
  Ewald energy   TEWEN  =    149408.88674677
  -Hartree energ DENC   =   -198306.78490559
  -exchange      EXHF   =         0.00000000
  -V(xc)+E(xc)   XCENC  =      -529.96513152
  PAW double counting   =     49165.23672541   -46905.96583506
  entropy T*S    EENTRO =         0.00000000
  eigenvalues    EBANDS =     -3932.29270966
  atomic energy  EATOM  =     50822.73287423
  ---------------------------------------------------
  free energy    TOTEN  =      -108.32983128 eV

  energy without entropy =     -108.32983128  energy(sigma->0) =     -108.32983128


--------------------------------------------------------------------------------------------------------




----------------------------------------- Iteration    1(   5)  ---------------------------------------


     EDDAV:  cpu time    6.20: real time    6.20
       DOS:  cpu time    0.00: real time    0.00
    CHARGE:  cpu time    0.14: real time    0.14
    MIXING:  cpu time    0.00: real time    0.01
    --------------------------------------------
      LOOP:  cpu time    6.34: real time    6.35

 eigenvalue-minimisations  :  1584
 total energy-change (2. order) :-0.3919528E+00  (-0.3915551E+00)
 number of electron     538.9999720 magnetization      43.8516350
 augmentation part      252.2188851 magnetization      42.0579612

 Broyden mixing:
  rms(total) = 0.42303E+01    rms(broyden)= 0.42297E+01
  rms(prec ) = 0.42945E+01
  weight for this iteration     100.00

 Free energy of the ion-electron system (eV)
  ---------------------------------------------------
  alpha Z        PSCENC =       169.82240414
  Ewald energy   TEWEN  =    149408.88674677
  -Hartree energ DENC   =   -198306.78490559
  -exchange      EXHF   =         0.00000000
  -V(xc)+E(xc)   XCENC  =      -529.96513152
  PAW double counting   =     49165.23672541   -46905.96583506
  entropy T*S    EENTRO =         0.00000000
  eigenvalues    EBANDS =     -3932.68466249
  atomic energy  EATOM  =     50822.73287423
  ---------------------------------------------------
  free energy    TOTEN  =      -108.72178411 eV

  energy without entropy =     -108.72178411  energy(sigma->0) =     -108.72178411


--------------------------------------------------------------------------------------------------------




----------------------------------------- Iteration    1(   6)  ---------------------------------------


    POTLOK:  cpu time    0.21: real time    0.21
    SETDIJ:  cpu time    0.01: real time    0.01
     EDDAV:  cpu time    5.65: real time    5.66
       DOS:  cpu time    0.00: real time    0.00
    CHARGE:  cpu time    0.14: real time    0.14
    MIXING:  cpu time    0.00: real time    0.00
    --------------------------------------------
      LOOP:  cpu time    6.02: real time    7.02

 eigenvalue-minimisations  :  1404
 total energy-change (2. order) : 0.5438502E+02  (-0.1688645E+02)
 number of electron     538.9999717 magnetization      40.1124586
 augmentation part      258.5945326 magnetization      27.4725128

 Broyden mixing:
  rms(total) = 0.23423E+01    rms(broyden)= 0.23421E+01
  rms(prec ) = 0.23684E+01
  weight for this iteration     100.00

 eigenvalues of (default mixing * dielectric matrix)
  average eigenvalue GAMMA=   0.8618
  0.8618

 Free energy of the ion-electron system (eV)
  ---------------------------------------------------
  alpha Z        PSCENC =       169.82240414
  Ewald energy   TEWEN  =    149408.88674677
  -Hartree energ DENC   =   -198087.17862797
  -exchange      EXHF   =         0.00000000
  -V(xc)+E(xc)   XCENC  =      -509.23278178
  PAW double counting   =     50991.42378272   -48772.11698728
  entropy T*S    EENTRO =         0.00000000
  eigenvalues    EBANDS =     -4078.67417960
  atomic energy  EATOM  =     50822.73287423
  ---------------------------------------------------
  free energy    TOTEN  =       -54.33676877 eV

  energy without entropy =      -54.33676877  energy(sigma->0) =      -54.33676877


--------------------------------------------------------------------------------------------------------




----------------------------------------- Iteration    1(   7)  ---------------------------------------


    POTLOK:  cpu time    0.21: real time    0.21
    SETDIJ:  cpu time    0.01: real time    0.01
     EDDAV:  cpu time    5.86: real time    5.87
       DOS:  cpu time    0.00: real time    0.00
    CHARGE:  cpu time    0.14: real time    0.14
    MIXING:  cpu time    0.00: real time    0.00
    --------------------------------------------
      LOOP:  cpu time    6.23: real time    6.25

 eigenvalue-minimisations  :  1472
 total energy-change (2. order) : 0.1223267E+02  (-0.1140635E+01)
 number of electron     538.9999718 magnetization      34.1234525
 augmentation part      258.6172359 magnetization      21.9299488

 Broyden mixing:
  rms(total) = 0.14350E+01    rms(broyden)= 0.14350E+01
  rms(prec ) = 0.14470E+01
  weight for this iteration     100.00

 eigenvalues of (default mixing * dielectric matrix)
  average eigenvalue GAMMA=   1.0462
  0.7660  1.3263

 Free energy of the ion-electron system (eV)
  ---------------------------------------------------
  alpha Z        PSCENC =       169.82240414
  Ewald energy   TEWEN  =    149408.88674677
  -Hartree energ DENC   =   -198219.98045002
  -exchange      EXHF   =         0.00000000
  -V(xc)+E(xc)   XCENC  =      -499.47461049
  PAW double counting   =     52092.68101071   -49899.09459313
  entropy T*S    EENTRO =         0.00000000
  eigenvalues    EBANDS =     -3917.67748502
  atomic energy  EATOM  =     50822.73287423
  ---------------------------------------------------
  free energy    TOTEN  =       -42.10410279 eV

  energy without entropy =      -42.10410279  energy(sigma->0) =      -42.10410279


--------------------------------------------------------------------------------------------------------




----------------------------------------- Iteration    1(   8)  ---------------------------------------


    POTLOK:  cpu time    0.21: real time    0.21
    SETDIJ:  cpu time    0.01: real time    0.01
     EDDAV:  cpu time    5.88: real time    5.88
       DOS:  cpu time    0.00: real time    0.00
    CHARGE:  cpu time    0.14: real time    0.13
    MIXING:  cpu time    0.00: real time    0.00
    --------------------------------------------
      LOOP:  cpu time    6.24: real time    6.27

 eigenvalue-minimisations  :  1476
 total energy-change (2. order) : 0.4582044E+01  (-0.3183176E+00)
 number of electron     538.9999719 magnetization      30.1559977
 augmentation part      258.4789464 magnetization      18.1988350

 Broyden mixing:
  rms(total) = 0.80846E+00    rms(broyden)= 0.80844E+00
  rms(prec ) = 0.81189E+00
  weight for this iteration     100.00

 eigenvalues of (default mixing * dielectric matrix)
  average eigenvalue GAMMA=   1.2849
  2.3420  0.9004  0.6124

 Free energy of the ion-electron system (eV)
  ---------------------------------------------------
  alpha Z        PSCENC =       169.82240414
  Ewald energy   TEWEN  =    149408.88674677
  -Hartree energ DENC   =   -198370.86924297
  -exchange      EXHF   =         0.00000000
  -V(xc)+E(xc)   XCENC  =      -495.58249518
  PAW double counting   =     53423.19939341   -51257.09725663
  entropy T*S    EENTRO =         0.00000000
  eigenvalues    EBANDS =     -3738.61448271
  atomic energy  EATOM  =     50822.73287423
  ---------------------------------------------------
  free energy    TOTEN  =       -37.52205894 eV

  energy without entropy =      -37.52205894  energy(sigma->0) =      -37.52205894


--------------------------------------------------------------------------------------------------------




----------------------------------------- Iteration    1(   9)  ---------------------------------------


    POTLOK:  cpu time    0.21: real time    0.21
    SETDIJ:  cpu time    0.01: real time    0.01
     EDDAV:  cpu time    5.98: real time    5.98
       DOS:  cpu time    0.00: real time    0.00
    CHARGE:  cpu time    0.14: real time    0.14
    MIXING:  cpu time    0.00: real time    0.01
    --------------------------------------------
      LOOP:  cpu time    6.34: real time    7.34

 eigenvalue-minimisations  :  1520
 total energy-change (2. order) :-0.3278408E+01  (-0.7986681E-01)
 number of electron     538.9999719 magnetization      25.2734603
 augmentation part      258.3756349 magnetization      13.5727095

 Broyden mixing:
  rms(total) = 0.51638E+00    rms(broyden)= 0.51638E+00
  rms(prec ) = 0.51954E+00
  weight for this iteration     100.00

 eigenvalues of (default mixing * dielectric matrix)
  average eigenvalue GAMMA=   1.2731
  2.3870  0.6174  0.8223  1.2657

 Free energy of the ion-electron system (eV)
  ---------------------------------------------------
  alpha Z        PSCENC =       169.82240414
  Ewald energy   TEWEN  =    149408.88674677
  -Hartree energ DENC   =   -198429.02203790
  -exchange      EXHF   =         0.00000000
  -V(xc)+E(xc)   XCENC  =      -497.50121518
  PAW double counting   =     53889.41000256   -51732.56716828
  entropy T*S    EENTRO =         0.00000000
  eigenvalues    EBANDS =     -3672.56207291
  atomic energy  EATOM  =     50822.73287423
  ---------------------------------------------------
  free energy    TOTEN  =       -40.80046656 eV

  energy without entropy =      -40.80046656  energy(sigma->0) =      -40.80046656


--------------------------------------------------------------------------------------------------------




----------------------------------------- Iteration    1(  10)  ---------------------------------------


    POTLOK:  cpu time    0.22: real time    0.22
    SETDIJ:  cpu time    0.01: real time    0.01
     EDDAV:  cpu time    5.73: real time    5.73
       DOS:  cpu time    0.00: real time    0.00
    CHARGE:  cpu time    0.14: real time    0.14
    MIXING:  cpu time    0.00: real time    0.01
    --------------------------------------------
      LOOP:  cpu time    6.10: real time    9.57

 eigenvalue-minimisations  :  1428
 total energy-change (2. order) :-0.1457729E+02  (-0.4456892E+00)
 number of electron     538.9999719 magnetization      18.4539255
 augmentation part      258.2940605 magnetization       7.4968630

 Broyden mixing:
  rms(total) = 0.36447E+00    rms(broyden)= 0.36446E+00
  rms(prec ) = 0.36626E+00
  weight for this iteration     100.00

 eigenvalues of (default mixing * dielectric matrix)
  average eigenvalue GAMMA=   1.5887
  3.2389  2.2420  0.9152  0.9152  0.6322

 Free energy of the ion-electron system (eV)
  ---------------------------------------------------
  alpha Z        PSCENC =       169.82240414
  Ewald energy   TEWEN  =    149408.88674677
  -Hartree energ DENC   =   -198443.45345926
  -exchange      EXHF   =         0.00000000
  -V(xc)+E(xc)   XCENC  =      -508.10174101
  PAW double counting   =     53900.24463756   -51743.44312293
  entropy T*S    EENTRO =         0.00000000
  eigenvalues    EBANDS =     -3662.06609851
  atomic energy  EATOM  =     50822.73287423
  ---------------------------------------------------
  free energy    TOTEN  =       -55.37775901 eV

  energy without entropy =      -55.37775901  energy(sigma->0) =      -55.37775901


--------------------------------------------------------------------------------------------------------




----------------------------------------- Iteration    1(  11)  ---------------------------------------


    POTLOK:  cpu time    0.21: real time    0.21
    SETDIJ:  cpu time    0.01: real time    0.01
     EDDAV:  cpu time    5.76: real time    5.77
       DOS:  cpu time    0.00: real time    0.00
    CHARGE:  cpu time    0.14: real time    0.14
    MIXING:  cpu time    0.01: real time    0.01
    --------------------------------------------
      LOOP:  cpu time    6.12: real time    6.14

 eigenvalue-minimisations  :  1440
 total energy-change (2. order) :-0.2178483E+02  (-0.1127641E+01)
 number of electron     538.9999718 magnetization      17.2739083
 augmentation part      258.1900781 magnetization      11.0364290

 Broyden mixing:
  rms(total) = 0.33096E+00    rms(broyden)= 0.33081E+00
  rms(prec ) = 0.33804E+00
  weight for this iteration     100.00

 eigenvalues of (default mixing * dielectric matrix)
  average eigenvalue GAMMA=   1.3998
  3.4831  2.2406  0.6311  0.9392  0.8791  0.2255

 Free energy of the ion-electron system (eV)
  ---------------------------------------------------
  alpha Z        PSCENC =       169.82240414
  Ewald energy   TEWEN  =    149408.88674677
  -Hartree energ DENC   =   -198446.13737218
  -exchange      EXHF   =         0.00000000
  -V(xc)+E(xc)   XCENC  =      -524.41836384
  PAW double counting   =     53827.25925659   -51669.44569072
  entropy T*S    EENTRO =        -0.00000000
  eigenvalues    EBANDS =     -3665.86244176
  atomic energy  EATOM  =     50822.73287423
  ---------------------------------------------------
  free energy    TOTEN  =       -77.16258677 eV

  energy without entropy =      -77.16258677  energy(sigma->0) =      -77.16258677


--------------------------------------------------------------------------------------------------------




----------------------------------------- Iteration    1(  12)  ---------------------------------------


    POTLOK:  cpu time    0.22: real time    0.21
    SETDIJ:  cpu time    0.00: real time    0.01
     EDDAV:  cpu time    6.40: real time    6.40
       DOS:  cpu time    0.00: real time    0.00
    CHARGE:  cpu time    0.14: real time    0.14
    MIXING:  cpu time    0.00: real time    0.01
    --------------------------------------------
      LOOP:  cpu time    6.76: real time    6.78

 eigenvalue-minimisations  :  1648
 total energy-change (2. order) :-0.1859743E+01  (-0.4045055E-01)
 number of electron     538.9999718 magnetization      13.2463099
 augmentation part      258.1400483 magnetization       7.2108775

 Broyden mixing:
  rms(total) = 0.28226E+00    rms(broyden)= 0.28225E+00
  rms(prec ) = 0.28848E+00
  weight for this iteration     100.00

 eigenvalues of (default mixing * dielectric matrix)
  average eigenvalue GAMMA=   1.4061
  3.8440  2.3329  0.9492  0.9320  0.6294  0.5777  0.5777

 Free energy of the ion-electron system (eV)
  ---------------------------------------------------
  alpha Z        PSCENC =       169.82240414
  Ewald energy   TEWEN  =    149408.88674677
  -Hartree energ DENC   =   -198445.35883669
  -exchange      EXHF   =         0.00000000
  -V(xc)+E(xc)   XCENC  =      -525.70140761
  PAW double counting   =     53821.85601419   -51664.19189122
  entropy T*S    EENTRO =        -0.00000000
  eigenvalues    EBANDS =     -3667.06823399
  atomic energy  EATOM  =     50822.73287423
  ---------------------------------------------------
  free energy    TOTEN  =       -79.02233019 eV

  energy without entropy =      -79.02233019  energy(sigma->0) =      -79.02233019


--------------------------------------------------------------------------------------------------------




----------------------------------------- Iteration    1(  13)  ---------------------------------------


    POTLOK:  cpu time    0.21: real time    0.21
    SETDIJ:  cpu time    0.01: real time    0.01
     EDDAV:  cpu time    5.71: real time    5.71
       DOS:  cpu time    0.00: real time    0.00
    CHARGE:  cpu time    0.14: real time    0.14
    MIXING:  cpu time    0.00: real time    0.01
    --------------------------------------------
      LOOP:  cpu time    6.08: real time    6.10

 eigenvalue-minimisations  :  1424
 total energy-change (2. order) :-0.8901693E+01  (-0.3461045E+00)
 number of electron     538.9999717 magnetization       9.9282801
 augmentation part      258.1849154 magnetization       6.2561092

 Broyden mixing:
  rms(total) = 0.24583E+00    rms(broyden)= 0.24573E+00
  rms(prec ) = 0.25385E+00
  weight for this iteration     100.00

 eigenvalues of (default mixing * dielectric matrix)
  average eigenvalue GAMMA=   1.4995
  4.9629  2.3308  1.2519  0.9127  0.7486  0.7486  0.6288  0.4119

 Free energy of the ion-electron system (eV)
  ---------------------------------------------------
  alpha Z        PSCENC =       169.82240414
  Ewald energy   TEWEN  =    149408.88674677
  -Hartree energ DENC   =   -198418.90868748
  -exchange      EXHF   =         0.00000000
  -V(xc)+E(xc)   XCENC  =      -532.64471199
  PAW double counting   =     53680.68263506   -51522.53385349
  entropy T*S    EENTRO =         0.00000000
  eigenvalues    EBANDS =     -3695.96143053
  atomic energy  EATOM  =     50822.73287423
  ---------------------------------------------------
  free energy    TOTEN  =       -87.92402329 eV

  energy without entropy =      -87.92402329  energy(sigma->0) =      -87.92402329


--------------------------------------------------------------------------------------------------------




----------------------------------------- Iteration    1(  14)  ---------------------------------------


    POTLOK:  cpu time    0.21: real time    0.21
    SETDIJ:  cpu time    0.01: real time    0.01
     EDDAV:  cpu time    5.77: real time    5.77
       DOS:  cpu time    0.00: real time    0.00
    CHARGE:  cpu time    0.14: real time    0.14
    MIXING:  cpu time    0.00: real time    0.01
    --------------------------------------------
      LOOP:  cpu time    6.13: real time    6.16

 eigenvalue-minimisations  :  1440
 total energy-change (2. order) :-0.4979058E+01  (-0.1406316E+00)
 number of electron     538.9999717 magnetization       6.9970562
 augmentation part      258.2011371 magnetization       3.6573490

 Broyden mixing:
  rms(total) = 0.16086E+00    rms(broyden)= 0.16084E+00
  rms(prec ) = 0.16588E+00
  weight for this iteration     100.00

 eigenvalues of (default mixing * dielectric matrix)
  average eigenvalue GAMMA=   1.6409
  6.4899  2.0424  1.9903  0.9507  0.7291  0.7291  0.7629  0.6244  0.4493

 Free energy of the ion-electron system (eV)
  ---------------------------------------------------
  alpha Z        PSCENC =       169.82240414
  Ewald energy   TEWEN  =    149408.88674677
  -Hartree energ DENC   =   -198400.71798170
  -exchange      EXHF   =         0.00000000
  -V(xc)+E(xc)   XCENC  =      -536.77288411
  PAW double counting   =     53624.07166630   -51466.31795503
  entropy T*S    EENTRO =         0.00000000
  eigenvalues    EBANDS =     -3714.60795164
  atomic energy  EATOM  =     50822.73287423
  ---------------------------------------------------
  free energy    TOTEN  =       -92.90308103 eV

  energy without entropy =      -92.90308103  energy(sigma->0) =      -92.90308103


--------------------------------------------------------------------------------------------------------




----------------------------------------- Iteration    1(  15)  ---------------------------------------


    POTLOK:  cpu time    0.21: real time    0.21
    SETDIJ:  cpu time    0.01: real time    0.01
     EDDAV:  cpu time    5.72: real time    5.73
       DOS:  cpu time    0.00: real time    0.00
    CHARGE:  cpu time    0.14: real time    0.13
    MIXING:  cpu time    0.00: real time    0.01
    --------------------------------------------
      LOOP:  cpu time    6.09: real time    6.09

 eigenvalue-minimisations  :  1420
 total energy-change (2. order) :-0.5333159E+01  (-0.1625263E+00)
 number of electron     538.9999716 magnetization       6.0942574
 augmentation part      258.1479088 magnetization       2.9672078

 Broyden mixing:
  rms(total) = 0.14234E+00    rms(broyden)= 0.14215E+00
  rms(prec ) = 0.16216E+00
  weight for this iteration     100.00

 eigenvalues of (default mixing * dielectric matrix)
  average eigenvalue GAMMA=   1.5895
  7.0123  2.1851  1.9756  0.9888  0.7087  0.7087  0.8135  0.6263  0.4378  0.4378

 Free energy of the ion-electron system (eV)
  ---------------------------------------------------
  alpha Z        PSCENC =       169.82240414
  Ewald energy   TEWEN  =    149408.88674677
  -Hartree energ DENC   =   -198378.13523984
  -exchange      EXHF   =         0.00000000
  -V(xc)+E(xc)   XCENC  =      -541.42970058
  PAW double counting   =     53593.39385250   -51436.18323333
  entropy T*S    EENTRO =        -0.00000000
  eigenvalues    EBANDS =     -3737.32394368
  atomic energy  EATOM  =     50822.73287423
  ---------------------------------------------------
  free energy    TOTEN  =       -98.23623978 eV

  energy without entropy =      -98.23623978  energy(sigma->0) =      -98.23623978


--------------------------------------------------------------------------------------------------------




----------------------------------------- Iteration    1(  16)  ---------------------------------------


    POTLOK:  cpu time    0.21: real time    0.21
    SETDIJ:  cpu time    0.01: real time    0.01
     EDDAV:  cpu time    5.97: real time    5.97
       DOS:  cpu time    0.00: real time    0.00
    CHARGE:  cpu time    0.14: real time    0.14
    MIXING:  cpu time    0.01: real time    0.01
    --------------------------------------------
      LOOP:  cpu time    6.33: real time    6.38

 eigenvalue-minimisations  :  1504
 total energy-change (2. order) :-0.1184016E+01  (-0.1167627E-01)
 number of electron     538.9999717 magnetization       4.8142685
 augmentation part      258.1879217 magnetization       3.6352925

 Broyden mixing:
  rms(total) = 0.13686E+00    rms(broyden)= 0.13674E+00
  rms(prec ) = 0.14929E+00
  weight for this iteration     100.00

 eigenvalues of (default mixing * dielectric matrix)
  average eigenvalue GAMMA=   1.5621
  7.6748  2.1730  2.1730  0.9749  0.8511  0.7318  0.7318  0.6328  0.4489  0.3954
  0.3954

 Free energy of the ion-electron system (eV)
  ---------------------------------------------------
  alpha Z        PSCENC =       169.82240414
  Ewald energy   TEWEN  =    149408.88674677
  -Hartree energ DENC   =   -198366.20121748
  -exchange      EXHF   =         0.00000000
  -V(xc)+E(xc)   XCENC  =      -542.61898716
  PAW double counting   =     53570.29999231   -51412.84097902
  entropy T*S    EENTRO =        -0.00000276
  eigenvalues    EBANDS =     -3749.50108710
  atomic energy  EATOM  =     50822.73287423
  ---------------------------------------------------
  free energy    TOTEN  =       -99.42025606 eV

  energy without entropy =      -99.42025330  energy(sigma->0) =      -99.42025468


--------------------------------------------------------------------------------------------------------




----------------------------------------- Iteration    1(  17)  ---------------------------------------


    POTLOK:  cpu time    0.22: real time    0.21
    SETDIJ:  cpu time    0.01: real time    0.01
     EDDAV:  cpu time    5.76: real time    5.76
       DOS:  cpu time    0.00: real time    0.00
    CHARGE:  cpu time    0.14: real time    0.14
    MIXING:  cpu time    0.01: real time    0.01
    --------------------------------------------
      LOOP:  cpu time    6.12: real time    6.23

 eigenvalue-minimisations  :  1432
 total energy-change (2. order) :-0.8818305E+00  (-0.8594172E-02)
 number of electron     538.9999717 magnetization       3.6574685
 augmentation part      258.2021072 magnetization       2.5755962

 Broyden mixing:
  rms(total) = 0.11185E+00    rms(broyden)= 0.11183E+00
  rms(prec ) = 0.12390E+00
  weight for this iteration     100.00

 eigenvalues of (default mixing * dielectric matrix)
  average eigenvalue GAMMA=   1.5713
  8.2489  2.2199  2.2199  0.8737  0.8737  0.9813  0.8514  0.6277  0.5219  0.5219
  0.4579  0.4579

 Free energy of the ion-electron system (eV)
  ---------------------------------------------------
  alpha Z        PSCENC =       169.82240414
  Ewald energy   TEWEN  =    149408.88674677
  -Hartree energ DENC   =   -198356.26250594
  -exchange      EXHF   =         0.00000000
  -V(xc)+E(xc)   XCENC  =      -543.48819955
  PAW double counting   =     53559.59863994   -51402.12442188
  entropy T*S    EENTRO =        -0.00000300
  eigenvalues    EBANDS =     -3759.46762124
  atomic energy  EATOM  =     50822.73287423
  ---------------------------------------------------
  free energy    TOTEN  =      -100.30208653 eV

  energy without entropy =     -100.30208354  energy(sigma->0) =     -100.30208503


--------------------------------------------------------------------------------------------------------




----------------------------------------- Iteration    1(  18)  ---------------------------------------


    POTLOK:  cpu time    0.22: real time    0.21
    SETDIJ:  cpu time    0.01: real time    0.01
     EDDAV:  cpu time    5.77: real time    5.78
       DOS:  cpu time    0.00: real time    0.00
    CHARGE:  cpu time    0.14: real time    0.14
    MIXING:  cpu time    0.01: real time    0.01
    --------------------------------------------
      LOOP:  cpu time    6.14: real time    6.18

 eigenvalue-minimisations  :  1440
 total energy-change (2. order) :-0.1444162E+01  (-0.1497503E-01)
 number of electron     538.9999717 magnetization       2.8065832
 augmentation part      258.1762038 magnetization       1.7680758

 Broyden mixing:
  rms(total) = 0.98773E-01    rms(broyden)= 0.98693E-01
  rms(prec ) = 0.11083E+00
  weight for this iteration     100.00

 eigenvalues of (default mixing * dielectric matrix)
  average eigenvalue GAMMA=   1.5585
  8.8091  2.2789  2.2789  0.9416  0.9416  0.9987  0.8629  0.6327  0.5723  0.5723
  0.4618  0.4547  0.4547

 Free energy of the ion-electron system (eV)
  ---------------------------------------------------
  alpha Z        PSCENC =       169.82240414
  Ewald energy   TEWEN  =    149408.88674677
  -Hartree energ DENC   =   -198341.94800345
  -exchange      EXHF   =         0.00000000
  -V(xc)+E(xc)   XCENC  =      -544.89751156
  PAW double counting   =     53563.99637962   -51406.26338651
  entropy T*S    EENTRO =        -0.00000000
  eigenvalues    EBANDS =     -3774.07575188
  atomic energy  EATOM  =     50822.73287423
  ---------------------------------------------------
  free energy    TOTEN  =      -101.74624863 eV

  energy without entropy =     -101.74624863  energy(sigma->0) =     -101.74624863


--------------------------------------------------------------------------------------------------------




----------------------------------------- Iteration    1(  19)  ---------------------------------------


    POTLOK:  cpu time    0.21: real time    0.21
    SETDIJ:  cpu time    0.01: real time    0.01
     EDDAV:  cpu time    5.75: real time    5.76
       DOS:  cpu time    0.00: real time    0.00
    CHARGE:  cpu time    0.14: real time    0.14
    MIXING:  cpu time    0.01: real time    0.01
    --------------------------------------------
      LOOP:  cpu time    6.12: real time    6.14

 eigenvalue-minimisations  :  1432
 total energy-change (2. order) :-0.1005289E+01  (-0.7179744E-02)
 number of electron     538.9999716 magnetization       2.3615148
 augmentation part      258.1883502 magnetization       1.3634775

 Broyden mixing:
  rms(total) = 0.99556E-01    rms(broyden)= 0.99487E-01
  rms(prec ) = 0.11088E+00
  weight for this iteration     100.00

 eigenvalues of (default mixing * dielectric matrix)
  average eigenvalue GAMMA=   1.5415
  9.2253  2.3276  2.3276  1.0700  1.0700  0.9976  0.8535  0.5417  0.5417  0.6238
  0.4930  0.4930  0.5082  0.5082

 Free energy of the ion-electron system (eV)
  ---------------------------------------------------
  alpha Z        PSCENC =       169.82240414
  Ewald energy   TEWEN  =    149408.88674677
  -Hartree energ DENC   =   -198326.93579961
  -exchange      EXHF   =         0.00000000
  -V(xc)+E(xc)   XCENC  =      -545.96594157
  PAW double counting   =     53554.57581116   -51396.53433822
  entropy T*S    EENTRO =        -0.00000000
  eigenvalues    EBANDS =     -3789.33329461
  atomic energy  EATOM  =     50822.73287423
  ---------------------------------------------------
  free energy    TOTEN  =      -102.75153771 eV

  energy without entropy =     -102.75153771  energy(sigma->0) =     -102.75153771


--------------------------------------------------------------------------------------------------------




----------------------------------------- Iteration    1(  20)  ---------------------------------------


    POTLOK:  cpu time    0.21: real time    0.21
    SETDIJ:  cpu time    0.01: real time    0.01
     EDDAV:  cpu time    5.80: real time    5.81
       DOS:  cpu time    0.00: real time    0.00
    CHARGE:  cpu time    0.14: real time    0.14
    MIXING:  cpu time    0.01: real time    0.01
    --------------------------------------------
      LOOP:  cpu time    6.17: real time    6.29

 eigenvalue-minimisations  :  1448
 total energy-change (2. order) :-0.9279307E+00  (-0.5089910E-02)
 number of electron     538.9999716 magnetization       2.1208724
 augmentation part      258.1640751 magnetization       1.1214927

 Broyden mixing:
  rms(total) = 0.79766E-01    rms(broyden)= 0.79749E-01
  rms(prec ) = 0.89767E-01
  weight for this iteration     100.00

 eigenvalues of (default mixing * dielectric matrix)
  average eigenvalue GAMMA=   1.5718
  9.7713  2.7590  1.9974  1.1987  1.1987  1.1440  0.6651  0.6651  0.8396  0.5699
  0.5699  0.6352  0.4999  0.5318  0.5318

 Free energy of the ion-electron system (eV)
  ---------------------------------------------------
  alpha Z        PSCENC =       169.82240414
  Ewald energy   TEWEN  =    149408.88674677
  -Hartree energ DENC   =   -198316.03612089
  -exchange      EXHF   =         0.00000000
  -V(xc)+E(xc)   XCENC  =      -546.91190420
  PAW double counting   =     53567.20223015   -51408.98171461
  entropy T*S    EENTRO =        -0.00000000
  eigenvalues    EBANDS =     -3800.39398397
  atomic energy  EATOM  =     50822.73287423
  ---------------------------------------------------
  free energy    TOTEN  =      -103.67946837 eV

  energy without entropy =     -103.67946837  energy(sigma->0) =     -103.67946837


--------------------------------------------------------------------------------------------------------




----------------------------------------- Iteration    1(  21)  ---------------------------------------


    POTLOK:  cpu time    0.21: real time    0.21
    SETDIJ:  cpu time    0.01: real time    0.01
     EDDAV:  cpu time    5.74: real time    5.75
       DOS:  cpu time    0.00: real time    0.00
    CHARGE:  cpu time    0.14: real time    0.14
    MIXING:  cpu time    0.01: real time    0.01
    --------------------------------------------
      LOOP:  cpu time    6.11: real time    6.12

 eigenvalue-minimisations  :  1432
 total energy-change (2. order) :-0.9685280E+00  (-0.5878020E-02)
 number of electron     538.9999717 magnetization       1.9953658
 augmentation part      258.1772313 magnetization       0.9894789

 Broyden mixing:
  rms(total) = 0.74929E-01    rms(broyden)= 0.74822E-01
  rms(prec ) = 0.85419E-01
  weight for this iteration     100.00

 eigenvalues of (default mixing * dielectric matrix)
  average eigenvalue GAMMA=   1.5578
 10.0616  2.9752  2.0332  1.2993  1.2993  1.0469  0.5831  0.5831  0.7417  0.7417
  0.8200  0.6298  0.5354  0.5354  0.5192  0.5192

 Free energy of the ion-electron system (eV)
  ---------------------------------------------------
  alpha Z        PSCENC =       169.82240414
  Ewald energy   TEWEN  =    149408.88674677
  -Hartree energ DENC   =   -198295.11915394
  -exchange      EXHF   =         0.00000000
  -V(xc)+E(xc)   XCENC  =      -547.98211669
  PAW double counting   =     53561.60180771   -51402.87186328
  entropy T*S    EENTRO =        -0.00000000
  eigenvalues    EBANDS =     -3821.71869527
  atomic energy  EATOM  =     50822.73287423
  ---------------------------------------------------
  free energy    TOTEN  =      -104.64799632 eV

  energy without entropy =     -104.64799632  energy(sigma->0) =     -104.64799632


--------------------------------------------------------------------------------------------------------




----------------------------------------- Iteration    1(  22)  ---------------------------------------


    POTLOK:  cpu time    0.21: real time    0.21
    SETDIJ:  cpu time    0.01: real time    0.01
     EDDAV:  cpu time    5.85: real time    5.85
       DOS:  cpu time    0.00: real time    0.00
    CHARGE:  cpu time    0.14: real time    0.14
    MIXING:  cpu time    0.01: real time    0.01
    --------------------------------------------
      LOOP:  cpu time    6.22: real time    6.25

 eigenvalue-minimisations  :  1464
 total energy-change (2. order) :-0.7069393E+00  (-0.3766828E-02)
 number of electron     538.9999717 magnetization       1.9468127
 augmentation part      258.1796123 magnetization       0.9215646

 Broyden mixing:
  rms(total) = 0.65550E-01    rms(broyden)= 0.65464E-01
  rms(prec ) = 0.75169E-01
  weight for this iteration     100.00

 eigenvalues of (default mixing * dielectric matrix)
  average eigenvalue GAMMA=   1.5134
 10.2068  3.1580  1.8815  1.5004  1.1192  1.1192  0.6169  0.6169  0.7287  0.7287
  0.7998  0.6343  0.5251  0.5251  0.4971  0.5353  0.5353

 Free energy of the ion-electron system (eV)
  ---------------------------------------------------
  alpha Z        PSCENC =       169.82240414
  Ewald energy   TEWEN  =    149408.88674677
  -Hartree energ DENC   =   -198277.34340696
  -exchange      EXHF   =         0.00000000
  -V(xc)+E(xc)   XCENC  =      -548.77766679
  PAW double counting   =     53575.25274230   -51416.40751853
  entropy T*S    EENTRO =        -0.00000000
  eigenvalues    EBANDS =     -3839.52111076
  atomic energy  EATOM  =     50822.73287423
  ---------------------------------------------------
  free energy    TOTEN  =      -105.35493559 eV

  energy without entropy =     -105.35493559  energy(sigma->0) =     -105.35493559


--------------------------------------------------------------------------------------------------------




----------------------------------------- Iteration    1(  23)  ---------------------------------------


    POTLOK:  cpu time    0.21: real time    0.21
    SETDIJ:  cpu time    0.01: real time    0.01
     EDDAV:  cpu time    6.00: real time    6.01
       DOS:  cpu time    0.00: real time    0.00
    CHARGE:  cpu time    0.14: real time    0.13
    MIXING:  cpu time    0.01: real time    0.01
    --------------------------------------------
      LOOP:  cpu time    6.36: real time    6.38

 eigenvalue-minimisations  :  1512
 total energy-change (2. order) :-0.1953033E+00  (-0.7997793E-03)
 number of electron     538.9999717 magnetization       1.8691607
 augmentation part      258.1825981 magnetization       0.8394712

 Broyden mixing:
  rms(total) = 0.53267E-01    rms(broyden)= 0.53243E-01
  rms(prec ) = 0.61539E-01
  weight for this iteration     100.00

 eigenvalues of (default mixing * dielectric matrix)
  average eigenvalue GAMMA=   1.5133
 10.3755  3.3480  1.8732  1.6077  0.8090  0.8090  1.0524  1.0524  0.5973  0.5973
  0.7645  0.7645  0.6829  0.6829  0.6332  0.5329  0.5282  0.5282

 Free energy of the ion-electron system (eV)
  ---------------------------------------------------
  alpha Z        PSCENC =       169.82240414
  Ewald energy   TEWEN  =    149408.88674677
  -Hartree energ DENC   =   -198271.06838630
  -exchange      EXHF   =         0.00000000
  -V(xc)+E(xc)   XCENC  =      -549.00574512
  PAW double counting   =     53575.09374254   -51416.15978615
  entropy T*S    EENTRO =        -0.00000000
  eigenvalues    EBANDS =     -3845.85208900
  atomic energy  EATOM  =     50822.73287423
  ---------------------------------------------------
  free energy    TOTEN  =      -105.55023889 eV

  energy without entropy =     -105.55023889  energy(sigma->0) =     -105.55023889


--------------------------------------------------------------------------------------------------------




----------------------------------------- Iteration    1(  24)  ---------------------------------------


    POTLOK:  cpu time    0.21: real time    0.21
    SETDIJ:  cpu time    0.01: real time    0.01
     EDDAV:  cpu time    5.78: real time    5.79
       DOS:  cpu time    0.00: real time    0.00
    CHARGE:  cpu time    0.14: real time    0.14
    MIXING:  cpu time    0.01: real time    0.01
    --------------------------------------------
      LOOP:  cpu time    6.15: real time    6.16

 eigenvalue-minimisations  :  1440
 total energy-change (2. order) :-0.2626430E+00  (-0.1247910E-02)
 number of electron     538.9999716 magnetization       1.6057872
 augmentation part      258.1892724 magnetization       0.5683428

 Broyden mixing:
  rms(total) = 0.48568E-01    rms(broyden)= 0.48493E-01
  rms(prec ) = 0.56300E-01
  weight for this iteration     100.00

 eigenvalues of (default mixing * dielectric matrix)
  average eigenvalue GAMMA=   1.5506
 10.5562  3.8475  2.2627  1.3438  1.3438  0.8787  0.8787  1.0718  1.0718  0.6221
  0.6221  0.8571  0.6399  0.6399  0.5300  0.5300  0.6203  0.6203  0.5255

 Free energy of the ion-electron system (eV)
  ---------------------------------------------------
  alpha Z        PSCENC =       169.82240414
  Ewald energy   TEWEN  =    149408.88674677
  -Hartree energ DENC   =   -198261.19455906
  -exchange      EXHF   =         0.00000000
  -V(xc)+E(xc)   XCENC  =      -549.32483342
  PAW double counting   =     53580.42420512   -51421.47107279
  entropy T*S    EENTRO =        -0.00000000
  eigenvalues    EBANDS =     -3855.68864691
  atomic energy  EATOM  =     50822.73287423
  ---------------------------------------------------
  free energy    TOTEN  =      -105.81288192 eV

  energy without entropy =     -105.81288192  energy(sigma->0) =     -105.81288192


--------------------------------------------------------------------------------------------------------




----------------------------------------- Iteration    1(  25)  ---------------------------------------


    POTLOK:  cpu time    0.21: real time    0.21
    SETDIJ:  cpu time    0.01: real time    0.01
     EDDAV:  cpu time    5.76: real time    5.77
       DOS:  cpu time    0.00: real time    0.00
    CHARGE:  cpu time    0.14: real time    0.14
    MIXING:  cpu time    0.01: real time    0.01
    --------------------------------------------
      LOOP:  cpu time    6.13: real time    8.30

 eigenvalue-minimisations  :  1436
 total energy-change (2. order) :-0.3892717E+00  (-0.3031291E-02)
 number of electron     538.9999717 magnetization       1.4099078
 augmentation part      258.2084477 magnetization       0.3730095

 Broyden mixing:
  rms(total) = 0.61583E-01    rms(broyden)= 0.61396E-01
  rms(prec ) = 0.69910E-01
  weight for this iteration     100.00

 eigenvalues of (default mixing * dielectric matrix)
  average eigenvalue GAMMA=   1.5727
 10.7866  4.4410  2.4866  1.4880  1.4880  0.8261  0.8261  1.1912  0.6064  0.6064
  0.8994  0.8994  0.7607  0.7607  0.5288  0.5288  0.6190  0.6013  0.6013  0.5081

 Free energy of the ion-electron system (eV)
  ---------------------------------------------------
  alpha Z        PSCENC =       169.82240414
  Ewald energy   TEWEN  =    149408.88674677
  -Hartree energ DENC   =   -198242.37809892
  -exchange      EXHF   =         0.00000000
  -V(xc)+E(xc)   XCENC  =      -549.82571390
  PAW double counting   =     53585.35799514   -51426.45670727
  entropy T*S    EENTRO =        -0.00000000
  eigenvalues    EBANDS =     -3874.34165380
  atomic energy  EATOM  =     50822.73287423
  ---------------------------------------------------
  free energy    TOTEN  =      -106.20215360 eV

  energy without entropy =     -106.20215360  energy(sigma->0) =     -106.20215360


--------------------------------------------------------------------------------------------------------




----------------------------------------- Iteration    1(  26)  ---------------------------------------


    POTLOK:  cpu time    0.21: real time    0.21
    SETDIJ:  cpu time    0.01: real time    0.01
     EDDAV:  cpu time    5.86: real time    5.87
       DOS:  cpu time    0.00: real time    0.00
    CHARGE:  cpu time    0.14: real time    0.14
    MIXING:  cpu time    0.01: real time    0.01
    --------------------------------------------
      LOOP:  cpu time    6.24: real time    6.27

 eigenvalue-minimisations  :  1468
 total energy-change (2. order) :-0.1506865E+00  (-0.6890260E-03)
 number of electron     538.9999717 magnetization       1.3400297
 augmentation part      258.2173585 magnetization       0.3080425

 Broyden mixing:
  rms(total) = 0.36816E-01    rms(broyden)= 0.36778E-01
  rms(prec ) = 0.42025E-01
  weight for this iteration     100.00

 eigenvalues of (default mixing * dielectric matrix)
  average eigenvalue GAMMA=   1.5674
 10.8121  4.6550  2.5361  1.6837  1.6837  1.2778  0.7894  0.7894  0.6092  0.6092
  0.8944  0.8944  0.9013  0.7625  0.5315  0.5315  0.6094  0.6094  0.6044  0.6044
  0.5273

 Free energy of the ion-electron system (eV)
  ---------------------------------------------------
  alpha Z        PSCENC =       169.82240414
  Ewald energy   TEWEN  =    149408.88674677
  -Hartree energ DENC   =   -198231.72717968
  -exchange      EXHF   =         0.00000000
  -V(xc)+E(xc)   XCENC  =      -550.03670388
  PAW double counting   =     53585.69632109   -51426.89441524
  entropy T*S    EENTRO =        -0.00000141
  eigenvalues    EBANDS =     -3884.83288617
  atomic energy  EATOM  =     50822.73287423
  ---------------------------------------------------
  free energy    TOTEN  =      -106.35284014 eV

  energy without entropy =     -106.35283873  energy(sigma->0) =     -106.35283944


--------------------------------------------------------------------------------------------------------




----------------------------------------- Iteration    1(  27)  ---------------------------------------


    POTLOK:  cpu time    0.21: real time    0.21
    SETDIJ:  cpu time    0.01: real time    0.01
     EDDAV:  cpu time    5.86: real time    5.86
       DOS:  cpu time    0.00: real time    0.00
    CHARGE:  cpu time    0.14: real time    0.14
    MIXING:  cpu time    0.01: real time    0.01
    --------------------------------------------
      LOOP:  cpu time    6.22: real time    6.24

 eigenvalue-minimisations  :  1464
 total energy-change (2. order) :-0.4999524E-01  (-0.1101425E-02)
 number of electron     538.9999716 magnetization       1.2754064
 augmentation part      258.2159491 magnetization       0.2442154

 Broyden mixing:
  rms(total) = 0.59340E-01    rms(broyden)= 0.59128E-01
  rms(prec ) = 0.66944E-01
  weight for this iteration     100.00

 eigenvalues of (default mixing * dielectric matrix)
  average eigenvalue GAMMA=   1.5443
 10.8812  4.7552  2.5182  1.7747  1.7747  1.3498  0.8237  0.8237  0.9724  0.9724
  0.6070  0.6070  0.8782  0.5292  0.5292  0.7099  0.6367  0.6367  0.6247  0.5184
  0.5258  0.5258

 Free energy of the ion-electron system (eV)
  ---------------------------------------------------
  alpha Z        PSCENC =       169.82240414
  Ewald energy   TEWEN  =    149408.88674677
  -Hartree energ DENC   =   -198227.85404101
  -exchange      EXHF   =         0.00000000
  -V(xc)+E(xc)   XCENC  =      -550.09502626
  PAW double counting   =     53586.13897453   -51427.38407622
  entropy T*S    EENTRO =        -0.00000000
  eigenvalues    EBANDS =     -3888.65069156
  atomic energy  EATOM  =     50822.73287423
  ---------------------------------------------------
  free energy    TOTEN  =      -106.40283538 eV

  energy without entropy =     -106.40283538  energy(sigma->0) =     -106.40283538


--------------------------------------------------------------------------------------------------------




----------------------------------------- Iteration    1(  28)  ---------------------------------------


    POTLOK:  cpu time    0.22: real time    0.22
    SETDIJ:  cpu time    0.01: real time    0.01
     EDDAV:  cpu time    5.88: real time    5.89
       DOS:  cpu time    0.00: real time    0.00
    CHARGE:  cpu time    0.14: real time    0.14
    MIXING:  cpu time    0.01: real time    0.01
    --------------------------------------------
      LOOP:  cpu time    6.26: real time    6.36

 eigenvalue-minimisations  :  1472
 total energy-change (2. order) :-0.2792055E-01  (-0.5492582E-03)
 number of electron     538.9999717 magnetization       1.2084423
 augmentation part      258.2164199 magnetization       0.1793543

 Broyden mixing:
  rms(total) = 0.29780E-01    rms(broyden)= 0.29597E-01
  rms(prec ) = 0.33578E-01
  weight for this iteration     100.00

 eigenvalues of (default mixing * dielectric matrix)
  average eigenvalue GAMMA=   1.5241
 10.9436  4.8483  2.5043  1.8395  1.6041  1.6041  0.8108  0.8108  0.9993  0.9993
  0.6061  0.6061  0.9248  0.7423  0.7423  0.5301  0.5301  0.6224  0.6224  0.6443
  0.6443  0.5207  0.3541

 Free energy of the ion-electron system (eV)
  ---------------------------------------------------
  alpha Z        PSCENC =       169.82240414
  Ewald energy   TEWEN  =    149408.88674677
  -Hartree energ DENC   =   -198224.96050212
  -exchange      EXHF   =         0.00000000
  -V(xc)+E(xc)   XCENC  =      -550.13147899
  PAW double counting   =     53586.52976698   -51427.78581054
  entropy T*S    EENTRO =        -0.00000026
  eigenvalues    EBANDS =     -3891.52475614
  atomic energy  EATOM  =     50822.73287423
  ---------------------------------------------------
  free energy    TOTEN  =      -106.43075593 eV

  energy without entropy =     -106.43075567  energy(sigma->0) =     -106.43075580


--------------------------------------------------------------------------------------------------------




----------------------------------------- Iteration    1(  29)  ---------------------------------------


    POTLOK:  cpu time    0.21: real time    0.21
    SETDIJ:  cpu time    0.01: real time    0.01
     EDDAV:  cpu time    5.35: real time    5.35
       DOS:  cpu time    0.00: real time    0.00
    CHARGE:  cpu time    0.13: real time    0.13
    MIXING:  cpu time    0.02: real time    0.01
    --------------------------------------------
      LOOP:  cpu time    5.72: real time    5.74

 eigenvalue-minimisations  :  1300
 total energy-change (2. order) :-0.2364302E-01  (-0.4605500E-03)
 number of electron     538.9999717 magnetization       1.1471115
 augmentation part      258.2151055 magnetization       0.1184941

 Broyden mixing:
  rms(total) = 0.46754E-01    rms(broyden)= 0.46624E-01
  rms(prec ) = 0.53195E-01
  weight for this iteration     100.00

 eigenvalues of (default mixing * dielectric matrix)
  average eigenvalue GAMMA=   1.5357
 11.0393  4.9992  2.5902  2.5902  1.6836  1.6836  0.8135  0.8135  1.0869  0.9623
  0.9623  0.6045  0.6045  0.7633  0.7286  0.5298  0.5298  0.6221  0.6221  0.5632
  0.5632  0.6354  0.5212  0.3456

[...]
  0.018   0.067  -0.077  -0.002   2.652  -0.043  -0.055   0.047   0.019  -0.690   0.081   0.018   0.017   0.034   0.088   0.002
 -0.765   0.118   0.059   0.083  -0.043   0.704  -0.098  -0.064  -0.095   0.063   0.015  -0.006  -0.198   0.021  -0.018   0.012
  0.118  -0.569  -0.016   0.032  -0.055  -0.098   0.553   0.012  -0.039   0.045  -0.100   0.023   0.078   0.013   0.007  -0.005
  0.059  -0.016  -0.606   0.093   0.047  -0.064   0.012   0.509  -0.123  -0.024  -0.166   0.033   0.004   0.085   0.080  -0.000
  0.083   0.033   0.093  -0.619   0.019  -0.095  -0.039  -0.123   0.608  -0.034  -0.076   0.045   0.027  -0.137   0.032  -0.002
 -0.043  -0.055   0.047   0.019  -0.690   0.063   0.045  -0.024  -0.034   0.689  -0.082  -0.007  -0.028  -0.029  -0.109   0.002
 -0.013   0.101   0.186   0.084   0.081   0.015  -0.100  -0.166  -0.076  -0.082   1.811  -0.235   0.027   0.075  -0.204  -0.002
  0.004  -0.015  -0.037  -0.057   0.018  -0.006   0.023   0.033   0.045  -0.007  -0.235   0.052  -0.001  -0.021   0.044   0.000
  0.183  -0.073  -0.005  -0.028   0.017  -0.198   0.078   0.004   0.027  -0.028   0.027  -0.001   0.093  -0.012   0.001  -0.005
 -0.021  -0.001  -0.079   0.107   0.034   0.021   0.013   0.085  -0.137  -0.029   0.075  -0.021  -0.012   0.061   0.003   0.001
  0.018  -0.003  -0.072  -0.025   0.088  -0.018   0.007   0.080   0.032  -0.109  -0.204   0.044   0.001   0.003   0.067   0.000
  0.003   0.001   0.002   0.002   0.002   0.012  -0.005  -0.000  -0.002   0.002  -0.002   0.000  -0.005   0.001   0.000   0.000
  0.002  -0.003   0.001   0.007  -0.001  -0.001  -0.001  -0.005   0.009   0.002  -0.008   0.002   0.001  -0.004   0.000  -0.000
 -0.004   0.001  -0.003  -0.001   0.008   0.001  -0.001  -0.005  -0.003   0.006   0.019  -0.004  -0.000   0.000  -0.005  -0.000
 total augmentation occupancy for first ion, spin component:           2
 -0.011  -0.002   0.001   0.005   0.009   0.006   0.001  -0.000  -0.004  -0.007   0.006   0.001   0.002   0.001   0.002  -0.000
 -0.002  -0.009   0.000  -0.002  -0.001   0.001   0.004  -0.000   0.001   0.001  -0.002   0.000  -0.000  -0.000  -0.000   0.000
  0.001   0.000  -0.009  -0.004  -0.002  -0.000  -0.000   0.004   0.003   0.001  -0.004  -0.001  -0.001  -0.000  -0.001   0.000
  0.005  -0.002  -0.004  -0.003   0.015  -0.004   0.001   0.003  -0.001  -0.012   0.013   0.003   0.003   0.003   0.004  -0.000
  0.009  -0.001  -0.002   0.015   0.015  -0.007   0.001   0.001  -0.012  -0.015   0.024   0.004   0.006   0.004   0.007  -0.000
  0.006   0.001  -0.000  -0.004  -0.007  -0.000  -0.001  -0.000   0.003   0.005  -0.004  -0.001  -0.001  -0.001  -0.001   0.000
  0.001   0.004  -0.000   0.001   0.001  -0.001   0.001   0.001  -0.000  -0.001   0.002  -0.000   0.001   0.000   0.000  -0.000
 -0.000  -0.000   0.004   0.003   0.001  -0.000   0.001   0.000  -0.002  -0.001   0.003   0.000   0.001   0.001   0.001  -0.000
 -0.004   0.001   0.003  -0.001  -0.012   0.003  -0.000  -0.002   0.004   0.009  -0.010  -0.001  -0.002  -0.002  -0.003   0.000
 -0.007   0.001   0.001  -0.012  -0.015   0.005  -0.001  -0.001   0.009   0.015  -0.020  -0.002  -0.005  -0.003  -0.005   0.000
  0.006  -0.002  -0.004   0.013   0.024  -0.004   0.002   0.003  -0.010  -0.020   0.027   0.001   0.006   0.005   0.007  -0.000
  0.001   0.000  -0.001   0.003   0.004  -0.001  -0.000   0.000  -0.001  -0.002   0.001   0.001   0.000   0.000   0.001  -0.000
  0.002  -0.000  -0.001   0.003   0.006  -0.001   0.001   0.001  -0.002  -0.005   0.006   0.000   0.002   0.001   0.001  -0.000
  0.001  -0.000  -0.000   0.003   0.004  -0.001   0.000   0.001  -0.002  -0.003   0.005   0.000   0.001   0.001   0.001  -0.000
  0.002  -0.000  -0.001   0.004   0.007  -0.001   0.000   0.001  -0.003  -0.005   0.007   0.001   0.001   0.001   0.001  -0.000
 -0.000   0.000   0.000  -0.000  -0.000   0.000  -0.000  -0.000   0.000   0.000  -0.000  -0.000  -0.000  -0.000  -0.000   0.000
 -0.000   0.000   0.000  -0.000  -0.000   0.000  -0.000  -0.000   0.000   0.000  -0.000   0.000  -0.000  -0.000  -0.000   0.000
  0.000   0.000  -0.000   0.000  -0.000   0.000   0.000  -0.000   0.000   0.000  -0.000  -0.000  -0.000  -0.000   0.000   0.000


------------------------ aborting loop because EDIFF is reached ----------------------------------------


    CHARGE:  cpu time    0.14: real time    0.14
    FORLOC:  cpu time    0.02: real time    0.02
    FORNL :  cpu time    4.44: real time    4.44
    STRESS:  cpu time    5.39: real time    5.39
    FORCOR:  cpu time    0.22: real time    0.21
    FORHAR:  cpu time    0.04: real time    0.04
    MIXING:  cpu time    0.01: real time    0.00
    OFIELD:  cpu time    0.00: real time    0.00

  FORCE on cell =-STRESS in cart. coord.  units (eV):
  Direction    XX          YY          ZZ          XY          YZ          ZX
  --------------------------------------------------------------------------------------
  Alpha Z   169.82240   169.82240   169.82240
  Ewald   32511.94060 56619.78477 57477.62626 -2546.28950   140.76378   365.85108
  Hartree 49541.80431 72551.17204 73377.79789 -2384.04608   137.25456   336.60272
  E(xc)   -2842.98521 -2841.93095 -2841.87759    -0.20503     0.00350     0.04946
  Local  -90105.63499************************  4929.64721  -278.89831  -702.03245
  n-local  -509.62213  -506.09901  -505.64572    -0.69883     0.31994     0.20862
  augment  4506.39572  4503.17050  4503.26425     0.53314     0.10450    -0.18736
  Kinetic  6710.93416  6704.61873  6705.06947     0.94307     0.40547    -0.31093
  Fock        0.00000     0.00000     0.00000     0.00000     0.00000     0.00000
  -------------------------------------------------------------------------------------
  Total     -17.34513   -17.34945   -17.37638    -0.11602    -0.04658     0.18115
  in kB      -2.31088    -2.31145    -2.31504    -0.01546    -0.00621     0.02413
  external pressure =       -2.31 kB  Pullay stress =        0.00 kB


 VOLUME and BASIS-vectors are now :
 -----------------------------------------------------------------------------
  energy-cutoff  :      249.84
  volume of cell :    12025.73
      direct lattice vectors                 reciprocal lattice vectors
    22.910634592  0.000000000  0.000000000     0.043647853  0.000000000  0.000000000
     0.000000000 22.910634592  0.000000000     0.000000000  0.043647853  0.000000000
     0.000000000  0.000000000 22.910634592     0.000000000  0.000000000  0.043647853

  length of vectors
    22.910634592 22.910634592 22.910634592     0.043647853  0.043647853  0.043647853


 FORCES acting on ions
    electron-ion (+dipol)            ewald-force                    non-local-force                 convergence-correction
 -----------------------------------------------------------------------------------------------
   -.143E+04 0.417E+03 0.105E+04   0.143E+04 -.416E+03 -.105E+04   0.424E+01 -.101E+01 -.117E+01   -.104E-01 -.138E-01 0.987E-02
   -.919E+03 -.214E+03 0.154E+04   0.918E+03 0.214E+03 -.153E+04   0.140E+01 0.263E+00 -.319E+01   -.909E-02 -.174E-01 -.675E-02
   -.123E+04 -.906E+03 0.100E+04   0.123E+04 0.904E+03 -.999E+03   0.392E+01 0.182E+01 -.125E+01   -.207E-01 -.343E-02 -.165E-02
   -.153E+04 0.966E+03 0.179E+03   0.153E+04 -.965E+03 -.177E+03   0.438E+01 -.790E+00 -.141E+01   -.131E-01 0.111E-01 -.769E-02
   -.155E+04 -.258E+03 0.555E+03   0.154E+04 0.257E+03 -.554E+03   0.248E+01 0.629E+00 -.109E+01   -.331E-01 -.461E-02 -.512E-02
   -.697E+03 0.140E+04 0.966E+03   0.695E+03 -.140E+04 -.963E+03   0.199E+01 -.402E+01 -.267E+01   -.474E-01 0.164E-01 -.107E-01
   -.208E+03 0.806E+03 0.158E+04   0.208E+03 -.805E+03 -.157E+04   0.383E+00 -.123E+01 -.251E+01   0.470E-02 -.136E-02 -.162E-01
   -.119E+04 -.136E+04 0.823E+02   0.119E+04 0.136E+04 -.818E+02   0.387E+01 0.217E+01 -.473E+00   -.206E-01 -.932E-02 0.219E-02
   0.341E+03 -.223E+02 0.180E+04   -.340E+03 0.220E+02 -.180E+04   -.824E+00 0.287E+00 -.522E+01   -.192E-01 -.758E-02 0.273E-02
   0.668E+02 -.950E+03 0.151E+04   -.662E+02 0.948E+03 -.151E+04   -.612E+00 0.156E+01 -.254E+01   -.727E-02 -.229E-02 0.407E-02
   -.205E+03 -.160E+04 0.848E+03   0.205E+03 0.160E+04 -.846E+03   0.689E+00 0.454E+01 -.238E+01   0.138E-01 -.116E-01 0.163E-01
   -.164E+04 0.207E+03 -.189E+03   0.163E+04 -.207E+03 0.189E+03   0.244E+01 -.249E+00 0.280E+00   0.169E-02 -.110E-02 -.133E-02
   -.668E+03 0.682E+03 0.512E+03   0.667E+03 -.680E+03 -.511E+03   0.458E+00 -.103E+01 -.726E+00   0.262E-01 -.100E-01 -.119E-01
   -.152E+04 -.661E+03 -.229E+03   0.151E+04 0.659E+03 0.229E+03   0.249E+01 0.134E+01 0.361E+00   -.381E-01 0.695E-02 -.882E-02
   0.741E+01 -.379E+02 0.982E+03   -.763E+01 0.377E+02 -.981E+03   0.219E+00 0.118E+00 -.138E+01   0.925E-02 -.173E-03 -.983E-02
   -.406E+03 -.882E+03 0.443E+03   0.406E+03 0.880E+03 -.442E+03   0.167E-01 0.127E+01 -.643E+00   0.545E-02 0.145E-01 -.409E-02
   -.120E+04 0.119E+04 -.690E+03   0.120E+04 -.119E+04 0.688E+03   0.135E+01 -.276E+01 0.154E+01   -.327E-03 -.105E-02 -.107E-01
   -.396E+03 0.172E+04 0.679E+02   0.396E+03 -.172E+04 -.679E+02   0.316E+00 -.319E+01 -.123E-01   0.673E-02 -.126E-02 -.139E-01
   -.148E+04 0.348E+03 -.101E+04   0.148E+04 -.349E+03 0.101E+04   0.417E+01 0.833E+00 0.169E+01   -.106E-01 -.234E-03 -.760E-02
   0.372E+03 0.151E+04 0.891E+03   -.371E+03 -.151E+04 -.890E+03   -.990E+00 -.240E+01 -.131E+01   -.688E-03 -.725E-02 -.352E-02
   -.132E+04 -.689E+03 -.105E+04   0.132E+04 0.688E+03 0.105E+04   0.401E+01 0.603E+00 0.180E+01   -.995E-02 -.174E-01 -.221E-01
   -.390E+03 -.612E+02 0.116E+02   0.390E+03 0.612E+02 -.116E+02   -.494E+00 -.638E-01 0.728E-02   -.633E-02 -.474E-02 0.194E-01
   -.819E+03 -.142E+04 -.783E+03   0.818E+03 0.141E+04 0.782E+03   0.126E+01 0.279E+01 0.168E+01   -.170E-01 0.367E-02 0.470E-02
   0.979E+03 0.669E+03 0.138E+04   -.977E+03 -.669E+03 -.137E+04   -.182E+01 -.511E+00 -.218E+01   0.123E-01 0.428E-02 -.535E-02
   0.805E+02 -.832E+03 -.529E+03   -.806E+02 0.830E+03 0.528E+03   0.102E+00 0.122E+01 0.709E+00   0.335E-02 0.182E-01 0.153E-01
   -.178E+03 0.855E+03 -.458E+03   0.177E+03 -.854E+03 0.457E+03   0.425E+00 -.117E+01 0.629E+00   0.103E-01 -.357E-02 0.669E-03
   0.115E+04 -.459E+03 0.133E+04   -.115E+04 0.459E+03 -.133E+04   -.226E+01 0.832E-01 -.187E+01   0.168E-01 -.203E-02 -.633E-02
   0.633E+03 0.631E+03 0.318E+03   -.631E+03 -.631E+03 -.317E+03   -.111E+01 -.797E+00 -.295E+00   0.147E-01 0.316E-02 0.105E-01
   -.123E+02 0.164E+04 -.873E+03   0.123E+02 -.164E+04 0.871E+03   0.111E-01 -.470E+01 0.242E+01   0.193E-01 0.360E-02 -.400E-02
   0.784E+03 0.162E+04 -.173E+03   -.783E+03 -.162E+04 0.173E+03   -.116E+01 -.250E+01 0.373E+00   0.296E-01 -.691E-02 0.187E-01
   -.586E+03 -.565E+02 -.899E+03   0.586E+03 0.564E+02 0.897E+03   0.418E+00 0.403E-01 0.131E+01   0.202E-01 -.586E-02 0.772E-02
   0.135E+04 0.121E+04 0.595E+03   -.135E+04 -.121E+04 -.594E+03   -.392E+01 -.356E+01 -.117E+01   0.158E-01 0.948E-02 0.161E-01
   0.829E+03 -.140E+04 0.778E+03   -.827E+03 0.140E+04 -.777E+03   -.166E+01 0.209E+01 -.124E+01   -.310E-02 0.256E-01 -.111E-01
   -.315E+03 0.935E+03 -.149E+04   0.314E+03 -.933E+03 0.149E+04   0.152E+00 -.179E+01 0.270E+01   -.360E-03 0.114E-01 0.426E-02
   0.800E+03 -.450E+03 0.276E+03   -.799E+03 0.450E+03 -.276E+03   -.127E+01 0.376E+00 -.256E+00   0.138E-01 0.125E-02 0.547E-02
   0.137E+03 -.176E+04 -.862E+02   -.136E+03 0.175E+04 0.861E+02   -.724E+00 0.291E+01 0.949E-01   -.160E-01 -.330E-02 0.896E-02
   0.469E+03 -.150E+04 -.100E+04   -.468E+03 0.150E+04 0.100E+04   -.116E+01 0.439E+01 0.266E+01   -.307E-01 0.186E-01 0.219E-01
   0.170E+04 0.232E+03 0.616E+03   -.170E+04 -.232E+03 -.614E+03   -.162E+01 0.131E+00 -.220E+01   -.164E-01 0.298E-02 0.989E-02
   -.555E+03 -.219E+01 -.172E+04   0.554E+03 0.222E+01 0.172E+04   0.157E+01 -.493E-01 0.495E+01   0.871E-02 0.144E-01 -.111E-01
   0.681E+03 0.121E+03 -.653E+03   -.680E+03 -.121E+03 0.652E+03   -.118E+01 -.256E+00 0.750E+00   0.138E-01 -.211E-03 -.235E-02
   0.832E+03 0.111E+04 -.119E+04   -.830E+03 -.111E+04 0.119E+04   -.120E+01 -.173E+01 0.173E+01   0.301E-01 0.186E-02 -.710E-02
   0.159E+04 0.843E+03 -.367E+03   -.158E+04 -.842E+03 0.366E+03   -.160E+01 -.149E+01 0.713E+00   -.106E-01 -.112E-01 0.103E-01
   0.165E+04 -.803E+03 0.507E+03   -.164E+04 0.801E+03 -.506E+03   -.485E+01 0.207E+01 -.135E+01   0.871E-02 -.120E-01 0.746E-02
   -.456E+02 -.864E+03 -.156E+04   0.455E+02 0.863E+03 0.156E+04   0.111E+00 0.136E+01 0.249E+01   0.505E-03 -.400E-02 -.613E-02
   0.509E+03 0.147E+03 -.170E+04   -.508E+03 -.147E+03 0.170E+04   -.118E+01 -.366E+00 0.267E+01   0.148E-01 0.798E-02 0.202E-01
   0.123E+04 -.131E+04 -.297E+03   -.122E+04 0.131E+04 0.296E+03   -.239E+01 0.156E+01 0.848E+00   0.155E-01 0.475E-02 0.825E-02
   0.175E+04 -.308E+03 -.407E+03   -.175E+04 0.306E+03 0.406E+03   -.180E+01 0.178E+01 0.998E+00   -.558E-02 0.223E-02 0.494E-02
   0.111E+04 -.730E+03 -.124E+04   -.111E+04 0.729E+03 0.124E+04   -.204E+01 0.144E+01 0.158E+01   0.115E-01 -.152E-02 -.745E-02
   0.144E+04 0.262E+03 -.122E+04   -.144E+04 -.261E+03 0.122E+04   -.419E+01 -.120E+01 0.325E+01   0.125E-01 -.739E-02 -.289E-02
 -----------------------------------------------------------------------------------------------
   -.262E+01 -.835E+00 0.251E+00   0.909E-12 -.125E-11 0.682E-12   0.281E+01 0.786E+00 -.278E+00   -.655E-02 0.100E-01 0.243E-01
 
 
 POSITION                                       TOTAL-FORCE (eV/Angst)
 -----------------------------------------------------------------------------------
     15.39331     10.19097      8.48882         0.003070     -0.003712     -0.004867
     14.01161     12.47670      7.44527        -0.001757     -0.001354     -0.005587
     14.65624     14.98987      8.73721        -0.000133     -0.002745     -0.007485
     15.72695      8.46300     11.24635         0.005085     -0.006696     -0.001553
     14.79197     12.46951     10.18041        -0.005437     -0.000450     -0.002788
     14.10401      7.64743      8.98792        -0.008129     -0.010368     -0.010621
     12.67810      9.79085      7.66645        -0.003393      0.000864     -0.006286
     14.52429     16.43469     11.50106         0.002206      0.004965      0.005476
     11.24017     12.03550      6.57426        -0.001939     -0.000326     -0.006276
     11.95623     14.55351      7.88781        -0.003413      0.002225     -0.002698
     12.65790     16.96655      9.38662         0.000165      0.008869     -0.001673
     15.10130     10.90685     12.66489         0.001085      0.001248     -0.000061
     13.44852      9.87244     10.46042        -0.012620      0.012204      0.007751
     14.67907     13.81139     12.77959        -0.004170      0.003359     -0.000864
     11.90857     12.05242      9.24572         0.002906     -0.003297      0.008030
     12.72027     14.51508     10.66572        -0.012720     -0.011406      0.004734
     14.83280      8.41457     13.96633         0.002063     -0.003815      0.002478
     13.17467      7.31340     11.74823        -0.000910     -0.002001     -0.003705
     15.49926     10.72201     15.52167         0.006524     -0.011504      0.001799
     11.33385      8.07129      9.62636        -0.006968      0.002376     -0.000193
     15.01318     13.90183     15.68362         0.005818      0.006515     -0.004591
     12.61846     12.06255     11.94470         0.000184      0.001429     -0.006620
     13.69883     16.01910     14.25578        -0.000910      0.006506      0.003788
      9.85920     10.26413      8.34119         0.000913     -0.003826      0.004698
     11.70079     14.24387     13.42332        -0.000110     -0.000197      0.000942
     12.39418      9.60545     13.22355         0.006431      0.001305     -0.003213
      9.41445     13.21332      8.45747        -0.000025      0.004289      0.004399
     10.56287     10.31493     11.11920         0.003822     -0.001594     -0.001403
     12.22108      7.15639     14.48885         0.007273     -0.004917      0.004064
     10.32565      7.77892     12.42825         0.004691      0.001429     -0.003081
     13.21493     12.05319     14.65301        -0.007965     -0.002812     -0.006743
      8.57401      8.60674     10.27723         0.004233      0.002964      0.004375
     10.15598     15.68722      9.93886        -0.002267      0.000829      0.000020
     12.95403      9.51994     16.00185        -0.000552      0.001374      0.003921
     10.13045     13.19511     11.22924         0.002407      0.006154     -0.002462
     11.76139     16.79766     12.15515        -0.003475      0.000975      0.000833
     10.85728     16.41496     14.88868        -0.005655      0.001903      0.008402
      7.97057     11.40879     10.43312         0.002045     -0.001223      0.005030
     13.67088     11.99319     17.36743         0.006455      0.002975      0.006794
     10.43574     11.67221     13.69883         0.000871      0.000182      0.005521
     10.20268      9.13742     15.01719         0.000927      0.003728      0.000522
      8.30255      9.87707     12.88828         0.002706     -0.000278      0.002257
      7.70294     14.29674     10.52223         0.004073     -0.001296     -0.000936
     12.23829     14.27811     16.24117         0.000171      0.002152     -0.000366
     10.97419     11.65379     16.45466         0.000518      0.001422     -0.000266
      9.20458     15.46704     12.71921        -0.001663     -0.001898     -0.002129
      7.85843     12.75278     12.97788         0.003404     -0.000012      0.003441
      9.49478     13.91197     15.23369        -0.001905     -0.003623     -0.000097
      8.32140     11.29042     15.42811         0.006070     -0.002895     -0.002709
 -----------------------------------------------------------------------------------
    total drift:                                0.187947     -0.039202     -0.002501


--------------------------------------------------------------------------------------------------------



  FREE ENERGIE OF THE ION-ELECTRON SYSTEM (eV)
  ---------------------------------------------------
  free  energy   TOTEN  =      -108.48798549 eV

  energy  without entropy=     -108.48798549  energy(sigma->0) =     -108.48798549
 
 d Force = 0.7213723E-04[ 0.222E-04, 0.122E-03]  d Energy = 0.2203120E-03-0.148E-03
 d Force =-0.7627371E+01[-0.763E+01,-0.763E+01]  d Ewald  =-0.7627371E+01 0.181E-06


--------------------------------------------------------------------------------------------------------


    POTLOK:  cpu time    0.22: real time    0.23


--------------------------------------------------------------------------------------------------------




--------------------------------------------------------------------------------------------------------


  
 reached required accuracy - stopping structural energy minimisation
     LOOP+:  cpu time   22.52: real time   22.63
    4ORBIT:  cpu time    0.00: real time    0.00

 total amount of memory used by VASP on root node    57933. kBytes
========================================================================

   base      :      30000. kBytes
   nonl-proj :       3118. kBytes
   fftplans  :       4335. kBytes
   grid      :      10964. kBytes
   one-center:         62. kBytes
   wavefun   :       9454. kBytes
 
  
  
 General timing and accounting informations for this job:
 ========================================================
  
                  Total CPU time used (sec):     1705.891
                            User time (sec):     1697.034
                          System time (sec):        8.857
                         Elapsed time (sec):     1783.546
  
                   Maximum memory used (kb):       74720.
                   Average memory used (kb):           0.
  
                          Minor page faults:       590509
                          Major page faults:            0
                 Voluntary context switches:        45626
