       N       E                     dE             d eps       ncg     rms          rms(c)
DAV:   1     0.383610480173E+04    0.38361E+04   -0.95254E+04  1216   0.619E+02
DAV:   2     0.621077141115E+03   -0.32150E+04   -0.28907E+04  1928   0.166E+02
DAV:   3    -0.640816922642E+02   -0.68516E+03   -0.62992E+03  1520   0.822E+01
DAV:   4    -0.904452721553E+02   -0.26364E+02   -0.26164E+02  1296   0.174E+01
DAV:   5    -0.908407608310E+02   -0.39549E+00   -0.39506E+00  1360   0.248E+00    0.374E+01
DAV:   6    -0.400275083242E+02    0.50813E+02   -0.16019E+02  1208   0.163E+01    0.199E+01
DAV:   7    -0.342197300182E+02    0.58078E+01   -0.86123E+00  1256   0.501E+00    0.125E+01
DAV:   8    -0.282635438406E+02    0.59562E+01   -0.28533E+00  1268   0.401E+00    0.684E+00
DAV:   9    -0.336265268326E+02   -0.53630E+01   -0.12768E+00  1280   0.184E+00    0.446E+00
DAV:  10    -0.476006052180E+02   -0.13974E+02   -0.44657E+00  1220   0.294E+00    0.383E+00
DAV:  11    -0.559712371215E+02   -0.83706E+01   -0.30852E+00  1264   0.281E+00    0.277E+00
DAV:  12    -0.679504734514E+02   -0.11979E+02   -0.54778E+00  1224   0.246E+00    0.239E+00
DAV:  13    -0.720794233370E+02   -0.41289E+01   -0.10218E+00  1272   0.143E+00    0.238E+00
DAV:  14    -0.737944428431E+02   -0.17150E+01   -0.23440E-01  1304   0.883E-01    0.197E+00
DAV:  15    -0.794074463974E+02   -0.56130E+01   -0.16514E+00  1232   0.154E+00    0.125E+00
DAV:  16    -0.839385639237E+02   -0.45311E+01   -0.11273E+00  1208   0.964E-01    0.819E-01
DAV:  17    -0.859613377993E+02   -0.20228E+01   -0.28776E-01  1224   0.572E-01    0.129E+00
DAV:  18    -0.861347152337E+02   -0.17338E+00   -0.10568E-02  1368   0.262E-01    0.113E+00
DAV:  19    -0.866965853652E+02   -0.56187E+00   -0.36106E-02  1240   0.487E-01    0.834E-01
DAV:  20    -0.883231358728E+02   -0.16266E+01   -0.19540E-01  1240   0.995E-01    0.286E-01
DAV:  21    -0.889317099011E+02   -0.60857E+00   -0.40213E-02  1288   0.315E-01    0.259E-01
DAV:  22    -0.891234784542E+02   -0.19177E+00   -0.40706E-03  1304   0.127E-01    0.167E-01
DAV:  23    -0.893934097127E+02   -0.26993E+00   -0.13250E-02  1252   0.188E-01    0.880E-02
DAV:  24    -0.894467833984E+02   -0.53374E-01   -0.11365E-03  1252   0.653E-02    0.719E-02
DAV:  25    -0.894710302371E+02   -0.24247E-01   -0.64349E-04   860   0.666E-02    0.398E-02
DAV:  26    -0.894981814595E+02   -0.27151E-01   -0.14752E-03  1152   0.582E-02    0.400E-02
DAV:  27    -0.895050776140E+02   -0.68962E-02   -0.22646E-04   880   0.420E-02    0.250E-02
DAV:  28    -0.895107377783E+02   -0.56602E-02   -0.25305E-04   856   0.434E-02    0.135E-02
DAV:  29    -0.895150839342E+02   -0.43462E-02   -0.89882E-05   824   0.171E-02    0.134E-02
DAV:  30    -0.895171243816E+02   -0.20404E-02   -0.29501E-05   832   0.656E-03    0.909E-03
DAV:  31    -0.895176079304E+02   -0.48355E-03   -0.58155E-06   812   0.608E-03    0.389E-03
DAV:  32    -0.895179523634E+02   -0.34443E-03   -0.12433E-05   788   0.766E-03    0.357E-03
DAV:  33    -0.895179470925E+02    0.52709E-05   -0.25588E-06   824   0.343E-03
   1 F= -.89517947E+02 E0= -.89517947E+02  d E =-.895179E+02  mag=     0.0019
       N       E                     dE             d eps       ncg     rms          rms(c)
DAV:   1    -0.895497049692E+02   -0.31753E-01   -0.22524E+00  1240   0.235E+00    0.839E-02
DAV:   2    -0.895507674576E+02   -0.10625E-02   -0.10340E-02  1280   0.222E-01    0.652E-02
DAV:   3    -0.895507666881E+02    0.76955E-06   -0.15073E-04   752   0.284E-02
   2 F= -.89550767E+02 E0= -.89550767E+02  d E =-.328196E-01  mag=     0.0011
       N       E                     dE             d eps       ncg     rms          rms(c)
DAV:   1    -0.896294510295E+02   -0.78684E-01   -0.20314E+01  1204   0.707E+00    0.254E-01
DAV:   2    -0.896386428133E+02   -0.91918E-02   -0.93008E-02  1288   0.666E-01    0.198E-01
DAV:   3    -0.896384783964E+02    0.16442E-03   -0.14895E-03  1284   0.838E-02    0.131E-01
DAV:   4    -0.896383192794E+02    0.15912E-03   -0.75073E-04  1268   0.474E-02    0.359E-02
DAV:   5    -0.896383324872E+02   -0.13208E-04   -0.31119E-05   792   0.159E-02
   3 F= -.89638332E+02 E0= -.89638332E+02  d E =-.120385E+00  mag=     0.0005
       N       E                     dE             d eps       ncg     rms          rms(c)
DAV:   1    -0.897314136537E+02   -0.93094E-01   -0.81193E+01  1200   0.141E+01    0.482E-01
DAV:   2    -0.897682475417E+02   -0.36834E-01   -0.37193E-01  1256   0.133E+00    0.381E-01
DAV:   3    -0.897676224898E+02    0.62505E-03   -0.58652E-03  1272   0.165E-01    0.258E-01
DAV:   4    -0.897668823657E+02    0.74012E-03   -0.28757E-03  1276   0.926E-02    0.801E-02
DAV:   5    -0.897669225003E+02   -0.40135E-04   -0.17407E-04   800   0.342E-02
   4 F= -.89766923E+02 E0= -.89766923E+02  d E =-.248975E+00  mag=     0.0002
       N       E                     dE             d eps       ncg     rms          rms(c)
DAV:   1    -0.896986130075E+02    0.68269E-01   -0.32650E+02  1200   0.284E+01    0.976E-01
DAV:   2    -0.898479881266E+02   -0.14938E+00   -0.15055E+00  1272   0.269E+00    0.749E-01
DAV:   3    -0.898455769762E+02    0.24112E-02   -0.23450E-02  1272   0.328E-01    0.510E-01
DAV:   4    -0.898425964079E+02    0.29806E-02   -0.10693E-02  1276   0.180E-01    0.168E-01
DAV:   5    -0.898427483291E+02   -0.15192E-03   -0.85604E-04  1288   0.679E-02    0.602E-02
DAV:   6    -0.898426586700E+02    0.89659E-04   -0.22682E-04   812   0.263E-02
   5 F= -.89842659E+02 E0= -.89842659E+02  d E =-.324712E+00  mag=     0.0001
       N       E                     dE             d eps       ncg     rms          rms(c)
DAV:   1    -0.898947624149E+02   -0.52014E-01   -0.52069E+01  1200   0.113E+01    0.303E-01
DAV:   2    -0.899182512938E+02   -0.23489E-01   -0.23810E-01  1240   0.108E+00    0.292E-01
DAV:   3    -0.899179869478E+02    0.26435E-03   -0.38009E-03  1280   0.140E-01    0.213E-01
DAV:   4    -0.899172746818E+02    0.71227E-03   -0.13147E-03  1264   0.633E-02    0.114E-01
DAV:   5    -0.899172513414E+02    0.23340E-04   -0.82988E-04  1260   0.495E-02
   6 F= -.89917251E+02 E0= -.89917251E+02  d E =-.745927E-01  mag=     0.0000
       N       E                     dE             d eps       ncg     rms          rms(c)
DAV:   1    -0.898141287558E+02    0.10315E+00   -0.47373E+02  1200   0.342E+01    0.870E-01
DAV:   2    -0.900294260030E+02   -0.21530E+00   -0.21697E+00  1248   0.328E+00    0.883E-01
DAV:   3    -0.900279115336E+02    0.15145E-02   -0.34203E-02  1296   0.410E-01    0.651E-01
DAV:   4    -0.900219286817E+02    0.59829E-02   -0.85504E-03  1248   0.169E-01    0.407E-01
DAV:   5    -0.900209799460E+02    0.94874E-03   -0.89623E-03  1248   0.158E-01    0.135E-01
DAV:   6    -0.900209627974E+02    0.17149E-04   -0.18594E-04   848   0.250E-02
   7 F= -.90020963E+02 E0= -.90020963E+02  d E =-.178304E+00  mag=     0.0000
       N       E                     dE             d eps       ncg     rms          rms(c)
DAV:   1    -0.900594739326E+02   -0.38494E-01   -0.47221E+01  1200   0.108E+01    0.328E-01
DAV:   2    -0.900807609509E+02   -0.21287E-01   -0.21604E-01  1248   0.102E+00    0.269E-01
DAV:   3    -0.900804123152E+02    0.34864E-03   -0.33621E-03  1280   0.128E-01    0.187E-01
DAV:   4    -0.900799038862E+02    0.50843E-03   -0.15540E-03  1264   0.684E-02    0.693E-02
DAV:   5    -0.900799488700E+02   -0.44984E-04   -0.22773E-04   824   0.319E-02
   8 F= -.90079949E+02 E0= -.90079949E+02  d E =-.589861E-01  mag=     0.0000
       N       E                     dE             d eps       ncg     rms          rms(c)
DAV:   1    -0.900421571314E+02    0.37747E-01   -0.19408E+02  1200   0.219E+01    0.677E-01
DAV:   2    -0.901300497582E+02   -0.87893E-01   -0.89275E-01  1240   0.208E+00    0.539E-01
DAV:   3    -0.901285903038E+02    0.14595E-02   -0.13879E-02  1264   0.261E-01    0.373E-01
DAV:   4    -0.901264784215E+02    0.21119E-02   -0.60176E-03  1280   0.136E-01    0.141E-01
DAV:   5    -0.901265845662E+02   -0.10614E-03   -0.10077E-03  1256   0.634E-02    0.516E-02
DAV:   6    -0.901265207914E+02    0.63775E-04   -0.14856E-04   768   0.217E-02
   9 F= -.90126521E+02 E0= -.90126521E+02  d E =-.105558E+00  mag=     0.0000
       N       E                     dE             d eps       ncg     rms          rms(c)
DAV:   1    -0.901394097670E+02   -0.12825E-01   -0.86244E+01  1200   0.145E+01    0.365E-01
DAV:   2    -0.901792928800E+02   -0.39883E-01   -0.39886E-01  1256   0.139E+00    0.315E-01
DAV:   3    -0.901786838685E+02    0.60901E-03   -0.61050E-03  1280   0.177E-01    0.229E-01
DAV:   4    -0.901775269945E+02    0.11569E-02   -0.20063E-03  1264   0.749E-02    0.111E-01
DAV:   5    -0.901774678924E+02    0.59102E-04   -0.12641E-03  1232   0.601E-02    0.386E-02
DAV:   6    -0.901774523366E+02    0.15556E-04   -0.56502E-05   744   0.130E-02
  10 F= -.90177452E+02 E0= -.90177452E+02  d E =-.509315E-01  mag=     0.0000
       N       E                     dE             d eps       ncg     rms          rms(c)
DAV:   1    -0.900135940622E+02    0.16387E+00   -0.46115E+02  1200   0.338E+01    0.101E+00
DAV:   2    -0.902307987335E+02   -0.21720E+00   -0.21757E+00  1272   0.327E+00    0.728E-01
DAV:   3    -0.902267874264E+02    0.40113E-02   -0.35579E-02  1296   0.434E-01    0.499E-01
DAV:   4    -0.902211401406E+02    0.56473E-02   -0.11498E-02  1264   0.181E-01    0.217E-01
DAV:   5    -0.902209668856E+02    0.17326E-03   -0.39434E-03  1280   0.109E-01    0.697E-02
DAV:   6    -0.902209039998E+02    0.62886E-04   -0.27635E-04   832   0.290E-02
  11 F= -.90220904E+02 E0= -.90220904E+02  d E =-.943832E-01  mag=     0.0000
       N       E                     dE             d eps       ncg     rms          rms(c)
DAV:   1    -0.902202619909E+02    0.70489E-03   -0.96864E+01  1200   0.154E+01    0.355E-01
DAV:   2    -0.902638919203E+02   -0.43630E-01   -0.43369E-01  1240   0.146E+00    0.328E-01
DAV:   3    -0.902632050700E+02    0.68685E-03   -0.66667E-03  1288   0.182E-01    0.246E-01
DAV:   4    -0.902617598510E+02    0.14452E-02   -0.21389E-03  1264   0.769E-02    0.130E-01
DAV:   5    -0.902615953283E+02    0.16452E-03   -0.18411E-03  1232   0.714E-02    0.450E-02
DAV:   6    -0.902615984406E+02   -0.31123E-05   -0.46052E-05   760   0.123E-02
  12 F= -.90261598E+02 E0= -.90261598E+02  d E =-.406944E-01  mag=     0.0000
       N       E                     dE             d eps       ncg     rms          rms(c)
DAV:   1    -0.901753026394E+02    0.86293E-01   -0.25328E+02  1200   0.250E+01    0.622E-01
DAV:   2    -0.902903921788E+02   -0.11509E+00   -0.11428E+00  1248   0.237E+00    0.529E-01
DAV:   3    -0.902883712304E+02    0.20209E-02   -0.17704E-02  1272   0.299E-01    0.386E-01
DAV:   4    -0.902847268076E+02    0.36444E-02   -0.59073E-03  1248   0.128E-01    0.192E-01
DAV:   5    -0.902843829596E+02    0.34385E-03   -0.36249E-03  1240   0.101E-01    0.638E-02
DAV:   6    -0.902843768598E+02    0.60998E-05   -0.10840E-04   752   0.190E-02
  13 F= -.90284377E+02 E0= -.90284377E+02  d E =-.634729E-01  mag=     0.0000
       N       E                     dE             d eps       ncg     rms          rms(c)
DAV:   1    -0.902892625467E+02   -0.48796E-02   -0.66721E+01  1200   0.128E+01    0.305E-01
DAV:   2    -0.903190790734E+02   -0.29817E-01   -0.29657E-01  1224   0.120E+00    0.295E-01
DAV:   3    -0.903186703503E+02    0.40872E-03   -0.45441E-03  1296   0.147E-01    0.225E-01
DAV:   4    -0.903176331254E+02    0.10372E-02   -0.17156E-03  1224   0.692E-02    0.117E-01
DAV:   5    -0.903175679666E+02    0.65159E-04   -0.11783E-03  1240   0.587E-02    0.430E-02
DAV:   6    -0.903175656136E+02    0.23530E-05   -0.35948E-05   720   0.107E-02
  14 F= -.90317566E+02 E0= -.90317566E+02  d E =-.331888E-01  mag=     0.0000
       N       E                     dE             d eps       ncg     rms          rms(c)
DAV:   1    -0.902812073790E+02    0.36361E-01   -0.12553E+02  1200   0.176E+01    0.410E-01
DAV:   2    -0.903373133823E+02   -0.56106E-01   -0.55845E-01  1232   0.165E+00    0.403E-01
DAV:   3    -0.903365887965E+02    0.72459E-03   -0.85652E-03  1272   0.201E-01    0.307E-01
DAV:   4    -0.903346530792E+02    0.19357E-02   -0.29069E-03  1232   0.907E-02    0.168E-01
DAV:   5    -0.903344387161E+02    0.21436E-03   -0.24135E-03  1248   0.832E-02    0.600E-02
DAV:   6    -0.903344303114E+02    0.84046E-05   -0.57468E-05   704   0.138E-02
  15 F= -.90334430E+02 E0= -.90334430E+02  d E =-.500535E-01  mag=     0.0000
       N       E                     dE             d eps       ncg     rms          rms(c)
DAV:   1    -0.903342783527E+02    0.16036E-03   -0.49109E+01  1200   0.110E+01    0.267E-01
DAV:   2    -0.903563638553E+02   -0.22086E-01   -0.22084E-01  1224   0.104E+00    0.259E-01
DAV:   3    -0.903560762534E+02    0.28760E-03   -0.34942E-03  1296   0.130E-01    0.194E-01
DAV:   4    -0.903553273043E+02    0.74895E-03   -0.12276E-03  1208   0.585E-02    0.103E-01
DAV:   5    -0.903552740437E+02    0.53261E-04   -0.90081E-04  1264   0.509E-02
  16 F= -.90355274E+02 E0= -.90355274E+02  d E =-.208437E-01  mag=     0.0000
       N       E                     dE             d eps       ncg     rms          rms(c)
DAV:   1    -0.903342658587E+02    0.21061E-01   -0.64793E+01  1200   0.126E+01    0.306E-01
DAV:   2    -0.903634836088E+02   -0.29218E-01   -0.29286E-01  1224   0.120E+00    0.293E-01
DAV:   3    -0.903631361292E+02    0.34748E-03   -0.46540E-03  1272   0.150E-01    0.217E-01
DAV:   4    -0.903622279983E+02    0.90813E-03   -0.14618E-03  1232   0.643E-02    0.118E-01
DAV:   5    -0.903621555347E+02    0.72464E-04   -0.11718E-03  1248   0.580E-02    0.419E-02
DAV:   6    -0.903621475298E+02    0.80049E-05   -0.36080E-05   696   0.107E-02
  17 F= -.90362148E+02 E0= -.90362148E+02  d E =-.277172E-01  mag=     0.0000
       N       E                     dE             d eps       ncg     rms          rms(c)
DAV:   1    -0.903502051492E+02    0.11950E-01   -0.63616E+01  1200   0.125E+01    0.267E-01
DAV:   2    -0.903790004194E+02   -0.28795E-01   -0.28564E-01  1240   0.118E+00    0.267E-01
DAV:   3    -0.903786264287E+02    0.37399E-03   -0.43461E-03  1296   0.143E-01    0.205E-01
DAV:   4    -0.903776651153E+02    0.96131E-03   -0.12510E-03  1248   0.597E-02    0.119E-01
DAV:   5    -0.903775010688E+02    0.16405E-03   -0.15637E-03  1232   0.656E-02    0.425E-02
DAV:   6    -0.903775024484E+02   -0.13797E-05   -0.28154E-05   704   0.983E-03
  18 F= -.90377502E+02 E0= -.90377502E+02  d E =-.153549E-01  mag=     0.0000
       N       E                     dE             d eps       ncg     rms          rms(c)
DAV:   1    -0.903603906456E+02    0.17110E-01   -0.48083E+01  1200   0.109E+01    0.231E-01
DAV:   2    -0.903820832047E+02   -0.21693E-01   -0.21556E-01  1248   0.102E+00    0.232E-01
DAV:   3    -0.903817976395E+02    0.28557E-03   -0.32759E-03  1272   0.124E-01    0.178E-01
DAV:   4    -0.903810789620E+02    0.71868E-03   -0.94205E-04  1248   0.519E-02    0.104E-01
DAV:   5    -0.903809604202E+02    0.11854E-03   -0.11953E-03  1216   0.574E-02    0.370E-02
DAV:   6    -0.903809624363E+02   -0.20161E-05   -0.21459E-05   704   0.858E-03
  19 F= -.90380962E+02 E0= -.90380962E+02  d E =-.188149E-01  mag=     0.0000
       N       E                     dE             d eps       ncg     rms          rms(c)
DAV:   1    -0.903645224375E+02    0.16438E-01   -0.72240E+01  1200   0.134E+01    0.319E-01
DAV:   2    -0.903970902945E+02   -0.32568E-01   -0.32075E-01  1240   0.124E+00    0.271E-01
DAV:   3    -0.903964777212E+02    0.61257E-03   -0.46925E-03  1312   0.145E-01    0.206E-01
DAV:   4    -0.903954029530E+02    0.10748E-02   -0.23232E-03  1208   0.801E-02    0.811E-02
DAV:   5    -0.903954067797E+02   -0.38267E-05   -0.71503E-04  1264   0.476E-02
  20 F= -.90395407E+02 E0= -.90395407E+02  d E =-.144443E-01  mag=     0.0000
       N       E                     dE             d eps       ncg     rms          rms(c)
DAV:   1    -0.903832629882E+02    0.12140E-01   -0.32879E+01  1200   0.900E+00    0.218E-01
DAV:   2    -0.903981354534E+02   -0.14872E-01   -0.14653E-01  1232   0.838E-01    0.182E-01
DAV:   3    -0.903978975003E+02    0.23795E-03   -0.21464E-03  1272   0.978E-02    0.137E-01
DAV:   4    -0.903974607249E+02    0.43678E-03   -0.10261E-03  1216   0.536E-02    0.535E-02
DAV:   5    -0.903974740801E+02   -0.13355E-04   -0.27655E-04   800   0.314E-02
  21 F= -.90397474E+02 E0= -.90397474E+02  d E =-.165116E-01  mag=     0.0000
       N       E                     dE             d eps       ncg     rms          rms(c)
DAV:   1    -0.903767248957E+02    0.20736E-01   -0.74369E+01  1200   0.135E+01    0.317E-01
DAV:   2    -0.904102612284E+02   -0.33536E-01   -0.33124E-01  1232   0.126E+00    0.274E-01
DAV:   3    -0.904096810281E+02    0.58020E-03   -0.48640E-03  1288   0.147E-01    0.207E-01
DAV:   4    -0.904085876769E+02    0.10934E-02   -0.21648E-03  1208   0.769E-02    0.881E-02
DAV:   5    -0.904085728922E+02    0.14785E-04   -0.88075E-04  1248   0.513E-02
  22 F= -.90408573E+02 E0= -.90408573E+02  d E =-.110988E-01  mag=     0.0000
       N       E                     dE             d eps       ncg     rms          rms(c)
DAV:   1    -0.904011442551E+02    0.74434E-02   -0.19258E+01  1200   0.689E+00    0.161E-01
DAV:   2    -0.904098538935E+02   -0.87096E-02   -0.86058E-02  1232   0.642E-01    0.140E-01
DAV:   3    -0.904097315102E+02    0.12238E-03   -0.12637E-03  1280   0.748E-02    0.106E-01
DAV:   4    -0.904094820575E+02    0.24945E-03   -0.53215E-04  1200   0.384E-02    0.463E-02
DAV:   5    -0.904094896946E+02   -0.76370E-05   -0.21370E-04   736   0.267E-02
  23 F= -.90409490E+02 E0= -.90409490E+02  d E =-.120156E-01  mag=     0.0000
       N       E                     dE             d eps       ncg     rms          rms(c)
DAV:   1    -0.903830741218E+02    0.26408E-01   -0.86019E+01  1200   0.146E+01    0.311E-01
DAV:   2    -0.904215388479E+02   -0.38465E-01   -0.38077E-01  1232   0.136E+00    0.298E-01
DAV:   3    -0.904209475484E+02    0.59130E-03   -0.55812E-03  1288   0.158E-01    0.230E-01
DAV:   4    -0.904195987022E+02    0.13488E-02   -0.19456E-03  1224   0.741E-02    0.121E-01
DAV:   5    -0.904194348846E+02    0.16382E-03   -0.16872E-03  1240   0.689E-02    0.442E-02
DAV:   6    -0.904194362725E+02   -0.13880E-05   -0.30492E-05   720   0.108E-02
  24 F= -.90419436E+02 E0= -.90419436E+02  d E =-.994658E-02  mag=     0.0000
       N       E                     dE             d eps       ncg     rms          rms(c)
DAV:   1    -0.904154218326E+02    0.40131E-02   -0.10654E+01  1200   0.512E+00    0.106E-01
DAV:   2    -0.904201490301E+02   -0.47272E-02   -0.46961E-02  1232   0.476E-01    0.106E-01
DAV:   3    -0.904200783056E+02    0.70724E-04   -0.68321E-04  1280   0.552E-02
  25 F= -.90420078E+02 E0= -.90420078E+02  d E =-.105886E-01  mag=     0.0000
       N       E                     dE             d eps       ncg     rms          rms(c)
DAV:   1    -0.903905404786E+02    0.29609E-01   -0.92920E+01  1200   0.151E+01    0.300E-01
DAV:   2    -0.904316356694E+02   -0.41095E-01   -0.40894E-01  1224   0.141E+00    0.319E-01
DAV:   3    -0.904310434563E+02    0.59221E-03   -0.59203E-03  1288   0.162E-01    0.258E-01
DAV:   4    -0.904294513794E+02    0.15921E-02   -0.18905E-03  1248   0.732E-02    0.149E-01
DAV:   5    -0.904291100156E+02    0.34136E-03   -0.26471E-03  1248   0.852E-02    0.536E-02
DAV:   6    -0.904291260431E+02   -0.16028E-04   -0.30930E-05   712   0.115E-02
  26 F= -.90429126E+02 E0= -.90429126E+02  d E =-.904774E-02  mag=     0.0000
       N       E                     dE             d eps       ncg     rms          rms(c)
DAV:   1    -0.904254389235E+02    0.36711E-02   -0.90273E+00  1200   0.471E+00    0.926E-02
DAV:   2    -0.904294872017E+02   -0.40483E-02   -0.40166E-02  1248   0.439E-01    0.927E-02
DAV:   3    -0.904294370529E+02    0.50149E-04   -0.58037E-04  1248   0.512E-02
  27 F= -.90429437E+02 E0= -.90429437E+02  d E =-.935875E-02  mag=    -0.0000
       N       E                     dE             d eps       ncg     rms          rms(c)
DAV:   1    -0.904077101646E+02    0.21777E-01   -0.67027E+01  1200   0.128E+01    0.258E-01
DAV:   2    -0.904375087477E+02   -0.29799E-01   -0.29788E-01  1224   0.120E+00    0.276E-01
DAV:   3    -0.904371120891E+02    0.39666E-03   -0.43872E-03  1280   0.140E-01    0.222E-01
DAV:   4    -0.904359811021E+02    0.11310E-02   -0.13530E-03  1248   0.616E-02    0.130E-01
DAV:   5    -0.904357506376E+02    0.23046E-03   -0.20162E-03  1248   0.735E-02    0.477E-02
DAV:   6    -0.904357539268E+02   -0.32892E-05   -0.28721E-05   720   0.105E-02
  28 F= -.90435754E+02 E0= -.90435754E+02  d E =-.631687E-02  mag=    -0.0000
       N       E                     dE             d eps       ncg     rms          rms(c)
DAV:   1    -0.904345176142E+02    0.12330E-02   -0.29455E+00  1200   0.268E+00    0.540E-02
DAV:   2    -0.904358513005E+02   -0.13337E-02   -0.13265E-02  1248   0.253E-01    0.540E-02
DAV:   3    -0.904358359502E+02    0.15350E-04   -0.17333E-04   736   0.298E-02
  29 F= -.90435836E+02 E0= -.90435836E+02  d E =-.639890E-02  mag=    -0.0000
       N       E                     dE             d eps       ncg     rms          rms(c)
DAV:   1    -0.904302341430E+02    0.56172E-02   -0.17877E+01  1200   0.664E+00    0.225E-01
DAV:   2    -0.904382119935E+02   -0.79779E-02   -0.82470E-02  1240   0.620E-01    0.164E-01
DAV:   3    -0.904380658525E+02    0.14614E-03   -0.13254E-03  1280   0.741E-02    0.110E-01
DAV:   4    -0.904379487286E+02    0.11712E-03   -0.63944E-04  1224   0.446E-02    0.280E-02
DAV:   5    -0.904379612185E+02   -0.12490E-04   -0.21813E-05   752   0.141E-02
  30 F= -.90437961E+02 E0= -.90437961E+02  d E =-.212527E-02  mag=    -0.0000
       N       E                     dE             d eps       ncg     rms          rms(c)
DAV:   1    -0.904381798664E+02   -0.23114E-03   -0.23159E+00  1200   0.239E+00    0.805E-02
DAV:   2    -0.904392030909E+02   -0.10232E-02   -0.10522E-02  1240   0.222E-01    0.616E-02
DAV:   3    -0.904391768334E+02    0.26258E-04   -0.15247E-04   720   0.265E-02
  31 F= -.90439177E+02 E0= -.90439177E+02  d E =-.334088E-02  mag=    -0.0000
       N       E                     dE             d eps       ncg     rms          rms(c)
DAV:   1    -0.904373677762E+02    0.18353E-02   -0.11239E+01  1200   0.525E+00    0.131E-01
DAV:   2    -0.904424548817E+02   -0.50871E-02   -0.51187E-02  1224   0.498E-01    0.117E-01
DAV:   3    -0.904423687303E+02    0.86151E-04   -0.77154E-04  1248   0.609E-02
  32 F= -.90442369E+02 E0= -.90442369E+02  d E =-.319190E-02  mag=    -0.0000
       N       E                     dE             d eps       ncg     rms          rms(c)
DAV:   1    -0.904420877212E+02    0.36716E-03   -0.78908E-01  1232   0.139E+00    0.619E-02
DAV:   2    -0.904424006002E+02   -0.31288E-03   -0.33170E-03  1264   0.127E-01    0.499E-02
DAV:   3    -0.904423784881E+02    0.22112E-04   -0.65329E-05   696   0.162E-02
  33 F= -.90442378E+02 E0= -.90442378E+02  d E =-.320165E-02  mag=    -0.0000
       N       E                     dE             d eps       ncg     rms          rms(c)
DAV:   1    -0.904403944482E+02    0.20062E-02   -0.10147E+01  1200   0.498E+00    0.113E-01
DAV:   2    -0.904449422190E+02   -0.45478E-02   -0.45681E-02  1240   0.469E-01    0.106E-01
DAV:   3    -0.904448825396E+02    0.59679E-04   -0.67592E-04  1248   0.563E-02
  34 F= -.90444883E+02 E0= -.90444883E+02  d E =-.250405E-02  mag=    -0.0000
       N       E                     dE             d eps       ncg     rms          rms(c)
DAV:   1    -0.904442111192E+02    0.73110E-03   -0.17161E+00  1200   0.205E+00    0.710E-02
DAV:   2    -0.904449033301E+02   -0.69221E-03   -0.72712E-03  1264   0.188E-01    0.635E-02
DAV:   3    -0.904448662031E+02    0.37127E-04   -0.10203E-04   720   0.217E-02
  35 F= -.90444866E+02 E0= -.90444866E+02  d E =-.248772E-02  mag=    -0.0000
       N       E                     dE             d eps       ncg     rms          rms(c)
DAV:   1    -0.904428561347E+02    0.20472E-02   -0.60260E+00  1200   0.385E+00    0.140E-01
DAV:   2    -0.904454796930E+02   -0.26236E-02   -0.27490E-02  1208   0.360E-01    0.104E-01
DAV:   3    -0.904454345252E+02    0.45168E-04   -0.48280E-04  1312   0.457E-02
  36 F= -.90445435E+02 E0= -.90445435E+02  d E =-.568322E-03  mag=    -0.0000
       N       E                     dE             d eps       ncg     rms          rms(c)
DAV:   1    -0.904455640838E+02   -0.84391E-04   -0.10680E+00  1200   0.162E+00    0.484E-02
DAV:   2    -0.904460381952E+02   -0.47411E-03   -0.48498E-03  1224   0.153E-01    0.386E-02
DAV:   3    -0.904460311434E+02    0.70518E-05   -0.75459E-05   752   0.198E-02
  37 F= -.90446031E+02 E0= -.90446031E+02  d E =-.116494E-02  mag=    -0.0000
