9
Energy = -15.51417327 eV
Ag 9.504463956461864 10.600435178757674 7.942355461112358
Ag 9.329236618587327 8.393723494584158 6.004981202099037
Ag 7.06784244564251 9.393547835825446 7.5494833193832305
Ag 10.741117846738396 8.126913450103318 8.331679890893652
Ag 7.493895918436535 10.951522489190332 9.942811217326915
Ag 8.221024817206077 6.854089582811986 7.971315840043855
Ag 9.753577748066583 9.531648466926828 10.549573434828156
Ag 9.541900470775888 6.743019860651117 10.43258917065335
Ag 7.20830053502349 8.266459998087306 10.13657082059775
