 vasp.5.3.5 31Mar14 (build Feb 01 2018 12:10:03) gamma-only                     
  
 executed on             LinuxIFC date 2019.03.22  10:21:19
 running on   32 total cores
 distrk:  each k-point on   32 cores,    1 groups
 distr:  one band on NCORES_PER_BAND=   8 cores,    4 groups


--------------------------------------------------------------------------------------------------------


 INCAR:
 POTCAR:    PAW_PBE Ag 02Apr2005                  
 POTCAR:    PAW_PBE Ag 02Apr2005                  
   VRHFIN =Ag : s1 d10                                                          
   LEXCH  = PE                                                                  
   EATOM  =  1037.2675 eV,   76.2370 Ry                                         
                                                                                
   TITEL  = PAW_PBE Ag 02Apr2005                                                
   LULTRA =        F    use ultrasoft PP ?                                      
   IUNSCR =        1    unscreen: 0-lin 1-nonlin 2-no                           
   RPACOR =    2.000    partial core radius                                     
   POMASS =  107.868; ZVAL   =   11.000    mass and valenz                      
   RCORE  =    2.500    outmost cutoff radius                                   
   RWIGS  =    2.840; RWIGS  =    1.503    wigner-seitz radius (au A)           
   ENMAX  =  249.844; ENMIN  =  187.383 eV                                      
   ICORE  =        3    local potential                                         
   LCOR   =        T    correct aug charges                                     
   LPAW   =        T    paw PP                                                  
   EAUG   =  412.496                                                            
   DEXC   =    0.000                                                            
   RMAX   =    2.560    core radius for proj-oper                               
   RAUG   =    1.300    factor for augmentation sphere                          
   RDEP   =    2.576    radius for radial grids                                 
   RDEPT  =    2.072    core radius for aug-charge                              
                                                                                
   Atomic configuration                                                         
   12 entries                                                                   
     n  l   j            E        occ.                                          
     1  0  0.50    -25324.9161   2.0000                                         
     2  0  0.50     -3728.5341   2.0000                                         
     2  1  1.50     -3344.0404   6.0000                                         
     3  0  0.50      -683.5581   2.0000                                         
     3  1  1.50      -557.3225   6.0000                                         
     3  2  2.50      -358.3853  10.0000                                         
     4  0  0.50       -95.0341   2.0000                                         
     4  1  1.50       -58.5511   6.0000                                         
     4  2  2.50        -7.4440  10.0000                                         
     5  0  0.50        -4.4045   1.0000                                         
     5  1  0.50        -1.3606   0.0000                                         
     4  3  2.50        -1.3606   0.0000                                         
   Description                                                                  
     l       E           TYP  RCUT    TYP  RCUT                                 
     2     -7.4439781     23  2.400                                             
     2     -8.8045607     23  2.400                                             
     0     -4.4044681     23  2.400                                             
     0      1.9520038     23  2.400                                             
     1     -1.3605826     23  2.500                                             
     1     27.2116520     23  2.500                                             
     3     -4.0817478     23  2.400                                             
  local pseudopotential read in
  partial core-charges read in
  partial kinetic energy density read in
  atomic valenz-charges read in
  non local Contribution for L=           2  read in
    real space projection operators read in
  non local Contribution for L=           2  read in
    real space projection operators read in
  non local Contribution for L=           0  read in
    real space projection operators read in
  non local Contribution for L=           0  read in
    real space projection operators read in
  non local Contribution for L=           1  read in
    real space projection operators read in
  non local Contribution for L=           1  read in
    real space projection operators read in
    PAW grid and wavefunctions read in
 
   number of l-projection  operators is LMAX  =           6
   number of lm-projection operators is LMMAX =          18
 

 ----------------------------------------------------------------------------- 
|                                                                             |
|  ADVICE TO THIS USER RUNNING 'VASP/VAMP'   (HEAR YOUR MASTER'S VOICE ...):  |
|                                                                             |
|      You have a (more or less) 'large supercell' and for larger cells       |
|      it might be more efficient to use real space projection opertators     |
|      So try LREAL= Auto  in the INCAR   file.                               |
|      Mind: At the moment your POTCAR file does not contain real space       |
|       projectors, and has to be modified,  BUT if you                       |
|      want to do an extremely  accurate calculation you might also keep the  |
|      reciprocal projection scheme          (i.e. LREAL=.FALSE.)             |
|                                                                             |
 ----------------------------------------------------------------------------- 

  PAW_PBE Ag 02Apr2005                  :
 energy of atom  1       EATOM=-1037.2675
 kinetic energy error for atom=    0.0689 (will be added to EATOM!!)
 
 
 POSCAR: Al30, -92.76006946 <s> Ag </s>          
  positions in direct lattice
  No initial velocities read in
 exchange correlation table for  LEXCH =        8
   RHO(1)=    0.500       N(1)  =     2000
   RHO(2)=  100.500       N(2)  =     4000
 


--------------------------------------------------------------------------------------------------------


 ion  position               nearest neighbor table
   1  0.632  0.398  0.427-   4 2.70   5 2.77   3 2.77  12 2.78   2 2.82   6 2.91
   2  0.517  0.350  0.461-   7 2.78   1 2.82  12 2.82  10 2.84   5 2.99   9 3.21
   3  0.653  0.494  0.348-   1 2.77   8 2.79  11 2.79   5 2.85   6 3.13
   4  0.675  0.388  0.543-   1 2.70   9 2.72  13 2.76   6 2.86  12 3.20
   5  0.532  0.458  0.378-  10 2.66   8 2.71   1 2.77  12 2.82   3 2.85  14 2.85   2 2.99  15 3.07
                            11 3.26
   6  0.677  0.507  0.489-  11 2.76  17 2.79  12 2.80   4 2.86   1 2.91  13 2.92   3 3.13
   7  0.450  0.399  0.558-   9 2.73   2 2.78  10 2.79  28 2.80  16 2.81  19 2.84  23 2.91  12 2.98
                            25 3.19
   8  0.551  0.558  0.307-   5 2.71  18 2.78   3 2.79  14 2.80  11 2.80
   9  0.565  0.371  0.599-  23 2.71   4 2.72   7 2.73  12 2.91  13 3.03  19 3.04   2 3.21
  10  0.428  0.443  0.440-   5 2.66  20 2.77   7 2.79   2 2.84  16 2.85  15 2.88  14 2.88  12 3.19
                            25 3.37
  11  0.600  0.583  0.423-  15 2.75   6 2.76  17 2.76   3 2.79   8 2.80  24 2.83  18 2.98   5 3.26
                            12 3.28
  12  0.557  0.465  0.505-  19 2.63   1 2.78  15 2.79   6 2.80   5 2.82   2 2.82   9 2.91   7 2.98
                            17 3.02  13 3.09  10 3.19   4 3.20  11 3.28
  13  0.642  0.486  0.616-   4 2.76  21 2.84  19 2.84  17 2.84   6 2.92   9 3.03  26 3.06  12 3.09

  14  0.430  0.533  0.343-   8 2.80  22 2.82   5 2.85  10 2.88  15 2.89  20 2.90  18 3.00
  15  0.483  0.561  0.462-  11 2.75  27 2.75  25 2.78  18 2.78  12 2.79  10 2.88  14 2.89  24 3.00
                            20 3.02   5 3.07  29 3.23  17 3.25  19 3.58
  16  0.330  0.437  0.527-   7 2.81  25 2.81  10 2.85  28 2.87  20 2.88
  17  0.600  0.589  0.549-  24 2.75  26 2.76  11 2.76  29 2.79   6 2.79  13 2.84  12 3.02  19 3.04
                            15 3.25
  18  0.493  0.651  0.373-  22 2.76  24 2.77  15 2.78   8 2.78  11 2.98  14 3.00  27 3.13
  19  0.513  0.500  0.611-  12 2.63  30 2.71  21 2.73  25 2.75  13 2.84   7 2.84  23 2.88  29 2.88
                            26 2.93  17 3.04   9 3.04  28 3.24  15 3.58
  20  0.347  0.540  0.446-  22 2.72  25 2.76  10 2.77  16 2.88  14 2.90  15 3.02  27 3.17
  21  0.567  0.482  0.722-  19 2.73  26 2.74  23 2.76  13 2.84  30 2.93
  22  0.367  0.641  0.375-  20 2.72  18 2.76  27 2.76  14 2.82
  23  0.481  0.397  0.687-   9 2.71  28 2.72  21 2.76  19 2.88   7 2.91  30 3.48
  24  0.543  0.682  0.485-  17 2.75  18 2.77  11 2.83  27 2.88  29 2.92  15 3.00
  25  0.404  0.538  0.559-  19 2.75  29 2.76  20 2.76  28 2.77  15 2.78  16 2.81  27 3.08   7 3.19
                            10 3.37  30 3.43
  26  0.581  0.597  0.674-  21 2.74  17 2.76  29 2.80  19 2.93  30 3.02  13 3.06
  27  0.413  0.661  0.491-  15 2.75  22 2.76  29 2.83  24 2.88  25 3.08  18 3.13  20 3.17
  28  0.377  0.453  0.649-  23 2.72  25 2.77   7 2.80  16 2.87  30 3.03  19 3.24
  29  0.486  0.628  0.593-  25 2.76  17 2.79  26 2.80  27 2.83  19 2.88  24 2.92  30 3.07  15 3.23

  30  0.454  0.553  0.707-  19 2.71  21 2.93  26 3.02  28 3.03  29 3.07  25 3.43  23 3.48
 
  LATTYP: Found a simple cubic cell.
 ALAT       =    21.8328566817
  
  Lattice vectors:
  
 A1 = (  21.8328566817,   0.0000000000,   0.0000000000)
 A2 = (   0.0000000000,  21.8328566817,   0.0000000000)
 A3 = (   0.0000000000,   0.0000000000,  21.8328566817)


Analysis of symmetry for initial positions (statically):
=====================================================================
 Subroutine PRICEL returns:
 Original cell was already a primitive cell.
 

 Routine SETGRP: Setting up the symmetry group for a 
 simple cubic supercell.


 Subroutine GETGRP returns: Found  1 space group operations
 (whereof  1 operations were pure point group operations)
 out of a pool of 48 trial point group operations.


The static configuration has the point symmetry C_1 .


Analysis of symmetry for dynamics (positions and initial velocities):
=====================================================================
 Subroutine PRICEL returns:
 Original cell was already a primitive cell.
 

 Routine SETGRP: Setting up the symmetry group for a 
 simple cubic supercell.


 Subroutine GETGRP returns: Found  1 space group operations
 (whereof  1 operations were pure point group operations)
 out of a pool of 48 trial point group operations.


The dynamic configuration has the point symmetry C_1 .


Analysis of magnetic symmetry:
=====================================================================
 Subroutine PRICEL returns:
 Original cell was already a primitive cell.
 

 Subroutine MAGSYM returns: Found  1 space group operations
 (whereof  1 operations were pure point group operations)
 out of a pool of  1 trial space group operations
 (whereof  1 operations were pure point group operations)
 and found also     1 'primitive' translations


The magnetic configuration has the point symmetry C_1 .
 
 
 KPOINTS: Gamma-point only                        
  k-points in reciprocal lattice
Space group operators:
 irot       det(A)        alpha          n_x          n_y          n_z        tau_x        tau_y        tau_z
    1     1.000000     0.000000     1.000000     0.000000     0.000000     0.000000     0.000000     0.000000


--------------------------------------------------------------------------------------------------------




 Dimension of arrays:
   k-points           NKPTS =      1   k-points in BZ     NKDIM =      1   number of bands    NBANDS=    216
   number of dos      NEDOS =    301   number of ions     NIONS =     30
   non local maximal  LDIM  =      6   non local SUM 2l+1 LMDIM =     18
   total plane-waves  NPLWV = 592704
   max r-space proj   IRMAX =      1   max aug-charges    IRDMAX=   2999
   dimension x,y,z NGX =    84 NGY =   84 NGZ =   84
   dimension x,y,z NGXF=   168 NGYF=  168 NGZF=  168
   support grid    NGXF=   168 NGYF=  168 NGZF=  168
   ions per type =              30
 NGX,Y,Z   is equivalent  to a cutoff of   6.40,  6.40,  6.40 a.u.
 NGXF,Y,Z  is equivalent  to a cutoff of  12.79, 12.79, 12.79 a.u.


 I would recommend the setting:
   dimension x,y,z NGX =    84 NGY =   84 NGZ =   84
 SYSTEM =  unknown system                          
 POSCAR =  Al30, -92.76006946 <s> Ag </s>          

 Startparameter for this run:
   NWRITE =      2    write-flag & timer
   PREC   = normal    normal or accurate (medium, high low for compatibility)
   ISTART =      0    job   : 0-new  1-cont  2-samecut
   ICHARG =      2    charge: 1-file 2-atom 10-const
   ISPIN  =      2    spin polarized calculation?
   LNONCOLLINEAR =      F non collinear calculations
   LSORBIT =      F    spin-orbit coupling
   INIWAV =      1    electr: 0-lowe 1-rand  2-diag
   LASPH  =      F    aspherical Exc in radial PAW
   METAGGA=      F    non-selfconsistent MetaGGA calc.

 Electronic Relaxation 1
   ENCUT  =  249.8 eV  18.36 Ry    4.29 a.u.  28.14 28.14 28.14*2*pi/ulx,y,z
   ENINI  =  249.8     initial cutoff
   ENAUG  =  412.5 eV  augmentation charge cutoff
   NELM   =     60;   NELMIN=  2; NELMDL= -5     # of ELM steps 
   EDIFF  = 0.1E-03   stopping-criterion for ELM
   LREAL  =      F    real-space projection
   NLSPLINE    = F    spline interpolate recip. space projectors
   LCOMPAT=      F    compatible to vasp.4.4
   GGA_COMPAT  = T    GGA compatible to vasp.4.4-vasp.4.6
   LMAXPAW     = -100 max onsite density
   LMAXMIX     =    2 max onsite mixed and CHGCAR
   VOSKOWN=      0    Vosko Wilk Nusair interpolation
   ROPT   =    0.00000
 Ionic relaxation
   EDIFFG = 0.1E-02   stopping-criterion for IOM
   NSW    =   1000    number of steps for IOM
   NBLOCK =      1;   KBLOCK =   1000    inner block; outer block 
   IBRION =      2    ionic relax: 0-MD 1-quasi-New 2-CG
   NFREE  =      1    steps in history (QN), initial steepest desc. (CG)
   ISIF   =      2    stress and relaxation
   IWAVPR =     11    prediction:  0-non 1-charg 2-wave 3-comb
   ISYM   =      2    0-nonsym 1-usesym 2-fastsym
   LCORR  =      T    Harris-Foulkes like correction to forces

   POTIM  = 0.1000    time-step for ionic-motion
   TEIN   =    0.0    initial temperature
   TEBEG  =    0.0;   TEEND  =   0.0 temperature during run
   SMASS  =  -3.00    Nose mass-parameter (am)
   estimated Nose-frequenzy (Omega)   =  0.10E-29 period in steps =****** mass=  -0.109E-25a.u.
   SCALEE = 1.0000    scale energy and forces
   NPACO  =    256;   APACO  = 16.0  distance and # of slots for P.C.
   PSTRESS=    0.0 pullay stress

  Mass of Ions in am
   POMASS = 107.87
  Ionic Valenz
   ZVAL   =  11.00
  Atomic Wigner-Seitz radii
   RWIGS  =  -1.00
  virtual crystal weights 
   VCA    =   1.00
   NELECT =     330.0000    total number of electrons
   NUPDOWN=      -1.0000    fix difference up-down

 DOS related values:
   EMIN   =  10.00;   EMAX   =-10.00  energy-range for DOS
   EFERMI =   0.00
   ISMEAR =     0;   SIGMA  =   0.00  broadening in eV -4-tet -1-fermi 0-gaus

 Electronic relaxation 2 (details)
   IALGO  =     38    algorithm
   LDIAG  =      T    sub-space diagonalisation (order eigenvalues)
   LSUBROT=      F    optimize rotation matrix (better conditioning)
   TURBO    =      0    0=normal 1=particle mesh
   IRESTART =      0    0=no restart 2=restart with 2 vectors
   NREBOOT  =      0    no. of reboots
   NMIN     =      0    reboot dimension
   EREF     =   0.00    reference energy to select bands
   IMIX   =      4    mixing-type and parameters
     AMIX     =   0.40;   BMIX     =  1.00
     AMIX_MAG =   1.60;   BMIX_MAG =  1.00
     AMIN     =   0.10
     WC   =   100.;   INIMIX=   1;  MIXPRE=   1;  MAXMIX= -45

 Intra band minimization:
   WEIMIN = 0.0010     energy-eigenvalue tresh-hold
   EBREAK =  0.12E-06  absolut break condition
   DEPER  =   0.30     relativ break condition  

   TIME   =   0.40     timestep for ELM

  volume/ion in A,a.u.               =     346.90      2341.03
  Fermi-wavevector in a.u.,A,eV,Ry     =   0.518166  0.979192  3.653110  0.268496
  Thomas-Fermi vector in A             =   1.534929
 
 Write flags
   LWAVE  =      F    write WAVECAR
   LCHARG =      F    write CHGCAR
   LVTOT  =      F    write LOCPOT, total local potential
   LVHAR  =      F    write LOCPOT, Hartree potential only
   LELF   =      F    write electronic localiz. function (ELF)
   LORBIT =      0    0 simple, 1 ext, 2 COOP (PROOUT)


 Dipole corrections
   LMONO  =      F    monopole corrections only (constant potential shift)
   LDIPOL =      F    correct potential (dipole corrections)
   IDIPOL =      0    1-x, 2-y, 3-z, 4-all directions 
   EPSILON=  1.0000000 bulk dielectric constant

 Exchange correlation treatment:
   GGA     =    PE    GGA type
   LEXCH   =     8    internal setting for exchange type
   VOSKOWN=      0    Vosko Wilk Nusair interpolation
   LHFCALC =     F    Hartree Fock is set to
   LHFONE  =     F    Hartree Fock one center treatment
   AEXX    =    0.0000 exact exchange contribution

 Linear response parameters
   LEPSILON=     F    determine dielectric tensor
   LRPA    =     F    only Hartree local field effects (RPA)
   LNABLA  =     F    use nabla operator in PAW spheres
   LVEL    =     F    velocity operator in full k-point grid
   LINTERFAST=   F  fast interpolation
   KINTER  =     0    interpolate to denser k-point grid
   CSHIFT  =0.1000    complex shift for real part using Kramers Kronig
   OMEGAMAX=  -1.0    maximum frequency
   DEG_THRESHOLD= 0.2000000E-02 threshold for treating states as degnerate
   RTIME   =    0.100 relaxation time in fs

 Orbital magnetization related:
   ORBITALMAG=     F  switch on orbital magnetization
   LCHIMAG   =     F  perturbation theory with respect to B field
   DQ        =  0.001000  dq finite difference perturbation B field



--------------------------------------------------------------------------------------------------------


 conjugate gradient relaxation of ions
 charge density and potential will be updated during run
 spin polarized calculation
 Variant of blocked Davidson
 Davidson routine will perform the subspace rotation
 perform sub-space diagonalisation
    after iterative eigenvector-optimisation
 modified Broyden-mixing scheme, WC =      100.0
 initial mixing is a Kerker type mixing with AMIX =  0.4000 and BMIX =      1.0000
 Hartree-type preconditioning will be used
 using additional bands           51
 reciprocal scheme for non local part
 use partial core corrections
 calculate Harris-corrections to forces 
   (improved forces if not selfconsistent)
 use gradient corrections 
 use of overlap-Matrix (Vanderbilt PP)
 Gauss-broadening in eV      SIGMA  =   0.00


--------------------------------------------------------------------------------------------------------


  energy-cutoff  :      249.84
  volume of cell :    10407.15
      direct lattice vectors                 reciprocal lattice vectors
    21.832856682  0.000000000  0.000000000     0.045802527  0.000000000  0.000000000
     0.000000000 21.832856682  0.000000000     0.000000000  0.045802527  0.000000000
     0.000000000  0.000000000 21.832856682     0.000000000  0.000000000  0.045802527

  length of vectors
    21.832856682 21.832856682 21.832856682     0.045802527  0.045802527  0.045802527


 
 k-points in units of 2pi/SCALE and weight: Gamma-point only                        
   0.00000000  0.00000000  0.00000000       1.000
 
 k-points in reciprocal lattice and weights: Gamma-point only                        
   0.00000000  0.00000000  0.00000000       1.000
 
 position of ions in fractional coordinates (direct lattice) 
   0.63188935  0.39774187  0.42714180
   0.51671111  0.35033831  0.46116792
   0.65328332  0.49427744  0.34767633
   0.67495032  0.38767922  0.54284435
   0.53179569  0.45846848  0.37842352
   0.67676403  0.50697086  0.48854781
   0.44973464  0.39936148  0.55789267
   0.55072718  0.55830199  0.30694934
   0.56464722  0.37135193  0.59876273
   0.42758154  0.44278994  0.43999362
   0.60044960  0.58343857  0.42264241
   0.55664948  0.46541489  0.50477250
   0.64187932  0.48565499  0.61571790
   0.43041808  0.53258367  0.34325318
   0.48293610  0.56062566  0.46163327
   0.33047557  0.43739414  0.52704492
   0.59976656  0.58921511  0.54905846
   0.49307343  0.65112992  0.37254554
   0.51260033  0.50007918  0.61131431
   0.34686473  0.54041819  0.44642006
   0.56738285  0.48243625  0.72220256
   0.36701852  0.64060898  0.37510834
   0.48130985  0.39699312  0.68723329
   0.54313843  0.68180805  0.48487886
   0.40431496  0.53814258  0.55897906
   0.58069636  0.59729993  0.67381709
   0.41306742  0.66138625  0.49115899
   0.37693472  0.45324465  0.64897553
   0.48617930  0.62809944  0.59306368
   0.45398059  0.55263602  0.70724313
 
 position of ions in cartesian coordinates  (Angst):
  13.79594961  8.68384116  9.32572565
  11.28127955  7.64888615 10.06861309
  14.26304118 10.79148853  7.59076739
  14.73609353  8.46414492 11.85184288
  11.61061903 10.00967669  8.26206644
  14.77569216 11.06862211 10.66639442
   9.81899200  8.71920206 12.18039060
  12.02394764 12.18932743  6.70158095
  12.32786187  8.10767349 13.07270088
   9.33532638  9.66736937  9.60631771
  13.10952996 12.73813078  9.22749111
  12.15324833 10.16133648 11.02062575
  14.01405925 10.60323570 13.44288063
   9.39725631 11.62782299  7.49419758
  10.54387472 12.24005960 10.07877310
   7.21522565  9.54956357 11.50689628
  13.09461724 12.86424896 11.98751467
  10.76520143 14.21602628  8.13373336
  11.19152948 10.91815708 13.34673765
   7.57304784 11.79887281  9.74662525
  12.38758847 10.53296155 15.76774507
   8.01306279 13.98632413  8.18968671
  10.50836898  8.66749396 15.00426603
  11.85826353 14.88581743 10.58629060
   8.82735052 11.74918986 12.20410975
  12.67826039 13.04076382 14.71135206
   9.01844176 14.43995117 10.72340385
   8.22956171  9.89562541 14.16898967
  10.61468289 13.71320496 12.94827436
   9.91169319 12.06562309 15.44113788
 


--------------------------------------------------------------------------------------------------------


 use parallel FFT for wavefunctions z direction half grid
 k-point  1 :   0.0000 0.0000 0.0000  plane waves:   46583

 maximum and minimum number of plane-waves per node :      5833     5814

 maximum number of plane-waves:     46583
 maximum index in each direction: 
   IXMAX=   28   IYMAX=   28   IZMAX=   28
   IXMIN=  -28   IYMIN=  -28   IZMIN=    0

 WARNING: aliasing errors must be expected set NGX to 114 to avoid them
 WARNING: aliasing errors must be expected set NGY to 114 to avoid them
 WARNING: aliasing errors must be expected set NGZ to 114 to avoid them
 aliasing errors are usually negligible using standard VASP settings
 and one can safely disregard these warnings

 parallel 3D FFT for wavefunctions:
    minimum data exchange during FFTs selected (reduces bandwidth)
 parallel 3D FFT for charge:
    minimum data exchange during FFTs selected (reduces bandwidth)


 total amount of memory used by VASP on root node    69644. kBytes
========================================================================

   base      :      30000. kBytes
   nonl-proj :       3641. kBytes
   fftplans  :       7251. kBytes
   grid      :      18544. kBytes
   one-center:         62. kBytes
   wavefun   :      10146. kBytes
 
     INWAV:  cpu time    0.00: real time    0.00
 Broyden mixing: mesh for mixing (old mesh)
   NGX = 57   NGY = 57   NGZ = 57
  (NGX  =168   NGY  =168   NGZ  =168)
  gives a total of 185193 points

 initial charge density was supplied:
 charge density of overlapping atoms calculated
 number of electron     330.0000000 magnetization      30.0000000
 keeping initial charge density in first step


--------------------------------------------------------------------------------------------------------


 Maximum index for augmentation-charges          235 (set IRDMAX)


--------------------------------------------------------------------------------------------------------


 First call to EWALD:  gamma=   0.081
 Maximum number of real-space cells 3x 3x 3
 Maximum number of reciprocal cells 3x 3x 3

 FEWALD executed in parallel
    FEWALD:  cpu time    0.00: real time    0.00


----------------------------------------- Iteration    1(   1)  ---------------------------------------


    POTLOK:  cpu time    0.30: real time    0.30
    SETDIJ:  cpu time    0.01: real time    0.01
     EDDAV:  cpu time    4.12: real time    4.12
       DOS:  cpu time    0.00: real time    0.00
    --------------------------------------------
      LOOP:  cpu time    4.43: real time    4.45

 eigenvalue-minimisations  :   864
 total energy-change (2. order) : 0.2888013E+04  (-0.6117446E+04)
 number of electron     330.0000000 magnetization      30.0000000
 augmentation part      330.0000000 magnetization      30.0000000

 Free energy of the ion-electron system (eV)
  ---------------------------------------------------
  alpha Z        PSCENC =        73.55716770
  Ewald energy   TEWEN  =     68453.91191190
  -Hartree energ DENC   =    -98298.16298494
  -exchange      EXHF   =         0.00000000
  -V(xc)+E(xc)   XCENC  =      -328.37598873
  PAW double counting   =     30101.16534209   -28717.93826637
  entropy T*S    EENTRO =         0.00000000
  eigenvalues    EBANDS =       487.89655965
  atomic energy  EATOM  =     31115.95890259
  ---------------------------------------------------
  free energy    TOTEN  =      2888.01264389 eV

  energy without entropy =     2888.01264389  energy(sigma->0) =     2888.01264389


--------------------------------------------------------------------------------------------------------




----------------------------------------- Iteration    1(   2)  ---------------------------------------


     EDDAV:  cpu time    6.41: real time    6.41
       DOS:  cpu time    0.00: real time    0.00
    --------------------------------------------
      LOOP:  cpu time    6.41: real time    6.42

 eigenvalue-minimisations  :  1488
 total energy-change (2. order) :-0.2279397E+04  (-0.2036881E+04)
 number of electron     330.0000000 magnetization      30.0000000
 augmentation part      330.0000000 magnetization      30.0000000

 Free energy of the ion-electron system (eV)
  ---------------------------------------------------
  alpha Z        PSCENC =        73.55716770
  Ewald energy   TEWEN  =     68453.91191190
  -Hartree energ DENC   =    -98298.16298494
  -exchange      EXHF   =         0.00000000
  -V(xc)+E(xc)   XCENC  =      -328.37598873
  PAW double counting   =     30101.16534209   -28717.93826637
  entropy T*S    EENTRO =         0.00000000
  eigenvalues    EBANDS =     -1791.50075427
  atomic energy  EATOM  =     31115.95890259
  ---------------------------------------------------
  free energy    TOTEN  =       608.61532997 eV

  energy without entropy =      608.61532997  energy(sigma->0) =      608.61532997


--------------------------------------------------------------------------------------------------------




----------------------------------------- Iteration    1(   3)  ---------------------------------------


     EDDAV:  cpu time    5.07: real time    5.07
       DOS:  cpu time    0.00: real time    0.00
    --------------------------------------------
      LOOP:  cpu time    5.07: real time    5.08

 eigenvalue-minimisations  :  1120
 total energy-change (2. order) :-0.6390205E+03  (-0.5771415E+03)
 number of electron     330.0000000 magnetization      30.0000000
 augmentation part      330.0000000 magnetization      30.0000000

 Free energy of the ion-electron system (eV)
  ---------------------------------------------------
  alpha Z        PSCENC =        73.55716770
  Ewald energy   TEWEN  =     68453.91191190
  -Hartree energ DENC   =    -98298.16298494
  -exchange      EXHF   =         0.00000000
  -V(xc)+E(xc)   XCENC  =      -328.37598873
  PAW double counting   =     30101.16534209   -28717.93826637
  entropy T*S    EENTRO =         0.00000000
  eigenvalues    EBANDS =     -2430.52123040
  atomic energy  EATOM  =     31115.95890259
  ---------------------------------------------------
  free energy    TOTEN  =       -30.40514616 eV

  energy without entropy =      -30.40514616  energy(sigma->0) =      -30.40514616


--------------------------------------------------------------------------------------------------------




----------------------------------------- Iteration    1(   4)  ---------------------------------------


     EDDAV:  cpu time    4.43: real time    4.43
       DOS:  cpu time    0.00: real time    0.00
    --------------------------------------------
      LOOP:  cpu time    4.43: real time    5.76

 eigenvalue-minimisations  :   944
 total energy-change (2. order) :-0.3189440E+02  (-0.3157778E+02)
 number of electron     330.0000000 magnetization      30.0000000
 augmentation part      330.0000000 magnetization      30.0000000

 Free energy of the ion-electron system (eV)
  ---------------------------------------------------
  alpha Z        PSCENC =        73.55716770
  Ewald energy   TEWEN  =     68453.91191190
  -Hartree energ DENC   =    -98298.16298494
  -exchange      EXHF   =         0.00000000
  -V(xc)+E(xc)   XCENC  =      -328.37598873
  PAW double counting   =     30101.16534209   -28717.93826637
  entropy T*S    EENTRO =         0.00000000
  eigenvalues    EBANDS =     -2462.41563165
  atomic energy  EATOM  =     31115.95890259
  ---------------------------------------------------
  free energy    TOTEN  =       -62.29954741 eV

  energy without entropy =      -62.29954741  energy(sigma->0) =      -62.29954741


--------------------------------------------------------------------------------------------------------




----------------------------------------- Iteration    1(   5)  ---------------------------------------


     EDDAV:  cpu time    4.58: real time    4.58
       DOS:  cpu time    0.00: real time    0.00
    CHARGE:  cpu time    0.14: real time    0.14
    MIXING:  cpu time    0.01: real time    0.01
    --------------------------------------------
      LOOP:  cpu time    4.74: real time    4.74

 eigenvalue-minimisations  :   984
 total energy-change (2. order) :-0.4506480E+00  (-0.4499786E+00)
 number of electron     330.0000417 magnetization      26.5734262
 augmentation part      155.0491923 magnetization      25.2971133

 Broyden mixing:
  rms(total) = 0.31591E+01    rms(broyden)= 0.31585E+01
  rms(prec ) = 0.32133E+01
  weight for this iteration     100.00

 Free energy of the ion-electron system (eV)
  ---------------------------------------------------
  alpha Z        PSCENC =        73.55716770
  Ewald energy   TEWEN  =     68453.91191190
  -Hartree energ DENC   =    -98298.16298494
  -exchange      EXHF   =         0.00000000
  -V(xc)+E(xc)   XCENC  =      -328.37598873
  PAW double counting   =     30101.16534209   -28717.93826637
  entropy T*S    EENTRO =         0.00000000
  eigenvalues    EBANDS =     -2462.86627967
  atomic energy  EATOM  =     31115.95890259
  ---------------------------------------------------
  free energy    TOTEN  =       -62.75019543 eV

  energy without entropy =      -62.75019543  energy(sigma->0) =      -62.75019543


--------------------------------------------------------------------------------------------------------




----------------------------------------- Iteration    1(   6)  ---------------------------------------


    POTLOK:  cpu time    0.28: real time    0.28
    SETDIJ:  cpu time    0.01: real time    0.01
     EDDAV:  cpu time    4.20: real time    4.20
       DOS:  cpu time    0.00: real time    0.00
    CHARGE:  cpu time    0.14: real time    0.14
    MIXING:  cpu time    0.01: real time    0.01
    --------------------------------------------
      LOOP:  cpu time    4.64: real time    4.65

 eigenvalue-minimisations  :   880
 total energy-change (2. order) : 0.3671685E+02  (-0.1114909E+02)
 number of electron     330.0000423 magnetization      24.2107230
 augmentation part      158.6384509 magnetization      16.0167472

 Broyden mixing:
  rms(total) = 0.16822E+01    rms(broyden)= 0.16821E+01
  rms(prec ) = 0.17063E+01
  weight for this iteration     100.00

 eigenvalues of (default mixing * dielectric matrix)
  average eigenvalue GAMMA=   0.8531
  0.8531

 Free energy of the ion-electron system (eV)
  ---------------------------------------------------
  alpha Z        PSCENC =        73.55716770
  Ewald energy   TEWEN  =     68453.91191190
  -Hartree energ DENC   =    -98178.54217103
  -exchange      EXHF   =         0.00000000
  -V(xc)+E(xc)   XCENC  =      -312.33215315
  PAW double counting   =     31107.19458244   -29745.86992386
  entropy T*S    EENTRO =         0.00000000
  eigenvalues    EBANDS =     -2539.91166590
  atomic energy  EATOM  =     31115.95890259
  ---------------------------------------------------
  free energy    TOTEN  =       -26.03334931 eV

  energy without entropy =      -26.03334931  energy(sigma->0) =      -26.03334931


--------------------------------------------------------------------------------------------------------




----------------------------------------- Iteration    1(   7)  ---------------------------------------


    POTLOK:  cpu time    0.28: real time    0.28
    SETDIJ:  cpu time    0.01: real time    0.01
     EDDAV:  cpu time    4.38: real time    4.38
       DOS:  cpu time    0.00: real time    0.00
    CHARGE:  cpu time    0.14: real time    0.14
    MIXING:  cpu time    0.01: real time    0.01
    --------------------------------------------
      LOOP:  cpu time    4.82: real time    4.82

 eigenvalue-minimisations  :   928
 total energy-change (2. order) : 0.7896175E+01  (-0.7496217E+00)
 number of electron     330.0000424 magnetization      20.5651984
 augmentation part      158.6231806 magnetization      12.6618671

 Broyden mixing:
  rms(total) = 0.10137E+01    rms(broyden)= 0.10137E+01
  rms(prec ) = 0.10258E+01
  weight for this iteration     100.00

 eigenvalues of (default mixing * dielectric matrix)
  average eigenvalue GAMMA=   1.0035
  0.7566  1.2503

 Free energy of the ion-electron system (eV)
  ---------------------------------------------------
  alpha Z        PSCENC =        73.55716770
  Ewald energy   TEWEN  =     68453.91191190
  -Hartree energ DENC   =    -98250.39196209
  -exchange      EXHF   =         0.00000000
  -V(xc)+E(xc)   XCENC  =      -305.66125549
  PAW double counting   =     31712.45956206   -30365.17027454
  entropy T*S    EENTRO =        -0.00000000
  eigenvalues    EBANDS =     -2452.80122610
  atomic energy  EATOM  =     31115.95890259
  ---------------------------------------------------
  free energy    TOTEN  =       -18.13717397 eV

  energy without entropy =      -18.13717397  energy(sigma->0) =      -18.13717397


--------------------------------------------------------------------------------------------------------




----------------------------------------- Iteration    1(   8)  ---------------------------------------


    POTLOK:  cpu time    0.28: real time    0.28
    SETDIJ:  cpu time    0.01: real time    0.01
     EDDAV:  cpu time    4.38: real time    4.38
       DOS:  cpu time    0.00: real time    0.00
    CHARGE:  cpu time    0.14: real time    0.14
    MIXING:  cpu time    0.01: real time    0.01
    --------------------------------------------
      LOOP:  cpu time    4.82: real time    5.07

 eigenvalue-minimisations  :   928
 total energy-change (2. order) :-0.1070460E+00  (-0.1975987E+00)
 number of electron     330.0000422 magnetization      18.0283035
 augmentation part      158.4565934 magnetization      10.3286308

 Broyden mixing:
  rms(total) = 0.55136E+00    rms(broyden)= 0.55135E+00
  rms(prec ) = 0.55505E+00
  weight for this iteration     100.00

 eigenvalues of (default mixing * dielectric matrix)
  average eigenvalue GAMMA=   1.2605
  2.2647  0.9025  0.6143

 Free energy of the ion-electron system (eV)
  ---------------------------------------------------
  alpha Z        PSCENC =        73.55716770
  Ewald energy   TEWEN  =     68453.91191190
  -Hartree energ DENC   =    -98334.43810260
  -exchange      EXHF   =         0.00000000
  -V(xc)+E(xc)   XCENC  =      -305.26377532
  PAW double counting   =     32419.07804646   -31086.43803507
  entropy T*S    EENTRO =         0.00000000
  eigenvalues    EBANDS =     -2354.61033561
  atomic energy  EATOM  =     31115.95890259
  ---------------------------------------------------
  free energy    TOTEN  =       -18.24421995 eV

  energy without entropy =      -18.24421995  energy(sigma->0) =      -18.24421995


--------------------------------------------------------------------------------------------------------




----------------------------------------- Iteration    1(   9)  ---------------------------------------


    POTLOK:  cpu time    0.28: real time    0.28
    SETDIJ:  cpu time    0.01: real time    0.01
     EDDAV:  cpu time    4.36: real time    4.36
       DOS:  cpu time    0.00: real time    0.00
    CHARGE:  cpu time    0.14: real time    0.14
    MIXING:  cpu time    0.01: real time    0.01
    --------------------------------------------
      LOOP:  cpu time    4.80: real time    5.09

 eigenvalue-minimisations  :   920
 total energy-change (2. order) :-0.4005063E+01  (-0.9357826E-01)
 number of electron     330.0000422 magnetization      15.4941697
 augmentation part      158.3863763 magnetization       7.9946922

 Broyden mixing:
  rms(total) = 0.33319E+00    rms(broyden)= 0.33319E+00
  rms(prec ) = 0.33702E+00
  weight for this iteration     100.00

 eigenvalues of (default mixing * dielectric matrix)
  average eigenvalue GAMMA=   1.2324
  2.2775  0.6165  0.8055  1.2301

 Free energy of the ion-electron system (eV)
  ---------------------------------------------------
  alpha Z        PSCENC =        73.55716770
  Ewald energy   TEWEN  =     68453.91191190
  -Hartree energ DENC   =    -98365.51432086
  -exchange      EXHF   =         0.00000000
  -V(xc)+E(xc)   XCENC  =      -308.02542591
  PAW double counting   =     32685.45998393   -31358.20876842
  entropy T*S    EENTRO =         0.00000000
  eigenvalues    EBANDS =     -2319.38873410
  atomic energy  EATOM  =     31115.95890259
  ---------------------------------------------------
  free energy    TOTEN  =       -22.24928317 eV

  energy without entropy =      -22.24928317  energy(sigma->0) =      -22.24928317


--------------------------------------------------------------------------------------------------------




----------------------------------------- Iteration    1(  10)  ---------------------------------------


    POTLOK:  cpu time    0.28: real time    0.28
    SETDIJ:  cpu time    0.01: real time    0.01
     EDDAV:  cpu time    4.18: real time    4.18
       DOS:  cpu time    0.00: real time    0.00
    CHARGE:  cpu time    0.14: real time    0.14
    MIXING:  cpu time    0.01: real time    0.01
    --------------------------------------------
      LOOP:  cpu time    4.63: real time    4.65

 eigenvalue-minimisations  :   872
 total energy-change (2. order) :-0.1018126E+02  (-0.2968069E+00)
 number of electron     330.0000424 magnetization      13.5130015
 augmentation part      158.3762447 magnetization       8.3198610

 Broyden mixing:
  rms(total) = 0.31174E+00    rms(broyden)= 0.31165E+00
  rms(prec ) = 0.31781E+00
  weight for this iteration     100.00

 eigenvalues of (default mixing * dielectric matrix)
  average eigenvalue GAMMA=   1.1458
  2.3735  1.4168  0.8291  0.6112  0.4985

 Free energy of the ion-electron system (eV)
  ---------------------------------------------------
  alpha Z        PSCENC =        73.55716770
  Ewald energy   TEWEN  =     68453.91191190
  -Hartree energ DENC   =    -98366.56181442
  -exchange      EXHF   =         0.00000000
  -V(xc)+E(xc)   XCENC  =      -315.67409463
  PAW double counting   =     32685.51373248   -31358.35924285
  entropy T*S    EENTRO =         0.00000000
  eigenvalues    EBANDS =     -2320.77710909
  atomic energy  EATOM  =     31115.95890259
  ---------------------------------------------------
  free energy    TOTEN  =       -32.43054631 eV

  energy without entropy =      -32.43054631  energy(sigma->0) =      -32.43054631


--------------------------------------------------------------------------------------------------------




----------------------------------------- Iteration    1(  11)  ---------------------------------------


    POTLOK:  cpu time    0.28: real time    0.28
    SETDIJ:  cpu time    0.01: real time    0.01
     EDDAV:  cpu time    4.27: real time    4.27
       DOS:  cpu time    0.00: real time    0.00
    CHARGE:  cpu time    0.14: real time    0.14
    MIXING:  cpu time    0.01: real time    0.01
    --------------------------------------------
      LOOP:  cpu time    4.72: real time    4.97

 eigenvalue-minimisations  :   912
 total energy-change (2. order) :-0.4748706E+01  (-0.1269024E+00)
 number of electron     330.0000425 magnetization      10.0333680
 augmentation part      158.3305133 magnetization       5.0924000

 Broyden mixing:
  rms(total) = 0.23840E+00    rms(broyden)= 0.23838E+00
  rms(prec ) = 0.24166E+00
  weight for this iteration     100.00

 eigenvalues of (default mixing * dielectric matrix)
  average eigenvalue GAMMA=   1.3291
  2.9546  1.9983  0.9378  0.9378  0.6438  0.5020

 Free energy of the ion-electron system (eV)
  ---------------------------------------------------
  alpha Z        PSCENC =        73.55716770
  Ewald energy   TEWEN  =     68453.91191190
  -Hartree energ DENC   =    -98374.03789109
  -exchange      EXHF   =         0.00000000
  -V(xc)+E(xc)   XCENC  =      -319.05949755
  PAW double counting   =     32705.60301964   -31379.04310186
  entropy T*S    EENTRO =         0.00000000
  eigenvalues    EBANDS =     -2314.06976337
  atomic energy  EATOM  =     31115.95890259
  ---------------------------------------------------
  free energy    TOTEN  =       -37.17925204 eV

  energy without entropy =      -37.17925204  energy(sigma->0) =      -37.17925204


--------------------------------------------------------------------------------------------------------




----------------------------------------- Iteration    1(  12)  ---------------------------------------


    POTLOK:  cpu time    0.28: real time    0.28
    SETDIJ:  cpu time    0.01: real time    0.01
     EDDAV:  cpu time    4.15: real time    4.16
       DOS:  cpu time    0.00: real time    0.00
    CHARGE:  cpu time    0.14: real time    0.14
    MIXING:  cpu time    0.01: real time    0.01
    --------------------------------------------
      LOOP:  cpu time    4.60: real time    4.62

 eigenvalue-minimisations  :   864
 total energy-change (2. order) :-0.1018445E+02  (-0.4959845E+00)
 number of electron     330.0000425 magnetization       8.7422978
 augmentation part      158.3075363 magnetization       6.1522836

 Broyden mixing:
  rms(total) = 0.23015E+00    rms(broyden)= 0.23002E+00
  rms(prec ) = 0.24958E+00
  weight for this iteration     100.00

 eigenvalues of (default mixing * dielectric matrix)
  average eigenvalue GAMMA=   1.2863
  3.4637  2.0961  0.9237  0.9237  0.6480  0.4920  0.4573

 Free energy of the ion-electron system (eV)
  ---------------------------------------------------
  alpha Z        PSCENC =        73.55716770
  Ewald energy   TEWEN  =     68453.91191190
  -Hartree energ DENC   =    -98377.33034524
  -exchange      EXHF   =         0.00000000
  -V(xc)+E(xc)   XCENC  =      -326.64417068
  PAW double counting   =     32664.63389672   -31338.00649137
  entropy T*S    EENTRO =        -0.00000000
  eigenvalues    EBANDS =     -2313.44456994
  atomic energy  EATOM  =     31115.95890259
  ---------------------------------------------------
  free energy    TOTEN  =       -47.36369831 eV

  energy without entropy =      -47.36369831  energy(sigma->0) =      -47.36369831


--------------------------------------------------------------------------------------------------------




----------------------------------------- Iteration    1(  13)  ---------------------------------------


    POTLOK:  cpu time    0.28: real time    0.29
    SETDIJ:  cpu time    0.01: real time    0.01
     EDDAV:  cpu time    4.42: real time    4.43
       DOS:  cpu time    0.00: real time    0.00
    CHARGE:  cpu time    0.14: real time    0.14
    MIXING:  cpu time    0.01: real time    0.01
    --------------------------------------------
      LOOP:  cpu time    4.87: real time    4.88

 eigenvalue-minimisations  :   936
 total energy-change (2. order) :-0.2294741E+01  (-0.5287241E-01)
 number of electron     330.0000424 magnetization       7.0565977
 augmentation part      158.2849929 magnetization       4.6182159

 Broyden mixing:
  rms(total) = 0.17663E+00    rms(broyden)= 0.17661E+00
  rms(prec ) = 0.19200E+00
  weight for this iteration     100.00

 eigenvalues of (default mixing * dielectric matrix)
  average eigenvalue GAMMA=   1.3784
  4.2498  2.2343  1.1145  0.9129  0.7209  0.7209  0.6270  0.4474

 Free energy of the ion-electron system (eV)
  ---------------------------------------------------
  alpha Z        PSCENC =        73.55716770
  Ewald energy   TEWEN  =     68453.91191190
  -Hartree energ DENC   =    -98377.30419531
  -exchange      EXHF   =         0.00000000
  -V(xc)+E(xc)   XCENC  =      -328.36177169
  PAW double counting   =     32653.70211460   -31327.12355269
  entropy T*S    EENTRO =         0.00000000
  eigenvalues    EBANDS =     -2313.99901599
  atomic energy  EATOM  =     31115.95890259
  ---------------------------------------------------
  free energy    TOTEN  =       -49.65843888 eV

  energy without entropy =      -49.65843888  energy(sigma->0) =      -49.65843888


--------------------------------------------------------------------------------------------------------




----------------------------------------- Iteration    1(  14)  ---------------------------------------


    POTLOK:  cpu time    0.28: real time    0.28
    SETDIJ:  cpu time    0.01: real time    0.01
     EDDAV:  cpu time    4.24: real time    4.25
       DOS:  cpu time    0.00: real time    0.00
    CHARGE:  cpu time    0.14: real time    0.14
    MIXING:  cpu time    0.01: real time    0.01
    --------------------------------------------
      LOOP:  cpu time    4.69: real time    4.71

 eigenvalue-minimisations  :   888
 total energy-change (2. order) :-0.3719778E+01  (-0.1066207E+00)
 number of electron     330.0000424 magnetization       5.3695425
 augmentation part      158.2889092 magnetization       3.0914117

 Broyden mixing:
  rms(total) = 0.13008E+00    rms(broyden)= 0.13007E+00
  rms(prec ) = 0.13970E+00
  weight for this iteration     100.00

 eigenvalues of (default mixing * dielectric matrix)
  average eigenvalue GAMMA=   1.4761
  5.0585  2.2788  1.4655  1.0046  0.8661  0.8661  0.6655  0.6111  0.4685

 Free energy of the ion-electron system (eV)
  ---------------------------------------------------
  alpha Z        PSCENC =        73.55716770
  Ewald energy   TEWEN  =     68453.91191190
  -Hartree energ DENC   =    -98368.79168352
  -exchange      EXHF   =         0.00000000
  -V(xc)+E(xc)   XCENC  =      -331.36589771
  PAW double counting   =     32602.18069071   -31275.23384704
  entropy T*S    EENTRO =         0.00000000
  eigenvalues    EBANDS =     -2323.59546173
  atomic energy  EATOM  =     31115.95890259
  ---------------------------------------------------
  free energy    TOTEN  =       -53.37821710 eV

  energy without entropy =      -53.37821710  energy(sigma->0) =      -53.37821710


--------------------------------------------------------------------------------------------------------




----------------------------------------- Iteration    1(  15)  ---------------------------------------


    POTLOK:  cpu time    0.29: real time    0.29
    SETDIJ:  cpu time    0.01: real time    0.01
     EDDAV:  cpu time    4.25: real time    4.26
       DOS:  cpu time    0.00: real time    0.00
    CHARGE:  cpu time    0.14: real time    0.14
    MIXING:  cpu time    0.01: real time    0.01
    --------------------------------------------
      LOOP:  cpu time    4.70: real time    4.75

 eigenvalue-minimisations  :   888
 total energy-change (2. order) :-0.3701325E+01  (-0.1047771E+00)
 number of electron     330.0000423 magnetization       4.9595029
 augmentation part      158.2949120 magnetization       4.7297048

 Broyden mixing:
  rms(total) = 0.17681E+00    rms(broyden)= 0.17667E+00
  rms(prec ) = 0.19095E+00
  weight for this iteration     100.00

 eigenvalues of (default mixing * dielectric matrix)
  average eigenvalue GAMMA=   1.3649
  5.2588  2.2582  1.5142  0.9856  0.8746  0.8746  0.6240  0.6529  0.4622  0.1439

 Free energy of the ion-electron system (eV)
  ---------------------------------------------------
  alpha Z        PSCENC =        73.55716770
  Ewald energy   TEWEN  =     68453.91191190
  -Hartree energ DENC   =    -98348.99143863
  -exchange      EXHF   =         0.00000000
  -V(xc)+E(xc)   XCENC  =      -334.65751070
  PAW double counting   =     32545.41298933   -31217.99369758
  entropy T*S    EENTRO =         0.00000000
  eigenvalues    EBANDS =     -2344.27786667
  atomic energy  EATOM  =     31115.95890259
  ---------------------------------------------------
  free energy    TOTEN  =       -57.07954205 eV

  energy without entropy =      -57.07954205  energy(sigma->0) =      -57.07954205


--------------------------------------------------------------------------------------------------------




----------------------------------------- Iteration    1(  16)  ---------------------------------------


    POTLOK:  cpu time    0.28: real time    0.28
    SETDIJ:  cpu time    0.01: real time    0.01
     EDDAV:  cpu time    4.63: real time    4.63
       DOS:  cpu time    0.00: real time    0.00
    CHARGE:  cpu time    0.14: real time    0.14
    MIXING:  cpu time    0.01: real time    0.01
    --------------------------------------------
      LOOP:  cpu time    5.08: real time    5.11

 eigenvalue-minimisations  :   992
 total energy-change (2. order) :-0.2588534E+00  (-0.3046991E-02)
 number of electron     330.0000423 magnetization       3.7834781
 augmentation part      158.2984822 magnetization       3.5898819

 Broyden mixing:
  rms(total) = 0.15629E+00    rms(broyden)= 0.15628E+00
  rms(prec ) = 0.16974E+00
  weight for this iteration     100.00

 eigenvalues of (default mixing * dielectric matrix)
  average eigenvalue GAMMA=   1.4100
  6.0153  2.2618  1.4812  1.0709  0.8652  0.8652  0.5872  0.5872  0.6930  0.5940
  0.4885

 Free energy of the ion-electron system (eV)
  ---------------------------------------------------
  alpha Z        PSCENC =        73.55716770
  Ewald energy   TEWEN  =     68453.91191190
  -Hartree energ DENC   =    -98346.46868606
  -exchange      EXHF   =         0.00000000
  -V(xc)+E(xc)   XCENC  =      -334.90603507
  PAW double counting   =     32540.79029028   -31213.36880677
  entropy T*S    EENTRO =         0.00000000
  eigenvalues    EBANDS =     -2346.81314002
  atomic energy  EATOM  =     31115.95890259
  ---------------------------------------------------
  free energy    TOTEN  =       -57.33839545 eV

  energy without entropy =      -57.33839545  energy(sigma->0) =      -57.33839545


--------------------------------------------------------------------------------------------------------




----------------------------------------- Iteration    1(  17)  ---------------------------------------


    POTLOK:  cpu time    0.29: real time    0.29
    SETDIJ:  cpu time    0.00: real time    0.01
     EDDAV:  cpu time    4.22: real time    4.22
       DOS:  cpu time    0.00: real time    0.00
    CHARGE:  cpu time    0.14: real time    0.14
    MIXING:  cpu time    0.02: real time    0.01
    --------------------------------------------
      LOOP:  cpu time    4.67: real time    4.68

 eigenvalue-minimisations  :   880
 total energy-change (2. order) :-0.9338320E+00  (-0.1377328E-01)
 number of electron     330.0000423 magnetization       1.7921180
 augmentation part      158.3161587 magnetization       1.6635503

 Broyden mixing:
  rms(total) = 0.11407E+00    rms(broyden)= 0.11407E+00
  rms(prec ) = 0.12358E+00
  weight for this iteration     100.00

 eigenvalues of (default mixing * dielectric matrix)
  average eigenvalue GAMMA=   1.5434
  7.2467  1.9655  1.9655  1.7520  0.8522  0.8522  0.8733  0.6749  0.6749  0.5871
  0.5380  0.5380

 Free energy of the ion-electron system (eV)
  ---------------------------------------------------
  alpha Z        PSCENC =        73.55716770
  Ewald energy   TEWEN  =     68453.91191190
  -Hartree energ DENC   =    -98336.28422932
  -exchange      EXHF   =         0.00000000
  -V(xc)+E(xc)   XCENC  =      -335.81483410
  PAW double counting   =     32523.89644771   -31196.34139221
  entropy T*S    EENTRO =         0.00000000
  eigenvalues    EBANDS =     -2357.15620178
  atomic energy  EATOM  =     31115.95890259
  ---------------------------------------------------
  free energy    TOTEN  =       -58.27222750 eV

  energy without entropy =      -58.27222750  energy(sigma->0) =      -58.27222750


--------------------------------------------------------------------------------------------------------




----------------------------------------- Iteration    1(  18)  ---------------------------------------


    POTLOK:  cpu time    0.28: real time    0.29
    SETDIJ:  cpu time    0.01: real time    0.01
     EDDAV:  cpu time    4.16: real time    4.17
       DOS:  cpu time    0.00: real time    0.00
    CHARGE:  cpu time    0.14: real time    0.14
    MIXING:  cpu time    0.01: real time    0.01
    --------------------------------------------
      LOOP:  cpu time    4.61: real time    4.64

 eigenvalue-minimisations  :   864
 total energy-change (2. order) :-0.1585586E+01  (-0.3322255E-01)
 number of electron     330.0000423 magnetization       0.6576442
 augmentation part      158.3180022 magnetization       0.6138459

 Broyden mixing:
  rms(total) = 0.41625E-01    rms(broyden)= 0.41597E-01
  rms(prec ) = 0.45981E-01
  weight for this iteration     100.00

 eigenvalues of (default mixing * dielectric matrix)
  average eigenvalue GAMMA=   1.6863
  9.0360  2.2826  2.2826  1.7981  0.9225  0.9225  0.8092  0.8092  0.6931  0.6931
  0.5744  0.5495  0.5495

 Free energy of the ion-electron system (eV)
  ---------------------------------------------------
  alpha Z        PSCENC =        73.55716770
  Ewald energy   TEWEN  =     68453.91191190
  -Hartree energ DENC   =    -98315.98689621
  -exchange      EXHF   =         0.00000000
  -V(xc)+E(xc)   XCENC  =      -337.44710437
  PAW double counting   =     32514.69907811   -31187.03778567
  entropy T*S    EENTRO =         0.00000000
  eigenvalues    EBANDS =     -2377.51308763
  atomic energy  EATOM  =     31115.95890259
  ---------------------------------------------------
  free energy    TOTEN  =       -59.85781358 eV

  energy without entropy =      -59.85781358  energy(sigma->0) =      -59.85781358


--------------------------------------------------------------------------------------------------------




----------------------------------------- Iteration    1(  19)  ---------------------------------------


    POTLOK:  cpu time    0.28: real time    0.28
    SETDIJ:  cpu time    0.01: real time    0.01
     EDDAV:  cpu time    4.28: real time    4.29
       DOS:  cpu time    0.00: real time    0.00
    CHARGE:  cpu time    0.14: real time    0.14
    MIXING:  cpu time    0.01: real time    0.01
    --------------------------------------------
      LOOP:  cpu time    4.74: real time    4.74

 eigenvalue-minimisations  :   896
 total energy-change (2. order) :-0.1088224E+01  (-0.1179947E-01)
 number of electron     330.0000423 magnetization       0.5465827
 augmentation part      158.3401347 magnetization       0.5565579

 Broyden mixing:
  rms(total) = 0.34952E-01    rms(broyden)= 0.34928E-01
  rms(prec ) = 0.39416E-01
  weight for this iteration     100.00

 eigenvalues of (default mixing * dielectric matrix)
  average eigenvalue GAMMA=   1.6524
  9.1753  2.3172  2.3172  1.3213  1.3213  1.3472  0.8024  0.8024  0.8734  0.5749
  0.5749  0.6247  0.5407  0.5407

 Free energy of the ion-electron system (eV)
  ---------------------------------------------------
  alpha Z        PSCENC =        73.55716770
  Ewald energy   TEWEN  =     68453.91191190
  -Hartree energ DENC   =    -98301.13698492
  -exchange      EXHF   =         0.00000000
  -V(xc)+E(xc)   XCENC  =      -338.61199517
  PAW double counting   =     32499.97581710   -31172.02687033
  entropy T*S    EENTRO =        -0.00000000
  eigenvalues    EBANDS =     -2392.57398614
  atomic energy  EATOM  =     31115.95890259
  ---------------------------------------------------
  free energy    TOTEN  =       -60.94603727 eV

  energy without entropy =      -60.94603727  energy(sigma->0) =      -60.94603727


--------------------------------------------------------------------------------------------------------




----------------------------------------- Iteration    1(  20)  ---------------------------------------


    POTLOK:  cpu time    0.28: real time    0.29
    SETDIJ:  cpu time    0.01: real time    0.01
     EDDAV:  cpu time    4.46: real time    4.47
       DOS:  cpu time    0.00: real time    0.00
    CHARGE:  cpu time    0.14: real time    0.14
    MIXING:  cpu time    0.02: real time    0.02
    --------------------------------------------
      LOOP:  cpu time    4.92: real time    4.97

 eigenvalue-minimisations  :   944
 total energy-change (2. order) :-0.2898668E+00  (-0.9072077E-03)
 number of electron     330.0000423 magnetization       0.2179813
 augmentation part      158.3311887 magnetization       0.2250037

 Broyden mixing:
  rms(total) = 0.24555E-01    rms(broyden)= 0.24551E-01
  rms(prec ) = 0.28504E-01
  weight for this iteration     100.00

 eigenvalues of (default mixing * dielectric matrix)
  average eigenvalue GAMMA=   1.7296
  9.6774  3.0875  1.9649  1.9649  1.5205  1.5205  0.8345  0.8345  0.9205  0.6117
  0.6117  0.6770  0.6160  0.5509  0.5509

 Free energy of the ion-electron system (eV)
  ---------------------------------------------------
  alpha Z        PSCENC =        73.55716770
  Ewald energy   TEWEN  =     68453.91191190
  -Hartree energ DENC   =    -98296.84036547
  -exchange      EXHF   =         0.00000000
  -V(xc)+E(xc)   XCENC  =      -338.90895203
  PAW double counting   =     32506.44354836   -31178.49212818
  entropy T*S    EENTRO =         0.00000000
  eigenvalues    EBANDS =     -2396.86598898
  atomic energy  EATOM  =     31115.95890259
  ---------------------------------------------------
  free energy    TOTEN  =       -61.23590410 eV

  energy without entropy =      -61.23590410  energy(sigma->0) =      -61.23590410


--------------------------------------------------------------------------------------------------------




----------------------------------------- Iteration    1(  21)  ---------------------------------------


    POTLOK:  cpu time    0.28: real time    0.29
    SETDIJ:  cpu time    0.01: real time    0.01
     EDDAV:  cpu time    4.34: real time    4.35
       DOS:  cpu time    0.00: real time    0.00
    CHARGE:  cpu time    0.14: real time    0.14
    MIXING:  cpu time    0.02: real time    0.02
    --------------------------------------------
      LOOP:  cpu time    4.80: real time    4.82

 eigenvalue-minimisations  :   912
 total energy-change (2. order) :-0.4598885E+00  (-0.1945313E-02)
 number of electron     330.0000423 magnetization       0.1470930
 augmentation part      158.3388439 magnetization       0.1532101

 Broyden mixing:
  rms(total) = 0.14008E-01    rms(broyden)= 0.14001E-01
  rms(prec ) = 0.16882E-01
  weight for this iteration     100.00

 eigenvalues of (default mixing * dielectric matrix)
  average eigenvalue GAMMA=   1.7587
  9.9987  3.7632  2.0793  2.0793  1.5614  1.5614  0.8220  0.8220  0.9263  0.9263
  0.6837  0.5912  0.5912  0.5354  0.5988  0.5988

 Free energy of the ion-electron system (eV)
  ---------------------------------------------------
  alpha Z        PSCENC =        73.55716770
  Ewald energy   TEWEN  =     68453.91191190
  -Hartree energ DENC   =    -98284.54998816
  -exchange      EXHF   =         0.00000000
  -V(xc)+E(xc)   XCENC  =      -339.43548798
  PAW double counting   =     32508.13614389   -31179.98870505
  entropy T*S    EENTRO =         0.00000000
  eigenvalues    EBANDS =     -2409.28573746
  atomic energy  EATOM  =     31115.95890259
  ---------------------------------------------------
  free energy    TOTEN  =       -61.69579258 eV

  energy without entropy =      -61.69579258  energy(sigma->0) =      -61.69579258


--------------------------------------------------------------------------------------------------------




----------------------------------------- Iteration    1(  22)  ---------------------------------------


    POTLOK:  cpu time    0.28: real time    0.29
    SETDIJ:  cpu time    0.01: real time    0.01
     EDDAV:  cpu time    4.38: real time    4.38
       DOS:  cpu time    0.00: real time    0.00
    CHARGE:  cpu time    0.14: real time    0.14
    MIXING:  cpu time    0.02: real time    0.02
    --------------------------------------------
      LOOP:  cpu time    4.83: real time    4.85

 eigenvalue-minimisations  :   920
 total energy-change (2. order) :-0.1317398E+00  (-0.3043449E-03)
 number of electron     330.0000423 magnetization       0.1149080
 augmentation part      158.3377537 magnetization       0.1170177

 Broyden mixing:
  rms(total) = 0.81544E-02    rms(broyden)= 0.81514E-02
  rms(prec ) = 0.10337E-01
  weight for this iteration     100.00

 eigenvalues of (default mixing * dielectric matrix)
  average eigenvalue GAMMA=   1.7282
 10.0410  3.9003  2.0614  2.0614  1.9573  1.1708  1.1708  0.8150  0.8150  1.0089
  0.8077  0.5968  0.5968  0.6812  0.5698  0.5698  0.5551

 Free energy of the ion-electron system (eV)
  ---------------------------------------------------
  alpha Z        PSCENC =        73.55716770
  Ewald energy   TEWEN  =     68453.91191190
  -Hartree energ DENC   =    -98279.16202089
  -exchange      EXHF   =         0.00000000
  -V(xc)+E(xc)   XCENC  =      -339.59304134
  PAW double counting   =     32516.05004431   -31187.95108453
  entropy T*S    EENTRO =         0.00000000
  eigenvalues    EBANDS =     -2414.59941215
  atomic energy  EATOM  =     31115.95890259
  ---------------------------------------------------
  free energy    TOTEN  =       -61.82753241 eV

  energy without entropy =      -61.82753241  energy(sigma->0) =      -61.82753241


--------------------------------------------------------------------------------------------------------




----------------------------------------- Iteration    1(  23)  ---------------------------------------


    POTLOK:  cpu time    0.28: real time    0.28
    SETDIJ:  cpu time    0.01: real time    0.01
     EDDAV:  cpu time    3.55: real time    3.55
       DOS:  cpu time    0.00: real time    0.00
    CHARGE:  cpu time    0.14: real time    0.14
    MIXING:  cpu time    0.02: real time    0.02
    --------------------------------------------
      LOOP:  cpu time    4.00: real time    4.02

 eigenvalue-minimisations  :   688
 total energy-change (2. order) :-0.5087667E-01  (-0.8898743E-04)
 number of electron     330.0000423 magnetization       0.0654344
 augmentation part      158.3391132 magnetization       0.0662521

 Broyden mixing:
  rms(total) = 0.52554E-02    rms(broyden)= 0.52545E-02
  rms(prec ) = 0.70394E-02
  weight for this iteration     100.00

 eigenvalues of (default mixing * dielectric matrix)
  average eigenvalue GAMMA=   1.7939
 10.0877  4.5082  2.3013  2.3013  2.3350  1.4286  1.4286  0.8209  0.8209  0.9874
  0.9874  0.5966  0.5966  0.7093  0.5523  0.6486  0.5812  0.5981

 Free energy of the ion-electron system (eV)
  ---------------------------------------------------
  alpha Z        PSCENC =        73.55716770
  Ewald energy   TEWEN  =     68453.91191190
  -Hartree energ DENC   =    -98275.40891235
  -exchange      EXHF   =         0.00000000
  -V(xc)+E(xc)   XCENC  =      -339.66347724
  PAW double counting   =     32518.59514846   -31190.52657410
  entropy T*S    EENTRO =         0.00000000
  eigenvalues    EBANDS =     -2418.30257603
  atomic energy  EATOM  =     31115.95890259
  ---------------------------------------------------
  free energy    TOTEN  =       -61.87840907 eV

  energy without entropy =      -61.87840907  energy(sigma->0) =      -61.87840907


--------------------------------------------------------------------------------------------------------




----------------------------------------- Iteration    1(  24)  ---------------------------------------


    POTLOK:  cpu time    0.28: real time    0.28
    SETDIJ:  cpu time    0.01: real time    0.01
     EDDAV:  cpu time    3.98: real time    3.98
       DOS:  cpu time    0.00: real time    0.00
    CHARGE:  cpu time    0.14: real time    0.14
    MIXING:  cpu time    0.02: real time    0.02
    --------------------------------------------
      LOOP:  cpu time    4.43: real time    4.46

 eigenvalue-minimisations  :   808
 total energy-change (2. order) :-0.2889066E-01  (-0.1859075E-03)
 number of electron     330.0000423 magnetization       0.0613133
 augmentation part      158.3425090 magnetization       0.0599541

 Broyden mixing:
  rms(total) = 0.22605E-02    rms(broyden)= 0.22571E-02
  rms(prec ) = 0.33806E-02
  weight for this iteration     100.00

 eigenvalues of (default mixing * dielectric matrix)
  average eigenvalue GAMMA=   1.8161
 10.0298  5.4007  2.6023  2.3784  2.3784  1.4681  1.4681  1.0346  1.0346  0.8197
  0.8197  0.7723  0.7723  0.5977  0.5977  0.5445  0.5804  0.5804  0.6263

 Free energy of the ion-electron system (eV)
  ---------------------------------------------------
  alpha Z        PSCENC =        73.55716770
  Ewald energy   TEWEN  =     68453.91191190
  -Hartree energ DENC   =    -98269.36890689
  -exchange      EXHF   =         0.00000000
  -V(xc)+E(xc)   XCENC  =      -339.72609757
  PAW double counting   =     32520.43582920   -31192.38873601
  entropy T*S    EENTRO =         0.00000000
  eigenvalues    EBANDS =     -2424.28737065
  atomic energy  EATOM  =     31115.95890259
  ---------------------------------------------------
  free energy    TOTEN  =       -61.90729974 eV

  energy without entropy =      -61.90729974  energy(sigma->0) =      -61.90729974


--------------------------------------------------------------------------------------------------------




----------------------------------------- Iteration    1(  25)  ---------------------------------------


    POTLOK:  cpu time    0.28: real time    0.28
    SETDIJ:  cpu time    0.01: real time    0.01
     EDDAV:  cpu time    3.38: real time    3.38
       DOS:  cpu time    0.00: real time    0.00
    CHARGE:  cpu time    0.14: real time    0.14
    MIXING:  cpu time    0.02: real time    0.02
    --------------------------------------------
      LOOP:  cpu time    3.83: real time    3.84

 eigenvalue-minimisations  :   640
 total energy-change (2. order) :-0.3033836E-02  (-0.2138817E-04)
 number of electron     330.0000423 magnetization       0.0334212
 augmentation part      158.3424951 magnetization       0.0310674

 Broyden mixing:
  rms(total) = 0.24734E-02    rms(broyden)= 0.24730E-02
  rms(prec ) = 0.31546E-02
  weight for this iteration     100.00

 eigenvalues of (default mixing * dielectric matrix)
  average eigenvalue GAMMA=   1.7892
 10.0653  5.4949  2.6454  2.3907  2.3907  1.4599  1.4599  1.2162  0.8211  0.8211
  1.0167  1.0167  0.5947  0.5947  0.7400  0.7033  0.5517  0.5773  0.5773  0.6469

 Free energy of the ion-electron system (eV)
  ---------------------------------------------------
  alpha Z        PSCENC =        73.55716770
  Ewald energy   TEWEN  =     68453.91191190
  -Hartree energ DENC   =    -98267.60798863
  -exchange      EXHF   =         0.00000000
  -V(xc)+E(xc)   XCENC  =      -339.73608959
  PAW double counting   =     32521.05893712   -31193.02203529
  entropy T*S    EENTRO =         0.00000000
  eigenvalues    EBANDS =     -2426.03113938
  atomic energy  EATOM  =     31115.95890259
  ---------------------------------------------------
  free energy    TOTEN  =       -61.91033357 eV

  energy without entropy =      -61.91033357  energy(sigma->0) =      -61.91033357


--------------------------------------------------------------------------------------------------------




----------------------------------------- Iteration    1(  26)  ---------------------------------------


    POTLOK:  cpu time    0.28: real time    0.29
    SETDIJ:  cpu time    0.01: real time    0.01
     EDDAV:  cpu time    3.20: real time    3.20
       DOS:  cpu time    0.00: real time    0.00
    CHARGE:  cpu time    0.14: real time    0.14
    MIXING:  cpu time    0.02: real time    0.02
    --------------------------------------------
      LOOP:  cpu time    3.66: real time    5.93

 eigenvalue-minimisations  :   592
 total energy-change (2. order) :-0.4330683E-02  (-0.1472103E-04)
 number of electron     330.0000423 magnetization       0.0107216
 augmentation part      158.3430146 magnetization       0.0094559

 Broyden mixing:
  rms(total) = 0.15115E-02    rms(broyden)= 0.15114E-02
  rms(prec ) = 0.19764E-02
  weight for this iteration     100.00

 eigenvalues of (default mixing * dielectric matrix)
  average eigenvalue GAMMA=   1.8254
 10.1001  5.6244  3.2299  2.3699  2.3699  2.1953  1.4458  1.4458  1.1146  0.8211
  0.8211  0.9616  0.8602  0.7700  0.5955  0.5955  0.6763  0.5796  0.5796  0.5486
  0.6291

 Free energy of the ion-electron system (eV)
  ---------------------------------------------------
  alpha Z        PSCENC =        73.55716770
  Ewald energy   TEWEN  =     68453.91191190
  -Hartree energ DENC   =    -98266.13349698
  -exchange      EXHF   =         0.00000000
  -V(xc)+E(xc)   XCENC  =      -339.74631093
  PAW double counting   =     32520.97581069   -31192.93681711
  entropy T*S    EENTRO =         0.00000000
  eigenvalues    EBANDS =     -2427.50183212
  atomic energy  EATOM  =     31115.95890259
  ---------------------------------------------------
  free energy    TOTEN  =       -61.91466425 eV

  energy without entropy =      -61.91466425  energy(sigma->0) =      -61.91466425


--------------------------------------------------------------------------------------------------------




----------------------------------------- Iteration    1(  27)  ---------------------------------------


    POTLOK:  cpu time    0.28: real time    0.28
    SETDIJ:  cpu time    0.00: real time    0.01
     EDDAV:  cpu time    3.26: real time    3.27
       DOS:  cpu time    0.00: real time    0.00
    CHARGE:  cpu time    0.14: real time    0.14
    MIXING:  cpu time    0.02: real time    0.02
    --------------------------------------------
      LOOP:  cpu time    3.72: real time    4.00

 eigenvalue-minimisations  :   608
 total energy-change (2. order) :-0.3545478E-02  (-0.1157189E-04)
 number of electron     330.0000423 magnetization       0.0059392
 augmentation part      158.3425767 magnetization       0.0054861

 Broyden mixing:
  rms(total) = 0.71288E-03    rms(broyden)= 0.71260E-03
  rms(prec ) = 0.97613E-03
  weight for this iteration     100.00

 eigenvalues of (default mixing * dielectric matrix)
  average eigenvalue GAMMA=   1.8399
 10.0685  5.9053  3.8398  2.3952  2.3952  2.4148  1.4545  1.4545  1.1171  1.1171
  0.8209  0.8209  0.9041  0.8398  0.5955  0.5955  0.7259  0.6863  0.5486  0.5803
  0.5803  0.6171

 Free energy of the ion-electron system (eV)
  ---------------------------------------------------
  alpha Z        PSCENC =        73.55716770
  Ewald energy   TEWEN  =     68453.91191190
  -Hartree energ DENC   =    -98264.82148727
  -exchange      EXHF   =         0.00000000
  -V(xc)+E(xc)   XCENC  =      -339.75387477
  PAW double counting   =     32521.33285137   -31193.29431526
  entropy T*S    EENTRO =         0.00000000
  eigenvalues    EBANDS =     -2428.80936599
  atomic energy  EATOM  =     31115.95890259
  ---------------------------------------------------
  free energy    TOTEN  =       -61.91820973 eV

  energy without entropy =      -61.91820973  energy(sigma->0) =      -61.91820973


--------------------------------------------------------------------------------------------------------




----------------------------------------- Iteration    1(  28)  ---------------------------------------


    POTLOK:  cpu time    0.28: real time    0.28
    SETDIJ:  cpu time    0.01: real time    0.01
     EDDAV:  cpu time    3.35: real time    3.35
       DOS:  cpu time    0.00: real time    0.00
    CHARGE:  cpu time    0.14: real time    0.14
    MIXING:  cpu time    0.02: real time    0.02
    --------------------------------------------
      LOOP:  cpu time    3.80: real time    4.20

 eigenvalue-minimisations  :   632
 total energy-change (2. order) :-0.1065410E-02  (-0.1754320E-05)
 number of electron     330.0000423 magnetization      -0.0002634
 augmentation part      158.3429737 magnetization      -0.0004896

 Broyden mixing:
  rms(total) = 0.51963E-03    rms(broyden)= 0.51952E-03
  rms(prec ) = 0.69460E-03
  weight for this iteration     100.00

 eigenvalues of (default mixing * dielectric matrix)
  average eigenvalue GAMMA=   1.8493
 10.0805  6.1185  4.3370  2.4607  2.4607  2.4141  1.4640  1.4640  1.3008  1.3008
  0.8212  0.8212  0.8681  0.8681  0.8468  0.5953  0.5953  0.7130  0.6855  0.5478
  0.5790  0.5790  0.6118

 Free energy of the ion-electron system (eV)
  ---------------------------------------------------
  alpha Z        PSCENC =        73.55716770
  Ewald energy   TEWEN  =     68453.91191190
  -Hartree energ DENC   =    -98264.33194503
  -exchange      EXHF   =         0.00000000
  -V(xc)+E(xc)   XCENC  =      -339.75650911
  PAW double counting   =     32521.33634487   -31193.29567150
  entropy T*S    EENTRO =         0.00000000
  eigenvalues    EBANDS =     -2429.29947657
  atomic energy  EATOM  =     31115.95890259
  ---------------------------------------------------
  free energy    TOTEN  =       -61.91927514 eV

  energy without entropy =      -61.91927514  energy(sigma->0) =      -61.91927514


--------------------------------------------------------------------------------------------------------




----------------------------------------- Iteration    1(  29)  ---------------------------------------


    POTLOK:  cpu time    0.28: real time    0.28
    SETDIJ:  cpu time    0.01: real time    0.01
     EDDAV:  cpu time    3.17: real time    3.17
       DOS:  cpu time    0.00: real time    0.00
    CHARGE:  cpu time    0.14: real time    0.14
    MIXING:  cpu time    0.02: real time    0.03
    --------------------------------------------
      LOOP:  cpu time    3.63: real time    3.64

 eigenvalue-minimisations  :   584
 total energy-change (2. order) :-0.7441449E-03  (-0.1358229E-05)
 number of electron     330.0000423 magnetization      -0.0020196
 augmentation part      158.3429012 magnetization      -0.0020150

 Broyden mixing:
  rms(total) = 0.32282E-03    rms(broyden)= 0.32270E-03
  rms(prec ) = 0.43216E-03
  weight for this iteration     100.00

 eigenvalues of (default mixing * dielectric matrix)
  average eigenvalue GAMMA=   1.8942
 10.1057  6.6555  4.9779  2.4254  2.4254  2.3240  2.3240  1.4545  1.4545  0.8210
  0.8210  1.1122  1.1122  1.0118  0.7904  0.7904  0.5954  0.5954  0.6954  0.5476
  0.5772  0.5772  0.6330  0.6330

 Free energy of the ion-electron system (eV)
  ---------------------------------------------------
  alpha Z        PSCENC =        73.55716770
  Ewald energy   TEWEN  =     68453.91191190
  -Hartree energ DENC   =    -98263.93117069
  -exchange      EXHF   =         0.00000000
  -V(xc)+E(xc)   XCENC  =      -339.75834934
  PAW double counting   =     32521.48767759   -31193.44830776
  entropy T*S    EENTRO =         0.00000000
  eigenvalues    EBANDS =     -2429.69785128
  atomic energy  EATOM  =     31115.95890259
  ---------------------------------------------------
  free energy    TOTEN  =       -61.92001929 eV

  energy without entropy =      -61.92001929  energy(sigma->0) =      -61.92001929


--------------------------------------------------------------------------------------------------------




----------------------------------------- Iteration    1(  30)  ---------------------------------------


    POTLOK:  cpu time    0.28: real time    0.28
    SETDIJ:  cpu time    0.01: real time    0.01
     EDDAV:  cpu time    3.23: real time    3.23
       DOS:  cpu time    0.00: real time    0.00
    CHARGE:  cpu time    0.14: real time    0.14
    MIXING:  cpu time    0.03: real time    0.03
    --------------------------------------------
      LOOP:  cpu time    3.70: real time    3.76

 eigenvalue-minimisations  :   600
 total energy-change (2. order) :-0.1762439E-03  (-0.4978017E-06)
 number of electron     330.0000423 magnetization      -0.0002194
 augmentation part      158.3430179 magnetization      -0.0000748

 Broyden mixing:
  rms(total) = 0.26410E-03    rms(broyden)= 0.26403E-03
  rms(prec ) = 0.33183E-03
  weight for this iteration     100.00

 eigenvalues of (default mixing * dielectric matrix)
  average eigenvalue GAMMA=   1.9090
 10.0473  7.4117  5.1040  2.6780  2.3944  2.3944  2.4285  1.4787  1.4787  1.2124
  1.1016  1.1016  0.8211  0.8211  0.8504  0.7928  0.7928  0.5956  0.5956  0.5479
  0.5778  0.5778  0.6544  0.6332  0.6332

 Free energy of the ion-electron system (eV)
  ---------------------------------------------------
  alpha Z        PSCENC =        73.55716770
  Ewald energy   TEWEN  =     68453.91191190
  -Hartree energ DENC   =    -98263.73497358
  -exchange      EXHF   =         0.00000000
  -V(xc)+E(xc)   XCENC  =      -339.75909011
  PAW double counting   =     32521.44000963   -31193.40113790
  entropy T*S    EENTRO =         0.00000000
  eigenvalues    EBANDS =     -2429.89298576
  atomic energy  EATOM  =     31115.95890259
  ---------------------------------------------------
  free energy    TOTEN  =       -61.92019553 eV

  energy without entropy =      -61.92019553  energy(sigma->0) =      -61.92019553


--------------------------------------------------------------------------------------------------------




----------------------------------------- Iteration    1(  31)  ---------------------------------------


    POTLOK:  cpu time    0.28: real time    0.28
    SETDIJ:  cpu time    0.01: real time    0.01
     EDDAV:  cpu time    3.06: real time    3.06
       DOS:  cpu time    0.00: real time    0.00
    --------------------------------------------
      LOOP:  cpu time    3.35: real time    3.37

 eigenvalue-minimisations  :   552
 total energy-change (2. order) :-0.2021101E-04  (-0.1498704E-06)
 number of electron     330.0000423 magnetization      -0.0002194
 augmentation part      158.3430179 magnetization      -0.0000748

 Free energy of the ion-electron system (eV)
  ---------------------------------------------------
  alpha Z        PSCENC =        73.55716770
  Ewald energy   TEWEN  =     68453.91191190
[...]
    198       0.6110      0.00000
    199       0.6759      0.00000
    200       0.7039      0.00000
    201       0.7171      0.00000
    202       0.8006      0.00000
    203       0.8187      0.00000
    204       0.8375      0.00000
    205       0.8629      0.00000
    206       0.8887      0.00000
    207       0.9393      0.00000
    208       0.9525      0.00000
    209       0.9733      0.00000
    210       0.9857      0.00000
    211       1.0213      0.00000
    212       1.0405      0.00000
    213       1.0625      0.00000
    214       1.0686      0.00000
    215       1.0903      0.00000
    216       1.1325      0.00000


--------------------------------------------------------------------------------------------------------


 soft charge-density along one line, spin component           1
         0         1         2         3         4         5         6         7         8         9
 total charge-density along one line
 
 soft charge-density along one line, spin component           2
         0         1         2         3         4         5         6         7         8         9
 total charge-density along one line
 
 pseudopotential strength for first ion, spin component:           1
-10.404  -0.001  -0.004   0.000   0.003 -10.375  -0.001  -0.003
 -0.001 -10.396  -0.001   0.005   0.003  -0.001 -10.367  -0.001
 -0.004  -0.001 -10.391  -0.001   0.001  -0.003  -0.001 -10.362
  0.000   0.005  -0.001 -10.397  -0.003   0.000   0.005  -0.001
  0.003   0.003   0.001  -0.003 -10.396   0.003   0.003   0.001
-10.375  -0.001  -0.003   0.000   0.003 -10.322  -0.001  -0.003
 -0.001 -10.367  -0.001   0.005   0.003  -0.001 -10.315  -0.001
 -0.003  -0.001 -10.362  -0.001   0.001  -0.003  -0.001 -10.310
  0.000   0.005  -0.001 -10.368  -0.003   0.000   0.005  -0.001
  0.003   0.003   0.001  -0.003 -10.367   0.002   0.003   0.001
 -0.001  -0.002   0.000   0.001  -0.000  -0.001  -0.002   0.000
 -0.002  -0.003   0.001   0.001  -0.000  -0.002  -0.003   0.001
  0.013  -0.009   0.013  -0.000   0.023   0.013  -0.008   0.013
 -0.000  -0.023  -0.009   0.014  -0.000   0.000  -0.022  -0.009
 -0.022  -0.000  -0.008  -0.009   0.014  -0.021   0.000  -0.007
  0.016  -0.010   0.016   0.000   0.028   0.016  -0.010   0.015
  0.000  -0.028  -0.011   0.017  -0.000   0.000  -0.027  -0.010
 -0.027   0.000  -0.010  -0.010   0.017  -0.026   0.000  -0.009
 pseudopotential strength for first ion, spin component:           2
-10.404  -0.001  -0.004   0.000   0.003 -10.375  -0.001  -0.003
 -0.001 -10.396  -0.001   0.005   0.003  -0.001 -10.367  -0.001
 -0.004  -0.001 -10.391  -0.001   0.001  -0.003  -0.001 -10.362
  0.000   0.005  -0.001 -10.397  -0.003   0.000   0.005  -0.001
  0.003   0.003   0.001  -0.003 -10.396   0.003   0.003   0.001
-10.375  -0.001  -0.003   0.000   0.003 -10.322  -0.001  -0.003
 -0.001 -10.367  -0.001   0.005   0.003  -0.001 -10.315  -0.001
 -0.003  -0.001 -10.362  -0.001   0.001  -0.003  -0.001 -10.310
  0.000   0.005  -0.001 -10.368  -0.003   0.000   0.005  -0.001
  0.003   0.003   0.001  -0.003 -10.367   0.002   0.003   0.001
 -0.001  -0.002   0.000   0.001  -0.000  -0.001  -0.002   0.000
 -0.002  -0.003   0.001   0.001  -0.000  -0.002  -0.003   0.001
  0.013  -0.009   0.013  -0.000   0.023   0.013  -0.008   0.013
 -0.000  -0.023  -0.009   0.014  -0.000   0.000  -0.022  -0.009
 -0.022  -0.000  -0.008  -0.009   0.014  -0.021   0.000  -0.007
  0.016  -0.010   0.016   0.000   0.028   0.016  -0.010   0.015
  0.000  -0.028  -0.011   0.017  -0.000   0.000  -0.027  -0.010
 -0.027   0.000  -0.010  -0.010   0.017  -0.026   0.000  -0.009
 total augmentation occupancy for first ion, spin component:           1
  2.577  -0.010   0.131   0.034  -0.051  -0.627   0.015  -0.126   0.017   0.086   0.151  -0.037   0.036  -0.023  -0.088   0.005
 -0.010   2.795   0.043  -0.029   0.036   0.015  -0.835  -0.025   0.054  -0.039   0.191   0.000  -0.008  -0.111  -0.015  -0.004
  0.131   0.043   2.941   0.012   0.053  -0.126  -0.026  -0.899  -0.016  -0.056  -0.143   0.029   0.091  -0.158  -0.044   0.003
  0.034  -0.029   0.012   2.632  -0.099   0.017   0.054  -0.016  -0.663   0.075  -0.014  -0.018  -0.022   0.052  -0.066   0.001
 -0.051   0.036   0.053  -0.099   2.788   0.086  -0.040  -0.056   0.075  -0.695   0.072  -0.035   0.110  -0.036   0.074   0.005
 -0.627   0.015  -0.126   0.017   0.086   0.641  -0.018   0.125  -0.059  -0.115  -0.137   0.029  -0.050   0.023   0.116   0.004
  0.015  -0.835  -0.026   0.054  -0.040  -0.018   0.839   0.012  -0.077   0.041  -0.195   0.015   0.022   0.128   0.016  -0.002
 -0.126  -0.025  -0.899  -0.016  -0.056   0.125   0.012   0.834   0.019   0.059   0.144  -0.037  -0.095   0.171   0.054   0.005
  0.017   0.054  -0.016  -0.663   0.075  -0.059  -0.077   0.019   0.661  -0.054   0.012   0.019   0.021  -0.057   0.075  -0.001
  0.086  -0.039  -0.056   0.075  -0.695  -0.115   0.041   0.059  -0.054   0.585  -0.073   0.036  -0.121   0.032  -0.086   0.007
  0.151   0.191  -0.143  -0.014   0.072  -0.137  -0.195   0.144   0.012  -0.073   1.860  -0.258   0.172   0.108  -0.097  -0.016
 -0.037   0.000   0.029  -0.018  -0.035   0.029   0.015  -0.037   0.019   0.036  -0.258   0.055  -0.035  -0.030   0.017   0.003
  0.036  -0.008   0.091  -0.022   0.110  -0.050   0.022  -0.095   0.021  -0.121   0.172  -0.035   0.081  -0.028  -0.001  -0.006
 -0.023  -0.111  -0.158   0.052  -0.036   0.023   0.128   0.171  -0.057   0.032   0.108  -0.030  -0.028   0.106  -0.001   0.001
 -0.088  -0.015  -0.044  -0.066   0.074   0.116   0.016   0.054   0.075  -0.086  -0.097   0.017  -0.001  -0.001   0.060   0.000
  0.005  -0.004   0.003   0.001   0.005   0.004  -0.002   0.005  -0.001   0.007  -0.016   0.003  -0.006   0.001   0.000   0.001
  0.001  -0.007   0.001   0.003   0.002  -0.001  -0.008  -0.010   0.004  -0.002  -0.011   0.002   0.001  -0.006   0.000  -0.000
 -0.007   0.001  -0.004  -0.001   0.005  -0.007  -0.001  -0.002  -0.005   0.005   0.009  -0.002   0.000   0.000  -0.004  -0.000
 total augmentation occupancy for first ion, spin component:           2
  0.000  -0.000  -0.000   0.000  -0.000  -0.000   0.000  -0.000  -0.000   0.000   0.000  -0.000  -0.000   0.000  -0.000   0.000
 -0.000   0.000   0.000   0.000   0.000   0.000  -0.000  -0.000  -0.000  -0.000   0.000  -0.000  -0.000  -0.000   0.000   0.000
 -0.000   0.000   0.000  -0.000   0.000   0.000  -0.000  -0.000   0.000  -0.000   0.000  -0.000  -0.000   0.000  -0.000   0.000
  0.000   0.000  -0.000   0.000   0.000  -0.000  -0.000   0.000  -0.000  -0.000  -0.000   0.000   0.000   0.000  -0.000  -0.000
 -0.000   0.000   0.000   0.000  -0.000  -0.000  -0.000  -0.000  -0.000   0.000  -0.000   0.000  -0.000   0.000   0.000   0.000
 -0.000   0.000   0.000  -0.000  -0.000   0.000  -0.000   0.000   0.000  -0.000  -0.000   0.000   0.000  -0.000  -0.000  -0.000
  0.000  -0.000  -0.000  -0.000  -0.000  -0.000  -0.000   0.000   0.000   0.000  -0.000   0.000  -0.000   0.000  -0.000  -0.000
 -0.000  -0.000  -0.000   0.000  -0.000   0.000   0.000  -0.000  -0.000  -0.000  -0.000   0.000   0.000  -0.000  -0.000  -0.000
 -0.000  -0.000   0.000  -0.000  -0.000   0.000   0.000  -0.000  -0.000   0.000   0.000  -0.000  -0.000  -0.000  -0.000   0.000
  0.000  -0.000  -0.000  -0.000   0.000  -0.000   0.000  -0.000   0.000  -0.000  -0.000  -0.000   0.000  -0.000  -0.000   0.000
  0.000   0.000   0.000  -0.000  -0.000  -0.000  -0.000  -0.000   0.000  -0.000  -0.000  -0.000  -0.000  -0.000   0.000   0.000
 -0.000  -0.000  -0.000   0.000   0.000   0.000   0.000   0.000  -0.000  -0.000  -0.000   0.000  -0.000   0.000  -0.000  -0.000
 -0.000  -0.000  -0.000   0.000  -0.000   0.000  -0.000   0.000  -0.000   0.000  -0.000  -0.000  -0.000   0.000   0.000  -0.000
  0.000  -0.000   0.000   0.000   0.000  -0.000   0.000  -0.000  -0.000  -0.000  -0.000   0.000   0.000  -0.000   0.000   0.000
 -0.000   0.000  -0.000  -0.000   0.000  -0.000  -0.000  -0.000  -0.000  -0.000   0.000  -0.000   0.000   0.000  -0.000  -0.000
  0.000   0.000   0.000  -0.000   0.000  -0.000  -0.000  -0.000   0.000   0.000   0.000  -0.000  -0.000   0.000  -0.000   0.000
 -0.000   0.000  -0.000   0.000   0.000   0.000  -0.000   0.000  -0.000  -0.000  -0.000   0.000   0.000  -0.000  -0.000  -0.000
  0.000  -0.000   0.000   0.000  -0.000   0.000   0.000  -0.000  -0.000   0.000  -0.000   0.000  -0.000  -0.000   0.000   0.000


------------------------ aborting loop because EDIFF is reached ----------------------------------------


    CHARGE:  cpu time    0.14: real time    0.14
    FORLOC:  cpu time    0.02: real time    0.02
    FORNL :  cpu time    2.93: real time    2.93
    STRESS:  cpu time    3.66: real time    3.66
    FORCOR:  cpu time    0.29: real time    0.29
    FORHAR:  cpu time    0.05: real time    0.05
    MIXING:  cpu time    0.01: real time    0.01
    OFIELD:  cpu time    0.00: real time    0.00

  FORCE on cell =-STRESS in cart. coord.  units (eV):
  Direction    XX          YY          ZZ          XY          YZ          ZX
  --------------------------------------------------------------------------------------
  Alpha Z    73.55717    73.55717    73.55717
  Ewald   19427.51766 17595.42949 30075.58901 -3540.24111 -6138.58173 -1810.23881
  Hartree 29441.90321 27920.07328 39558.74194 -3174.24714 -5660.83408 -1645.02648
  E(xc)   -1739.58903 -1740.55986 -1738.89089    -0.80976    -0.79761    -0.30101
  Local  -53753.94089-50414.27205-74525.74325  6705.10475 11799.09100  3452.47075
  n-local  -318.66824  -316.76791  -315.25795     0.52620    -1.86808    -0.13622
  augment  2754.74873  2758.48245  2755.07501     2.74975     1.09940     0.99757
  Kinetic  4104.75740  4114.23274  4106.42249     6.88002     2.13018     2.13232
  Fock        0.00000     0.00000     0.00000     0.00000     0.00000     0.00000
  -------------------------------------------------------------------------------------
  Total      -9.71399    -9.82469   -10.50647    -0.03729     0.23908    -0.10188
  in kB      -1.49547    -1.51251    -1.61747    -0.00574     0.03681    -0.01568
  external pressure =       -1.54 kB  Pullay stress =        0.00 kB


 VOLUME and BASIS-vectors are now :
 -----------------------------------------------------------------------------
  energy-cutoff  :      249.84
  volume of cell :    10407.15
      direct lattice vectors                 reciprocal lattice vectors
    21.832856682  0.000000000  0.000000000     0.045802527  0.000000000  0.000000000
     0.000000000 21.832856682  0.000000000     0.000000000  0.045802527  0.000000000
     0.000000000  0.000000000 21.832856682     0.000000000  0.000000000  0.045802527

  length of vectors
    21.832856682 21.832856682 21.832856682     0.045802527  0.045802527  0.045802527


 FORCES acting on ions
    electron-ion (+dipol)            ewald-force                    non-local-force                 convergence-correction
 -----------------------------------------------------------------------------------------------
   -.777E+03 0.101E+04 0.766E+03   0.775E+03 -.100E+04 -.764E+03   0.230E+01 -.382E+01 -.163E+01   0.181E-02 -.151E-02 -.297E-03
   0.132E+01 0.147E+04 0.351E+03   -.158E+01 -.146E+04 -.348E+03   0.250E+00 -.386E+01 -.314E+01   -.206E-02 0.949E-03 0.133E-02
   -.101E+04 0.111E+03 0.105E+04   0.101E+04 -.110E+03 -.104E+04   0.384E+01 -.650E+00 -.317E+01   -.944E-04 -.953E-03 0.174E-02
   -.119E+04 0.928E+03 -.187E+03   0.119E+04 -.925E+03 0.187E+03   0.420E+01 -.228E+01 0.178E+00   0.945E-03 -.155E-02 -.157E-03
   -.297E+00 0.667E+03 0.108E+04   -.203E+00 -.666E+03 -.108E+04   0.483E+00 -.104E+01 -.626E+00   0.154E-02 -.213E-02 0.943E-03
   -.145E+04 -.124E+03 0.145E+03   0.144E+04 0.126E+03 -.146E+03   0.437E+01 -.152E+01 0.107E+01   -.318E-03 0.268E-03 -.797E-03
   0.669E+03 0.121E+04 -.192E+03   -.668E+03 -.121E+04 0.192E+03   -.150E+01 -.168E+01 0.133E+00   0.495E-03 0.781E-03 0.279E-03
   -.245E+03 -.292E+03 0.139E+04   0.244E+03 0.291E+03 -.138E+04   0.632E+00 0.180E+01 -.476E+01   0.569E-03 -.159E-02 0.134E-02
   -.474E+03 0.116E+04 -.715E+03   0.473E+03 -.115E+04 0.714E+03   0.138E+01 -.115E+01 0.150E+01   -.115E-02 0.460E-03 -.217E-03
   0.694E+03 0.856E+03 0.618E+03   -.693E+03 -.854E+03 -.618E+03   -.119E+01 -.153E+01 -.529E+00   0.381E-03 0.177E-02 0.481E-03
   -.923E+03 -.844E+03 0.587E+03   0.922E+03 0.843E+03 -.586E+03   0.639E+00 0.794E+00 -.107E+01   -.228E-03 -.310E-03 0.310E-03
   -.395E+03 0.396E+03 0.114E+03   0.393E+03 -.395E+03 -.114E+03   0.136E+01 -.100E+01 0.535E-01   0.694E-02 -.497E-02 -.279E-02
   -.125E+04 0.566E+02 -.748E+03   0.125E+04 -.568E+02 0.747E+03   0.360E+01 0.210E+00 0.917E+00   0.248E-02 0.206E-02 -.351E-02
   0.661E+03 0.198E+03 0.121E+04   -.660E+03 -.198E+03 -.121E+04   -.176E+01 -.446E+00 -.186E+01   -.161E-02 0.321E-02 0.117E-02
   0.140E+03 -.331E+03 0.252E+03   -.140E+03 0.330E+03 -.252E+03   -.384E+00 0.118E+01 -.451E+00   0.181E-03 0.327E-02 0.101E-02
   0.137E+04 0.598E+03 0.348E+02   -.136E+04 -.596E+03 -.343E+02   -.493E+01 -.211E+01 -.452E+00   -.349E-03 -.898E-03 0.205E-02
   -.100E+04 -.836E+03 -.330E+03   0.999E+03 0.836E+03 0.330E+03   0.994E+00 0.482E+00 0.180E+00   0.116E-02 0.127E-02 -.120E-02
   0.392E+02 -.111E+04 0.892E+03   -.390E+02 0.111E+04 -.890E+03   -.129E+00 0.140E+01 -.215E+01   0.438E-03 -.195E-02 0.115E-02
   0.110E+03 0.601E+02 -.590E+03   -.110E+03 -.599E+02 0.589E+03   -.718E-01 -.196E+00 0.876E+00   -.355E-02 0.367E-02 -.178E-02
   0.134E+04 0.136E+01 0.459E+03   -.134E+04 -.198E+01 -.458E+03   -.296E+01 0.623E+00 -.541E+00   -.827E-04 -.112E-02 0.283E-02
   -.464E+03 0.199E+03 -.139E+04   0.463E+03 -.198E+03 0.139E+04   0.902E+00 -.110E+01 0.401E+01   0.177E-03 -.915E-03 -.441E-02
   0.962E+03 -.704E+03 0.792E+03   -.958E+03 0.701E+03 -.789E+03   -.440E+01 0.262E+01 -.346E+01   0.444E-04 -.163E-04 0.574E-03
   0.339E+03 0.889E+03 -.112E+04   -.338E+03 -.887E+03 0.112E+04   -.119E+01 -.238E+01 0.415E+01   -.257E-02 0.101E-03 0.108E-02
   -.379E+03 -.149E+04 -.202E+02   0.377E+03 0.148E+04 0.193E+02   0.161E+01 0.485E+01 0.914E+00   -.303E-03 0.416E-03 -.319E-03
   0.113E+04 -.480E+03 -.438E+03   -.113E+04 0.480E+03 0.437E+03   -.197E+01 0.216E+00 0.756E+00   -.754E-03 0.378E-02 0.138E-02
   -.662E+03 -.852E+03 -.108E+04   0.660E+03 0.849E+03 0.107E+04   0.194E+01 0.277E+01 0.275E+01   -.224E-02 -.590E-03 -.129E-02
   0.853E+03 -.119E+04 -.570E+02   -.850E+03 0.119E+04 0.560E+02   -.258E+01 0.271E+01 0.105E+01   0.349E-03 0.107E-02 0.175E-02
   0.114E+04 0.262E+03 -.905E+03   -.114E+04 -.263E+03 0.903E+03   -.317E+01 0.552E+00 0.275E+01   0.165E-02 0.657E-03 -.445E-02
   0.224E+03 -.122E+04 -.702E+03   -.222E+03 0.122E+04 0.701E+03   -.127E+01 0.162E+01 0.154E+01   0.116E-02 -.559E-03 0.662E-03
   0.551E+03 -.597E+03 -.126E+04   -.549E+03 0.595E+03 0.126E+04   -.213E+01 0.185E+01 0.398E+01   0.355E-03 -.162E-03 0.298E-03
 -----------------------------------------------------------------------------------------------
   0.115E+01 0.106E+01 -.296E+01   -.796E-12 -.102E-11 0.136E-11   -.113E+01 -.108E+01 0.297E+01   0.538E-02 0.450E-02 -.836E-03
 
 
 POSITION                                       TOTAL-FORCE (eV/Angst)
 -----------------------------------------------------------------------------------
     13.79061      8.62444      9.03326         0.007580     -0.011474      0.001905
     11.72463      7.43595     10.86193        -0.005574     -0.008377      0.014864
     14.26645     10.98518      7.47862         0.001184     -0.004874      0.000596
     14.44234      8.33576     11.73426        -0.001957     -0.012186      0.005987
     11.71093     10.20400      8.20799        -0.016131      0.006461      0.006609
     14.74539     11.14684     10.22578         0.007681      0.005314     -0.000371
      9.63348      8.25964     12.53948        -0.007143     -0.002402      0.007193
     12.03733     12.39067      6.49639        -0.003910     -0.009623      0.001471
     12.29137      8.17827     13.52310        -0.008212      0.014026      0.009646
      9.67755      9.65054     10.07268         0.005570      0.007753      0.012677
     13.26741     13.19245      8.92895         0.000415     -0.000282     -0.001733
     12.34361     10.05620     11.02597        -0.004893      0.010377      0.002163
     13.86305     10.57933     13.40191         0.006800      0.004941     -0.015465
      9.53262     11.68972      7.55641         0.010754     -0.006243      0.002799
     10.77659     12.22768     10.30345         0.011383     -0.011994      0.007758
      7.33651      9.64278     11.60859        -0.004458      0.002817      0.002310
     13.18781     12.85793     11.83139         0.005607      0.009476     -0.001589
     10.71701     14.27651      8.11304         0.003602     -0.002023     -0.001708
     10.92608     10.76972     13.27228         0.006184      0.001861     -0.030485
      7.75495     11.72753      9.64653        -0.003427     -0.002979      0.003609
     12.18384     10.28902     15.72241         0.001703     -0.018033     -0.028753
      7.97813     13.97941      7.87278         0.000385      0.002504     -0.001275
     10.18096      8.38364     15.30655        -0.014057      0.001615      0.006323
     11.77488     14.93106     10.58853         0.004392      0.004860     -0.001880
      8.59283     12.04145     12.29770        -0.010320      0.010182     -0.004847
     12.56056     12.78956     14.58955         0.004772     -0.002707     -0.002845
      9.00032     14.30931     10.44016         0.000273      0.005916     -0.001647
      8.27920     10.06430     14.24556        -0.004901      0.006527     -0.001209
     10.64477     13.78864     12.86070         0.003543      0.002899     -0.002074
      9.85246     12.23711     15.27117         0.003154     -0.004334      0.009969
 -----------------------------------------------------------------------------------
    total drift:                                0.027721     -0.016257      0.013152


--------------------------------------------------------------------------------------------------------



  FREE ENERGIE OF THE ION-ELECTRON SYSTEM (eV)
  ---------------------------------------------------
  free  energy   TOTEN  =       -62.73219267 eV

  energy  without entropy=      -62.73219267  energy(sigma->0) =      -62.73219267
 
 d Force = 0.2206810E-04[ 0.181E-04, 0.261E-04]  d Energy = 0.4682571E-04-0.248E-04
 d Force =-0.2550693E+01[-0.255E+01,-0.255E+01]  d Ewald  =-0.2550693E+01 0.147E-07


--------------------------------------------------------------------------------------------------------


    POTLOK:  cpu time    0.30: real time    0.30


--------------------------------------------------------------------------------------------------------




--------------------------------------------------------------------------------------------------------


  
 reached required accuracy - stopping structural energy minimisation
     LOOP+:  cpu time   15.39: real time   15.43
    4ORBIT:  cpu time    0.00: real time    0.00

 total amount of memory used by VASP on root node    69644. kBytes
========================================================================

   base      :      30000. kBytes
   nonl-proj :       3641. kBytes
   fftplans  :       7251. kBytes
   grid      :      18544. kBytes
   one-center:         62. kBytes
   wavefun   :      10146. kBytes
 
  
  
 General timing and accounting informations for this job:
 ========================================================
  
                  Total CPU time used (sec):     1747.501
                            User time (sec):     1737.637
                          System time (sec):        9.865
                         Elapsed time (sec):     1803.875
  
                   Maximum memory used (kb):       87580.
                   Average memory used (kb):           0.
  
                          Minor page faults:      1754373
                          Major page faults:            0
                 Voluntary context switches:        10551
