   44   44 1000    2
  0.2736836E+03  0.2292101E-08  0.2292101E-08  0.2292101E-08  0.1000000E-15
  1.000000000000000E-004
  CAR 
 unknown system                          
    484      1    312
 
  0.0000000E+00  0.0000000E+00  0.0000000E+00  0.1000000E+01
    1       -9.704028     -9.704028
    2       -9.204704     -9.204704
    3       -9.139933     -9.139933
    4       -9.104406     -9.104406
    5       -9.055268     -9.055268
    6       -9.023343     -9.023343
    7       -9.007944     -9.007944
    8       -8.987027     -8.987027
    9       -8.969138     -8.969138
   10       -8.945047     -8.945047
   11       -8.909621     -8.909621
   12       -8.891810     -8.891810
   13       -8.860512     -8.860512
   14       -8.836741     -8.836741
   15       -8.796781     -8.796781
   16       -8.773085     -8.773085
   17       -8.731477     -8.731477
   18       -8.715855     -8.715855
   19       -8.706580     -8.706580
   20       -8.648957     -8.648957
   21       -8.631632     -8.631632
   22       -8.613351     -8.613351
   23       -8.587397     -8.587397
   24       -8.564194     -8.564194
   25       -8.555805     -8.555805
   26       -8.543707     -8.543707
   27       -8.525681     -8.525681
   28       -8.512596     -8.512596
   29       -8.496034     -8.496034
   30       -8.474941     -8.474941
   31       -8.439695     -8.439695
   32       -8.422313     -8.422313
   33       -8.406351     -8.406351
   34       -8.397937     -8.397937
   35       -8.367547     -8.367547
   36       -8.359211     -8.359211
   37       -8.345576     -8.345576
   38       -8.330577     -8.330577
   39       -8.314449     -8.314449
   40       -8.309760     -8.309760
   41       -8.283171     -8.283171
   42       -8.268764     -8.268764
   43       -8.264700     -8.264700
   44       -8.254179     -8.254179
   45       -8.221945     -8.221945
   46       -8.212454     -8.212454
   47       -8.179855     -8.179855
   48       -8.162449     -8.162449
   49       -8.154600     -8.154600
   50       -8.143555     -8.143555
   51       -8.129105     -8.129105
   52       -8.111622     -8.111622
   53       -8.091178     -8.091178
   54       -8.079937     -8.079937
   55       -8.067431     -8.067431
   56       -8.066264     -8.066264
   57       -8.055454     -8.055454
   58       -8.043701     -8.043701
   59       -8.010074     -8.010074
   60       -7.990406     -7.990406
   61       -7.983629     -7.983629
   62       -7.968948     -7.968948
   63       -7.954091     -7.954091
   64       -7.945137     -7.945137
   65       -7.939856     -7.939856
   66       -7.937892     -7.937892
   67       -7.915299     -7.915299
   68       -7.899961     -7.899961
   69       -7.877687     -7.877687
   70       -7.867676     -7.867676
   71       -7.860385     -7.860385
   72       -7.838604     -7.838604
   73       -7.826387     -7.826387
   74       -7.805876     -7.805876
   75       -7.797260     -7.797260
   76       -7.787086     -7.787086
   77       -7.782648     -7.782648
   78       -7.757543     -7.757543
   79       -7.734176     -7.734176
   80       -7.724401     -7.724401
   81       -7.712780     -7.712780
   82       -7.688253     -7.688253
   83       -7.671788     -7.671788
   84       -7.662195     -7.662195
   85       -7.653254     -7.653254
   86       -7.647341     -7.647341
   87       -7.616028     -7.616028
   88       -7.606894     -7.606894
   89       -7.598222     -7.598222
   90       -7.585594     -7.585594
   91       -7.576079     -7.576079
   92       -7.572782     -7.572782
   93       -7.547446     -7.547446
   94       -7.536299     -7.536299
   95       -7.518238     -7.518238
   96       -7.513433     -7.513433
   97       -7.503834     -7.503834
   98       -7.474752     -7.474752
   99       -7.462595     -7.462595
  100       -7.445111     -7.445111
  101       -7.430160     -7.430160
  102       -7.426342     -7.426342
  103       -7.408800     -7.408800
  104       -7.396879     -7.396879
  105       -7.385622     -7.385622
  106       -7.359634     -7.359634
  107       -7.349852     -7.349853
  108       -7.346540     -7.346540
  109       -7.312865     -7.312865
  110       -7.303130     -7.303130
  111       -7.287833     -7.287833
  112       -7.283105     -7.283105
  113       -7.251283     -7.251283
  114       -7.238777     -7.238777
  115       -7.227652     -7.227652
  116       -7.218868     -7.218868
  117       -7.207103     -7.207103
  118       -7.183764     -7.183764
  119       -7.160294     -7.160294
  120       -7.150400     -7.150400
  121       -7.131616     -7.131616
  122       -7.110342     -7.110342
  123       -7.105236     -7.105236
  124       -7.089599     -7.089599
  125       -7.074375     -7.074375
  126       -7.058246     -7.058246
  127       -7.054219     -7.054219
  128       -7.044576     -7.044576
  129       -7.034627     -7.034627
  130       -7.027765     -7.027765
  131       -7.008210     -7.008211
  132       -6.999081     -6.999081
  133       -6.991029     -6.991029
  134       -6.988052     -6.988052
  135       -6.970602     -6.970602
  136       -6.957698     -6.957698
  137       -6.947021     -6.947021
  138       -6.944235     -6.944235
  139       -6.926659     -6.926659
  140       -6.918877     -6.918877
  141       -6.901120     -6.901120
  142       -6.893369     -6.893369
  143       -6.883332     -6.883332
  144       -6.863981     -6.863981
  145       -6.859608     -6.859608
  146       -6.844788     -6.844788
  147       -6.837191     -6.837191
  148       -6.812506     -6.812506
  149       -6.805772     -6.805772
  150       -6.800269     -6.800269
  151       -6.790855     -6.790855
  152       -6.782953     -6.782953
  153       -6.769995     -6.769995
  154       -6.759867     -6.759867
  155       -6.745056     -6.745056
  156       -6.736851     -6.736851
  157       -6.731626     -6.731626
  158       -6.718636     -6.718636
  159       -6.714504     -6.714504
  160       -6.701282     -6.701282
  161       -6.684827     -6.684827
  162       -6.679803     -6.679803
  163       -6.675478     -6.675478
  164       -6.664232     -6.664232
  165       -6.653312     -6.653312
  166       -6.645292     -6.645292
  167       -6.638774     -6.638774
  168       -6.622219     -6.622219
  169       -6.619582     -6.619582
  170       -6.613900     -6.613900
  171       -6.603959     -6.603959
  172       -6.594275     -6.594275
  173       -6.585734     -6.585734
  174       -6.581006     -6.581006
  175       -6.569272     -6.569272
  176       -6.550005     -6.550005
  177       -6.543821     -6.543821
  178       -6.537854     -6.537854
  179       -6.525541     -6.525541
  180       -6.515289     -6.515289
  181       -6.506805     -6.506805
  182       -6.504174     -6.504174
  183       -6.493669     -6.493669
  184       -6.488484     -6.488484
  185       -6.478229     -6.478229
  186       -6.473084     -6.473084
  187       -6.457106     -6.457106
  188       -6.454185     -6.454185
  189       -6.444744     -6.444744
  190       -6.431842     -6.431842
  191       -6.425634     -6.425634
  192       -6.418715     -6.418715
  193       -6.404952     -6.404952
  194       -6.400941     -6.400941
  195       -6.397764     -6.397764
  196       -6.388088     -6.388088
  197       -6.377088     -6.377088
  198       -6.375645     -6.375645
  199       -6.357437     -6.357437
  200       -6.350756     -6.350756
  201       -6.344731     -6.344731
  202       -6.334770     -6.334770
  203       -6.332445     -6.332445
  204       -6.309710     -6.309710
  205       -6.303067     -6.303067
  206       -6.297554     -6.297554
  207       -6.280767     -6.280767
  208       -6.262170     -6.262170
  209       -6.250639     -6.250639
  210       -6.248285     -6.248285
  211       -6.214910     -6.214910
  212       -6.205468     -6.205468
  213       -6.195117     -6.195117
  214       -6.187318     -6.187318
  215       -6.174935     -6.174935
  216       -6.160147     -6.160147
  217       -6.152847     -6.152847
  218       -6.142939     -6.142939
  219       -6.124797     -6.124797
  220       -6.118264     -6.118264
  221       -6.113585     -6.113585
  222       -6.070524     -6.070524
  223       -6.062249     -6.062249
  224       -6.042355     -6.042355
  225       -6.013640     -6.013640
  226       -5.998737     -5.998737
  227       -5.837997     -5.837997
  228       -5.781483     -5.781483
  229       -5.603460     -5.603460
  230       -5.332468     -5.332468
  231       -5.024393     -5.024393
  232       -4.803870     -4.803870
  233       -4.691081     -4.691081
  234       -4.630181     -4.630181
  235       -4.486823     -4.486823
  236       -4.216266     -4.216266
  237       -4.010752     -4.010752
  238       -3.904663     -3.904663
  239       -3.832408     -3.832408
  240       -3.667171     -3.667171
  241       -3.583439     -3.583439
  242       -3.342542     -3.342542
  243       -3.057588     -3.057588
  244       -2.944263     -2.944263
  245       -2.799124     -2.799124
  246       -2.625465     -2.625465
  247       -2.603283     -2.603283
  248       -2.462424     -2.462424
  249       -2.370714     -2.370714
  250       -2.314747     -2.314747
  251       -2.233392     -2.233392
  252       -2.023401     -2.023401
  253       -1.998335     -1.998336
  254       -1.884967     -1.884967
  255       -1.848145     -1.848145
  256       -1.756110     -1.756110
  257       -1.670721     -1.670721
  258       -1.478864     -1.478864
  259       -1.388202     -1.388202
  260       -1.335880     -1.335880
  261       -1.192325     -1.192325
  262       -1.137560     -1.137560
  263       -1.012139     -1.012140
  264       -0.997445     -0.997445
  265       -0.968329     -0.968329
  266       -0.920908     -0.920908
  267       -0.875395     -0.875395
  268       -0.733851     -0.733851
  269       -0.677907     -0.677907
  270       -0.594460     -0.594460
  271       -0.482935     -0.482936
  272       -0.378172     -0.378172
  273       -0.341636     -0.341636
  274       -0.286856     -0.286856
  275       -0.210633     -0.210633
  276       -0.143355     -0.143355
  277       -0.055845     -0.055845
  278        0.059016      0.059016
  279        0.181225      0.181225
  280        0.293926      0.293926
  281        0.323762      0.323762
  282        0.442439      0.442438
  283        0.471930      0.471929
  284        0.581928      0.581924
  285        0.690148      0.690152
  286        0.716579      0.716581
  287        0.728284      0.728277
  288        0.768895      0.768897
  289        0.812925      0.812924
  290        0.867271      0.867267
  291        0.898735      0.898734
  292        0.920412      0.920413
  293        0.958253      0.958253
  294        0.980072      0.980074
  295        1.002862      1.002863
  296        1.024362      1.024361
  297        1.060997      1.060997
  298        1.065121      1.065121
  299        1.091251      1.091249
  300        1.121854      1.121857
  301        1.132751      1.132750
  302        1.153372      1.153374
  303        1.167691      1.167692
  304        1.214999      1.215001
  305        1.240162      1.240160
  306        1.275367      1.275365
  307        1.306040      1.306040
  308        1.328674      1.328676
  309        1.331010      1.331010
  310        1.347726      1.347728
  311        1.375463      1.375465
  312        1.403540      1.403541
