unknown system                          
           1
    19.893227    0.000000    0.000000
     0.000000   19.893227    0.000000
     0.000000    0.000000   19.893227
   Ag
  14
Direct configuration=     1
   0.55182467  0.54936017  0.50000000
   0.43471461  0.44176239  0.57283439
   0.47344553  0.57224409  0.61247527
   0.37709249  0.55515058  0.50000000
   0.63553467  0.32263672  0.50000000
   0.49846425  0.33051368  0.50000000
   0.57625354  0.43225484  0.42615487
   0.57625354  0.66786116  0.42608273
   0.45525049  0.66914798  0.50000000
   0.43471461  0.44176239  0.42716561
   0.47344553  0.57224409  0.38752473
   0.57625354  0.43225484  0.57384513
   0.57625354  0.66786116  0.57391727
   0.36049900  0.34494592  0.50000000
Direct configuration=     2
   0.55172840  0.54940420  0.50000000
   0.43480775  0.44175233  0.57280044
   0.47352942  0.57229044  0.61229748
   0.37727494  0.55513028  0.50000000
   0.63538529  0.32273834  0.50000000
   0.49847187  0.33071200  0.50000000
   0.57610857  0.43219144  0.42623570
   0.57608138  0.66777161  0.42608739
   0.45539514  0.66896685  0.50000000
   0.43480775  0.44175233  0.42719956
   0.47352942  0.57229044  0.38770252
   0.57610857  0.43219144  0.57376430
   0.57608138  0.66777161  0.57391261
   0.36069012  0.34503667  0.50000000
Direct configuration=     3
   0.55143958  0.54953631  0.50000000
   0.43508718  0.44172213  0.57269861
   0.47378108  0.57242951  0.61176413
   0.37782231  0.55506939  0.50000000
   0.63493714  0.32304317  0.50000000
   0.49849472  0.33130699  0.50000000
   0.57567365  0.43200126  0.42647820
   0.57556492  0.66750297  0.42610138
   0.45582908  0.66842348  0.50000000
   0.43508718  0.44172213  0.42730139
   0.47378108  0.57242951  0.38823587
   0.57567365  0.43200126  0.57352180
   0.57556492  0.66750297  0.57389862
   0.36126350  0.34530890  0.50000000
Direct configuration=     4
   0.55086195  0.54980051  0.50000000
   0.43564603  0.44166175  0.57249494
   0.47428439  0.57270763  0.61069742
   0.37891704  0.55494760  0.50000000
   0.63404084  0.32365284  0.50000000
   0.49854044  0.33249697  0.50000000
   0.57480383  0.43162091  0.42696319
   0.57453201  0.66696570  0.42612934
   0.45669696  0.66733673  0.50000000
   0.43564603  0.44166175  0.42750506
   0.47428439  0.57270763  0.38930258
   0.57480383  0.43162091  0.57303681
   0.57453201  0.66696570  0.57387066
   0.36241024  0.34585337  0.50000000
Direct configuration=     5
   0.54970669  0.55032892  0.50000000
   0.43676374  0.44154097  0.57208760
   0.47529103  0.57326388  0.60856400
   0.38110651  0.55470402  0.50000000
   0.63224826  0.32487219  0.50000000
   0.49863187  0.33487692  0.50000000
   0.57306417  0.43086019  0.42793318
   0.57246617  0.66589116  0.42618527
   0.45843272  0.66516324  0.50000000
   0.43676374  0.44154097  0.42791240
   0.47529103  0.57326388  0.39143600
   0.57306417  0.43086019  0.57206682
   0.57246617  0.66589116  0.57381473
   0.36470374  0.34694229  0.50000000
Direct configuration=     6
   0.55034022  0.55003915  0.50000000
   0.43615080  0.44160720  0.57231098
   0.47473900  0.57295884  0.60973395
   0.37990583  0.55483760  0.50000000
   0.63323129  0.32420352  0.50000000
   0.49858173  0.33357178  0.50000000
   0.57401818  0.43127736  0.42740125
   0.57359905  0.66648043  0.42615460
   0.45748085  0.66635516  0.50000000
   0.43615080  0.44160720  0.42768902
   0.47473900  0.57295884  0.39026605
   0.57401818  0.43127736  0.57259875
   0.57359905  0.66648043  0.57384540
   0.36344601  0.34634514  0.50000000
Direct configuration=     7
   0.55052392  0.54960003  0.50000000
   0.43624733  0.44178351  0.57246892
   0.47468579  0.57290877  0.60979194
   0.38015305  0.55455526  0.50000000
   0.63308088  0.32432725  0.50000000
   0.49854136  0.33382134  0.50000000
   0.57382470  0.43130142  0.42736481
   0.57351923  0.66648126  0.42588128
   0.45746221  0.66622786  0.50000000
   0.43624733  0.44178351  0.42753108
   0.47468579  0.57290877  0.39020806
   0.57382470  0.43130142  0.57263519
   0.57351923  0.66648126  0.57411872
   0.36368448  0.34651832  0.50000000
Direct configuration=     8
   0.55101252  0.54843203  0.50000000
   0.43650409  0.44225246  0.57288902
   0.47454426  0.57277560  0.60994619
   0.38081060  0.55380427  0.50000000
   0.63268081  0.32465638  0.50000000
   0.49843399  0.33448514  0.50000000
   0.57331008  0.43136544  0.42726789
   0.57330690  0.66648347  0.42515428
   0.45741264  0.66588927  0.50000000
   0.43650409  0.44225246  0.42711098
   0.47454426  0.57277560  0.39005381
   0.57331008  0.43136544  0.57273211
   0.57330690  0.66648347  0.57484572
   0.36431876  0.34697897  0.50000000
Direct configuration=     9
   0.55198973  0.54609605  0.50000000
   0.43701762  0.44319035  0.57372923
   0.47426120  0.57250925  0.61025468
   0.38212572  0.55230230  0.50000000
   0.63188066  0.32531462  0.50000000
   0.49821926  0.33581274  0.50000000
   0.57228082  0.43149346  0.42707405
   0.57288226  0.66648790  0.42370028
   0.45731349  0.66521209  0.50000000
   0.43701762  0.44319035  0.42627077
   0.47426120  0.57250925  0.38974532
   0.57228082  0.43149346  0.57292595
   0.57288226  0.66648790  0.57629972
   0.36558734  0.34790027  0.50000000
Direct configuration=    10
   0.55127106  0.54781401  0.50000000
   0.43663996  0.44250059  0.57311131
   0.47446937  0.57270513  0.61002780
   0.38115854  0.55340690  0.50000000
   0.63246911  0.32483053  0.50000000
   0.49837718  0.33483638  0.50000000
   0.57303777  0.43139931  0.42721660
   0.57319456  0.66648465  0.42476960
   0.45738641  0.66571011  0.50000000
   0.43663996  0.44250059  0.42688869
   0.47446937  0.57270513  0.38997220
   0.57303777  0.43139931  0.57278340
   0.57319456  0.66648465  0.57523040
   0.36465439  0.34722272  0.50000000
Direct configuration=    11
   0.55147268  0.54793705  0.50000000
   0.43651574  0.44271802  0.57343395
   0.47452953  0.57273042  0.61012650
   0.38143010  0.55286301  0.50000000
   0.63233528  0.32499302  0.50000000
   0.49835020  0.33505292  0.50000000
   0.57306020  0.43130861  0.42680810
   0.57293138  0.66628076  0.42452421
   0.45755149  0.66545777  0.50000000
   0.43651574  0.44271802  0.42656605
   0.47452953  0.57273042  0.38987350
   0.57306020  0.43130861  0.57319190
   0.57293138  0.66628076  0.57547579
   0.36478655  0.34762061  0.50000000
Direct configuration=    12
   0.55185521  0.54817051  0.50000000
   0.43628007  0.44313056  0.57404609
   0.47464366  0.57277841  0.61031375
   0.38194535  0.55183106  0.50000000
   0.63208136  0.32530134  0.50000000
   0.49829900  0.33546376  0.50000000
   0.57310276  0.43113653  0.42603302
   0.57243203  0.66589391  0.42405863
   0.45786471  0.66497898  0.50000000
   0.43628007  0.44313056  0.42595391
   0.47464366  0.57277841  0.38968625
   0.57310276  0.43113653  0.57396698
   0.57243203  0.66589391  0.57594137
   0.36503731  0.34837555  0.50000000
Direct configuration=    13
   0.55197363  0.54826885  0.50000000
   0.43623806  0.44295014  0.57419724
   0.47472427  0.57271985  0.61041233
   0.38195821  0.55179734  0.50000000
   0.63215389  0.32534963  0.50000000
   0.49829927  0.33566289  0.50000000
   0.57311566  0.43119919  0.42593150
   0.57247677  0.66585057  0.42398109
   0.45773508  0.66476192  0.50000000
   0.43623806  0.44295014  0.42580276
   0.47472427  0.57271985  0.38958767
   0.57311566  0.43119919  0.57406850
   0.57247677  0.66585057  0.57601891
   0.36477043  0.34871987  0.50000000
Direct configuration=    14
   0.55207011  0.54834898  0.50000000
   0.43620382  0.44280315  0.57432040
   0.47478995  0.57267214  0.61049264
   0.38196868  0.55176987  0.50000000
   0.63221299  0.32538899  0.50000000
   0.49829949  0.33582514  0.50000000
   0.57312616  0.43125024  0.42584878
   0.57251321  0.66581526  0.42391793
   0.45762946  0.66458507  0.50000000
   0.43620382  0.44280315  0.42567960
   0.47478995  0.57267214  0.38950736
   0.57312616  0.43125024  0.57415122
   0.57251321  0.66581526  0.57608207
   0.36455298  0.34900040  0.50000000
Direct configuration=    15
   0.55211281  0.54835557  0.50000000
   0.43621684  0.44274030  0.57437858
   0.47485454  0.57252047  0.61047662
   0.38193188  0.55165026  0.50000000
   0.63222034  0.32545259  0.50000000
   0.49819812  0.33590942  0.50000000
   0.57310710  0.43136639  0.42592183
   0.57253876  0.66583707  0.42397936
   0.45769446  0.66456749  0.50000000
   0.43621684  0.44274030  0.42562142
   0.47485454  0.57252047  0.38952338
   0.57310710  0.43136639  0.57407817
   0.57253876  0.66583707  0.57602064
   0.36440791  0.34913620  0.50000000
Direct configuration=    16
   0.55218955  0.54836740  0.50000000
   0.43624024  0.44262736  0.57448314
   0.47497062  0.57224790  0.61044782
   0.38186573  0.55143532  0.50000000
   0.63223354  0.32556690  0.50000000
   0.49801595  0.33606090  0.50000000
   0.57307285  0.43157513  0.42605312
   0.57258468  0.66587628  0.42408978
   0.45781127  0.66453590  0.50000000
   0.43624024  0.44262736  0.42551686
   0.47497062  0.57224790  0.38955218
   0.57307285  0.43157513  0.57394688
   0.57258468  0.66587628  0.57591022
   0.36414720  0.34938024  0.50000000
Direct configuration=    17
   0.55225449  0.54846609  0.50000000
   0.43619985  0.44255319  0.57454622
   0.47504779  0.57216302  0.61044392
   0.38188901  0.55138869  0.50000000
   0.63218520  0.32563308  0.50000000
   0.49798609  0.33611125  0.50000000
   0.57308530  0.43164164  0.42606365
   0.57261116  0.66587412  0.42409600
   0.45777857  0.66442442  0.50000000
   0.43619985  0.44255319  0.42545378
   0.47504779  0.57216302  0.38955608
   0.57308530  0.43164164  0.57393635
   0.57261116  0.66587412  0.57590400
   0.36401845  0.34951252  0.50000000
Direct configuration=    18
   0.55244928  0.54876217  0.50000000
   0.43607867  0.44233068  0.57473548
   0.47527931  0.57190836  0.61043222
   0.38195884  0.55124883  0.50000000
   0.63204016  0.32583160  0.50000000
   0.49789651  0.33626231  0.50000000
   0.57312267  0.43184117  0.42609527
   0.57269061  0.66586765  0.42411465
   0.45768046  0.66408999  0.50000000
   0.43607867  0.44233068  0.42526452
   0.47527931  0.57190836  0.38956778
   0.57312267  0.43184117  0.57390473
   0.57269061  0.66586765  0.57588535
   0.36363221  0.34990937  0.50000000
Direct configuration=    19
   0.55260713  0.54880036  0.50000000
   0.43604200  0.44230229  0.57479198
   0.47534542  0.57185372  0.61046542
   0.38200504  0.55114755  0.50000000
   0.63199446  0.32585717  0.50000000
   0.49780424  0.33628451  0.50000000
   0.57308297  0.43191045  0.42606425
   0.57268612  0.66588283  0.42406643
   0.45768316  0.66404182  0.50000000
   0.43604200  0.44230229  0.42520802
   0.47534542  0.57185372  0.38953458
   0.57308297  0.43191045  0.57393575
   0.57268612  0.66588283  0.57593357
   0.36359293  0.34997000  0.50000000
Direct configuration=    20
   0.55308066  0.54891493  0.50000000
   0.43593200  0.44221714  0.57496149
   0.47554375  0.57168980  0.61056502
   0.38214366  0.55084371  0.50000000
   0.63185735  0.32593386  0.50000000
   0.49752744  0.33635114  0.50000000
   0.57296386  0.43211828  0.42597120
   0.57267266  0.66592835  0.42392176
   0.45769127  0.66389731  0.50000000
   0.43593200  0.44221714  0.42503851
   0.47554375  0.57168980  0.38943498
   0.57296386  0.43211828  0.57402880
   0.57267266  0.66592835  0.57607824
   0.36347507  0.35015190  0.50000000
Direct configuration=    21
   0.55316769  0.54896375  0.50000000
   0.43590706  0.44219937  0.57499789
   0.47559075  0.57165152  0.61056281
   0.38218093  0.55079640  0.50000000
   0.63180676  0.32595963  0.50000000
   0.49751205  0.33637088  0.50000000
   0.57293603  0.43214940  0.42596346
   0.57266507  0.66593734  0.42389726
   0.45770069  0.66385485  0.50000000
   0.43590706  0.44219937  0.42500211
   0.47559075  0.57165152  0.38943719
   0.57293603  0.43214940  0.57403654
   0.57266507  0.66593734  0.57610274
   0.36343407  0.35017926  0.50000000
Direct configuration=    22
   0.55342877  0.54911021  0.50000000
   0.43583225  0.44214606  0.57510711
   0.47573172  0.57153667  0.61055618
   0.38229273  0.55065445  0.50000000
   0.63165497  0.32603691  0.50000000
   0.49746588  0.33643008  0.50000000
   0.57285254  0.43224275  0.42594026
   0.57264229  0.66596432  0.42382378
   0.45772895  0.66372744  0.50000000
   0.43583225  0.44214606  0.42489289
   0.47573172  0.57153667  0.38944382
   0.57285254  0.43224275  0.57405974
   0.57264229  0.66596432  0.57617622
   0.36331107  0.35026132  0.50000000
Direct configuration=    23
   0.55344318  0.54914189  0.50000000
   0.43581870  0.44213422  0.57511269
   0.47574960  0.57151580  0.61052875
   0.38230784  0.55066255  0.50000000
   0.63163346  0.32604932  0.50000000
   0.49748114  0.33644288  0.50000000
   0.57284134  0.43224503  0.42595385
   0.57263959  0.66597338  0.42382210
   0.45774077  0.66371072  0.50000000
   0.43581870  0.44213422  0.42488731
   0.47574960  0.57151580  0.38947125
   0.57284134  0.43224503  0.57404615
   0.57263959  0.66597338  0.57617790
   0.36329515  0.35025576  0.50000000
Direct configuration=    24
   0.55348640  0.54923691  0.50000000
   0.43577806  0.44209872  0.57512942
   0.47580325  0.57145321  0.61044648
   0.38235315  0.55068682  0.50000000
   0.63156891  0.32608655  0.50000000
   0.49752692  0.33648129  0.50000000
   0.57280773  0.43225187  0.42599463
   0.57263146  0.66600059  0.42381708
   0.45777623  0.66366054  0.50000000
   0.43577806  0.44209872  0.42487058
   0.47580325  0.57145321  0.38955352
   0.57280773  0.43225187  0.57400537
   0.57263146  0.66600059  0.57618292
   0.36324740  0.35023908  0.50000000
