  43  43   0   0
  0.3407948E+03  0.2447112E-08  0.2447112E-08  0.2447112E-08  0.1000000E-15
  1.000000000000000E-004
  CAR 
 unknown system                          
      1.76102477    -10.18642179  301     -3.43611448      1.00000000
    -10.186  0.0000E+00  0.0000E+00  0.0000E+00  0.0000E+00
    -10.147  0.0000E+00  0.0000E+00  0.0000E+00  0.0000E+00
    -10.107  0.0000E+00  0.0000E+00  0.0000E+00  0.0000E+00
    -10.067  0.0000E+00  0.0000E+00  0.0000E+00  0.0000E+00
    -10.027  0.0000E+00  0.0000E+00  0.0000E+00  0.0000E+00
     -9.987  0.0000E+00  0.0000E+00  0.0000E+00  0.0000E+00
     -9.947  0.0000E+00  0.0000E+00  0.0000E+00  0.0000E+00
     -9.908  0.0000E+00  0.0000E+00  0.0000E+00  0.0000E+00
     -9.868  0.0000E+00  0.0000E+00  0.0000E+00  0.0000E+00
     -9.828  0.0000E+00  0.0000E+00  0.0000E+00  0.0000E+00
     -9.788  0.0000E+00  0.0000E+00  0.0000E+00  0.0000E+00
     -9.748  0.0000E+00  0.0000E+00  0.0000E+00  0.0000E+00
     -9.709  0.0000E+00  0.0000E+00  0.0000E+00  0.0000E+00
     -9.669  0.0000E+00  0.0000E+00  0.0000E+00  0.0000E+00
     -9.629  0.0000E+00  0.2479E-01  0.1000E-02  0.9873E-03
     -9.589  0.0000E+00  0.0000E+00  0.1000E-02  0.1000E-02
     -9.549  0.0000E+00  0.0000E+00  0.1000E-02  0.1000E-02
     -9.509  0.0000E+00  0.0000E+00  0.1000E-02  0.1000E-02
     -9.470  0.0000E+00  0.0000E+00  0.1000E-02  0.1000E-02
     -9.430  0.0000E+00  0.0000E+00  0.1000E-02  0.1000E-02
     -9.390  0.0000E+00  0.0000E+00  0.1000E-02  0.1000E-02
     -9.350  0.0000E+00  0.0000E+00  0.1000E-02  0.1000E-02
     -9.310  0.0000E+00  0.0000E+00  0.1000E-02  0.1000E-02
     -9.270  0.0000E+00  0.0000E+00  0.1000E-02  0.1000E-02
     -9.231  0.0000E+00  0.0000E+00  0.2000E-02  0.2000E-02
     -9.191  0.0000E+00  0.0000E+00  0.2000E-02  0.2000E-02
     -9.151  0.0000E+00  0.0000E+00  0.4000E-02  0.4000E-02
     -9.111  0.0000E+00  0.0000E+00  0.4000E-02  0.4000E-02
     -9.071  0.0000E+00  0.0000E+00  0.5000E-02  0.5000E-02
     -9.032  0.0000E+00  0.0000E+00  0.7000E-02  0.6000E-02
     -8.992  0.2511E-01  0.0000E+00  0.9000E-02  0.8000E-02
     -8.952  0.0000E+00  0.0000E+00  0.1100E-01  0.1000E-01
     -8.912  0.0000E+00  0.0000E+00  0.1300E-01  0.1200E-01
     -8.872  0.0000E+00  0.0000E+00  0.1500E-01  0.1400E-01
     -8.832  0.0000E+00  0.0000E+00  0.1700E-01  0.1700E-01
     -8.793  0.0000E+00  0.0000E+00  0.1900E-01  0.1900E-01
     -8.753  0.0000E+00  0.0000E+00  0.2100E-01  0.2000E-01
     -8.713  0.0000E+00  0.0000E+00  0.2300E-01  0.2200E-01
     -8.673  0.0000E+00  0.0000E+00  0.2600E-01  0.2500E-01
     -8.633  0.0000E+00  0.0000E+00  0.2700E-01  0.2600E-01
     -8.593  0.0000E+00  0.0000E+00  0.3000E-01  0.3000E-01
     -8.554  0.0000E+00  0.0000E+00  0.3200E-01  0.3200E-01
     -8.514  0.0000E+00  0.0000E+00  0.3600E-01  0.3500E-01
     -8.474  0.0000E+00  0.0000E+00  0.3800E-01  0.3800E-01
     -8.434  0.0000E+00  0.0000E+00  0.4100E-01  0.4000E-01
     -8.394  0.0000E+00  0.0000E+00  0.4400E-01  0.4300E-01
     -8.354  0.0000E+00  0.2253E-01  0.4700E-01  0.4690E-01
     -8.315  0.0000E+00  0.0000E+00  0.5000E-01  0.4900E-01
     -8.275  0.0000E+00  0.2511E-01  0.5200E-01  0.5200E-01
     -8.235  0.0000E+00  0.0000E+00  0.5500E-01  0.5400E-01
     -8.195  0.0000E+00  0.0000E+00  0.5700E-01  0.5700E-01
     -8.155  0.0000E+00  0.0000E+00  0.6000E-01  0.6000E-01
     -8.116  0.0000E+00  0.0000E+00  0.6300E-01  0.6200E-01
     -8.076  0.0000E+00  0.0000E+00  0.6600E-01  0.6500E-01
     -8.036  0.0000E+00  0.8713E-02  0.6800E-01  0.6735E-01
     -7.996  0.0000E+00  0.0000E+00  0.7000E-01  0.7000E-01
     -7.956  0.2511E-01  0.0000E+00  0.7400E-01  0.7200E-01
     -7.916  0.1871E-10  0.0000E+00  0.7600E-01  0.7600E-01
     -7.877  0.0000E+00  0.0000E+00  0.8000E-01  0.7900E-01
     -7.837  0.2511E-01  0.0000E+00  0.8300E-01  0.8100E-01
     -7.797  0.0000E+00  0.0000E+00  0.8400E-01  0.8400E-01
     -7.757  0.0000E+00  0.0000E+00  0.8700E-01  0.8700E-01
     -7.717  0.0000E+00  0.0000E+00  0.8900E-01  0.8900E-01
     -7.677  0.0000E+00  0.0000E+00  0.9300E-01  0.9300E-01
     -7.638  0.0000E+00  0.0000E+00  0.9500E-01  0.9500E-01
     -7.598  0.0000E+00  0.0000E+00  0.9800E-01  0.9800E-01
     -7.558  0.0000E+00  0.1446E-06  0.1020E+00  0.1010E+00
     -7.518  0.0000E+00  0.0000E+00  0.1030E+00  0.1030E+00
     -7.478  0.0000E+00  0.0000E+00  0.1050E+00  0.1050E+00
     -7.439  0.0000E+00  0.0000E+00  0.1090E+00  0.1090E+00
     -7.399  0.0000E+00  0.0000E+00  0.1110E+00  0.1110E+00
     -7.359  0.0000E+00  0.0000E+00  0.1140E+00  0.1140E+00
     -7.319  0.0000E+00  0.2511E-01  0.1170E+00  0.1170E+00
     -7.279  0.0000E+00  0.0000E+00  0.1190E+00  0.1190E+00
     -7.239  0.0000E+00  0.0000E+00  0.1220E+00  0.1220E+00
     -7.200  0.0000E+00  0.0000E+00  0.1250E+00  0.1250E+00
     -7.160  0.0000E+00  0.9633E-05  0.1290E+00  0.1280E+00
     -7.120  0.0000E+00  0.0000E+00  0.1310E+00  0.1310E+00
     -7.080  0.0000E+00  0.0000E+00  0.1360E+00  0.1350E+00
     -7.040  0.0000E+00  0.1394E-17  0.1400E+00  0.1390E+00
     -7.000  0.0000E+00  0.0000E+00  0.1440E+00  0.1430E+00
     -6.961  0.0000E+00  0.0000E+00  0.1480E+00  0.1470E+00
     -6.921  0.0000E+00  0.0000E+00  0.1530E+00  0.1510E+00
     -6.881  0.0000E+00  0.5885E-06  0.1570E+00  0.1560E+00
     -6.841  0.0000E+00  0.2511E-01  0.1610E+00  0.1600E+00
     -6.801  0.0000E+00  0.0000E+00  0.1650E+00  0.1640E+00
     -6.761  0.0000E+00  0.2511E-01  0.1690E+00  0.1690E+00
     -6.722  0.0000E+00  0.0000E+00  0.1740E+00  0.1730E+00
     -6.682  0.0000E+00  0.0000E+00  0.1770E+00  0.1770E+00
     -6.642  0.0000E+00  0.2511E-01  0.1800E+00  0.1800E+00
     -6.602  0.0000E+00  0.0000E+00  0.1860E+00  0.1840E+00
     -6.562  0.0000E+00  0.1146E-11  0.1900E+00  0.1890E+00
     -6.523  0.0000E+00  0.2538E-09  0.1940E+00  0.1930E+00
     -6.483  0.4709E-05  0.0000E+00  0.1970E+00  0.1970E+00
     -6.443  0.0000E+00  0.0000E+00  0.2010E+00  0.2010E+00
     -6.403  0.0000E+00  0.1079E-08  0.2060E+00  0.2050E+00
     -6.363  0.0000E+00  0.0000E+00  0.2080E+00  0.2080E+00
     -6.323  0.0000E+00  0.0000E+00  0.2110E+00  0.2100E+00
     -6.284  0.0000E+00  0.0000E+00  0.2120E+00  0.2120E+00
     -6.244  0.0000E+00  0.0000E+00  0.2160E+00  0.2150E+00
     -6.204  0.0000E+00  0.0000E+00  0.2170E+00  0.2170E+00
     -6.164  0.0000E+00  0.0000E+00  0.2190E+00  0.2190E+00
     -6.124  0.0000E+00  0.0000E+00  0.2210E+00  0.2200E+00
     -6.084  0.0000E+00  0.0000E+00  0.2210E+00  0.2210E+00
     -6.045  0.0000E+00  0.0000E+00  0.2210E+00  0.2210E+00
     -6.005  0.0000E+00  0.0000E+00  0.2210E+00  0.2210E+00
     -5.965  0.0000E+00  0.0000E+00  0.2220E+00  0.2210E+00
     -5.925  0.0000E+00  0.0000E+00  0.2220E+00  0.2220E+00
     -5.885  0.0000E+00  0.0000E+00  0.2220E+00  0.2220E+00
     -5.846  0.0000E+00  0.0000E+00  0.2230E+00  0.2220E+00
     -5.806  0.0000E+00  0.0000E+00  0.2230E+00  0.2230E+00
     -5.766  0.0000E+00  0.0000E+00  0.2230E+00  0.2230E+00
     -5.726  0.0000E+00  0.0000E+00  0.2230E+00  0.2230E+00
     -5.686  0.0000E+00  0.0000E+00  0.2240E+00  0.2240E+00
     -5.646  0.0000E+00  0.0000E+00  0.2240E+00  0.2240E+00
     -5.607  0.0000E+00  0.0000E+00  0.2240E+00  0.2240E+00
     -5.567  0.0000E+00  0.0000E+00  0.2240E+00  0.2240E+00
     -5.527  0.0000E+00  0.0000E+00  0.2240E+00  0.2240E+00
     -5.487  0.0000E+00  0.0000E+00  0.2240E+00  0.2240E+00
     -5.447  0.0000E+00  0.0000E+00  0.2240E+00  0.2240E+00
     -5.407  0.0000E+00  0.0000E+00  0.2240E+00  0.2240E+00
     -5.368  0.0000E+00  0.0000E+00  0.2250E+00  0.2250E+00
     -5.328  0.0000E+00  0.0000E+00  0.2250E+00  0.2250E+00
     -5.288  0.0000E+00  0.0000E+00  0.2260E+00  0.2250E+00
     -5.248  0.0000E+00  0.0000E+00  0.2260E+00  0.2260E+00
     -5.208  0.0000E+00  0.0000E+00  0.2260E+00  0.2260E+00
     -5.168  0.0000E+00  0.0000E+00  0.2260E+00  0.2260E+00
     -5.129  0.0000E+00  0.0000E+00  0.2260E+00  0.2260E+00
     -5.089  0.0000E+00  0.0000E+00  0.2260E+00  0.2260E+00
     -5.049  0.0000E+00  0.0000E+00  0.2270E+00  0.2260E+00
     -5.009  0.0000E+00  0.0000E+00  0.2270E+00  0.2270E+00
     -4.969  0.0000E+00  0.0000E+00  0.2270E+00  0.2270E+00
     -4.930  0.0000E+00  0.0000E+00  0.2280E+00  0.2270E+00
     -4.890  0.0000E+00  0.0000E+00  0.2280E+00  0.2280E+00
     -4.850  0.0000E+00  0.0000E+00  0.2280E+00  0.2280E+00
     -4.810  0.0000E+00  0.0000E+00  0.2280E+00  0.2280E+00
     -4.770  0.0000E+00  0.0000E+00  0.2280E+00  0.2280E+00
     -4.730  0.0000E+00  0.0000E+00  0.2280E+00  0.2280E+00
     -4.691  0.0000E+00  0.0000E+00  0.2290E+00  0.2280E+00
     -4.651  0.0000E+00  0.0000E+00  0.2290E+00  0.2290E+00
     -4.611  0.0000E+00  0.0000E+00  0.2290E+00  0.2290E+00
     -4.571  0.0000E+00  0.0000E+00  0.2290E+00  0.2290E+00
     -4.531  0.0000E+00  0.0000E+00  0.2290E+00  0.2290E+00
     -4.491  0.0000E+00  0.0000E+00  0.2290E+00  0.2290E+00
     -4.452  0.0000E+00  0.0000E+00  0.2300E+00  0.2300E+00
     -4.412  0.0000E+00  0.0000E+00  0.2300E+00  0.2300E+00
     -4.372  0.0000E+00  0.0000E+00  0.2300E+00  0.2300E+00
     -4.332  0.0000E+00  0.0000E+00  0.2300E+00  0.2300E+00
     -4.292  0.0000E+00  0.0000E+00  0.2300E+00  0.2300E+00
     -4.253  0.0000E+00  0.0000E+00  0.2310E+00  0.2310E+00
     -4.213  0.0000E+00  0.0000E+00  0.2310E+00  0.2310E+00
     -4.173  0.0000E+00  0.0000E+00  0.2310E+00  0.2310E+00
     -4.133  0.0000E+00  0.0000E+00  0.2320E+00  0.2320E+00
     -4.093  0.0000E+00  0.0000E+00  0.2330E+00  0.2330E+00
     -4.053  0.0000E+00  0.0000E+00  0.2330E+00  0.2330E+00
     -4.014  0.0000E+00  0.0000E+00  0.2330E+00  0.2330E+00
     -3.974  0.0000E+00  0.0000E+00  0.2340E+00  0.2330E+00
     -3.934  0.0000E+00  0.0000E+00  0.2340E+00  0.2340E+00
     -3.894  0.0000E+00  0.0000E+00  0.2340E+00  0.2340E+00
     -3.854  0.0000E+00  0.0000E+00  0.2340E+00  0.2340E+00
     -3.814  0.0000E+00  0.0000E+00  0.2350E+00  0.2350E+00
     -3.775  0.0000E+00  0.0000E+00  0.2350E+00  0.2350E+00
     -3.735  0.0000E+00  0.0000E+00  0.2350E+00  0.2350E+00
     -3.695  0.0000E+00  0.0000E+00  0.2350E+00  0.2350E+00
     -3.655  0.0000E+00  0.0000E+00  0.2360E+00  0.2360E+00
     -3.615  0.0000E+00  0.0000E+00  0.2360E+00  0.2360E+00
     -3.576  0.0000E+00  0.0000E+00  0.2360E+00  0.2360E+00
     -3.536  0.0000E+00  0.0000E+00  0.2360E+00  0.2360E+00
     -3.496  0.0000E+00  0.0000E+00  0.2360E+00  0.2360E+00
     -3.456  0.0000E+00  0.0000E+00  0.2360E+00  0.2360E+00
     -3.416  0.0000E+00  0.0000E+00  0.2370E+00  0.2360E+00
     -3.376  0.0000E+00  0.0000E+00  0.2370E+00  0.2360E+00
     -3.337  0.0000E+00  0.0000E+00  0.2370E+00  0.2370E+00
     -3.297  0.0000E+00  0.0000E+00  0.2370E+00  0.2370E+00
     -3.257  0.0000E+00  0.0000E+00  0.2380E+00  0.2380E+00
     -3.217  0.0000E+00  0.0000E+00  0.2380E+00  0.2380E+00
     -3.177  0.0000E+00  0.0000E+00  0.2380E+00  0.2380E+00
     -3.137  0.0000E+00  0.0000E+00  0.2380E+00  0.2380E+00
     -3.098  0.0000E+00  0.0000E+00  0.2380E+00  0.2380E+00
     -3.058  0.0000E+00  0.0000E+00  0.2380E+00  0.2380E+00
     -3.018  0.0000E+00  0.0000E+00  0.2400E+00  0.2390E+00
     -2.978  0.0000E+00  0.0000E+00  0.2400E+00  0.2400E+00
     -2.938  0.0000E+00  0.0000E+00  0.2400E+00  0.2400E+00
     -2.898  0.0000E+00  0.0000E+00  0.2400E+00  0.2400E+00
     -2.859  0.0000E+00  0.0000E+00  0.2410E+00  0.2410E+00
     -2.819  0.0000E+00  0.0000E+00  0.2410E+00  0.2410E+00
     -2.779  0.0000E+00  0.0000E+00  0.2420E+00  0.2410E+00
     -2.739  0.0000E+00  0.0000E+00  0.2420E+00  0.2420E+00
     -2.699  0.0000E+00  0.0000E+00  0.2420E+00  0.2420E+00
     -2.660  0.0000E+00  0.0000E+00  0.2430E+00  0.2420E+00
     -2.620  0.0000E+00  0.0000E+00  0.2430E+00  0.2430E+00
     -2.580  0.0000E+00  0.0000E+00  0.2430E+00  0.2430E+00
     -2.540  0.0000E+00  0.0000E+00  0.2440E+00  0.2440E+00
     -2.500  0.0000E+00  0.0000E+00  0.2440E+00  0.2440E+00
     -2.460  0.2511E-01  0.0000E+00  0.2450E+00  0.2440E+00
     -2.421  0.0000E+00  0.0000E+00  0.2450E+00  0.2450E+00
     -2.381  0.0000E+00  0.0000E+00  0.2450E+00  0.2450E+00
     -2.341  0.0000E+00  0.0000E+00  0.2450E+00  0.2450E+00
     -2.301  0.0000E+00  0.0000E+00  0.2450E+00  0.2450E+00
     -2.261  0.0000E+00  0.0000E+00  0.2450E+00  0.2450E+00
     -2.221  0.0000E+00  0.2511E-01  0.2460E+00  0.2460E+00
     -2.182  0.0000E+00  0.0000E+00  0.2470E+00  0.2460E+00
     -2.142  0.0000E+00  0.0000E+00  0.2470E+00  0.2470E+00
     -2.102  0.0000E+00  0.0000E+00  0.2470E+00  0.2470E+00
     -2.062  0.0000E+00  0.0000E+00  0.2480E+00  0.2480E+00
     -2.022  0.0000E+00  0.0000E+00  0.2480E+00  0.2480E+00
     -1.983  0.0000E+00  0.0000E+00  0.2490E+00  0.2480E+00
     -1.943  0.0000E+00  0.0000E+00  0.2490E+00  0.2490E+00
     -1.903  0.0000E+00  0.0000E+00  0.2500E+00  0.2490E+00
     -1.863  0.0000E+00  0.0000E+00  0.2510E+00  0.2500E+00
     -1.823  0.0000E+00  0.0000E+00  0.2510E+00  0.2510E+00
     -1.783  0.0000E+00  0.0000E+00  0.2510E+00  0.2510E+00
     -1.744  0.0000E+00  0.0000E+00  0.2510E+00  0.2510E+00
     -1.704  0.0000E+00  0.0000E+00  0.2520E+00  0.2510E+00
     -1.664  0.0000E+00  0.0000E+00  0.2520E+00  0.2520E+00
     -1.624  0.0000E+00  0.0000E+00  0.2530E+00  0.2520E+00
     -1.584  0.0000E+00  0.0000E+00  0.2530E+00  0.2530E+00
     -1.544  0.0000E+00  0.0000E+00  0.2540E+00  0.2530E+00
     -1.505  0.0000E+00  0.0000E+00  0.2540E+00  0.2540E+00
     -1.465  0.0000E+00  0.0000E+00  0.2540E+00  0.2540E+00
     -1.425  0.0000E+00  0.0000E+00  0.2540E+00  0.2540E+00
     -1.385  0.0000E+00  0.0000E+00  0.2550E+00  0.2550E+00
     -1.345  0.0000E+00  0.0000E+00  0.2550E+00  0.2550E+00
     -1.305  0.0000E+00  0.0000E+00  0.2560E+00  0.2550E+00
     -1.266  0.0000E+00  0.0000E+00  0.2560E+00  0.2560E+00
     -1.226  0.0000E+00  0.0000E+00  0.2570E+00  0.2560E+00
     -1.186  0.0000E+00  0.0000E+00  0.2570E+00  0.2570E+00
     -1.146  0.0000E+00  0.0000E+00  0.2580E+00  0.2580E+00
     -1.106  0.0000E+00  0.0000E+00  0.2580E+00  0.2580E+00
     -1.067  0.0000E+00  0.0000E+00  0.2590E+00  0.2580E+00
     -1.027  0.0000E+00  0.0000E+00  0.2600E+00  0.2600E+00
     -0.987  0.0000E+00  0.0000E+00  0.2600E+00  0.2600E+00
     -0.947  0.0000E+00  0.0000E+00  0.2600E+00  0.2600E+00
     -0.907  0.0000E+00  0.0000E+00  0.2610E+00  0.2600E+00
     -0.867  0.0000E+00  0.0000E+00  0.2610E+00  0.2610E+00
     -0.828  0.0000E+00  0.0000E+00  0.2610E+00  0.2610E+00
     -0.788  0.0000E+00  0.0000E+00  0.2620E+00  0.2610E+00
     -0.748  0.0000E+00  0.0000E+00  0.2630E+00  0.2620E+00
     -0.708  0.0000E+00  0.0000E+00  0.2640E+00  0.2640E+00
     -0.668  0.0000E+00  0.0000E+00  0.2640E+00  0.2640E+00
     -0.628  0.0000E+00  0.0000E+00  0.2650E+00  0.2640E+00
     -0.589  0.0000E+00  0.0000E+00  0.2660E+00  0.2650E+00
     -0.549  0.0000E+00  0.0000E+00  0.2660E+00  0.2660E+00
     -0.509  0.0000E+00  0.0000E+00  0.2660E+00  0.2660E+00
     -0.469  0.0000E+00  0.0000E+00  0.2680E+00  0.2660E+00
     -0.429  0.0000E+00  0.0000E+00  0.2680E+00  0.2680E+00
     -0.390  0.0000E+00  0.0000E+00  0.2680E+00  0.2680E+00
     -0.350  0.0000E+00  0.0000E+00  0.2680E+00  0.2680E+00
     -0.310  0.0000E+00  0.0000E+00  0.2680E+00  0.2680E+00
     -0.270  0.0000E+00  0.0000E+00  0.2690E+00  0.2680E+00
     -0.230  0.0000E+00  0.0000E+00  0.2700E+00  0.2690E+00
     -0.190  0.0000E+00  0.0000E+00  0.2700E+00  0.2700E+00
     -0.151  0.0000E+00  0.0000E+00  0.2710E+00  0.2700E+00
     -0.111  0.0000E+00  0.0000E+00  0.2710E+00  0.2710E+00
     -0.071  0.0000E+00  0.0000E+00  0.2720E+00  0.2710E+00
     -0.031  0.0000E+00  0.0000E+00  0.2720E+00  0.2720E+00
      0.009  0.0000E+00  0.0000E+00  0.2720E+00  0.2720E+00
      0.049  0.0000E+00  0.0000E+00  0.2730E+00  0.2720E+00
      0.088  0.0000E+00  0.2511E-01  0.2740E+00  0.2740E+00
      0.128  0.0000E+00  0.0000E+00  0.2740E+00  0.2740E+00
      0.168  0.0000E+00  0.0000E+00  0.2740E+00  0.2740E+00
      0.208  0.0000E+00  0.0000E+00  0.2750E+00  0.2740E+00
      0.248  0.0000E+00  0.0000E+00  0.2750E+00  0.2750E+00
      0.288  0.0000E+00  0.0000E+00  0.2760E+00  0.2750E+00
      0.327  0.0000E+00  0.0000E+00  0.2760E+00  0.2760E+00
      0.367  0.0000E+00  0.0000E+00  0.2770E+00  0.2770E+00
      0.407  0.0000E+00  0.0000E+00  0.2780E+00  0.2780E+00
      0.447  0.0000E+00  0.0000E+00  0.2790E+00  0.2780E+00
      0.487  0.0000E+00  0.0000E+00  0.2800E+00  0.2790E+00
      0.526  0.0000E+00  0.0000E+00  0.2800E+00  0.2800E+00
      0.566  0.0000E+00  0.0000E+00  0.2810E+00  0.2810E+00
      0.606  0.0000E+00  0.2511E-01  0.2820E+00  0.2820E+00
      0.646  0.0000E+00  0.0000E+00  0.2830E+00  0.2830E+00
      0.686  0.0000E+00  0.0000E+00  0.2830E+00  0.2830E+00
      0.726  0.2603E-07  0.1745E-01  0.2840E+00  0.2847E+00
      0.765  0.0000E+00  0.0000E+00  0.2860E+00  0.2850E+00
      0.805  0.0000E+00  0.0000E+00  0.2870E+00  0.2880E+00
      0.845  0.0000E+00  0.0000E+00  0.2890E+00  0.2890E+00
      0.885  0.0000E+00  0.0000E+00  0.2900E+00  0.2900E+00
      0.925  0.0000E+00  0.0000E+00  0.2940E+00  0.2930E+00
      0.965  0.0000E+00  0.0000E+00  0.2950E+00  0.2950E+00
      1.004  0.0000E+00  0.0000E+00  0.2970E+00  0.2970E+00
      1.044  0.0000E+00  0.0000E+00  0.2980E+00  0.2980E+00
      1.084  0.0000E+00  0.0000E+00  0.3000E+00  0.3000E+00
      1.124  0.0000E+00  0.0000E+00  0.3020E+00  0.3020E+00
      1.164  0.0000E+00  0.0000E+00  0.3050E+00  0.3050E+00
      1.203  0.0000E+00  0.0000E+00  0.3070E+00  0.3060E+00
      1.243  0.0000E+00  0.0000E+00  0.3080E+00  0.3080E+00
      1.283  0.0000E+00  0.0000E+00  0.3080E+00  0.3080E+00
      1.323  0.0000E+00  0.0000E+00  0.3080E+00  0.3080E+00
      1.363  0.0000E+00  0.0000E+00  0.3080E+00  0.3080E+00
      1.403  0.0000E+00  0.0000E+00  0.3080E+00  0.3080E+00
      1.442  0.0000E+00  0.0000E+00  0.3080E+00  0.3080E+00
      1.482  0.0000E+00  0.0000E+00  0.3080E+00  0.3080E+00
      1.522  0.0000E+00  0.0000E+00  0.3080E+00  0.3080E+00
      1.562  0.0000E+00  0.0000E+00  0.3080E+00  0.3080E+00
      1.602  0.0000E+00  0.0000E+00  0.3080E+00  0.3080E+00
      1.642  0.0000E+00  0.0000E+00  0.3080E+00  0.3080E+00
      1.681  0.0000E+00  0.0000E+00  0.3080E+00  0.3080E+00
      1.721  0.0000E+00  0.0000E+00  0.3080E+00  0.3080E+00
      1.761  0.0000E+00  0.0000E+00  0.3080E+00  0.3080E+00
