  44  44   0   0
  0.2648095E+03  0.2267055E-08  0.2267055E-08  0.2267055E-08  0.1000000E-15
  1.000000000000000E-004
  CAR 
 unknown system                          
      2.05562663    -10.33415224  301     -3.22809782      1.00000000
    -10.334  0.0000E+00  0.0000E+00  0.0000E+00  0.0000E+00
    -10.293  0.0000E+00  0.0000E+00  0.0000E+00  0.0000E+00
    -10.252  0.0000E+00  0.0000E+00  0.0000E+00  0.0000E+00
    -10.210  0.0000E+00  0.0000E+00  0.0000E+00  0.0000E+00
    -10.169  0.0000E+00  0.0000E+00  0.0000E+00  0.0000E+00
    -10.128  0.0000E+00  0.0000E+00  0.0000E+00  0.0000E+00
    -10.086  0.0000E+00  0.0000E+00  0.0000E+00  0.0000E+00
    -10.045  0.0000E+00  0.0000E+00  0.0000E+00  0.0000E+00
    -10.004  0.0000E+00  0.0000E+00  0.0000E+00  0.0000E+00
     -9.962  0.0000E+00  0.0000E+00  0.0000E+00  0.0000E+00
     -9.921  0.0000E+00  0.0000E+00  0.0000E+00  0.0000E+00
     -9.880  0.0000E+00  0.0000E+00  0.0000E+00  0.0000E+00
     -9.839  0.0000E+00  0.0000E+00  0.0000E+00  0.0000E+00
     -9.797  0.0000E+00  0.0000E+00  0.0000E+00  0.0000E+00
     -9.756  0.0000E+00  0.0000E+00  0.1000E-02  0.0000E+00
     -9.715  0.0000E+00  0.0000E+00  0.1000E-02  0.1000E-02
     -9.673  0.0000E+00  0.0000E+00  0.1000E-02  0.1000E-02
     -9.632  0.0000E+00  0.0000E+00  0.1000E-02  0.1000E-02
     -9.591  0.0000E+00  0.0000E+00  0.1000E-02  0.1000E-02
     -9.549  0.0000E+00  0.0000E+00  0.1000E-02  0.1000E-02
     -9.508  0.0000E+00  0.0000E+00  0.1000E-02  0.1000E-02
     -9.467  0.0000E+00  0.0000E+00  0.1000E-02  0.1000E-02
     -9.426  0.0000E+00  0.0000E+00  0.1000E-02  0.1000E-02
     -9.384  0.0000E+00  0.0000E+00  0.1000E-02  0.1000E-02
     -9.343  0.0000E+00  0.0000E+00  0.1000E-02  0.1000E-02
     -9.302  0.0000E+00  0.0000E+00  0.1000E-02  0.1000E-02
     -9.260  0.0000E+00  0.0000E+00  0.1000E-02  0.1000E-02
     -9.219  0.0000E+00  0.0000E+00  0.2000E-02  0.2000E-02
     -9.178  0.0000E+00  0.0000E+00  0.3000E-02  0.3000E-02
     -9.136  0.0000E+00  0.2421E-01  0.4000E-02  0.4000E-02
     -9.095  0.0000E+00  0.0000E+00  0.5000E-02  0.5000E-02
     -9.054  0.0000E+00  0.0000E+00  0.6000E-02  0.6000E-02
     -9.013  0.0000E+00  0.0000E+00  0.7000E-02  0.7000E-02
     -8.971  0.0000E+00  0.0000E+00  0.8000E-02  0.7000E-02
     -8.930  0.0000E+00  0.0000E+00  0.9000E-02  0.9000E-02
     -8.889  0.0000E+00  0.2255E-01  0.1100E-01  0.9931E-02
     -8.847  0.0000E+00  0.0000E+00  0.1200E-01  0.1200E-01
     -8.806  0.0000E+00  0.0000E+00  0.1400E-01  0.1400E-01
     -8.765  0.0000E+00  0.0000E+00  0.1600E-01  0.1500E-01
     -8.723  0.0000E+00  0.0000E+00  0.1700E-01  0.1700E-01
     -8.682  0.0000E+00  0.0000E+00  0.2000E-01  0.1900E-01
     -8.641  0.0000E+00  0.0000E+00  0.2200E-01  0.2200E-01
     -8.600  0.0000E+00  0.0000E+00  0.2600E-01  0.2400E-01
     -8.558  0.0000E+00  0.0000E+00  0.2900E-01  0.2800E-01
     -8.517  0.0000E+00  0.0000E+00  0.3100E-01  0.2900E-01
     -8.476  0.0000E+00  0.0000E+00  0.3300E-01  0.3200E-01
     -8.434  0.2421E-01  0.7231E-10  0.3600E-01  0.3400E-01
     -8.393  0.0000E+00  0.0000E+00  0.4000E-01  0.3800E-01
     -8.352  0.0000E+00  0.0000E+00  0.4100E-01  0.4000E-01
     -8.310  0.0000E+00  0.3939E-05  0.4500E-01  0.4300E-01
     -8.269  0.0000E+00  0.0000E+00  0.4800E-01  0.4600E-01
     -8.228  0.0000E+00  0.0000E+00  0.5100E-01  0.5100E-01
     -8.187  0.0000E+00  0.0000E+00  0.5300E-01  0.5300E-01
     -8.145  0.0000E+00  0.0000E+00  0.5700E-01  0.5600E-01
     -8.104  0.0000E+00  0.0000E+00  0.6000E-01  0.5900E-01
     -8.063  0.0000E+00  0.0000E+00  0.6200E-01  0.6100E-01
     -8.021  0.2421E-01  0.0000E+00  0.6500E-01  0.6300E-01
     -7.980  0.0000E+00  0.0000E+00  0.6700E-01  0.6600E-01
     -7.939  0.0000E+00  0.0000E+00  0.7100E-01  0.6900E-01
     -7.897  0.2421E-01  0.0000E+00  0.7400E-01  0.7200E-01
     -7.856  0.0000E+00  0.0000E+00  0.7600E-01  0.7500E-01
     -7.815  0.0000E+00  0.0000E+00  0.7700E-01  0.7700E-01
     -7.774  0.0000E+00  0.0000E+00  0.8000E-01  0.7900E-01
     -7.732  0.0000E+00  0.0000E+00  0.8300E-01  0.8300E-01
     -7.691  0.0000E+00  0.0000E+00  0.8700E-01  0.8500E-01
     -7.650  0.0000E+00  0.0000E+00  0.9000E-01  0.8900E-01
     -7.608  0.2317E-01  0.1213E-01  0.9396E-01  0.9150E-01
     -7.567  0.0000E+00  0.0000E+00  0.9600E-01  0.9400E-01
     -7.526  0.0000E+00  0.0000E+00  0.1000E+00  0.9900E-01
     -7.485  0.0000E+00  0.0000E+00  0.1020E+00  0.1020E+00
     -7.443  0.0000E+00  0.0000E+00  0.1050E+00  0.1040E+00
     -7.402  0.0000E+00  0.0000E+00  0.1080E+00  0.1080E+00
     -7.361  0.0000E+00  0.0000E+00  0.1100E+00  0.1100E+00
     -7.319  0.2421E-01  0.0000E+00  0.1140E+00  0.1130E+00
     -7.278  0.0000E+00  0.0000E+00  0.1170E+00  0.1160E+00
     -7.237  0.0000E+00  0.0000E+00  0.1200E+00  0.1190E+00
     -7.195  0.0000E+00  0.0000E+00  0.1220E+00  0.1210E+00
     -7.154  0.0000E+00  0.0000E+00  0.1260E+00  0.1250E+00
     -7.113  0.0000E+00  0.0000E+00  0.1290E+00  0.1270E+00
     -7.072  0.0000E+00  0.0000E+00  0.1320E+00  0.1310E+00
     -7.030  0.0000E+00  0.0000E+00  0.1340E+00  0.1330E+00
     -6.989  0.0000E+00  0.0000E+00  0.1380E+00  0.1370E+00
     -6.948  0.0000E+00  0.7963E-05  0.1400E+00  0.1390E+00
     -6.906  0.0000E+00  0.0000E+00  0.1450E+00  0.1420E+00
     -6.865  0.0000E+00  0.0000E+00  0.1490E+00  0.1480E+00
     -6.824  0.0000E+00  0.0000E+00  0.1520E+00  0.1510E+00
     -6.782  0.0000E+00  0.0000E+00  0.1560E+00  0.1550E+00
     -6.741  0.9182E-04  0.0000E+00  0.1590E+00  0.1580E+00
     -6.700  0.0000E+00  0.0000E+00  0.1650E+00  0.1630E+00
     -6.659  0.0000E+00  0.0000E+00  0.1690E+00  0.1680E+00
     -6.617  0.0000E+00  0.2421E-01  0.1740E+00  0.1730E+00
     -6.576  0.0000E+00  0.1816E-02  0.1790E+00  0.1771E+00
     -6.535  0.0000E+00  0.0000E+00  0.1840E+00  0.1830E+00
     -6.493  0.0000E+00  0.0000E+00  0.1900E+00  0.1880E+00
     -6.452  0.0000E+00  0.0000E+00  0.1930E+00  0.1910E+00
     -6.411  0.0000E+00  0.0000E+00  0.1970E+00  0.1950E+00
     -6.369  0.0000E+00  0.0000E+00  0.2010E+00  0.2000E+00
     -6.328  0.0000E+00  0.0000E+00  0.2050E+00  0.2050E+00
     -6.287  0.0000E+00  0.0000E+00  0.2090E+00  0.2080E+00
     -6.246  0.0000E+00  0.0000E+00  0.2130E+00  0.2120E+00
     -6.204  0.0000E+00  0.0000E+00  0.2160E+00  0.2150E+00
     -6.163  0.7767E-02  0.0000E+00  0.2203E+00  0.2180E+00
     -6.122  0.2407E-01  0.0000E+00  0.2230E+00  0.2220E+00
     -6.080  0.0000E+00  0.0000E+00  0.2230E+00  0.2230E+00
     -6.039  0.0000E+00  0.1141E-07  0.2250E+00  0.2240E+00
     -5.998  0.0000E+00  0.0000E+00  0.2260E+00  0.2250E+00
     -5.956  0.0000E+00  0.0000E+00  0.2260E+00  0.2260E+00
     -5.915  0.0000E+00  0.0000E+00  0.2270E+00  0.2260E+00
     -5.874  0.0000E+00  0.0000E+00  0.2270E+00  0.2270E+00
     -5.833  0.0000E+00  0.0000E+00  0.2270E+00  0.2270E+00
     -5.791  0.0000E+00  0.0000E+00  0.2270E+00  0.2270E+00
     -5.750  0.0000E+00  0.0000E+00  0.2280E+00  0.2270E+00
     -5.709  0.0000E+00  0.0000E+00  0.2290E+00  0.2280E+00
     -5.667  0.0000E+00  0.0000E+00  0.2290E+00  0.2290E+00
     -5.626  0.0000E+00  0.0000E+00  0.2290E+00  0.2290E+00
     -5.585  0.0000E+00  0.0000E+00  0.2290E+00  0.2290E+00
     -5.543  0.0000E+00  0.0000E+00  0.2290E+00  0.2290E+00
     -5.502  0.0000E+00  0.0000E+00  0.2290E+00  0.2290E+00
     -5.461  0.0000E+00  0.0000E+00  0.2290E+00  0.2290E+00
     -5.420  0.0000E+00  0.0000E+00  0.2290E+00  0.2290E+00
     -5.378  0.0000E+00  0.0000E+00  0.2290E+00  0.2290E+00
     -5.337  0.0000E+00  0.0000E+00  0.2290E+00  0.2290E+00
     -5.296  0.0000E+00  0.0000E+00  0.2290E+00  0.2290E+00
     -5.254  0.0000E+00  0.0000E+00  0.2290E+00  0.2290E+00
     -5.213  0.0000E+00  0.0000E+00  0.2300E+00  0.2290E+00
     -5.172  0.0000E+00  0.0000E+00  0.2300E+00  0.2300E+00
     -5.130  0.0000E+00  0.0000E+00  0.2300E+00  0.2300E+00
     -5.089  0.0000E+00  0.0000E+00  0.2310E+00  0.2300E+00
     -5.048  0.0000E+00  0.0000E+00  0.2310E+00  0.2310E+00
     -5.007  0.0000E+00  0.0000E+00  0.2310E+00  0.2310E+00
     -4.965  0.0000E+00  0.0000E+00  0.2310E+00  0.2310E+00
     -4.924  0.0000E+00  0.0000E+00  0.2320E+00  0.2320E+00
     -4.883  0.0000E+00  0.0000E+00  0.2320E+00  0.2320E+00
     -4.841  0.0000E+00  0.0000E+00  0.2320E+00  0.2320E+00
     -4.800  0.0000E+00  0.0000E+00  0.2320E+00  0.2320E+00
     -4.759  0.0000E+00  0.0000E+00  0.2320E+00  0.2320E+00
     -4.717  0.0000E+00  0.0000E+00  0.2320E+00  0.2320E+00
     -4.676  0.0000E+00  0.0000E+00  0.2330E+00  0.2320E+00
     -4.635  0.0000E+00  0.0000E+00  0.2340E+00  0.2330E+00
     -4.594  0.0000E+00  0.0000E+00  0.2340E+00  0.2340E+00
     -4.552  0.0000E+00  0.0000E+00  0.2340E+00  0.2340E+00
     -4.511  0.0000E+00  0.0000E+00  0.2360E+00  0.2340E+00
     -4.470  0.0000E+00  0.1731E-04  0.2360E+00  0.2350E+00
     -4.428  0.0000E+00  0.0000E+00  0.2360E+00  0.2360E+00
     -4.387  0.0000E+00  0.0000E+00  0.2360E+00  0.2360E+00
     -4.346  0.0000E+00  0.0000E+00  0.2360E+00  0.2360E+00
     -4.304  0.0000E+00  0.6452E-14  0.2370E+00  0.2360E+00
     -4.263  0.0000E+00  0.0000E+00  0.2370E+00  0.2370E+00
     -4.222  0.0000E+00  0.0000E+00  0.2370E+00  0.2370E+00
     -4.181  0.0000E+00  0.0000E+00  0.2370E+00  0.2370E+00
     -4.139  0.0000E+00  0.0000E+00  0.2370E+00  0.2370E+00
     -4.098  0.0000E+00  0.0000E+00  0.2370E+00  0.2370E+00
     -4.057  0.0000E+00  0.0000E+00  0.2370E+00  0.2370E+00
     -4.015  0.0000E+00  0.0000E+00  0.2370E+00  0.2370E+00
     -3.974  0.0000E+00  0.0000E+00  0.2370E+00  0.2370E+00
     -3.933  0.0000E+00  0.0000E+00  0.2370E+00  0.2370E+00
     -3.891  0.0000E+00  0.0000E+00  0.2370E+00  0.2370E+00
     -3.850  0.0000E+00  0.0000E+00  0.2370E+00  0.2370E+00
     -3.809  0.0000E+00  0.0000E+00  0.2370E+00  0.2370E+00
     -3.768  0.0000E+00  0.0000E+00  0.2380E+00  0.2370E+00
     -3.726  0.0000E+00  0.0000E+00  0.2380E+00  0.2380E+00
     -3.685  0.0000E+00  0.0000E+00  0.2380E+00  0.2380E+00
     -3.644  0.0000E+00  0.0000E+00  0.2390E+00  0.2380E+00
     -3.602  0.0000E+00  0.0000E+00  0.2390E+00  0.2390E+00
     -3.561  0.0000E+00  0.0000E+00  0.2400E+00  0.2390E+00
     -3.520  0.0000E+00  0.0000E+00  0.2410E+00  0.2400E+00
     -3.478  0.0000E+00  0.0000E+00  0.2410E+00  0.2410E+00
     -3.437  0.0000E+00  0.0000E+00  0.2410E+00  0.2410E+00
     -3.396  0.0000E+00  0.0000E+00  0.2410E+00  0.2410E+00
     -3.355  0.0000E+00  0.0000E+00  0.2410E+00  0.2410E+00
     -3.313  0.1040E-01  0.0000E+00  0.2414E+00  0.2410E+00
     -3.272  0.0000E+00  0.0000E+00  0.2420E+00  0.2410E+00
     -3.231  0.0000E+00  0.0000E+00  0.2430E+00  0.2410E+00
     -3.189  0.0000E+00  0.0000E+00  0.2430E+00  0.2420E+00
     -3.148  0.0000E+00  0.0000E+00  0.2430E+00  0.2420E+00
     -3.107  0.0000E+00  0.0000E+00  0.2430E+00  0.2430E+00
     -3.065  0.0000E+00  0.0000E+00  0.2430E+00  0.2430E+00
     -3.024  0.0000E+00  0.0000E+00  0.2430E+00  0.2430E+00
     -2.983  0.0000E+00  0.0000E+00  0.2440E+00  0.2430E+00
     -2.942  0.0000E+00  0.0000E+00  0.2440E+00  0.2440E+00
     -2.900  0.0000E+00  0.0000E+00  0.2450E+00  0.2440E+00
     -2.859  0.0000E+00  0.0000E+00  0.2460E+00  0.2450E+00
     -2.818  0.0000E+00  0.0000E+00  0.2460E+00  0.2460E+00
     -2.776  0.0000E+00  0.0000E+00  0.2460E+00  0.2460E+00
     -2.735  0.2421E-01  0.0000E+00  0.2470E+00  0.2460E+00
     -2.694  0.0000E+00  0.1804E-05  0.2470E+00  0.2460E+00
     -2.652  0.0000E+00  0.0000E+00  0.2470E+00  0.2470E+00
     -2.611  0.0000E+00  0.0000E+00  0.2470E+00  0.2470E+00
     -2.570  0.0000E+00  0.0000E+00  0.2480E+00  0.2470E+00
     -2.529  0.0000E+00  0.0000E+00  0.2490E+00  0.2480E+00
     -2.487  0.0000E+00  0.0000E+00  0.2490E+00  0.2490E+00
     -2.446  0.0000E+00  0.0000E+00  0.2490E+00  0.2490E+00
     -2.405  0.0000E+00  0.0000E+00  0.2490E+00  0.2490E+00
     -2.363  0.0000E+00  0.0000E+00  0.2490E+00  0.2490E+00
     -2.322  0.0000E+00  0.0000E+00  0.2490E+00  0.2490E+00
     -2.281  0.0000E+00  0.0000E+00  0.2500E+00  0.2490E+00
     -2.239  0.0000E+00  0.0000E+00  0.2500E+00  0.2490E+00
     -2.198  0.0000E+00  0.0000E+00  0.2510E+00  0.2500E+00
     -2.157  0.0000E+00  0.0000E+00  0.2510E+00  0.2510E+00
     -2.116  0.0000E+00  0.0000E+00  0.2510E+00  0.2510E+00
     -2.074  0.0000E+00  0.0000E+00  0.2520E+00  0.2510E+00
     -2.033  0.0000E+00  0.0000E+00  0.2540E+00  0.2520E+00
     -1.992  0.0000E+00  0.0000E+00  0.2540E+00  0.2540E+00
     -1.950  0.0000E+00  0.0000E+00  0.2540E+00  0.2540E+00
     -1.909  0.0000E+00  0.0000E+00  0.2540E+00  0.2540E+00
     -1.868  0.0000E+00  0.0000E+00  0.2540E+00  0.2540E+00
     -1.827  0.0000E+00  0.0000E+00  0.2540E+00  0.2540E+00
     -1.785  0.0000E+00  0.0000E+00  0.2540E+00  0.2540E+00
     -1.744  0.0000E+00  0.0000E+00  0.2550E+00  0.2540E+00
     -1.703  0.0000E+00  0.0000E+00  0.2570E+00  0.2540E+00
     -1.661  0.0000E+00  0.2268E-01  0.2580E+00  0.2559E+00
     -1.620  0.0000E+00  0.0000E+00  0.2580E+00  0.2570E+00
     -1.579  0.0000E+00  0.0000E+00  0.2580E+00  0.2580E+00
     -1.537  0.0000E+00  0.0000E+00  0.2580E+00  0.2580E+00
     -1.496  0.0000E+00  0.0000E+00  0.2580E+00  0.2580E+00
     -1.455  0.0000E+00  0.0000E+00  0.2580E+00  0.2580E+00
     -1.414  0.0000E+00  0.0000E+00  0.2590E+00  0.2580E+00
     -1.372  0.0000E+00  0.0000E+00  0.2590E+00  0.2590E+00
     -1.331  0.0000E+00  0.0000E+00  0.2600E+00  0.2590E+00
     -1.290  0.0000E+00  0.0000E+00  0.2610E+00  0.2600E+00
     -1.248  0.0000E+00  0.0000E+00  0.2610E+00  0.2610E+00
     -1.207  0.0000E+00  0.0000E+00  0.2610E+00  0.2610E+00
     -1.166  0.0000E+00  0.0000E+00  0.2610E+00  0.2610E+00
     -1.124  0.0000E+00  0.0000E+00  0.2620E+00  0.2610E+00
     -1.083  0.0000E+00  0.0000E+00  0.2630E+00  0.2620E+00
     -1.042  0.0000E+00  0.0000E+00  0.2630E+00  0.2630E+00
     -1.001  0.0000E+00  0.0000E+00  0.2630E+00  0.2630E+00
     -0.959  0.0000E+00  0.0000E+00  0.2630E+00  0.2630E+00
     -0.918  0.0000E+00  0.0000E+00  0.2650E+00  0.2630E+00
     -0.877  0.0000E+00  0.0000E+00  0.2650E+00  0.2650E+00
     -0.835  0.0000E+00  0.0000E+00  0.2660E+00  0.2650E+00
     -0.794  0.0000E+00  0.0000E+00  0.2670E+00  0.2660E+00
     -0.753  0.0000E+00  0.0000E+00  0.2680E+00  0.2670E+00
     -0.711  0.0000E+00  0.0000E+00  0.2680E+00  0.2680E+00
     -0.670  0.0000E+00  0.0000E+00  0.2690E+00  0.2680E+00
     -0.629  0.0000E+00  0.0000E+00  0.2700E+00  0.2690E+00
     -0.588  0.0000E+00  0.0000E+00  0.2700E+00  0.2700E+00
     -0.546  0.0000E+00  0.0000E+00  0.2700E+00  0.2700E+00
     -0.505  0.0000E+00  0.0000E+00  0.2700E+00  0.2700E+00
     -0.464  0.0000E+00  0.0000E+00  0.2710E+00  0.2700E+00
     -0.422  0.0000E+00  0.0000E+00  0.2710E+00  0.2710E+00
     -0.381  0.0000E+00  0.0000E+00  0.2710E+00  0.2710E+00
     -0.340  0.0000E+00  0.0000E+00  0.2710E+00  0.2710E+00
     -0.298  0.0000E+00  0.0000E+00  0.2720E+00  0.2710E+00
     -0.257  0.0000E+00  0.0000E+00  0.2720E+00  0.2720E+00
     -0.216  0.0000E+00  0.0000E+00  0.2730E+00  0.2720E+00
     -0.175  0.0000E+00  0.0000E+00  0.2730E+00  0.2730E+00
     -0.133  0.0000E+00  0.0000E+00  0.2730E+00  0.2730E+00
     -0.092  0.0000E+00  0.0000E+00  0.2730E+00  0.2730E+00
     -0.051  0.0000E+00  0.0000E+00  0.2740E+00  0.2730E+00
     -0.009  0.0000E+00  0.0000E+00  0.2750E+00  0.2740E+00
      0.032  0.0000E+00  0.0000E+00  0.2760E+00  0.2750E+00
      0.073  0.0000E+00  0.0000E+00  0.2760E+00  0.2760E+00
      0.115  0.0000E+00  0.0000E+00  0.2760E+00  0.2760E+00
      0.156  0.0000E+00  0.0000E+00  0.2760E+00  0.2760E+00
      0.197  0.0000E+00  0.0000E+00  0.2760E+00  0.2760E+00
      0.238  0.0000E+00  0.0000E+00  0.2780E+00  0.2760E+00
      0.280  0.0000E+00  0.0000E+00  0.2780E+00  0.2780E+00
      0.321  0.0000E+00  0.0000E+00  0.2780E+00  0.2780E+00
      0.362  0.2421E-01  0.0000E+00  0.2800E+00  0.2780E+00
      0.404  0.0000E+00  0.0000E+00  0.2800E+00  0.2790E+00
      0.445  0.0000E+00  0.0000E+00  0.2810E+00  0.2800E+00
      0.486  0.0000E+00  0.0000E+00  0.2820E+00  0.2810E+00
      0.528  0.0000E+00  0.0000E+00  0.2820E+00  0.2820E+00
      0.569  0.0000E+00  0.0000E+00  0.2830E+00  0.2820E+00
      0.610  0.0000E+00  0.0000E+00  0.2830E+00  0.2830E+00
      0.651  0.0000E+00  0.0000E+00  0.2850E+00  0.2840E+00
      0.693  0.0000E+00  0.0000E+00  0.2850E+00  0.2850E+00
      0.734  0.0000E+00  0.0000E+00  0.2860E+00  0.2850E+00
      0.775  0.0000E+00  0.0000E+00  0.2880E+00  0.2860E+00
      0.817  0.0000E+00  0.0000E+00  0.2890E+00  0.2880E+00
      0.858  0.0000E+00  0.0000E+00  0.2900E+00  0.2890E+00
      0.899  0.0000E+00  0.0000E+00  0.2910E+00  0.2900E+00
      0.941  0.0000E+00  0.0000E+00  0.2920E+00  0.2910E+00
      0.982  0.0000E+00  0.0000E+00  0.2930E+00  0.2920E+00
      1.023  0.0000E+00  0.0000E+00  0.2950E+00  0.2930E+00
      1.064  0.0000E+00  0.0000E+00  0.2960E+00  0.2950E+00
      1.106  0.0000E+00  0.0000E+00  0.2970E+00  0.2950E+00
      1.147  0.0000E+00  0.0000E+00  0.2990E+00  0.2980E+00
      1.188  0.0000E+00  0.0000E+00  0.3010E+00  0.3000E+00
      1.230  0.0000E+00  0.0000E+00  0.3030E+00  0.3020E+00
      1.271  0.0000E+00  0.0000E+00  0.3060E+00  0.3040E+00
      1.312  0.0000E+00  0.0000E+00  0.3060E+00  0.3060E+00
      1.354  0.0000E+00  0.0000E+00  0.3070E+00  0.3060E+00
      1.395  0.0000E+00  0.0000E+00  0.3090E+00  0.3070E+00
      1.436  0.0000E+00  0.0000E+00  0.3110E+00  0.3090E+00
      1.477  0.0000E+00  0.0000E+00  0.3120E+00  0.3110E+00
      1.519  0.0000E+00  0.0000E+00  0.3120E+00  0.3120E+00
      1.560  0.0000E+00  0.0000E+00  0.3120E+00  0.3120E+00
      1.601  0.0000E+00  0.0000E+00  0.3120E+00  0.3120E+00
      1.643  0.0000E+00  0.0000E+00  0.3120E+00  0.3120E+00
      1.684  0.0000E+00  0.0000E+00  0.3120E+00  0.3120E+00
      1.725  0.0000E+00  0.0000E+00  0.3120E+00  0.3120E+00
      1.767  0.0000E+00  0.0000E+00  0.3120E+00  0.3120E+00
      1.808  0.0000E+00  0.0000E+00  0.3120E+00  0.3120E+00
      1.849  0.0000E+00  0.0000E+00  0.3120E+00  0.3120E+00
      1.890  0.0000E+00  0.0000E+00  0.3120E+00  0.3120E+00
      1.932  0.0000E+00  0.0000E+00  0.3120E+00  0.3120E+00
      1.973  0.0000E+00  0.0000E+00  0.3120E+00  0.3120E+00
      2.014  0.0000E+00  0.0000E+00  0.3120E+00  0.3120E+00
      2.056  0.0000E+00  0.0000E+00  0.3120E+00  0.3120E+00
