<?xml version="1.0" encoding="ISO-8859-1"?>
<modeling>
 <generator>
  <i name="program" type="string">vasp </i>
  <i name="version" type="string">5.3.5  </i>
  <i name="subversion" type="string">31Mar14 (build Feb 01 2018 12:10:03) gamma-only                       parallel </i>
  <i name="platform" type="string">LinuxIFC </i>
  <i name="date" type="string">2019 03 23 </i>
  <i name="time" type="string">21:55:48 </i>
 </generator>
 <incar>
  <i type="string" name="PREC">normal</i>
  <i type="int" name="ISPIN">     2</i>
  <i type="int" name="IBRION">     2</i>
  <i type="int" name="NSW">  1000</i>
  <i type="int" name="ISIF">     2</i>
  <i name="POTIM">      0.10000000</i>
  <i type="logical" name="LPLANE"> T  </i>
  <i type="int" name="ISMEAR">     0</i>
  <i name="SIGMA">      0.00010000</i>
  <i type="logical" name="LWAVE"> F  </i>
  <i type="logical" name="LCHARG"> F  </i>
  <i type="logical" name="LVTOT"> F  </i>
  <i type="string" name="GGA"> PE</i>
 </incar>
 <kpoints>
  <varray name="kpointlist" >
   <v>       0.00000000       0.00000000       0.00000000 </v>
  </varray>
  <varray name="weights" >
   <v>       1.00000000 </v>
  </varray>
 </kpoints>
 <parameters>
  <separator name="general" >
   <i type="string" name="SYSTEM">unknown system</i>
   <i type="logical" name="LCOMPAT"> F  </i>
  </separator>
  <separator name="electronic" >
   <i type="string" name="PREC">normal</i>
   <i name="ENMAX">    249.84400000</i>
   <i name="ENAUG">    412.49600000</i>
   <i name="EDIFF">      0.00010000</i>
   <i type="int" name="IALGO">    38</i>
   <i type="int" name="IWAVPR">    11</i>
   <i type="int" name="NBANDS">   312</i>
   <i name="NELECT">    484.00000000</i>
   <i type="int" name="TURBO">     0</i>
   <i type="int" name="IRESTART">     0</i>
   <i type="int" name="NREBOOT">     0</i>
   <i type="int" name="NMIN">     0</i>
   <i name="EREF">      0.00000000</i>
   <separator name="electronic smearing" >
    <i type="int" name="ISMEAR">     0</i>
    <i name="SIGMA">      0.00010000</i>
    <i name="KSPACING">      0.50000000</i>
    <i type="logical" name="KGAMMA"> T  </i>
   </separator>
   <separator name="electronic projectors" >
    <i type="logical" name="LREAL"> F  </i>
    <v name="ROPT">      0.00000000</v>
    <i type="int" name="LMAXPAW">  -100</i>
    <i type="int" name="LMAXMIX">     2</i>
    <i type="logical" name="NLSPLINE"> F  </i>
   </separator>
   <separator name="electronic startup" >
    <i type="int" name="ISTART">     0</i>
    <i type="int" name="ICHARG">     2</i>
    <i type="int" name="INIWAV">     1</i>
   </separator>
   <separator name="electronic spin" >
    <i type="int" name="ISPIN">     2</i>
    <i type="logical" name="LNONCOLLINEAR"> F  </i>
    <v name="MAGMOM">      1.00000000      1.00000000      1.00000000      1.00000000      1.00000000      1.00000000      1.00000000      1.00000000      1.00000000      1.00000000      1.00000000      1.00000000      1.00000000      1.00000000      1.00000000      1.00000000      1.00000000      1.00000000      1.00000000      1.00000000
      1.00000000      1.00000000      1.00000000      1.00000000      1.00000000      1.00000000      1.00000000      1.00000000      1.00000000      1.00000000      1.00000000      1.00000000      1.00000000      1.00000000      1.00000000      1.00000000      1.00000000      1.00000000      1.00000000      1.00000000
      1.00000000      1.00000000      1.00000000      1.00000000</v>
    <i name="NUPDOWN">     -1.00000000</i>
    <i type="logical" name="LSORBIT"> F  </i>
    <v name="SAXIS">      0.00000000      0.00000000      1.00000000</v>
    <i type="logical" name="LSPIRAL"> F  </i>
    <v name="QSPIRAL">      0.00000000      0.00000000      0.00000000</v>
    <i type="logical" name="LZEROZ"> F  </i>
   </separator>
   <separator name="electronic exchange-correlation" >
    <i type="logical" name="LASPH"> F  </i>
    <i type="logical" name="LMETAGGA"> F  </i>
   </separator>
   <separator name="electronic convergence" >
    <i type="int" name="NELM">    60</i>
    <i type="int" name="NELMDL">    -5</i>
    <i type="int" name="NELMIN">     2</i>
    <i name="ENINI">    249.84400000</i>
    <separator name="electronic convergence detail" >
     <i type="logical" name="LDIAG"> T  </i>
     <i type="logical" name="LSUBROT"> F  </i>
     <i name="WEIMIN">      0.00100000</i>
     <i name="EBREAK">      0.00000008</i>
     <i name="DEPER">      0.30000000</i>
     <i type="int" name="NRMM">     4</i>
     <i name="TIME">      0.40000000</i>
    </separator>
   </separator>
   <separator name="electronic mixer" >
    <i name="AMIX">      0.40000000</i>
    <i name="BMIX">      1.00000000</i>
    <i name="AMIN">      0.10000000</i>
    <i name="AMIX_MAG">      1.60000000</i>
    <i name="BMIX_MAG">      1.00000000</i>
    <separator name="electronic mixer details" >
     <i type="int" name="IMIX">     4</i>
     <i type="int" name="MAXMIX">   -45</i>
     <i name="WC">    100.00000000</i>
     <i type="int" name="INIMIX">     1</i>
     <i type="int" name="MIXPRE">     1</i>
     <i type="int" name="MREMOVE">     5</i>
    </separator>
   </separator>
   <separator name="electronic dipolcorrection" >
    <i type="logical" name="LDIPOL"> F  </i>
    <i type="logical" name="LMONO"> F  </i>
    <i type="int" name="IDIPOL">     0</i>
    <i name="EPSILON">      1.00000000</i>
    <v name="DIPOL">   -100.00000000   -100.00000000   -100.00000000</v>
    <i name="EFIELD">      0.00000000</i>
   </separator>
  </separator>
  <separator name="grids" >
   <i type="int" name="NGX">    96</i>
   <i type="int" name="NGY">    96</i>
   <i type="int" name="NGZ">    96</i>
   <i type="int" name="NGXF">   192</i>
   <i type="int" name="NGYF">   192</i>
   <i type="int" name="NGZF">   192</i>
   <i type="logical" name="ADDGRID"> F  </i>
  </separator>
  <separator name="ionic" >
   <i type="int" name="NSW">  1000</i>
   <i type="int" name="IBRION">     2</i>
   <i type="int" name="ISIF">     2</i>
   <i name="PSTRESS">      0.00000000</i>
   <i name="EDIFFG">      0.00100000</i>
   <i type="int" name="NFREE">     1</i>
   <i name="POTIM">      0.10000000</i>
   <i name="SMASS">     -3.00000000</i>
   <i name="SCALEE">      1.00000000</i>
  </separator>
  <separator name="ionic md" >
   <i name="TEBEG">      0.00010000</i>
   <i name="TEEND">      0.00010000</i>
   <i type="int" name="NBLOCK">     1</i>
   <i type="int" name="KBLOCK">  1000</i>
   <i type="int" name="NPACO">   256</i>
   <i name="APACO">     16.00000000</i>
  </separator>
  <separator name="symmetry" >
   <i type="int" name="ISYM">     2</i>
   <i name="SYMPREC">      0.00001000</i>
  </separator>
  <separator name="dos" >
   <i type="logical" name="LORBIT"> F  </i>
   <v name="RWIGS">     -1.00000000</v>
   <i type="int" name="NEDOS">   301</i>
   <i name="EMIN">     10.00000000</i>
   <i name="EMAX">    -10.00000000</i>
   <i name="EFERMI">      0.00000000</i>
  </separator>
  <separator name="writing" >
   <i type="int" name="NWRITE">     2</i>
   <i type="logical" name="LWAVE"> F  </i>
   <i type="logical" name="LCHARG"> F  </i>
   <i type="logical" name="LPARD"> F  </i>
   <i type="logical" name="LVTOT"> F  </i>
   <i type="logical" name="LVHAR"> F  </i>
   <i type="logical" name="LELF"> F  </i>
   <i type="logical" name="LOPTICS"> F  </i>
   <v name="STM">      0.00000000      0.00000000      0.00000000      0.00000000      0.00000000      0.00000000      0.00000000</v>
  </separator>
  <separator name="performance" >
   <i type="int" name="NPAR">     4</i>
   <i type="int" name="NSIM">     4</i>
   <i type="int" name="NBLK">    -1</i>
   <i type="logical" name="LPLANE"> T  </i>
   <i type="logical" name="LSCALAPACK"> T  </i>
   <i type="logical" name="LSCAAWARE"> F  </i>
   <i type="logical" name="LSCALU"> F  </i>
   <i type="logical" name="LASYNC"> F  </i>
   <i type="logical" name="LORBITALREAL"> F  </i>
  </separator>
  <separator name="miscellaneous" >
   <i type="int" name="IDIOT">     3</i>
   <i type="logical" name="LMUSIC"> F  </i>
   <v name="POMASS">    107.86800000</v>
   <v name="DARWINR">      0.00000000</v>
   <v name="DARWINV">      1.00000000</v>
   <i type="logical" name="LCORR"> T  </i>
  </separator>
  <i type="logical" name="GGA_COMPAT"> T  </i>
  <i type="logical" name="LBERRY"> F  </i>
  <i type="int" name="ICORELEVEL">     0</i>
  <i type="logical" name="LDAU"> F  </i>
  <i type="int" name="I_CONSTRAINED_M">     0</i>
  <separator name="electronic exchange-correlation" >
   <i type="string" name="GGA">PE</i>
   <i type="int" name="VOSKOWN">     0</i>
   <i type="logical" name="LHFCALC"> F  </i>
   <i type="string" name="PRECFOCK"></i>
   <i type="logical" name="LSYMGRAD"> F  </i>
   <i type="logical" name="LHFONE"> F  </i>
   <i type="logical" name="LRHFCALC"> F  </i>
   <i type="logical" name="LTHOMAS"> F  </i>
   <i type="logical" name="LMODELHF"> F  </i>
   <i name="ENCUT4O">     -1.00000000</i>
   <i type="int" name="EXXOEP">     0</i>
   <i type="int" name="FOURORBIT">     0</i>
   <i name="AEXX">      0.00000000</i>
   <i name="HFALPHA">      0.00000000</i>
   <i name="MCALPHA">      0.00000000</i>
   <i name="ALDAX">      1.00000000</i>
   <i name="AGGAX">      1.00000000</i>
   <i name="ALDAC">      1.00000000</i>
   <i name="AGGAC">      1.00000000</i>
   <i type="int" name="NKREDX">     1</i>
   <i type="int" name="NKREDY">     1</i>
   <i type="int" name="NKREDZ">     1</i>
   <i type="logical" name="SHIFTRED"> F  </i>
   <i type="logical" name="ODDONLY"> F  </i>
   <i type="logical" name="EVENONLY"> F  </i>
   <i type="int" name="LMAXFOCK">     0</i>
   <i type="int" name="NMAXFOCKAE">     0</i>
   <i type="logical" name="LFOCKAEDFT"> F  </i>
   <i name="HFSCREEN">      0.00000000</i>
   <i name="HFSCREENC">      0.00000000</i>
   <i type="int" name="NBANDSGWLOW">     0</i>
  </separator>
  <separator name="vdW DFT" >
   <i type="logical" name="LUSE_VDW"> F  </i>
   <i name="Zab_VDW">     -0.84910000</i>
   <i name="PARAM1">      0.12340000</i>
   <i name="PARAM2">      1.00000000</i>
   <i name="PARAM3">      0.00000000</i>
  </separator>
  <separator name="model GW" >
   <i type="int" name="MODEL_GW">     0</i>
   <i name="MODEL_EPS0">    196.22186061</i>
   <i name="MODEL_ALPHA">      1.00000000</i>
  </separator>
  <separator name="linear response parameters" >
   <i type="logical" name="LEPSILON"> F  </i>
   <i type="logical" name="LRPA"> F  </i>
   <i type="logical" name="LNABLA"> F  </i>
   <i type="logical" name="LVEL"> F  </i>
   <i type="int" name="KINTER">     0</i>
   <i name="CSHIFT">      0.10000000</i>
   <i name="OMEGAMAX">     -1.00000000</i>
   <i name="DEG_THRESHOLD">      0.00200000</i>
  </separator>
  <separator name="orbital magnetization" >
   <i type="logical" name="NUCIND"> F  </i>
   <v name="MAGPOS">      0.00000000      0.00000000      0.00000000</v>
   <i type="logical" name="LNICSALL"> T  </i>
   <i type="logical" name="ORBITALMAG"> F  </i>
   <i type="logical" name="LMAGBLOCH"> F  </i>
   <i type="logical" name="LCHIMAG"> F  </i>
   <i type="logical" name="LGAUGE"> T  </i>
   <i type="int" name="MAGATOM">     0</i>
   <v name="MAGDIPOL">      0.00000000      0.00000000      0.00000000</v>
   <v name="AVECCONST">      0.00000000      0.00000000      0.00000000</v>
  </separator>
  <separator name="response functions" >
   <i type="logical" name="LADDER"> F  </i>
   <i type="logical" name="LFXC"> F  </i>
   <i type="logical" name="LHARTREE"> T  </i>
   <i type="int" name="IBSE">     0</i>
   <i type="logical" name="LTCTE"> F  </i>
   <i type="logical" name="LTETE"> F  </i>
   <i type="logical" name="LTRIPLET"> F  </i>
   <i type="logical" name="LFXCEPS"> F  </i>
   <i type="logical" name="LFXHEG"> F  </i>
   <i type="logical" name="L2ORDER"> F  </i>
   <i type="logical" name="LUSEW"> F  </i>
   <i name="ENCUTGW">     -2.00000000</i>
   <i name="ENCUTGWSOFT">     -2.00000000</i>
   <i name="ENCUTLF">     -1.00000000</i>
   <i type="int" name="LMAXMP2">    -1</i>
   <i name="SCISSOR">      0.00000000</i>
   <i type="int" name="NOMEGA">     0</i>
   <i type="int" name="NOMEGAR">     0</i>
   <i type="int" name="NBANDSGW">    -1</i>
   <i type="int" name="NBANDSO">    -1</i>
   <i type="int" name="NBANDSV">    -1</i>
   <i type="int" name="NELM">     1</i>
   <i type="int" name="DIM">     3</i>
   <i type="int" name="ANTIRES">     0</i>
   <i name="OMEGAMAX">    -30.00000000</i>
   <i name="OMEGAMIN">    -30.00000000</i>
   <i name="OMEGATL">   -200.00000000</i>
   <i type="int" name="OMEGAGRID">     0</i>
   <i name="CSHIFT">     -0.10000000</i>
   <i type="logical" name="SELFENERGY"> F  </i>
   <i type="logical" name="LSPECTRAL"> F  </i>
   <i type="logical" name="ODDONLYGW"> F  </i>
   <i type="logical" name="EVENONLYGW"> F  </i>
   <i type="int" name="NKREDLFX">     1</i>
   <i type="int" name="NKREDLFY">     1</i>
   <i type="int" name="NKREDLFZ">     1</i>
   <i type="int" name="MAXMEM">  1800</i>
   <i type="int" name="TELESCOPE">     0</i>
   <i type="int" name="TAUPAR">     1</i>
  </separator>
  <separator name="External order field" >
   <i name="OFIELD_KAPPA">      0.00000000</i>
   <v name="OFIELD_K">      0.00000000      0.00000000      0.00000000</v>
   <i name="OFIELD_Q6_NEAR">      0.00000000</i>
   <i name="OFIELD_Q6_FAR">      0.00000000</i>
   <i name="OFIELD_A">      0.00000000</i>
  </separator>
 </parameters>
 <atominfo>
  <atoms>      44 </atoms>
  <types>       1 </types>
  <array name="atoms" >
   <dimension dim="1">ion</dimension>
   <field type="string">element</field>
   <field type="int">atomtype</field>
   <set>
    <rc><c>Ag</c><c>   1</c></rc>
    <rc><c>Ag</c><c>   1</c></rc>
    <rc><c>Ag</c><c>   1</c></rc>
    <rc><c>Ag</c><c>   1</c></rc>
    <rc><c>Ag</c><c>   1</c></rc>
    <rc><c>Ag</c><c>   1</c></rc>
    <rc><c>Ag</c><c>   1</c></rc>
    <rc><c>Ag</c><c>   1</c></rc>
    <rc><c>Ag</c><c>   1</c></rc>
    <rc><c>Ag</c><c>   1</c></rc>
    <rc><c>Ag</c><c>   1</c></rc>
    <rc><c>Ag</c><c>   1</c></rc>
    <rc><c>Ag</c><c>   1</c></rc>
    <rc><c>Ag</c><c>   1</c></rc>
    <rc><c>Ag</c><c>   1</c></rc>
    <rc><c>Ag</c><c>   1</c></rc>
    <rc><c>Ag</c><c>   1</c></rc>
    <rc><c>Ag</c><c>   1</c></rc>
    <rc><c>Ag</c><c>   1</c></rc>
    <rc><c>Ag</c><c>   1</c></rc>
    <rc><c>Ag</c><c>   1</c></rc>
    <rc><c>Ag</c><c>   1</c></rc>
    <rc><c>Ag</c><c>   1</c></rc>
    <rc><c>Ag</c><c>   1</c></rc>
    <rc><c>Ag</c><c>   1</c></rc>
    <rc><c>Ag</c><c>   1</c></rc>
    <rc><c>Ag</c><c>   1</c></rc>
    <rc><c>Ag</c><c>   1</c></rc>
    <rc><c>Ag</c><c>   1</c></rc>
    <rc><c>Ag</c><c>   1</c></rc>
    <rc><c>Ag</c><c>   1</c></rc>
    <rc><c>Ag</c><c>   1</c></rc>
    <rc><c>Ag</c><c>   1</c></rc>
    <rc><c>Ag</c><c>   1</c></rc>
    <rc><c>Ag</c><c>   1</c></rc>
    <rc><c>Ag</c><c>   1</c></rc>
    <rc><c>Ag</c><c>   1</c></rc>
    <rc><c>Ag</c><c>   1</c></rc>
    <rc><c>Ag</c><c>   1</c></rc>
    <rc><c>Ag</c><c>   1</c></rc>
    <rc><c>Ag</c><c>   1</c></rc>
    <rc><c>Ag</c><c>   1</c></rc>
    <rc><c>Ag</c><c>   1</c></rc>
    <rc><c>Ag</c><c>   1</c></rc>
   </set>
  </array>
  <array name="atomtypes" >
   <dimension dim="1">type</dimension>
   <field type="int">atomspertype</field>
   <field type="string">element</field>
   <field>mass</field>
   <field>valence</field>
   <field type="string">pseudopotential</field>
   <set>
    <rc><c>  44</c><c>Ag</c><c>    107.86800000</c><c>     11.00000000</c><c>  PAW_PBE Ag 02Apr2005                  </c></rc>
   </set>
  </array>
 </atominfo>
 <structure name="initialpos" >
  <crystal>
   <varray name="basis" >
    <v>      24.32295139       0.00000000       0.00000000 </v>
    <v>       0.00000000      24.32295139       0.00000000 </v>
    <v>       0.00000000       0.00000000      24.32295139 </v>
   </varray>
   <i name="volume">  14389.60311166 </i>
   <varray name="rec_basis" >
    <v>       0.04111343       0.00000000       0.00000000 </v>
    <v>       0.00000000       0.04111343       0.00000000 </v>
    <v>       0.00000000       0.00000000       0.04111343 </v>
   </varray>
  </crystal>
  <varray name="positions" >
   <v>       0.49302102       0.41451567       0.74437634 </v>
   <v>       0.44720708       0.50546602       0.68691609 </v>
   <v>       0.56126200       0.49350530       0.69415087 </v>
   <v>       0.42590665       0.59431908       0.61760832 </v>
   <v>       0.42219339       0.39483623       0.65344549 </v>
   <v>       0.51603565       0.60233612       0.69519481 </v>
   <v>       0.53459813       0.39794764       0.63748254 </v>
   <v>       0.39824652       0.48585196       0.58805151 </v>
   <v>       0.34951703       0.57832562       0.53731533 </v>
   <v>       0.61451417       0.57764696       0.63377527 </v>
   <v>       0.51050079       0.51922262       0.58941764 </v>
   <v>       0.35944850       0.37447465       0.56432931 </v>
   <v>       0.47093664       0.59509352       0.50049353 </v>
   <v>       0.30616562       0.46796351       0.52739045 </v>
   <v>       0.46810774       0.40308365       0.53943703 </v>
   <v>       0.52609897       0.64557192       0.58978761 </v>
   <v>       0.61374509       0.46470732       0.59518853 </v>
   <v>       0.29127796       0.53167116       0.43653307 </v>
   <v>       0.37469553       0.60737133       0.43048694 </v>
   <v>       0.40838381       0.50050355       0.47479952 </v>
   <v>       0.68684680       0.63330186       0.56859074 </v>
   <v>       0.49982128       0.70800122       0.49473935 </v>
   <v>       0.60668992       0.69123546       0.51860902 </v>
   <v>       0.76909954       0.58798986       0.50093151 </v>
   <v>       0.58972869       0.56415714       0.52029719 </v>
   <v>       0.40092986       0.34020023       0.46333229 </v>
   <v>       0.52053544       0.48155200       0.48052148 </v>
   <v>       0.46389263       0.66871265       0.39737616 </v>
   <v>       0.33788906       0.42506303       0.42060886 </v>
   <v>       0.56609869       0.63916613       0.42183311 </v>
   <v>       0.57916205       0.36229504       0.54293659 </v>
   <v>       0.69881800       0.51929169       0.55588784 </v>
   <v>       0.37942490       0.51256211       0.36048862 </v>
   <v>       0.48817645       0.54762120       0.38773515 </v>
   <v>       0.62952001       0.44740571       0.48629010 </v>
   <v>       0.51080636       0.34252746       0.44849018 </v>
   <v>       0.66957076       0.61488413       0.45175760 </v>
   <v>       0.44931927       0.42894255       0.39512724 </v>
   <v>       0.60202898       0.53188811       0.40383680 </v>
   <v>       0.41287916       0.60958815       0.32013141 </v>
   <v>       0.55912774       0.42792032       0.38328164 </v>
   <v>       0.71339689       0.51102965       0.43900273 </v>
   <v>       0.62279919       0.34040687       0.43882277 </v>
   <v>       0.66893777       0.42857487       0.38102988 </v>
  </varray>
 </structure>
 <calculation>
  <scstep>
   <time name="dav">    5.50    5.51</time>
   <time name="total">    5.75    5.78</time>
   <energy>
    <i name="alphaZ">    114.43812097 </i>
    <i name="ewald"> 130684.44417922 </i>
    <i name="hartreedc">-174471.59438006 </i>
    <i name="XCdc">   -479.80732404 </i>
    <i name="pawpsdc">  44148.37583506 </i>
    <i name="pawaedc"> -42119.64279067 </i>
    <i name="eentropy">     -0.00000000 </i>
    <i name="bandstr">    721.33751654 </i>
    <i name="atom">  45636.73972380 </i>
    <i name="e_fr_energy">   4234.29088082 </i>
    <i name="e_wo_entrp">   4234.29088082 </i>
    <i name="e_0_energy">   4234.29088082 </i>
   </energy>
  </scstep>
  <scstep>
   <time name="dav">    8.46    8.46</time>
   <time name="total">    8.46    8.49</time>
   <energy>
    <i name="e_fr_energy">    844.33273530 </i>
    <i name="e_wo_entrp">    844.33273530 </i>
    <i name="e_0_energy">    844.33273530 </i>
   </energy>
  </scstep>
  <scstep>
   <time name="dav">    6.66    6.67</time>
   <time name="total">    6.66    6.68</time>
   <energy>
    <i name="e_fr_energy">    -50.03545232 </i>
    <i name="e_wo_entrp">    -50.03545232 </i>
    <i name="e_0_energy">    -50.03545232 </i>
   </energy>
  </scstep>
  <scstep>
   <time name="dav">    5.92    5.92</time>
   <time name="total">    5.92    5.93</time>
   <energy>
    <i name="e_fr_energy">    -94.18000367 </i>
    <i name="e_wo_entrp">    -94.18000367 </i>
    <i name="e_0_energy">    -94.18000367 </i>
   </energy>
  </scstep>
  <scstep>
   <time name="dav">    6.05    6.06</time>
   <time name="total">    6.20    6.21</time>
   <energy>
    <i name="e_fr_energy">    -94.82845875 </i>
    <i name="e_wo_entrp">    -94.82845875 </i>
    <i name="e_0_energy">    -94.82845875 </i>
   </energy>
  </scstep>
  <scstep>
   <time name="dav">    5.57    5.58</time>
   <time name="total">    5.96    7.38</time>
   <energy>
    <i name="e_fr_energy">    -43.18581616 </i>
    <i name="e_wo_entrp">    -43.18581616 </i>
    <i name="e_0_energy">    -43.18581616 </i>
   </energy>
  </scstep>
  <scstep>
   <time name="dav">    5.80    5.81</time>
   <time name="total">    6.19    6.21</time>
   <energy>
    <i name="e_fr_energy">    -31.08704269 </i>
    <i name="e_wo_entrp">    -31.08704269 </i>
    <i name="e_0_energy">    -31.08704269 </i>
   </energy>
  </scstep>
  <scstep>
   <time name="dav">    5.82    5.82</time>
   <time name="total">    6.20    6.24</time>
   <energy>
    <i name="e_fr_energy">    -28.62216196 </i>
    <i name="e_wo_entrp">    -28.62216196 </i>
    <i name="e_0_energy">    -28.62216196 </i>
   </energy>
  </scstep>
  <scstep>
   <time name="dav">    6.01    6.01</time>
   <time name="total">    6.39    6.42</time>
   <energy>
    <i name="e_fr_energy">    -31.98088381 </i>
    <i name="e_wo_entrp">    -31.98088381 </i>
    <i name="e_0_energy">    -31.98088381 </i>
   </energy>
  </scstep>
  <scstep>
   <time name="dav">    5.69    5.70</time>
   <time name="total">    6.08    6.09</time>
   <energy>
    <i name="e_fr_energy">    -44.41513102 </i>
    <i name="e_wo_entrp">    -44.41513102 </i>
    <i name="e_0_energy">    -44.41513102 </i>
   </energy>
  </scstep>
  <scstep>
   <time name="dav">    5.93    5.94</time>
   <time name="total">    6.32    6.73</time>
   <energy>
    <i name="e_fr_energy">    -47.86008206 </i>
    <i name="e_wo_entrp">    -47.86008206 </i>
    <i name="e_0_energy">    -47.86008206 </i>
   </energy>
  </scstep>
  <scstep>
   <time name="dav">    5.66    5.67</time>
   <time name="total">    6.05    6.06</time>
   <energy>
    <i name="e_fr_energy">    -63.17156959 </i>
    <i name="e_wo_entrp">    -63.17156959 </i>
    <i name="e_0_energy">    -63.17156959 </i>
   </energy>
  </scstep>
  <scstep>
   <time name="dav">    5.82    5.83</time>
   <time name="total">    6.21    7.18</time>
   <energy>
    <i name="e_fr_energy">    -70.99622608 </i>
    <i name="e_wo_entrp">    -70.99622608 </i>
    <i name="e_0_energy">    -70.99622608 </i>
   </energy>
  </scstep>
  <scstep>
   <time name="dav">    5.78    5.79</time>
   <time name="total">    6.17    6.40</time>
   <energy>
    <i name="e_fr_energy">    -77.71849351 </i>
    <i name="e_wo_entrp">    -77.71849351 </i>
    <i name="e_0_energy">    -77.71849351 </i>
   </energy>
  </scstep>
  <scstep>
   <time name="dav">    5.91    5.92</time>
   <time name="total">    6.30    6.33</time>
   <energy>
    <i name="e_fr_energy">    -79.84131659 </i>
    <i name="e_wo_entrp">    -79.84131659 </i>
    <i name="e_0_energy">    -79.84131659 </i>
   </energy>
  </scstep>
  <scstep>
   <time name="dav">    5.66    5.66</time>
   <time name="total">    6.05    6.76</time>
   <energy>
    <i name="e_fr_energy">    -84.97196337 </i>
    <i name="e_wo_entrp">    -84.97196337 </i>
    <i name="e_0_energy">    -84.97196337 </i>
   </energy>
  </scstep>
  <scstep>
   <time name="dav">    5.58    5.59</time>
   <time name="total">    5.98    6.01</time>
   <energy>
    <i name="e_fr_energy">    -88.26297934 </i>
    <i name="e_wo_entrp">    -88.26297934 </i>
    <i name="e_0_energy">    -88.26297934 </i>
   </energy>
  </scstep>
  <scstep>
   <time name="dav">    5.82    5.83</time>
   <time name="total">    6.21    6.27</time>
   <energy>
    <i name="e_fr_energy">    -89.76144092 </i>
    <i name="e_wo_entrp">    -89.76144092 </i>
    <i name="e_0_energy">    -89.76144092 </i>
   </energy>
  </scstep>
  <scstep>
   <time name="dav">    6.09    6.10</time>
   <time name="total">    6.49    6.52</time>
   <energy>
    <i name="e_fr_energy">    -89.98170529 </i>
    <i name="e_wo_entrp">    -89.98170529 </i>
    <i name="e_0_energy">    -89.98170529 </i>
   </energy>
  </scstep>
  <scstep>
   <time name="dav">    5.76    5.77</time>
   <time name="total">    6.16    6.17</time>
   <energy>
    <i name="e_fr_energy">    -90.58727364 </i>
    <i name="e_wo_entrp">    -90.58727364 </i>
    <i name="e_0_energy">    -90.58727364 </i>
   </energy>
  </scstep>
  <scstep>
   <time name="dav">    5.70    5.71</time>
   <time name="total">    6.10    6.17</time>
   <energy>
    <i name="e_fr_energy">    -92.25807865 </i>
    <i name="e_wo_entrp">    -92.25807865 </i>
    <i name="e_0_energy">    -92.25807865 </i>
   </energy>
  </scstep>
  <scstep>
   <time name="dav">    5.83    5.83</time>
   <time name="total">    6.22    7.55</time>
   <energy>
    <i name="e_fr_energy">    -92.87419885 </i>
    <i name="e_wo_entrp">    -92.87419885 </i>
    <i name="e_0_energy">    -92.87419885 </i>
   </energy>
  </scstep>
  <scstep>
   <time name="dav">    5.98    5.98</time>
   <time name="total">    6.37    6.42</time>
   <energy>
    <i name="e_fr_energy">    -93.03708635 </i>
    <i name="e_wo_entrp">    -93.03708635 </i>
    <i name="e_0_energy">    -93.03708635 </i>
   </energy>
  </scstep>
  <scstep>
   <time name="dav">    5.74    5.75</time>
   <time name="total">    6.14    6.14</time>
   <energy>
    <i name="e_fr_energy">    -93.30945703 </i>
    <i name="e_wo_entrp">    -93.30945703 </i>
    <i name="e_0_energy">    -93.30945703 </i>
   </energy>
  </scstep>
  <scstep>
   <time name="dav">    5.41    5.42</time>
   <time name="total">    5.81    5.83</time>
   <energy>
    <i name="e_fr_energy">    -93.40744576 </i>
    <i name="e_wo_entrp">    -93.40744576 </i>
    <i name="e_0_energy">    -93.40744576 </i>
   </energy>
  </scstep>
  <scstep>
   <time name="dav">    4.36    4.36</time>
   <time name="total">    4.75    4.79</time>
   <energy>
    <i name="e_fr_energy">    -93.43845749 </i>
    <i name="e_wo_entrp">    -93.43845749 </i>
    <i name="e_0_energy">    -93.43845749 </i>
   </energy>
  </scstep>
  <scstep>
   <time name="dav">    4.25    4.25</time>
   <time name="total">    4.64    4.67</time>
   <energy>
    <i name="e_fr_energy">    -93.46679495 </i>
    <i name="e_wo_entrp">    -93.46679495 </i>
    <i name="e_0_energy">    -93.46679495 </i>
   </energy>
  </scstep>
  <scstep>
   <time name="dav">    4.39    4.40</time>
   <time name="total">    4.78    5.71</time>
   <energy>
    <i name="e_fr_energy">    -93.47348928 </i>
    <i name="e_wo_entrp">    -93.47348928 </i>
    <i name="e_0_energy">    -93.47348928 </i>
   </energy>
  </scstep>
  <scstep>
   <time name="dav">    4.23    4.24</time>
   <time name="total">    4.63    4.88</time>
   <energy>
    <i name="e_fr_energy">    -93.47842772 </i>
    <i name="e_wo_entrp">    -93.47842772 </i>
    <i name="e_0_energy">    -93.47842772 </i>
   </energy>
  </scstep>
  <scstep>
   <time name="dav">    4.25    4.26</time>
   <time name="total">    4.65    4.71</time>
   <energy>
    <i name="e_fr_energy">    -93.48426178 </i>
    <i name="e_wo_entrp">    -93.48426178 </i>
    <i name="e_0_energy">    -93.48426178 </i>
   </energy>
  </scstep>
  <scstep>
   <time name="dav">    4.25    4.26</time>
   <time name="total">    4.65    4.67</time>
   <energy>
    <i name="e_fr_energy">    -93.48719029 </i>
    <i name="e_wo_entrp">    -93.48719029 </i>
    <i name="e_0_energy">    -93.48719029 </i>
   </energy>
  </scstep>
  <scstep>
   <time name="dav">    4.17    4.18</time>
   <time name="total">    4.57    4.61</time>
   <energy>
    <i name="e_fr_energy">    -93.48880823 </i>
    <i name="e_wo_entrp">    -93.48880823 </i>
    <i name="e_0_energy">    -93.48880823 </i>
   </energy>
  </scstep>
  <scstep>
   <time name="dav">    4.16    4.16</time>
   <time name="total">    4.56    4.58</time>
   <energy>
    <i name="e_fr_energy">    -93.48962349 </i>
    <i name="e_wo_entrp">    -93.48962349 </i>
    <i name="e_0_energy">    -93.48962349 </i>
   </energy>
  </scstep>
  <scstep>
   <time name="dav">    4.09    4.09</time>
   <time name="total">    4.49    4.50</time>
   <energy>
    <i name="e_fr_energy">    -93.48984553 </i>
    <i name="e_wo_entrp">    -93.48984553 </i>
    <i name="e_0_energy">    -93.48984553 </i>
   </energy>
  </scstep>
  <scstep>
   <time name="dav">    4.14    4.15</time>
   <time name="total">    4.54    4.57</time>
   <energy>
    <i name="e_fr_energy">    -93.49001964 </i>
    <i name="e_wo_entrp">    -93.49001964 </i>
    <i name="e_0_energy">    -93.49001964 </i>
   </energy>
  </scstep>
  <scstep>
   <time name="dav">    4.14    4.15</time>
   <time name="total">    4.55    4.57</time>
   <energy>
    <i name="e_fr_energy">    -93.49014724 </i>
    <i name="e_wo_entrp">    -93.49014724 </i>
    <i name="e_0_energy">    -93.49014724 </i>
   </energy>
  </scstep>
  <scstep>
   <time name="dav">    4.15    4.16</time>
   <time name="total">    4.39    4.40</time>
   <energy>
    <i name="alphaZ">    114.43812097 </i>
    <i name="ewald"> 130684.44417922 </i>
    <i name="hartreedc">-174388.31574743 </i>
    <i name="XCdc">   -497.33900520 </i>
    <i name="pawpsdc">  47787.55522297 </i>
    <i name="pawaedc"> -45843.17167325 </i>
    <i name="eentropy">      0.00000000 </i>
    <i name="bandstr">  -3587.84103450 </i>
    <i name="atom">  45636.73972380 </i>
    <i name="e_fr_energy">    -93.49021342 </i>
    <i name="e_wo_entrp">    -93.49021342 </i>
    <i name="e_0_energy">    -93.49021342 </i>
   </energy>
  </scstep>
  <structure>
   <crystal>
    <varray name="basis" >
     <v>      24.32295139       0.00000000       0.00000000 </v>
     <v>       0.00000000      24.32295139       0.00000000 </v>
     <v>       0.00000000       0.00000000      24.32295139 </v>
    </varray>
    <i name="volume">  14389.60311166 </i>
    <varray name="rec_basis" >
     <v>       0.04111343       0.00000000       0.00000000 </v>
     <v>       0.00000000       0.04111343       0.00000000 </v>
     <v>       0.00000000       0.00000000       0.04111343 </v>
    </varray>
   </crystal>
   <varray name="positions" >
    <v>       0.49302102       0.41451567       0.74437634 </v>
    <v>       0.44720708       0.50546602       0.68691609 </v>
    <v>       0.56126200       0.49350530       0.69415087 </v>
    <v>       0.42590665       0.59431908       0.61760832 </v>
    <v>       0.42219339       0.39483623       0.65344549 </v>
    <v>       0.51603565       0.60233612       0.69519481 </v>
    <v>       0.53459813       0.39794764       0.63748254 </v>
    <v>       0.39824652       0.48585196       0.58805151 </v>
    <v>       0.34951703       0.57832562       0.53731533 </v>
    <v>       0.61451417       0.57764696       0.63377527 </v>
    <v>       0.51050079       0.51922262       0.58941764 </v>
    <v>       0.35944850       0.37447465       0.56432931 </v>
    <v>       0.47093664       0.59509352       0.50049353 </v>
    <v>       0.30616562       0.46796351       0.52739045 </v>
    <v>       0.46810774       0.40308365       0.53943703 </v>
    <v>       0.52609897       0.64557192       0.58978761 </v>
    <v>       0.61374509       0.46470732       0.59518853 </v>
    <v>       0.29127796       0.53167116       0.43653307 </v>
    <v>       0.37469553       0.60737133       0.43048694 </v>
    <v>       0.40838381       0.50050355       0.47479952 </v>
    <v>       0.68684680       0.63330186       0.56859074 </v>
    <v>       0.49982128       0.70800122       0.49473935 </v>
    <v>       0.60668992       0.69123546       0.51860902 </v>
    <v>       0.76909954       0.58798986       0.50093151 </v>
    <v>       0.58972869       0.56415714       0.52029719 </v>
    <v>       0.40092986       0.34020023       0.46333229 </v>
    <v>       0.52053544       0.48155200       0.48052148 </v>
    <v>       0.46389263       0.66871265       0.39737616 </v>
    <v>       0.33788906       0.42506303       0.42060886 </v>
    <v>       0.56609869       0.63916613       0.42183311 </v>
    <v>       0.57916205       0.36229504       0.54293659 </v>
    <v>       0.69881800       0.51929169       0.55588784 </v>
    <v>       0.37942490       0.51256211       0.36048862 </v>
    <v>       0.48817645       0.54762120       0.38773515 </v>
    <v>       0.62952001       0.44740571       0.48629010 </v>
    <v>       0.51080636       0.34252746       0.44849018 </v>
    <v>       0.66957076       0.61488413       0.45175760 </v>
    <v>       0.44931927       0.42894255       0.39512724 </v>
    <v>       0.60202898       0.53188811       0.40383680 </v>
    <v>       0.41287916       0.60958815       0.32013141 </v>
    <v>       0.55912774       0.42792032       0.38328164 </v>
    <v>       0.71339689       0.51102965       0.43900273 </v>
    <v>       0.62279919       0.34040687       0.43882277 </v>
    <v>       0.66893777       0.42857487       0.38102988 </v>
   </varray>
  </structure>
  <varray name="forces" >
   <v>      -0.03378746       0.17655985      -0.08333198 </v>
   <v>       0.11087790      -0.17995393       0.49611917 </v>
   <v>       0.03761952       0.04931121       0.26460953 </v>
   <v>       0.12844734       0.22845935      -0.04380416 </v>
   <v>       0.19936027       0.02987670       0.25233035 </v>
   <v>       0.04096699      -0.23940918      -0.01189772 </v>
   <v>      -0.28489062      -0.06929334       0.27705848 </v>
   <v>      -0.05177392      -0.06620241       0.12597248 </v>
   <v>      -0.12931207       0.06093561      -0.12187002 </v>
   <v>      -0.24787819      -0.29002250       0.14280643 </v>
   <v>      -0.05043019       0.11828903      -0.02810712 </v>
   <v>      -0.06509984       0.12188558      -0.26465455 </v>
   <v>      -0.03799592      -0.07826308       0.09034728 </v>
   <v>      -0.36715035      -0.24139410      -0.16107759 </v>
   <v>      -0.16543461      -0.12656428       0.32928326 </v>
   <v>       0.13775964      -0.02642848      -0.01469139 </v>
   <v>      -0.15736114      -0.16514748       0.14606640 </v>
   <v>       0.00968736       0.01033011      -0.05238767 </v>
   <v>       0.12434006      -0.02446494      -0.25159839 </v>
   <v>      -0.20610170       0.07810596      -0.08389505 </v>
   <v>       0.14088197      -0.08813665      -0.18076392 </v>
   <v>      -0.09202110       0.12716056       0.06338986 </v>
   <v>      -0.00252602      -0.04701342      -0.03387820 </v>
   <v>       0.34464316       0.15339611       0.02029944 </v>
   <v>       0.22346178       0.16853615      -0.11303399 </v>
   <v>      -0.11058736       0.17683740      -0.11385232 </v>
   <v>      -0.11411545       0.25060517      -0.34335758 </v>
   <v>      -0.18467281       0.09044006      -0.07099251 </v>
   <v>      -0.29476363      -0.06137362       0.21358100 </v>
   <v>      -0.14184466      -0.12142140       0.26608977 </v>
   <v>       0.16580153      -0.05105752      -0.15755095 </v>
   <v>      -0.01785386       0.18871240      -0.20085570 </v>
   <v>      -0.19133347      -0.12506529       0.01003136 </v>
   <v>      -0.08876909      -0.04205355       0.05773843 </v>
   <v>       0.36405562      -0.10112124      -0.14378421 </v>
   <v>       0.15339930       0.21068801       0.01031275 </v>
   <v>       0.26427115       0.16738306       0.12316544 </v>
   <v>       0.05606508      -0.17113527       0.16725068 </v>
   <v>       0.09076731      -0.11049912      -0.01036482 </v>
   <v>      -0.02953783       0.22250967      -0.34516583 </v>
   <v>      -0.03950524      -0.08621709      -0.03168998 </v>
   <v>       0.12373502       0.03062352       0.14435199 </v>
   <v>       0.15446631       0.03581094      -0.03373164 </v>
   <v>       0.23413923      -0.18421857      -0.30446685 </v>
  </varray>
  <varray name="stress" >
   <v>      -0.52196289       0.05159794       0.04423286 </v>
   <v>       0.05159794      -1.61899863      -0.13351020 </v>
   <v>       0.04423287      -0.13351020      -1.05612614 </v>
  </varray>
  <energy>
   <i name="e_fr_energy">    -93.49021342 </i>
   <i name="e_wo_entrp">    -93.49021342 </i>
   <i name="e_0_energy">      0.00000000 </i>
  </energy>
  <time name="totalsc">  222.48  229.51</time>
 </calculation>
 <calculation>
  <scstep>
   <time name="dav">    5.75    5.76</time>
   <time name="total">    6.15    6.16</time>
   <energy>
    <i name="alphaZ">    114.43812097 </i>
    <i name="ewald"> 130637.73302199 </i>
    <i name="hartreedc">-174341.80649718 </i>
    <i name="XCdc">   -497.37502893 </i>
    <i name="pawpsdc">  47787.52476925 </i>
    <i name="pawaedc"> -45843.14110525 </i>
    <i name="eentropy">      0.00000000 </i>
    <i name="bandstr">  -3587.63669395 </i>
    <i name="atom">  45636.73972380 </i>
    <i name="e_fr_energy">    -93.52368931 </i>
    <i name="e_wo_entrp">    -93.52368931 </i>
    <i name="e_0_energy">    -93.52368931 </i>
   </energy>
  </scstep>
  <scstep>
   <time name="dav">    5.89    5.90</time>
   <time name="total">    6.28    6.29</time>
   <energy>
    <i name="e_fr_energy">    -93.52477587 </i>
    <i name="e_wo_entrp">    -93.52477587 </i>
    <i name="e_0_energy">    -93.52477587 </i>
   </energy>
  </scstep>
  <scstep>
   <time name="dav">    3.92    3.93</time>
   <time name="total">    4.16    4.17</time>
   <energy>
    <i name="alphaZ">    114.43812097 </i>
    <i name="ewald"> 130637.73302199 </i>
    <i name="hartreedc">-174342.06787563 </i>
    <i name="XCdc">   -497.37079739 </i>
    <i name="pawpsdc">  47784.66230560 </i>
    <i name="pawaedc"> -45840.22985820 </i>
    <i name="eentropy">      0.00000000 </i>
    <i name="bandstr">  -3587.42939882 </i>
    <i name="atom">  45636.73972380 </i>
    <i name="e_fr_energy">    -93.52475768 </i>
    <i name="e_wo_entrp">    -93.52475768 </i>
    <i name="e_0_energy">    -93.52475768 </i>
   </energy>
  </scstep>
  <structure>
   <crystal>
    <varray name="basis" >
     <v>      24.32295139       0.00000000       0.00000000 </v>
     <v>       0.00000000      24.32295139       0.00000000 </v>
     <v>       0.00000000       0.00000000      24.32295139 </v>
    </varray>
    <i name="volume">  14389.60311166 </i>
    <varray name="rec_basis" >
     <v>       0.04111343       0.00000000       0.00000000 </v>
     <v>       0.00000000       0.04111343       0.00000000 </v>
     <v>       0.00000000       0.00000000       0.04111343 </v>
    </varray>
   </crystal>
   <varray name="positions" >
    <v>       0.49300762       0.41458571       0.74434329 </v>
    <v>       0.44725106       0.50539463       0.68711289 </v>
    <v>       0.56127692       0.49352486       0.69425584 </v>
    <v>       0.42595760       0.59440971       0.61759095 </v>
    <v>       0.42227247       0.39484808       0.65354559 </v>
    <v>       0.51605190       0.60224115       0.69519009 </v>
    <v>       0.53448512       0.39792015       0.63759244 </v>
    <v>       0.39822598       0.48582570       0.58810148 </v>
    <v>       0.34946573       0.57834979       0.53726699 </v>
    <v>       0.61441584       0.57753192       0.63383192 </v>
    <v>       0.51048078       0.51926954       0.58940649 </v>
    <v>       0.35942268       0.37452300       0.56422433 </v>
    <v>       0.47092156       0.59506247       0.50052937 </v>
    <v>       0.30601998       0.46786775       0.52732655 </v>
    <v>       0.46804212       0.40303344       0.53956766 </v>
    <v>       0.52615362       0.64556143       0.58978179 </v>
    <v>       0.61368267       0.46464181       0.59524647 </v>
    <v>       0.29128180       0.53167526       0.43651229 </v>
    <v>       0.37474485       0.60736162       0.43038714 </v>
    <v>       0.40830206       0.50053453       0.47476624 </v>
    <v>       0.68690269       0.63326689       0.56851904 </v>
    <v>       0.49978478       0.70805166       0.49476450 </v>
    <v>       0.60668892       0.69121681       0.51859558 </v>
    <v>       0.76923626       0.58805071       0.50093956 </v>
    <v>       0.58981733       0.56422400       0.52025235 </v>
    <v>       0.40088599       0.34027038       0.46328713 </v>
    <v>       0.52049017       0.48165141       0.48038528 </v>
    <v>       0.46381938       0.66874853       0.39734800 </v>
    <v>       0.33777213       0.42503868       0.42069358 </v>
    <v>       0.56604242       0.63911796       0.42193867 </v>
    <v>       0.57922782       0.36227479       0.54287409 </v>
    <v>       0.69881092       0.51936655       0.55580817 </v>
    <v>       0.37934900       0.51251250       0.36049260 </v>
    <v>       0.48814124       0.54760452       0.38775805 </v>
    <v>       0.62966442       0.44736560       0.48623307 </v>
    <v>       0.51086721       0.34261104       0.44849427 </v>
    <v>       0.66967559       0.61495053       0.45180645 </v>
    <v>       0.44934151       0.42887466       0.39519358 </v>
    <v>       0.60206499       0.53184428       0.40383269 </v>
    <v>       0.41286744       0.60967642       0.31999449 </v>
    <v>       0.55911207       0.42788612       0.38326906 </v>
    <v>       0.71344597       0.51104179       0.43905999 </v>
    <v>       0.62286047       0.34042107       0.43880938 </v>
    <v>       0.66903065       0.42850180       0.38090910 </v>
   </varray>
  </structure>
  <varray name="forces" >
   <v>      -0.03036389       0.16310667      -0.06152677 </v>
   <v>       0.09818719      -0.15961418       0.45680276 </v>
   <v>       0.03941992       0.04148363       0.25391362 </v>
   <v>       0.11779331       0.20580214      -0.04149947 </v>
   <v>       0.17019024       0.02352834       0.22806956 </v>
   <v>       0.03700765      -0.22792577      -0.01042138 </v>
   <v>      -0.25470509      -0.06978673       0.24685881 </v>
   <v>      -0.05530688      -0.05321619       0.12287971 </v>
   <v>      -0.12084696       0.05483675      -0.11503886 </v>
   <v>      -0.22442298      -0.27527781       0.12425095 </v>
   <v>      -0.04767066       0.11011294      -0.02840325 </v>
   <v>      -0.05963542       0.11899785      -0.23964957 </v>
   <v>      -0.03793204      -0.07219775       0.08581355 </v>
   <v>      -0.34823134      -0.22411237      -0.14905092 </v>
   <v>      -0.13974849      -0.11029697       0.30501634 </v>
   <v>       0.13568746      -0.02342684      -0.01424089 </v>
   <v>      -0.14239491      -0.15712203       0.12484164 </v>
   <v>       0.00719465       0.01294462      -0.04971261 </v>
   <v>       0.11750950      -0.02826817      -0.24215163 </v>
   <v>      -0.20141501       0.07262063      -0.07575351 </v>
   <v>       0.12673094      -0.08617233      -0.16375179 </v>
   <v>      -0.08889941       0.11879886       0.06057730 </v>
   <v>      -0.00298578      -0.04271873      -0.03211977 </v>
   <v>       0.33439015       0.14749819       0.01873651 </v>
   <v>       0.21031718       0.15330362      -0.10514644 </v>
   <v>      -0.09751334       0.16825235      -0.11306263 </v>
   <v>      -0.10707307       0.22761714      -0.31048891 </v>
   <v>      -0.16964556       0.08905081      -0.06598996 </v>
   <v>      -0.28363129      -0.05793572       0.20106796 </v>
   <v>      -0.13780602      -0.12295163       0.26468296 </v>
   <v>       0.15238633      -0.03954184      -0.13396169 </v>
   <v>      -0.03039389       0.17153187      -0.18818728 </v>
   <v>      -0.17682466      -0.11424139       0.00373056 </v>
   <v>      -0.09084917      -0.03510174       0.04923028 </v>
   <v>       0.34196712      -0.09542218      -0.12942016 </v>
   <v>       0.14101556       0.20302904       0.01646771 </v>
   <v>       0.24847274       0.16071163       0.11076051 </v>
   <v>       0.03886819      -0.15871728       0.16151719 </v>
   <v>       0.09076171      -0.10213896      -0.00925679 </v>
   <v>      -0.03113975       0.20378082      -0.32582934 </v>
   <v>      -0.02251578      -0.08137694      -0.03345289 </v>
   <v>       0.11929238       0.02582141       0.13061163 </v>
   <v>       0.15281908       0.03368087      -0.03589333 </v>
   <v>       0.22194007      -0.16894661      -0.29181973 </v>
  </varray>
  <varray name="stress" >
   <v>      -0.55234537       0.04248723       0.03942724 </v>
   <v>       0.04248722      -1.63766736      -0.13390390 </v>
   <v>       0.03942723      -0.13390390      -1.08219286 </v>
  </varray>
  <energy>
   <i name="e_fr_energy">    -93.52475768 </i>
   <i name="e_wo_entrp">    -93.52475768 </i>
   <i name="e_0_energy">      0.00000000 </i>
  </energy>
  <time name="totalsc">   27.45   28.19</time>
 </calculation>
 <calculation>
  <scstep>
   <time name="dav">    5.58    5.58</time>
   <time name="total">    5.96    5.98</time>
   <energy>
    <i name="alphaZ">    114.43812097 </i>
    <i name="ewald"> 130497.99327147 </i>
    <i name="hartreedc">-174203.02367465 </i>
    <i name="XCdc">   -497.47256542 </i>
    <i name="pawpsdc">  47782.33770972 </i>
    <i name="pawaedc"> -45837.87239333 </i>
    <i name="eentropy">      0.00000000 </i>
    <i name="bandstr">  -3586.74875217 </i>
    <i name="atom">  45636.73972380 </i>
    <i name="e_fr_energy">    -93.60855961 </i>
    <i name="e_wo_entrp">    -93.60855961 </i>
    <i name="e_0_energy">    -93.60855961 </i>
   </energy>
  </scstep>
  <scstep>
   <time name="dav">    5.80    5.80</time>
   <time name="total">    6.19    6.20</time>
   <energy>
    <i name="e_fr_energy">    -93.61819802 </i>
    <i name="e_wo_entrp">    -93.61819802 </i>
    <i name="e_0_energy">    -93.61819802 </i>
   </energy>
  </scstep>
  <scstep>
   <time name="dav">    5.85    5.86</time>
   <time name="total">    6.24    6.25</time>
   <energy>
    <i name="e_fr_energy">    -93.61802531 </i>
    <i name="e_wo_entrp">    -93.61802531 </i>
    <i name="e_0_energy">    -93.61802531 </i>
   </energy>
  </scstep>
  <scstep>
   <time name="dav">    5.80    5.81</time>
   <time name="total">    6.19    7.72</time>
   <energy>
    <i name="e_fr_energy">    -93.61782829 </i>
    <i name="e_wo_entrp">    -93.61782829 </i>
    <i name="e_0_energy">    -93.61782829 </i>
   </energy>
  </scstep>
  <scstep>
   <time name="dav">    4.02    4.03</time>
   <time name="total">    4.26    4.27</time>
   <energy>
    <i name="alphaZ">    114.43812097 </i>
    <i name="ewald"> 130497.99327147 </i>
    <i name="hartreedc">-174204.22463839 </i>
    <i name="XCdc">   -497.45430364 </i>
    <i name="pawpsdc">  47765.47514117 </i>
    <i name="pawaedc"> -45820.74273512 </i>
    <i name="eentropy">      0.00000000 </i>
    <i name="bandstr">  -3585.84241651 </i>
    <i name="atom">  45636.73972380 </i>
    <i name="e_fr_energy">    -93.61783626 </i>
    <i name="e_wo_entrp">    -93.61783626 </i>
    <i name="e_0_energy">    -93.61783626 </i>
   </energy>
  </scstep>
  <structure>
   <crystal>
    <varray name="basis" >
     <v>      24.32295139       0.00000000       0.00000000 </v>
     <v>       0.00000000      24.32295139       0.00000000 </v>
     <v>       0.00000000       0.00000000      24.32295139 </v>
    </varray>
    <i name="volume">  14389.60311166 </i>
    <varray name="rec_basis" >
     <v>       0.04111343       0.00000000       0.00000000 </v>
     <v>       0.00000000       0.04111343       0.00000000 </v>
     <v>       0.00000000       0.00000000       0.04111343 </v>
    </varray>
   </crystal>
   <varray name="positions" >
    <v>       0.49296741       0.41479583       0.74424412 </v>
    <v>       0.44738301       0.50518048       0.68770330 </v>
    <v>       0.56132169       0.49358355       0.69457074 </v>
    <v>       0.42611046       0.59468159       0.61753882 </v>
    <v>       0.42250972       0.39488363       0.65384587 </v>
    <v>       0.51610066       0.60195624       0.69517593 </v>
    <v>       0.53414608       0.39783769       0.63792216 </v>
    <v>       0.39816437       0.48574692       0.58825140 </v>
    <v>       0.34931184       0.57842231       0.53712196 </v>
    <v>       0.61412085       0.57718677       0.63400186 </v>
    <v>       0.51042077       0.51941032       0.58937304 </v>
    <v>       0.35934521       0.37466806       0.56390938 </v>
    <v>       0.47087635       0.59496934       0.50063689 </v>
    <v>       0.30558305       0.46758048       0.52713486 </v>
    <v>       0.46784524       0.40288282       0.53995952 </v>
    <v>       0.52631756       0.64552998       0.58976430 </v>
    <v>       0.61349540       0.46444527       0.59542030 </v>
    <v>       0.29129333       0.53168755       0.43644995 </v>
    <v>       0.37489283       0.60733251       0.43008772 </v>
    <v>       0.40805678       0.50062749       0.47466640 </v>
    <v>       0.68707034       0.63316201       0.56830392 </v>
    <v>       0.49967527       0.70820299       0.49483994 </v>
    <v>       0.60668591       0.69116086       0.51855526 </v>
    <v>       0.76964640       0.58823326       0.50096372 </v>
    <v>       0.59008326       0.56442456       0.52011784 </v>
    <v>       0.40075438       0.34048082       0.46315164 </v>
    <v>       0.52035436       0.48194964       0.47997667 </v>
    <v>       0.46359961       0.66885616       0.39726352 </v>
    <v>       0.33742135       0.42496564       0.42094776 </v>
    <v>       0.56587362       0.63897346       0.42225533 </v>
    <v>       0.57942514       0.36221403       0.54268660 </v>
    <v>       0.69878968       0.51959112       0.55556914 </v>
    <v>       0.37912130       0.51236366       0.36050454 </v>
    <v>       0.48803560       0.54755447       0.38782676 </v>
    <v>       0.63009767       0.44724526       0.48606195 </v>
    <v>       0.51104977       0.34286177       0.44850654 </v>
    <v>       0.66999008       0.61514972       0.45195303 </v>
    <v>       0.44940824       0.42867100       0.39539262 </v>
    <v>       0.60217301       0.53171278       0.40382036 </v>
    <v>       0.41283229       0.60994122       0.31958373 </v>
    <v>       0.55906506       0.42778351       0.38323135 </v>
    <v>       0.71359323       0.51107824       0.43923178 </v>
    <v>       0.62304429       0.34046369       0.43876924 </v>
    <v>       0.66930929       0.42828257       0.38054677 </v>
   </varray>
  </structure>
  <varray name="forces" >
   <v>      -0.02265792       0.13576976      -0.00420968 </v>
   <v>       0.07090298      -0.12322883       0.38303126 </v>
   <v>       0.04687392       0.02379698       0.24242612 </v>
   <v>       0.09685404       0.15923338      -0.03978244 </v>
   <v>       0.10310978       0.00915987       0.17700366 </v>
   <v>       0.02856087      -0.21198541      -0.00634545 </v>
   <v>      -0.18634482      -0.07443946       0.17945287 </v>
   <v>      -0.06709476      -0.02311738       0.12296902 </v>
   <v>      -0.10704543       0.04316797      -0.10512513 </v>
   <v>      -0.17679527      -0.25769571       0.08344904 </v>
   <v>      -0.04338255       0.09642159      -0.03114637 </v>
   <v>      -0.05208439       0.11966680      -0.19066046 </v>
   <v>      -0.04013713      -0.06150793       0.07958211 </v>
   <v>      -0.32008893      -0.19358405      -0.12842162 </v>
   <v>      -0.08114547      -0.07612137       0.26206029 </v>
   <v>       0.13939044      -0.01637448      -0.01391720 </v>
   <v>      -0.11024813      -0.14636180       0.07608445 </v>
   <v>       0.00086431       0.01946240      -0.04489446 </v>
   <v>       0.10669078      -0.04063943      -0.23284103 </v>
   <v>      -0.20126392       0.06420174      -0.06021498 </v>
   <v>       0.09979360      -0.08620342      -0.13284019 </v>
   <v>      -0.08557768       0.10391715       0.06046384 </v>
   <v>      -0.00463381      -0.03401203      -0.02953652 </v>
   <v>       0.32773549       0.14409106       0.01574653 </v>
   <v>       0.18962999       0.12451806      -0.09039358 </v>
   <v>      -0.07059885       0.15772052      -0.11868065 </v>
   <v>      -0.09549781       0.18399194      -0.24307089 </v>
   <v>      -0.14376137       0.09264563      -0.05702390 </v>
   <v>      -0.27438498      -0.05308716       0.18366704 </v>
   <v>      -0.13618248      -0.13468883       0.27084367 </v>
   <v>       0.12667025      -0.01153720      -0.07877646 </v>
   <v>      -0.06552339       0.13586207      -0.16884470 </v>
   <v>      -0.15026579      -0.09282955      -0.01148161 </v>
   <v>      -0.10244856      -0.01854378       0.03021234 </v>
   <v>       0.30768476      -0.08622852      -0.09809427 </v>
   <v>       0.11693913       0.19601784       0.03398168 </v>
   <v>       0.22261142       0.15417993       0.08734733 </v>
   <v>      -0.00519681      -0.13607026       0.15681337 </v>
   <v>       0.09571356      -0.08626032      -0.00606765 </v>
   <v>      -0.03843190       0.16919226      -0.29464439 </v>
   <v>       0.02247258      -0.07363387      -0.04031733 </v>
   <v>       0.11662054       0.01427542       0.10304693 </v>
   <v>       0.15905901       0.03084045      -0.04407215 </v>
   <v>       0.20261470      -0.13998201      -0.27677845 </v>
  </varray>
  <varray name="stress" >
   <v>      -0.62357221       0.02267071       0.03285062 </v>
   <v>       0.02267071      -1.67629489      -0.13609914 </v>
   <v>       0.03285062      -0.13609914      -1.14861591 </v>
  </varray>
  <energy>
   <i name="e_fr_energy">    -93.61783626 </i>
   <i name="e_wo_entrp">    -93.61783626 </i>
   <i name="e_0_energy">      0.00000000 </i>
  </energy>
  <time name="totalsc">   39.71   41.57</time>
 </calculation>
 <calculation>
  <scstep>
   <time name="dav">    5.59    5.59</time>
   <time name="total">    5.98    5.99</time>
   <energy>
    <i name="alphaZ">    114.43812097 </i>
    <i name="ewald"> 130220.27266882 </i>
    <i name="hartreedc">-173927.48246147 </i>
    <i name="XCdc">   -497.63878259 </i>
    <i name="pawpsdc">  47765.44382728 </i>
    <i name="pawaedc"> -45820.71144765 </i>
    <i name="eentropy">      0.00000000 </i>
    <i name="bandstr">  -3584.78344876 </i>
    <i name="atom">  45636.73972380 </i>
    <i name="e_fr_energy">    -93.72179961 </i>
    <i name="e_wo_entrp">    -93.72179961 </i>
    <i name="e_0_energy">    -93.72179961 </i>
   </energy>
  </scstep>
  <scstep>
   <time name="dav">    5.80    5.80</time>
   <time name="total">    6.18    6.19</time>
   <energy>
    <i name="e_fr_energy">    -93.76063880 </i>
    <i name="e_wo_entrp">    -93.76063880 </i>
    <i name="e_0_energy">    -93.76063880 </i>
   </energy>
  </scstep>
  <scstep>
   <time name="dav">    5.83    5.83</time>
   <time name="total">    6.21    8.17</time>
   <energy>
    <i name="e_fr_energy">    -93.76004204 </i>
    <i name="e_wo_entrp">    -93.76004204 </i>
    <i name="e_0_energy">    -93.76004204 </i>
   </energy>
  </scstep>
  <scstep>
   <time name="dav">    5.71    5.72</time>
   <time name="total">    6.10    6.48</time>
   <energy>
    <i name="e_fr_energy">    -93.75918402 </i>
    <i name="e_wo_entrp">    -93.75918402 </i>
    <i name="e_0_energy">    -93.75918402 </i>
   </energy>
  </scstep>
  <scstep>
   <time name="dav">    4.22    4.22</time>
   <time name="total">    4.46    4.49</time>
   <energy>
    <i name="alphaZ">    114.43812097 </i>
    <i name="ewald"> 130220.27266882 </i>
    <i name="hartreedc">-173929.78268827 </i>
    <i name="XCdc">   -497.60497384 </i>
    <i name="pawpsdc">  47738.42983032 </i>
    <i name="pawaedc"> -45793.24716455 </i>
    <i name="eentropy">      0.00000000 </i>
    <i name="bandstr">  -3583.00473289 </i>
    <i name="atom">  45636.73972380 </i>
    <i name="e_fr_energy">    -93.75921565 </i>
    <i name="e_wo_entrp">    -93.75921565 </i>
    <i name="e_0_energy">    -93.75921565 </i>
   </energy>
  </scstep>
  <structure>
   <crystal>
    <varray name="basis" >
     <v>      24.32295139       0.00000000       0.00000000 </v>
     <v>       0.00000000      24.32295139       0.00000000 </v>
     <v>       0.00000000       0.00000000      24.32295139 </v>
    </varray>
    <i name="volume">  14389.60311166 </i>
    <varray name="rec_basis" >
     <v>       0.04111343       0.00000000       0.00000000 </v>
     <v>       0.00000000       0.04111343       0.00000000 </v>
     <v>       0.00000000       0.00000000       0.04111343 </v>
    </varray>
   </crystal>
   <varray name="positions" >
    <v>       0.49288699       0.41521606       0.74404578 </v>
    <v>       0.44764691       0.50475217       0.68888412 </v>
    <v>       0.56141123       0.49370091       0.69520054 </v>
    <v>       0.42641618       0.59522534       0.61743456 </v>
    <v>       0.42298422       0.39495474       0.65444644 </v>
    <v>       0.51619816       0.60138642       0.69514762 </v>
    <v>       0.53346801       0.39767276       0.63858158 </v>
    <v>       0.39804114       0.48558935       0.58855122 </v>
    <v>       0.34900407       0.57856734       0.53683189 </v>
    <v>       0.61353088       0.57649649       0.63434176 </v>
    <v>       0.51030074       0.51969186       0.58930614 </v>
    <v>       0.35919026       0.37495816       0.56327947 </v>
    <v>       0.47078591       0.59478306       0.50085192 </v>
    <v>       0.30470920       0.46700594       0.52675148 </v>
    <v>       0.46745149       0.40258159       0.54074325 </v>
    <v>       0.52664544       0.64546708       0.58972934 </v>
    <v>       0.61312086       0.46405221       0.59576795 </v>
    <v>       0.29131639       0.53171214       0.43632526 </v>
    <v>       0.37518877       0.60727428       0.42948889 </v>
    <v>       0.40756624       0.50081339       0.47446672 </v>
    <v>       0.68740566       0.63295223       0.56787368 </v>
    <v>       0.49945625       0.70850564       0.49499081 </v>
    <v>       0.60667990       0.69104896       0.51847463 </v>
    <v>       0.77046669       0.58859836       0.50101203 </v>
    <v>       0.59061512       0.56482570       0.51984880 </v>
    <v>       0.40049117       0.34090171       0.46288066 </v>
    <v>       0.52008276       0.48254611       0.47915944 </v>
    <v>       0.46316006       0.66907142       0.39709455 </v>
    <v>       0.33671978       0.42481957       0.42145610 </v>
    <v>       0.56553601       0.63868447       0.42288865 </v>
    <v>       0.57981976       0.36209250       0.54231161 </v>
    <v>       0.69874718       0.52004028       0.55509108 </v>
    <v>       0.37866591       0.51206599       0.36052841 </v>
    <v>       0.48782432       0.54745438       0.38796419 </v>
    <v>       0.63096416       0.44700458       0.48571973 </v>
    <v>       0.51141487       0.34336323       0.44853109 </v>
    <v>       0.67061908       0.61554811       0.45224617 </v>
    <v>       0.44954168       0.42826368       0.39579069 </v>
    <v>       0.60238904       0.53144978       0.40379569 </v>
    <v>       0.41276199       0.61047081       0.31876220 </v>
    <v>       0.55897103       0.42757831       0.38315593 </v>
    <v>       0.71388773       0.51115112       0.43957535 </v>
    <v>       0.62341193       0.34054892       0.43868896 </v>
    <v>       0.66986657       0.42784411       0.37982211 </v>
   </varray>
  </structure>
  <varray name="forces" >
   <v>      -0.00169877       0.06849099       0.12691881 </v>
   <v>       0.01097381      -0.02777202       0.22042986 </v>
   <v>       0.06163197      -0.01765637       0.21080367 </v>
   <v>       0.04842202       0.06592039      -0.03648464 </v>
   <v>      -0.05186301      -0.02094977       0.07160923 </v>
   <v>       0.00644528      -0.16820768       0.00320344 </v>
   <v>      -0.02848501      -0.08016887       0.04032635 </v>
   <v>      -0.08695487       0.03695629       0.12085686 </v>
   <v>      -0.07609855       0.01873916      -0.08216328 </v>
   <v>      -0.07147052      -0.20829665      -0.00112033 </v>
   <v>      -0.03409812       0.06276033      -0.03524093 </v>
   <v>      -0.03978036       0.11179914      -0.08832218 </v>
   <v>      -0.04617811      -0.03700877       0.06433608 </v>
   <v>      -0.25524408      -0.12403581      -0.08271952 </v>
   <v>       0.03774961      -0.01108393       0.16959724 </v>
   <v>       0.14064942      -0.00158591      -0.01199012 </v>
   <v>      -0.04799200      -0.12300731      -0.01913789 </v>
   <v>      -0.01310729       0.03349780      -0.03186546 </v>
   <v>       0.07771530      -0.06509991      -0.20078243 </v>
   <v>      -0.19433616       0.04290395      -0.02510531 </v>
   <v>       0.04548452      -0.07611798      -0.06578805 </v>
   <v>      -0.07537622       0.06956771       0.05049825 </v>
   <v>      -0.00808886      -0.01401190      -0.02137583 </v>
   <v>       0.30632706       0.14153236       0.00996614 </v>
   <v>       0.13610446       0.05950981      -0.05440260 </v>
   <v>      -0.01333887       0.12270304      -0.12302543 </v>
   <v>      -0.06647320       0.09370409      -0.09894326 </v>
   <v>      -0.08365809       0.09716967      -0.03732667 </v>
   <v>      -0.24125214      -0.04320781       0.14121099 </v>
   <v>      -0.12888789      -0.15155640       0.26486367 </v>
   <v>       0.07073671       0.04156259       0.03039693 </v>
   <v>      -0.12817732       0.05768945      -0.11731167 </v>
   <v>      -0.09019407      -0.05273664      -0.04053282 </v>
   <v>      -0.12346682       0.01868684      -0.01497663 </v>
   <v>       0.23239664      -0.06783413      -0.03429797 </v>
   <v>       0.06397323       0.17332489       0.07044322 </v>
   <v>       0.16577956       0.13382103       0.03413003 </v>
   <v>      -0.09477441      -0.08347491       0.13982516 </v>
   <v>       0.10248312      -0.05242519       0.00032420 </v>
   <v>      -0.04993205       0.09483671      -0.22905940 </v>
   <v>       0.11103548      -0.05443360      -0.05414219 </v>
   <v>       0.10933180      -0.00556455       0.04193597 </v>
   <v>       0.16498826       0.02225530      -0.05977100 </v>
   <v>       0.15869855      -0.08119542      -0.24579048 </v>
  </varray>
  <varray name="stress" >
   <v>      -0.75215955      -0.01789081       0.01514610 </v>
   <v>      -0.01789082      -1.74222436      -0.14387032 </v>
   <v>       0.01514610      -0.14387032      -1.26547497 </v>
  </varray>
  <energy>
   <i name="e_fr_energy">    -93.75921565 </i>
   <i name="e_wo_entrp">    -93.75921565 </i>
   <i name="e_0_energy">      0.00000000 </i>
  </energy>
  <time name="totalsc">   39.82   42.62</time>
 </calculation>
 <calculation>
  <scstep>
   <time name="dav">    5.58    5.59</time>
   <time name="total">    5.97    5.99</time>
   <energy>
    <i name="alphaZ">    114.43812097 </i>
    <i name="ewald"> 129671.76153268 </i>
    <i name="hartreedc">-173382.67162952 </i>
    <i name="XCdc">   -497.88908410 </i>
    <i name="pawpsdc">  47738.21187739 </i>
    <i name="pawaedc"> -45793.02746308 </i>
    <i name="eentropy">      0.00000000 </i>
    <i name="bandstr">  -3581.28164225 </i>
    <i name="atom">  45636.73972380 </i>
    <i name="e_fr_energy">    -93.71856411 </i>
    <i name="e_wo_entrp">    -93.71856411 </i>
    <i name="e_0_energy">    -93.71856411 </i>
   </energy>
  </scstep>
  <scstep>
   <time name="dav">    5.74    5.75</time>
   <time name="total">    6.13    6.22</time>
   <energy>
    <i name="e_fr_energy">    -93.87540657 </i>
    <i name="e_wo_entrp">    -93.87540657 </i>
    <i name="e_0_energy">    -93.87540657 </i>
   </energy>
  </scstep>
  <scstep>
   <time name="dav">    5.86    5.87</time>
   <time name="total">    6.25    6.27</time>
   <energy>
    <i name="e_fr_energy">    -93.87312806 </i>
    <i name="e_wo_entrp">    -93.87312806 </i>
    <i name="e_0_energy">    -93.87312806 </i>
   </energy>
  </scstep>
  <scstep>
   <time name="dav">    5.81    5.81</time>
   <time name="total">    6.20    6.22</time>
   <energy>
    <i name="e_fr_energy">    -93.86959593 </i>
    <i name="e_wo_entrp">    -93.86959593 </i>
    <i name="e_0_energy">    -93.86959593 </i>
   </energy>
  </scstep>
  <scstep>
   <time name="dav">    5.91    5.92</time>
   <time name="total">    6.30    6.31</time>
   <energy>
    <i name="e_fr_energy">    -93.86971123 </i>
    <i name="e_wo_entrp">    -93.86971123 </i>
    <i name="e_0_energy">    -93.86971123 </i>
   </energy>
  </scstep>
  <scstep>
   <time name="dav">    4.12    4.13</time>
   <time name="total">    4.37    4.39</time>
   <energy>
    <i name="alphaZ">    114.43812097 </i>
    <i name="ewald"> 129671.76153268 </i>
    <i name="hartreedc">-173386.57937281 </i>
    <i name="XCdc">   -497.83037880 </i>
    <i name="pawpsdc">  47704.21482278 </i>
    <i name="pawaedc"> -45758.37595139 </i>
    <i name="eentropy">      0.00000000 </i>
    <i name="bandstr">  -3578.23811591 </i>
    <i name="atom">  45636.73972380 </i>
    <i name="e_fr_energy">    -93.86961868 </i>
    <i name="e_wo_entrp">    -93.86961868 </i>
    <i name="e_0_energy">    -93.86961868 </i>
   </energy>
  </scstep>
  <structure>
   <crystal>
    <varray name="basis" >
     <v>      24.32295139       0.00000000       0.00000000 </v>
     <v>       0.00000000      24.32295139       0.00000000 </v>
     <v>       0.00000000       0.00000000      24.32295139 </v>
    </varray>
    <i name="volume">  14389.60311166 </i>
    <varray name="rec_basis" >
     <v>       0.04111343       0.00000000       0.00000000 </v>
     <v>       0.00000000       0.04111343       0.00000000 </v>
     <v>       0.00000000       0.00000000       0.04111343 </v>
    </varray>
   </crystal>
   <varray name="positions" >
    <v>       0.49272615       0.41605652       0.74364910 </v>
    <v>       0.44817471       0.50389555       0.69124575 </v>
    <v>       0.56159031       0.49393564       0.69646014 </v>
    <v>       0.42702761       0.59631286       0.61722604 </v>
    <v>       0.42393322       0.39509696       0.65564759 </v>
    <v>       0.51639317       0.60024678       0.69509098 </v>
    <v>       0.53211187       0.39734291       0.63990044 </v>
    <v>       0.39779469       0.48527421       0.58915088 </v>
    <v>       0.34838851       0.57885741       0.53625177 </v>
    <v>       0.61235092       0.57511592       0.63502155 </v>
    <v>       0.51006068       0.52025494       0.58917234 </v>
    <v>       0.35888037       0.37553836       0.56201966 </v>
    <v>       0.47060504       0.59441051       0.50128200 </v>
    <v>       0.30296148       0.46585685       0.52598472 </v>
    <v>       0.46666399       0.40197911       0.54231071 </v>
    <v>       0.52730120       0.64534127       0.58965940 </v>
    <v>       0.61237179       0.46326607       0.59646326 </v>
    <v>       0.29136250       0.53176131       0.43607588 </v>
    <v>       0.37578065       0.60715782       0.42829123 </v>
    <v>       0.40658515       0.50118519       0.47406736 </v>
    <v>       0.68807629       0.63253268       0.56701321 </v>
    <v>       0.49901821       0.70911096       0.49529256 </v>
    <v>       0.60666787       0.69082517       0.51831336 </v>
    <v>       0.77210726       0.58932856       0.50110866 </v>
    <v>       0.59167885       0.56562797       0.51931074 </v>
    <v>       0.39996475       0.34174350       0.46233870 </v>
    <v>       0.51953954       0.48373904       0.47752498 </v>
    <v>       0.46228098       0.66950193       0.39675661 </v>
    <v>       0.33531665       0.42452742       0.42247279 </v>
    <v>       0.56486080       0.63810647       0.42415529 </v>
    <v>       0.58060901       0.36184946       0.54156164 </v>
    <v>       0.69866219       0.52093859       0.55413497 </v>
    <v>       0.37775512       0.51147066       0.36057616 </v>
    <v>       0.48740176       0.54725420       0.38823904 </v>
    <v>       0.63269714       0.44652322       0.48503529 </v>
    <v>       0.51214508       0.34436615       0.44858018 </v>
    <v>       0.67187706       0.61634489       0.45283247 </v>
    <v>       0.44980856       0.42744904       0.39658684 </v>
    <v>       0.60282112       0.53092378       0.40374635 </v>
    <v>       0.41262138       0.61153001       0.31711913 </v>
    <v>       0.55878298       0.42716790       0.38300508 </v>
    <v>       0.71447673       0.51129690       0.44026250 </v>
    <v>       0.62414723       0.34071939       0.43852839 </v>
    <v>       0.67098112       0.42696719       0.37837278 </v>
   </varray>
  </structure>
  <varray name="forces" >
   <v>       0.05908370      -0.09849883       0.43543128 </v>
   <v>      -0.12488905       0.19065412      -0.07882331 </v>
   <v>       0.09627273      -0.10801015       0.15243332 </v>
   <v>      -0.05200053      -0.08947942      -0.03401309 </v>
   <v>      -0.41073327      -0.08084518      -0.11296115 </v>
   <v>      -0.04845701      -0.07581178       0.02481012 </v>
   <v>       0.32813816      -0.08359010      -0.21949817 </v>
   <v>      -0.11381518       0.14501385       0.11952598 </v>
   <v>      -0.01246943      -0.02212115      -0.05057459 </v>
   <v>       0.13540505      -0.09672532      -0.16019642 </v>
   <v>      -0.01709528      -0.00431159      -0.04534624 </v>
   <v>      -0.03993656       0.08402500       0.08319645 </v>
   <v>      -0.06227838       0.01289555       0.03295328 </v>
   <v>      -0.14982129       0.01670129      -0.00645677 </v>
   <v>       0.25486248       0.08098295       0.00817132 </v>
   <v>       0.13880438       0.02821644      -0.00774572 </v>
   <v>       0.05616020      -0.09434557      -0.18460570 </v>
   <v>      -0.04321921       0.06395940      -0.00260885 </v>
   <v>       0.01307649      -0.11284426      -0.13924170 </v>
   <v>      -0.18245565      -0.00061677       0.03462929 </v>
   <v>      -0.04096862      -0.02561185       0.04392406 </v>
   <v>      -0.05159225       0.00280573       0.02904874 </v>
   <v>      -0.01207835       0.03093445      -0.00202658 </v>
   <v>       0.27006295       0.11381951      -0.00484405 </v>
   <v>       0.02306071      -0.06452100       0.01662595 </v>
   <v>       0.09378663       0.04036538      -0.12361498 </v>
   <v>      -0.00062809      -0.05682414       0.18584568 </v>
   <v>       0.05069203       0.10944120      -0.00707196 </v>
   <v>      -0.16394589      -0.02169840       0.06570456 </v>
   <v>      -0.11812708      -0.17354048       0.22199625 </v>
   <v>      -0.03160695       0.13274807       0.22113743 </v>
   <v>      -0.22442596      -0.09703390      -0.00865380 </v>
   <v>       0.02377055       0.00340588      -0.09144588 </v>
   <v>      -0.16655292       0.10281446      -0.12333810 </v>
   <v>       0.06910100      -0.04146289       0.07340202 </v>
   <v>      -0.03306396       0.11260453       0.14456438 </v>
   <v>       0.07678432       0.09120212      -0.06133755 </v>
   <v>      -0.26499334       0.02446076       0.09305792 </v>
   <v>       0.11485649       0.00928255       0.01093570 </v>
   <v>      -0.06567571      -0.03347892      -0.12593578 </v>
   <v>       0.27605618      -0.01230282      -0.08750891 </v>
   <v>       0.10461358      -0.02927994      -0.07989869 </v>
   <v>       0.17363902       0.00296719      -0.09523395 </v>
   <v>       0.07260332       0.02365407      -0.14441178 </v>
  </varray>
  <varray name="stress" >
   <v>      -0.92387077      -0.09403597      -0.02096941 </v>
   <v>      -0.09403596      -1.80164410      -0.17353808 </v>
   <v>      -0.02096941      -0.17353808      -1.40636477 </v>
  </varray>
  <energy>
   <i name="e_fr_energy">    -93.86961868 </i>
   <i name="e_wo_entrp">    -93.86961868 </i>
   <i name="e_0_energy">      0.00000000 </i>
  </energy>
  <time name="totalsc">   46.08   48.27</time>
 </calculation>
 <calculation>
  <scstep>
   <time name="dav">    5.58    5.59</time>
   <time name="total">    5.98    5.99</time>
   <energy>
    <i name="alphaZ">    114.43812097 </i>
    <i name="ewald"> 129416.59451910 </i>
    <i name="hartreedc">-173132.69307854 </i>
    <i name="XCdc">   -498.07277116 </i>
    <i name="pawpsdc">  47703.29921390 </i>
    <i name="pawaedc"> -45757.45376022 </i>
    <i name="eentropy">     -0.00000000 </i>
    <i name="bandstr">  -3576.78121364 </i>
    <i name="atom">  45636.73972380 </i>
    <i name="e_fr_energy">    -93.92924578 </i>
    <i name="e_wo_entrp">    -93.92924578 </i>
    <i name="e_0_energy">    -93.92924578 </i>
   </energy>
  </scstep>
  <scstep>
   <time name="dav">    5.65    5.65</time>
   <time name="total">    6.04    6.04</time>
   <energy>
    <i name="e_fr_energy">    -93.95183827 </i>
    <i name="e_wo_entrp">    -93.95183827 </i>
    <i name="e_0_energy">    -93.95183827 </i>
   </energy>
  </scstep>
  <scstep>
   <time name="dav">    5.80    5.80</time>
   <time name="total">    6.18    6.19</time>
   <energy>
    <i name="e_fr_energy">    -93.95152225 </i>
    <i name="e_wo_entrp">    -93.95152225 </i>
    <i name="e_0_energy">    -93.95152225 </i>
   </energy>
  </scstep>
  <scstep>
   <time name="dav">    5.86    5.87</time>
   <time name="total">    6.25    6.37</time>
   <energy>
    <i name="e_fr_energy">    -93.95084735 </i>
    <i name="e_wo_entrp">    -93.95084735 </i>
    <i name="e_0_energy">    -93.95084735 </i>
   </energy>
  </scstep>
  <scstep>
   <time name="dav">    5.74    5.74</time>
   <time name="total">    5.98    6.00</time>
   <energy>
    <i name="alphaZ">    114.43812097 </i>
    <i name="ewald"> 129416.59451910 </i>
    <i name="hartreedc">-173135.34058869 </i>
    <i name="XCdc">   -498.01985375 </i>
    <i name="pawpsdc">  47669.41940822 </i>
    <i name="pawaedc"> -45723.02520657 </i>
    <i name="eentropy">      0.00000000 </i>
    <i name="bandstr">  -3574.75696479 </i>
    <i name="atom">  45636.73972380 </i>
    <i name="e_fr_energy">    -93.95084171 </i>
    <i name="e_wo_entrp">    -93.95084171 </i>
    <i name="e_0_energy">    -93.95084171 </i>
   </energy>
  </scstep>
  <structure>
   <crystal>
    <varray name="basis" >
     <v>      24.32295139       0.00000000       0.00000000 </v>
     <v>       0.00000000      24.32295139       0.00000000 </v>
     <v>       0.00000000       0.00000000      24.32295139 </v>
    </varray>
    <i name="volume">  14389.60311166 </i>
    <varray name="rec_basis" >
     <v>       0.04111343       0.00000000       0.00000000 </v>
     <v>       0.00000000       0.04111343       0.00000000 </v>
     <v>       0.00000000       0.00000000       0.04111343 </v>
    </varray>
   </crystal>
   <varray name="positions" >
    <v>       0.49281241       0.41603948       0.74445944 </v>
    <v>       0.44803399       0.50409910       0.69160620 </v>
    <v>       0.56182856       0.49376483       0.69705354 </v>
    <v>       0.42705577       0.59636914       0.61710970 </v>
    <v>       0.42329615       0.39496170       0.65568060 </v>
    <v>       0.51633641       0.59983800       0.69512961 </v>
    <v>       0.53248839       0.39709743       0.63973976 </v>
    <v>       0.39750533       0.48550354       0.58953024 </v>
    <v>       0.34822646       0.57887602       0.53601896 </v>
    <v>       0.61236890       0.57461064       0.63484166 </v>
    <v>       0.50997225       0.52037075       0.58904917 </v>
    <v>       0.35872936       0.37584018       0.56191226 </v>
    <v>       0.47043652       0.59435460       0.50144522 </v>
    <v>       0.30226537       0.46563681       0.52580158 </v>
    <v>       0.46701530       0.40201273       0.54267471 </v>
    <v>       0.52773276       0.64537162       0.58962794 </v>
    <v>       0.61232174       0.46289735       0.59623646 </v>
    <v>       0.29128356       0.53190414       0.43601527 </v>
    <v>       0.37593871       0.60689926       0.42773876 </v>
    <v>       0.40599151       0.50126626       0.47405034 </v>
    <v>       0.68814030       0.63238693       0.56691324 </v>
    <v>       0.49881477       0.70925080       0.49541931 </v>
    <v>       0.60664030       0.69083942       0.51827346 </v>
    <v>       0.77302768       0.58972506       0.50112007 </v>
    <v>       0.59196200       0.56567256       0.51922587 </v>
    <v>       0.40004162       0.34201319       0.46196368 </v>
    <v>       0.51941794       0.48388603       0.47754635 </v>
    <v>       0.46219086       0.66982303       0.39666718 </v>
    <v>       0.33466771       0.42441795       0.42283349 </v>
    <v>       0.56446759       0.63762049       0.42489374 </v>
    <v>       0.58071861       0.36206946       0.54185169 </v>
    <v>       0.69818043       0.52093738       0.55390536 </v>
    <v>       0.37760244       0.51134583       0.36039811 </v>
    <v>       0.48696462       0.54742194       0.38804549 </v>
    <v>       0.63322349       0.44633108       0.48503511 </v>
    <v>       0.51223860       0.34482054       0.44888925 </v>
    <v>       0.67231406       0.61670948       0.45283579 </v>
    <v>       0.44932105       0.42731907       0.39695512 </v>
    <v>       0.60315373       0.53082643       0.40375798 </v>
    <v>       0.41245477       0.61169553       0.31649546 </v>
    <v>       0.55931077       0.42705162       0.38279116 </v>
    <v>       0.71482297       0.51126879       0.44024987 </v>
    <v>       0.62466825       0.34076326       0.43829638 </v>
    <v>       0.67137773       0.42682177       0.37775391 </v>
   </varray>
  </structure>
  <varray name="forces" >
   <v>       0.03816494      -0.08339493       0.31370711 </v>
   <v>      -0.08843660       0.12674415      -0.08630959 </v>
   <v>       0.06086363      -0.13588049       0.10045385 </v>
   <v>      -0.04905148      -0.08326078      -0.03344564 </v>
   <v>      -0.25874596      -0.04146053      -0.07129716 </v>
   <v>      -0.03222028      -0.06065630       0.00155291 </v>
   <v>       0.18599542      -0.05859948      -0.07971645 </v>
   <v>      -0.11998354       0.12690868       0.08074177 </v>
   <v>      -0.01079614      -0.01579646      -0.04783317 </v>
   <v>       0.13135386      -0.08642095      -0.14488311 </v>
   <v>      -0.00892804      -0.02367047      -0.01581438 </v>
   <v>      -0.01512140       0.07843049       0.05889965 </v>
   <v>      -0.06959826       0.01653423       0.01756806 </v>
   <v>      -0.12513723       0.04753763       0.02324514 </v>
   <v>       0.19573563       0.09813760       0.00385038 </v>
   <v>       0.11291577       0.01645839       0.00879749 </v>
   <v>       0.04561582      -0.06259854      -0.14851120 </v>
   <v>      -0.05177827       0.06043222      -0.00258431 </v>
   <v>       0.02000458      -0.09881115      -0.12265202 </v>
   <v>      -0.14625686      -0.01916954       0.04683750 </v>
   <v>      -0.02905166      -0.02200267       0.04280657 </v>
   <v>      -0.03963490      -0.01114873       0.03250326 </v>
   <v>      -0.00821552       0.04307986      -0.00141014 </v>
   <v>       0.17216128       0.07209331       0.00749895 </v>
   <v>       0.00156143      -0.07406066       0.00942062 </v>
   <v>       0.08835066       0.02216024      -0.07864717 </v>
   <v>      -0.00192615      -0.06207666       0.14115303 </v>
   <v>       0.04868993       0.08684081      -0.02679498 </v>
   <v>      -0.14461487      -0.00811461       0.03647129 </v>
   <v>      -0.10613449      -0.17236234       0.19621925 </v>
   <v>      -0.00423466       0.09168986       0.14902838 </v>
   <v>      -0.15117366      -0.06562453      -0.02892406 </v>
   <v>       0.02100107      -0.00542433      -0.09508910 </v>
   <v>      -0.13141924       0.09237442      -0.09575488 </v>
   <v>       0.04527517      -0.04762644       0.02705417 </v>
[...]
       <r>     0.3815     0.0000   283.0000 </r>
       <r>     0.4217     0.0000   283.0000 </r>
       <r>     0.4619     0.0000   284.0000 </r>
       <r>     0.5022     0.0000   284.0000 </r>
       <r>     0.5424     0.0000   285.0000 </r>
       <r>     0.5826     0.0000   285.0000 </r>
       <r>     0.6228     0.0000   287.0000 </r>
       <r>     0.6631     0.0000   288.0000 </r>
       <r>     0.7033     0.0000   288.0000 </r>
       <r>     0.7435     0.0000   289.0000 </r>
       <r>     0.7838     0.0000   292.0000 </r>
       <r>     0.8240     0.0000   293.0000 </r>
       <r>     0.8642     0.0000   295.0000 </r>
       <r>     0.9044     0.0000   296.0000 </r>
       <r>     0.9447    20.9471   299.8427 </r>
       <r>     0.9849     0.0000   302.0000 </r>
       <r>     1.0251     0.0000   304.0000 </r>
       <r>     1.0654     0.0000   304.0000 </r>
       <r>     1.1056     0.0000   307.0000 </r>
       <r>     1.1458     0.0000   308.0000 </r>
       <r>     1.1861     0.0000   311.0000 </r>
       <r>     1.2263     0.0000   312.0000 </r>
       <r>     1.2665     0.0000   312.0000 </r>
       <r>     1.3067     0.0000   312.0000 </r>
       <r>     1.3470     0.0000   312.0000 </r>
       <r>     1.3872     0.0000   312.0000 </r>
       <r>     1.4274     0.0000   312.0000 </r>
       <r>     1.4677     0.0000   312.0000 </r>
       <r>     1.5079     0.0000   312.0000 </r>
       <r>     1.5481     0.0000   312.0000 </r>
       <r>     1.5883     0.0000   312.0000 </r>
       <r>     1.6286     0.0000   312.0000 </r>
       <r>     1.6688     0.0000   312.0000 </r>
       <r>     1.7090     0.0000   312.0000 </r>
       <r>     1.7493     0.0000   312.0000 </r>
      </set>
      <set comment="spin 2">
       <r>   -10.3194     0.0000     0.0000 </r>
       <r>   -10.2792     0.0000     0.0000 </r>
       <r>   -10.2390     0.0000     0.0000 </r>
       <r>   -10.1987     0.0000     0.0000 </r>
       <r>   -10.1585     0.0000     0.0000 </r>
       <r>   -10.1183     0.0000     0.0000 </r>
       <r>   -10.0781     0.0000     0.0000 </r>
       <r>   -10.0378     0.0000     0.0000 </r>
       <r>    -9.9976     0.0000     0.0000 </r>
       <r>    -9.9574     0.0000     0.0000 </r>
       <r>    -9.9171     0.0000     0.0000 </r>
       <r>    -9.8769     0.0000     0.0000 </r>
       <r>    -9.8367     0.0000     0.0000 </r>
       <r>    -9.7965     0.0000     0.0000 </r>
       <r>    -9.7562     0.0000     1.0000 </r>
       <r>    -9.7160     0.0000     1.0000 </r>
       <r>    -9.6758     0.0000     1.0000 </r>
       <r>    -9.6355     0.0000     1.0000 </r>
       <r>    -9.5953     0.0000     1.0000 </r>
       <r>    -9.5551     0.0000     1.0000 </r>
       <r>    -9.5149     0.0000     1.0000 </r>
       <r>    -9.4746     0.0000     1.0000 </r>
       <r>    -9.4344     0.0000     1.0000 </r>
       <r>    -9.3942     0.0000     1.0000 </r>
       <r>    -9.3539     0.0000     1.0000 </r>
       <r>    -9.3137     0.0000     2.0000 </r>
       <r>    -9.2735     0.0000     2.0000 </r>
       <r>    -9.2332     0.0000     2.0000 </r>
       <r>    -9.1930     0.0000     3.0000 </r>
       <r>    -9.1528     0.0000     4.0000 </r>
       <r>    -9.1126     0.0000     5.0000 </r>
       <r>    -9.0723     1.0300     7.0414 </r>
       <r>    -9.0321     0.0000     8.0000 </r>
       <r>    -8.9919     0.0000    11.0000 </r>
       <r>    -8.9516     0.0000    14.0000 </r>
       <r>    -8.9114     0.0000    16.0000 </r>
       <r>    -8.8712     0.0000    17.0000 </r>
       <r>    -8.8310     0.0000    18.0000 </r>
       <r>    -8.7907     0.0000    21.0000 </r>
       <r>    -8.7505     0.0000    23.0000 </r>
       <r>    -8.7103     0.0000    26.0000 </r>
       <r>    -8.6700     0.0000    28.0000 </r>
       <r>    -8.6298     0.0000    29.0000 </r>
       <r>    -8.5896     0.0000    32.0000 </r>
       <r>    -8.5494     0.0000    34.0000 </r>
       <r>    -8.5091     0.0000    38.0000 </r>
       <r>    -8.4689     0.0000    40.0000 </r>
       <r>    -8.4287     0.0000    42.0000 </r>
       <r>    -8.3884     0.0000    44.0000 </r>
       <r>    -8.3482     0.0000    47.0000 </r>
       <r>    -8.3080     0.0000    49.0000 </r>
       <r>    -8.2678     0.0000    53.0000 </r>
       <r>    -8.2275     0.0000    55.0000 </r>
       <r>    -8.1873     0.0000    60.0000 </r>
       <r>    -8.1471     0.0000    63.0000 </r>
       <r>    -8.1068    20.8908    64.8404 </r>
       <r>    -8.0666     0.0000    67.0000 </r>
       <r>    -8.0264     0.0000    70.0000 </r>
       <r>    -7.9862     0.0000    72.0000 </r>
       <r>    -7.9459     0.0000    75.0000 </r>
       <r>    -7.9057     0.1968    78.0079 </r>
       <r>    -7.8655     0.0000    80.0000 </r>
       <r>    -7.8252     0.0000    83.0000 </r>
       <r>    -7.7850     0.0228    85.0009 </r>
       <r>    -7.7448     0.0000    88.0000 </r>
       <r>    -7.7045     0.0000    91.0000 </r>
       <r>    -7.6643     0.0000    94.0000 </r>
       <r>    -7.6241     0.0000    98.0000 </r>
       <r>    -7.5839     0.0000   102.0000 </r>
       <r>    -7.5436     0.0000   103.0000 </r>
       <r>    -7.5034     0.0000   107.0000 </r>
       <r>    -7.4632     0.0000   109.0000 </r>
       <r>    -7.4229     0.0000   113.0000 </r>
       <r>    -7.3827     0.0000   115.0000 </r>
       <r>    -7.3425     0.0000   117.0000 </r>
       <r>    -7.3023     0.0000   119.0000 </r>
       <r>    -7.2620     0.0000   123.0000 </r>
       <r>    -7.2218     0.0000   125.0000 </r>
       <r>    -7.1816     0.0000   129.0000 </r>
       <r>    -7.1413     0.0000   132.0000 </r>
       <r>    -7.1011    23.8365   134.9589 </r>
       <r>    -7.0609     0.0000   138.0000 </r>
       <r>    -7.0207     0.0000   142.0000 </r>
       <r>    -6.9804     0.0000   147.0000 </r>
       <r>    -6.9402     0.0000   149.0000 </r>
       <r>    -6.9000     0.0000   154.0000 </r>
       <r>    -6.8597     0.0000   160.0000 </r>
       <r>    -6.8195    24.8575   166.0000 </r>
       <r>    -6.7793    24.8577   170.0000 </r>
       <r>    -6.7391     0.0000   174.0000 </r>
       <r>    -6.6988     0.0000   178.0000 </r>
       <r>    -6.6586     0.0000   183.0000 </r>
       <r>    -6.6184    24.8577   187.0000 </r>
       <r>    -6.5781     0.0000   190.0000 </r>
       <r>    -6.5379     0.0000   194.0000 </r>
       <r>    -6.4977     0.0000   199.0000 </r>
       <r>    -6.4575     0.0000   202.0000 </r>
       <r>    -6.4172     0.0000   206.0000 </r>
       <r>    -6.3770     0.0000   212.0000 </r>
       <r>    -6.3368     0.0000   214.0000 </r>
       <r>    -6.2965     0.0000   217.0000 </r>
       <r>    -6.2563     0.0000   220.0000 </r>
       <r>    -6.2161     0.0000   222.0000 </r>
       <r>    -6.1758     0.0000   224.0000 </r>
       <r>    -6.1356     0.0000   225.0000 </r>
       <r>    -6.0954     0.0000   225.0000 </r>
       <r>    -6.0552     0.0000   225.0000 </r>
       <r>    -6.0149     0.0000   226.0000 </r>
       <r>    -5.9747     0.0000   226.0000 </r>
       <r>    -5.9345     0.0000   227.0000 </r>
       <r>    -5.8942     0.0000   227.0000 </r>
       <r>    -5.8540     0.0000   228.0000 </r>
       <r>    -5.8138     0.0000   229.0000 </r>
       <r>    -5.7736     0.0000   229.0000 </r>
       <r>    -5.7333     0.0000   229.0000 </r>
       <r>    -5.6931     0.0000   229.0000 </r>
       <r>    -5.6529     0.0000   229.0000 </r>
       <r>    -5.6126     0.0000   229.0000 </r>
       <r>    -5.5724     0.0000   229.0000 </r>
       <r>    -5.5322     0.0000   229.0000 </r>
       <r>    -5.4920     0.0000   230.0000 </r>
       <r>    -5.4517     0.0000   230.0000 </r>
       <r>    -5.4115     0.0000   230.0000 </r>
       <r>    -5.3713     0.0000   230.0000 </r>
       <r>    -5.3310     0.0000   230.0000 </r>
       <r>    -5.2908     0.0000   230.0000 </r>
       <r>    -5.2506     0.0000   231.0000 </r>
       <r>    -5.2104     0.0000   231.0000 </r>
       <r>    -5.1701     0.0000   231.0000 </r>
       <r>    -5.1299     0.0000   231.0000 </r>
       <r>    -5.0897     0.0000   231.0000 </r>
       <r>    -5.0494     0.0000   231.0000 </r>
       <r>    -5.0092     0.0000   231.0000 </r>
       <r>    -4.9690     0.0000   231.0000 </r>
       <r>    -4.9287     0.0000   232.0000 </r>
       <r>    -4.8885     0.0000   232.0000 </r>
       <r>    -4.8483     0.0000   232.0000 </r>
       <r>    -4.8081     0.0000   232.0000 </r>
       <r>    -4.7678     0.0000   232.0000 </r>
       <r>    -4.7276     0.0000   233.0000 </r>
       <r>    -4.6874     0.0000   234.0000 </r>
       <r>    -4.6471     0.0000   234.0000 </r>
       <r>    -4.6069     0.0000   234.0000 </r>
       <r>    -4.5667     0.0000   234.0000 </r>
       <r>    -4.5265     0.0000   234.0000 </r>
       <r>    -4.4862     0.0000   234.0000 </r>
       <r>    -4.4460     0.0000   235.0000 </r>
       <r>    -4.4058     0.0000   235.0000 </r>
       <r>    -4.3655     0.0000   236.0000 </r>
       <r>    -4.3253     0.0000   236.0000 </r>
       <r>    -4.2851     0.0000   237.0000 </r>
       <r>    -4.2449     0.0000   237.0000 </r>
       <r>    -4.2046     0.0000   237.0000 </r>
       <r>    -4.1644     0.0000   237.0000 </r>
       <r>    -4.1242     0.0000   238.0000 </r>
       <r>    -4.0839     0.0000   238.0000 </r>
       <r>    -4.0437     0.0000   238.0000 </r>
       <r>    -4.0035     0.0000   238.0000 </r>
       <r>    -3.9633     0.0000   239.0000 </r>
       <r>    -3.9230     0.0000   239.0000 </r>
       <r>    -3.8828     0.0000   239.0000 </r>
       <r>    -3.8426     0.0000   239.0000 </r>
       <r>    -3.8023     0.0000   240.0000 </r>
       <r>    -3.7621     0.0000   240.0000 </r>
       <r>    -3.7219     0.0000   240.0000 </r>
       <r>    -3.6817     0.0000   240.0000 </r>
       <r>    -3.6414     0.0000   241.0000 </r>
       <r>    -3.6012     0.0000   241.0000 </r>
       <r>    -3.5610     0.0000   242.0000 </r>
       <r>    -3.5207     0.0000   242.0000 </r>
       <r>    -3.4805     0.0000   242.0000 </r>
       <r>    -3.4403     0.0000   242.0000 </r>
       <r>    -3.4000     0.0000   242.0000 </r>
       <r>    -3.3598     0.0000   242.0000 </r>
       <r>    -3.3196     0.0000   242.0000 </r>
       <r>    -3.2794     0.0000   242.0000 </r>
       <r>    -3.2391     0.0000   243.0000 </r>
       <r>    -3.1989     0.0000   243.0000 </r>
       <r>    -3.1587     0.0000   243.0000 </r>
       <r>    -3.1184     0.0000   243.0000 </r>
       <r>    -3.0782     0.0000   243.0000 </r>
       <r>    -3.0380     0.0000   243.0000 </r>
       <r>    -2.9978     0.0000   243.0000 </r>
       <r>    -2.9575     0.0000   244.0000 </r>
       <r>    -2.9173     0.0000   244.0000 </r>
       <r>    -2.8771     0.0000   245.0000 </r>
       <r>    -2.8368     0.0000   245.0000 </r>
       <r>    -2.7966     0.0000   246.0000 </r>
       <r>    -2.7564     0.0000   246.0000 </r>
       <r>    -2.7162     0.0000   246.0000 </r>
       <r>    -2.6759     0.0000   247.0000 </r>
       <r>    -2.6357     0.0000   248.0000 </r>
       <r>    -2.5955     0.0000   249.0000 </r>
       <r>    -2.5552     0.0000   249.0000 </r>
       <r>    -2.5150     0.0000   249.0000 </r>
       <r>    -2.4748     0.0000   249.0000 </r>
       <r>    -2.4346     0.0000   249.0000 </r>
       <r>    -2.3943     0.0000   249.0000 </r>
       <r>    -2.3541     0.0000   250.0000 </r>
       <r>    -2.3139     0.0000   251.0000 </r>
       <r>    -2.2736     0.0000   252.0000 </r>
       <r>    -2.2334     0.0000   253.0000 </r>
       <r>    -2.1932     0.0000   253.0000 </r>
       <r>    -2.1530     0.0000   253.0000 </r>
       <r>    -2.1127     0.0000   254.0000 </r>
       <r>    -2.0725     0.0000   255.0000 </r>
       <r>    -2.0323     0.0000   255.0000 </r>
       <r>    -1.9920     0.0000   255.0000 </r>
       <r>    -1.9518     0.0000   255.0000 </r>
       <r>    -1.9116     0.0000   256.0000 </r>
       <r>    -1.8713     0.0000   256.0000 </r>
       <r>    -1.8311     0.0000   256.0000 </r>
       <r>    -1.7909     0.0000   256.0000 </r>
       <r>    -1.7507     0.0000   257.0000 </r>
       <r>    -1.7104     0.0000   257.0000 </r>
       <r>    -1.6702     0.0000   258.0000 </r>
       <r>    -1.6300     0.0000   258.0000 </r>
       <r>    -1.5897    24.8531   258.9998 </r>
       <r>    -1.5495     0.0000   259.0000 </r>
       <r>    -1.5093     0.0000   259.0000 </r>
       <r>    -1.4691     0.0000   260.0000 </r>
       <r>    -1.4288     0.0000   260.0000 </r>
       <r>    -1.3886     0.0000   260.0000 </r>
       <r>    -1.3484     0.0000   260.0000 </r>
       <r>    -1.3081     0.0000   260.0000 </r>
       <r>    -1.2679     0.0000   260.0000 </r>
       <r>    -1.2277     0.0000   261.0000 </r>
       <r>    -1.1875     0.0000   261.0000 </r>
       <r>    -1.1472     0.0000   262.0000 </r>
       <r>    -1.1070     0.0000   263.0000 </r>
       <r>    -1.0668     0.0000   264.0000 </r>
       <r>    -1.0265     0.0000   264.0000 </r>
       <r>    -0.9863     0.0000   265.0000 </r>
       <r>    -0.9461     0.0000   265.0000 </r>
       <r>    -0.9059     0.0000   266.0000 </r>
       <r>    -0.8656     0.0000   266.0000 </r>
       <r>    -0.8254     0.0000   266.0000 </r>
       <r>    -0.7852     0.0000   268.0000 </r>
       <r>    -0.7449     0.0000   269.0000 </r>
       <r>    -0.7047     0.0000   270.0000 </r>
       <r>    -0.6645     0.0000   271.0000 </r>
       <r>    -0.6243     0.0000   271.0000 </r>
       <r>    -0.5840     0.0000   271.0000 </r>
       <r>    -0.5438     0.0000   272.0000 </r>
       <r>    -0.5036     0.0000   273.0000 </r>
       <r>    -0.4633     0.0000   273.0000 </r>
       <r>    -0.4231     0.0000   274.0000 </r>
       <r>    -0.3829     0.0000   275.0000 </r>
       <r>    -0.3426     0.0000   276.0000 </r>
       <r>    -0.3024     0.0000   276.0000 </r>
       <r>    -0.2622     0.0000   276.0000 </r>
       <r>    -0.2220     0.0000   277.0000 </r>
       <r>    -0.1817     0.0000   277.0000 </r>
       <r>    -0.1415     0.0000   278.0000 </r>
       <r>    -0.1013     0.0000   278.0000 </r>
       <r>    -0.0610     0.0000   278.0000 </r>
       <r>    -0.0208     0.0000   279.0000 </r>
       <r>     0.0194     0.0000   279.0000 </r>
       <r>     0.0596     0.0000   280.0000 </r>
       <r>     0.0999     0.0000   280.0000 </r>
       <r>     0.1401     0.0000   280.0000 </r>
       <r>     0.1803     0.0000   280.0000 </r>
       <r>     0.2206     0.0000   280.0000 </r>
       <r>     0.2608     0.0000   281.0000 </r>
       <r>     0.3010     0.0000   282.0000 </r>
       <r>     0.3412     0.0000   282.0000 </r>
       <r>     0.3815     0.0000   283.0000 </r>
       <r>     0.4217     0.0000   283.0000 </r>
       <r>     0.4619     0.0000   284.0000 </r>
       <r>     0.5022     0.0000   284.0000 </r>
       <r>     0.5424     0.0000   285.0000 </r>
       <r>     0.5826     0.0000   285.0000 </r>
       <r>     0.6228     0.0000   287.0000 </r>
       <r>     0.6631     0.0000   288.0000 </r>
       <r>     0.7033     0.0000   288.0000 </r>
       <r>     0.7435     0.0000   289.0000 </r>
       <r>     0.7838     0.0000   292.0000 </r>
       <r>     0.8240     0.0000   293.0000 </r>
       <r>     0.8642     0.0000   295.0000 </r>
       <r>     0.9044     0.0000   296.0000 </r>
       <r>     0.9447    20.6958   299.8326 </r>
       <r>     0.9849     0.0000   302.0000 </r>
       <r>     1.0251     0.0000   304.0000 </r>
       <r>     1.0654     0.0000   304.0000 </r>
       <r>     1.1056     0.0000   307.0000 </r>
       <r>     1.1458     0.0000   308.0000 </r>
       <r>     1.1861     0.0000   311.0000 </r>
       <r>     1.2263     0.0000   312.0000 </r>
       <r>     1.2665     0.0000   312.0000 </r>
       <r>     1.3067     0.0000   312.0000 </r>
       <r>     1.3470     0.0000   312.0000 </r>
       <r>     1.3872     0.0000   312.0000 </r>
       <r>     1.4274     0.0000   312.0000 </r>
       <r>     1.4677     0.0000   312.0000 </r>
       <r>     1.5079     0.0000   312.0000 </r>
       <r>     1.5481     0.0000   312.0000 </r>
       <r>     1.5883     0.0000   312.0000 </r>
       <r>     1.6286     0.0000   312.0000 </r>
       <r>     1.6688     0.0000   312.0000 </r>
       <r>     1.7090     0.0000   312.0000 </r>
       <r>     1.7493     0.0000   312.0000 </r>
      </set>
     </set>
    </array>
   </total>
  </dos>
 </calculation>
 <structure name="finalpos" >
  <crystal>
   <varray name="basis" >
    <v>      24.32295139       0.00000000       0.00000000 </v>
    <v>       0.00000000      24.32295139       0.00000000 </v>
    <v>       0.00000000       0.00000000      24.32295139 </v>
   </varray>
   <i name="volume">  14389.60311166 </i>
   <varray name="rec_basis" >
    <v>       0.04111343       0.00000000       0.00000000 </v>
    <v>       0.00000000       0.04111343       0.00000000 </v>
    <v>       0.00000000       0.00000000       0.04111343 </v>
   </varray>
  </crystal>
  <varray name="positions" >
   <v>       0.48735520       0.40354175       0.74839096 </v>
   <v>       0.44020512       0.51732642       0.70118796 </v>
   <v>       0.54829489       0.47763560       0.69260233 </v>
   <v>       0.43428879       0.61086546       0.61335938 </v>
   <v>       0.44455471       0.41870188       0.64477041 </v>
   <v>       0.52265330       0.59505146       0.68790199 </v>
   <v>       0.54524114       0.36588991       0.65107280 </v>
   <v>       0.38379006       0.50778082       0.60127124 </v>
   <v>       0.34487182       0.59032598       0.53211244 </v>
   <v>       0.61504556       0.55327429       0.63770704 </v>
   <v>       0.50173828       0.51789945       0.58926853 </v>
   <v>       0.38475394       0.40665250       0.54707496 </v>
   <v>       0.46081721       0.59360034       0.50226883 </v>
   <v>       0.29356495       0.47577338       0.53422672 </v>
   <v>       0.49998039       0.40093490       0.54612814 </v>
   <v>       0.54622331       0.63555290       0.58059290 </v>
   <v>       0.60136141       0.44795824       0.59393567 </v>
   <v>       0.28637981       0.52912324       0.43529118 </v>
   <v>       0.37074488       0.60455433       0.42003245 </v>
   <v>       0.39536574       0.50346763       0.47796759 </v>
   <v>       0.66811314       0.62537914       0.56705343 </v>
   <v>       0.49360779       0.70559425       0.50318520 </v>
   <v>       0.60933723       0.70598819       0.51053587 </v>
   <v>       0.76358807       0.58980414       0.50905982 </v>
   <v>       0.59553371       0.54456879       0.52149356 </v>
   <v>       0.43483142       0.34294779       0.46772019 </v>
   <v>       0.51229939       0.48808114       0.47171129 </v>
   <v>       0.46200034       0.66744817       0.39764652 </v>
   <v>       0.33459678       0.41760305       0.43808703 </v>
   <v>       0.55616998       0.62696015       0.44616912 </v>
   <v>       0.59620224       0.34141026       0.54411424 </v>
   <v>       0.69669040       0.51056962       0.56145842 </v>
   <v>       0.36916184       0.50758586       0.35766616 </v>
   <v>       0.47723091       0.55167856       0.38439752 </v>
   <v>       0.63213115       0.43650429       0.48716286 </v>
   <v>       0.54354295       0.37704148       0.43707097 </v>
   <v>       0.66915270       0.62126535       0.45130570 </v>
   <v>       0.44280097       0.43025611       0.39866666 </v>
   <v>       0.60166879       0.53328309       0.40363095 </v>
   <v>       0.40799361       0.61140274       0.31216242 </v>
   <v>       0.54017561       0.45597132       0.34949748 </v>
   <v>       0.70724820       0.51137006       0.44435753 </v>
   <v>       0.64743433       0.33160291       0.43976144 </v>
   <v>       0.64861970       0.42850434       0.37676060 </v>
  </varray>
 </structure>
</modeling>
