10
Energy = -48.16769077 eV
Y 12.234006279815954 8.225362031197811 9.617621223583685
Y 9.432606586919157 6.170834831874636 9.016699385377258
Y 9.631250781708138 9.195478822590136 7.971728529074084
Y 9.785988032664955 7.878149492270362 11.74773439100553
Y 11.833714289914335 10.689503109146534 11.972409020838162
Y 6.994955338267537 8.512351677463117 9.541795597088981
Y 11.634457460883267 11.523402657139417 8.788811463303357
Y 8.121459221869058 12.06386244425873 8.303474923446478
Y 10.135365872224254 13.598752004326915 10.725750976244706
Y 8.852278101322655 10.72554544728201 10.953193104203919
