15
Energy = -74.45891315 eV
Y 9.571615849153433 8.253563378439186 10.978827591072786
Y 13.010108717835283 8.154082871545533 10.829902273095557
Y 6.133118250907128 8.15419646548099 10.829818499664379
Y 11.269967995600174 11.327716822904408 10.737394942259396
Y 7.873316929980114 11.327754112545833 10.737357867924745
Y 9.571673489030267 14.307122014531425 10.647155141452508
Y 11.24257832174295 5.352799616253877 10.951590568453627
Y 7.90051027936687 5.352879443900473 10.951745650710128
Y 9.57167009425267 10.214859992598345 7.967364884026896
Y 12.965380042137516 10.19954722456974 8.156817098964774
Y 6.17797779683777 10.199588416190714 8.156714444468486
Y 11.259521508287074 13.166476880648071 8.027173852167806
Y 7.883865820825552 13.166508467615815 8.027130100556025
Y 11.284057312887402 7.1987842595145075 8.287802353684945
Y 7.859259671346465 7.198742953069996 8.287827651307262
