4
Energy = -15.38662262 eV
Y 9.429496339681652 13.254583706028095 11.38286841850594
Y 10.151348215109245 10.72222680691102 9.670218869082499
Y 11.932422418733363 11.446810027453976 11.972938453683664
Y 12.126619811994043 8.549200950798456 10.783078117860319
