4
Energy = -16.2839077 eV
Y 5.270179326307387 7.982549535280775 6.6280309410311355
Y 8.54564492981076 8.159055050804342 6.676265188406031
Y 6.994008189001074 6.365171888108412 8.770942764523172
Y 7.0606592755346576 5.364641882763458 5.795524825625026
