5
Energy = -18.72199278 eV
Y 11.466803572519558 10.083512693391064 7.577970882230221
Y 13.28477400448827 13.13775779154831 12.52889029537332
Y 11.815779524147679 11.086706667406638 10.423325354291455
Y 10.789805508831893 11.554309220984226 13.529809503527218
Y 12.177747846981969 13.672624083638837 15.474914421547295
