55
Energy = -308.47653302 eV
Y 12.303672627272634 12.303672627272634 12.303672627272634
Y 12.303672627272634 14.10439029068022 15.20889237402681
Y 12.303672627272634 14.10439029068022 9.398452880518455
Y 12.303672627272634 10.502954963865223 15.20889237402681
Y 12.303672627272634 10.502954963865223 9.398452880518455
Y 14.10439029068022 15.20889237402681 12.303672627272634
Y 10.502954963865223 15.20889237402681 12.303672627272634
Y 14.10439029068022 9.398452880518455 12.303672627272634
Y 10.502954963865223 9.398452880518455 12.303672627272634
Y 15.20889237402681 12.303672627272634 14.10439029068022
Y 15.20889237402681 12.303672627272634 10.502954963865223
Y 9.398452880518455 12.303672627272634 14.10439029068022
Y 9.398452880518455 12.303672627272634 10.502954963865223
Y 6.652688860475338 12.303672627272634 8.81064868590965
Y 12.303672627272634 15.796695568635872 17.954656394070106
Y 12.303672627272634 15.796695568635872 6.652688860475338
Y 12.303672627272634 8.81064868590965 17.954656394070106
Y 12.303672627272634 8.81064868590965 6.652688860475338
Y 15.796695568635872 17.954656394070106 12.303672627272634
Y 8.81064868590965 17.954656394070106 12.303672627272634
Y 15.796695568635872 6.652688860475338 12.303672627272634
Y 8.81064868590965 6.652688860475338 12.303672627272634
Y 17.954656394070106 12.303672627272634 15.796695568635872
Y 17.954656394070106 12.303672627272634 8.81064868590965
Y 6.652688860475338 12.303672627272634 15.796695568635872
Y 12.303672627272634 18.10724902288209 12.303672627272634
Y 12.303672627272634 6.5000952316634315 12.303672627272634
Y 6.5000952316634315 12.303672627272634 12.303672627272634
Y 18.10724902288209 12.303672627272634 12.303672627272634
Y 12.303672627272634 12.303672627272634 6.5000952316634315
Y 12.303672627272634 12.303672627272634 18.10724902288209
Y 14.101644967801574 7.603519444610925 15.208186299153837
Y 10.505699286743775 7.603519444610925 15.208186299153837
Y 14.101644967801574 7.603519444610925 9.399158955391783
Y 10.505699286743775 7.603519444610925 9.399158955391783
Y 17.00382580993452 9.399158955391783 10.505699286743775
Y 17.00382580993452 9.399158955391783 14.101644967801574
Y 7.603519444610925 9.399158955391783 10.505699286743775
Y 7.603519444610925 9.399158955391783 14.101644967801574
Y 14.101644967801574 17.00382580993452 9.399158955391783
Y 14.101644967801574 17.00382580993452 15.208186299153837
Y 10.505699286743775 17.00382580993452 9.399158955391783
Y 10.505699286743775 17.00382580993452 15.208186299153837
Y 9.399158955391783 14.101644967801574 7.603519444610925
Y 15.208186299153837 14.101644967801574 7.603519444610925
Y 9.399158955391783 10.505699286743775 7.603519444610925
Y 15.208186299153837 10.505699286743775 7.603519444610925
Y 7.603519444610925 15.208186299153837 14.101644967801574
Y 7.603519444610925 15.208186299153837 10.505699286743775
Y 9.399158955391783 10.505699286743775 17.00382580993452
Y 15.208186299153837 10.505699286743775 17.00382580993452
Y 15.208186299153837 14.101644967801574 17.00382580993452
Y 9.399158955391783 14.101644967801574 17.00382580993452
Y 17.00382580993452 15.208186299153837 10.505699286743775
Y 17.00382580993452 15.208186299153837 14.101644967801574
