7
Energy = -30.97814475 eV
Y 7.42946978854655 9.69463185122913 9.675506793644404
Y 8.685440678712736 9.395633840920887 12.576945669615693
Y 10.609478612287226 9.023785824467609 9.833064084005938
Y 11.668505941814429 12.044607989536965 8.256328941888892
Y 9.385863959810468 12.240466797328454 10.74969469094395
Y 13.919083360617996 10.391836444095162 9.96854620614675
Y 11.832504277511424 10.73938387172262 12.470260233055216
