7
Energy = -32.46418389 eV
Y 9.174060792527762 8.35185051055687 8.811187139695678
Y 12.119706704045356 8.181737440742179 10.51140186632786
Y 11.11151958877576 10.944710502699767 9.118057724230672
Y 9.550582957095964 9.824932789895236 11.691934445342184
Y 12.614593921601625 11.070403999282885 12.08646852260794
Y 10.058296268862382 13.043139269140035 11.390639459768032
Y 7.903730144071643 11.327840205361978 9.342870711505752
