8
Energy = -36.88486605 eV
Y 8.135954393411058 8.094792667724313 11.54826038203519
Y 13.833730507304658 10.18209688469982 8.464183059538017
Y 11.002653428809731 9.033070821512236 9.965243964302628
Y 10.098711728008658 10.34532380550905 12.862348162271777
Y 12.88903053243993 11.370356014755279 11.349870120411031
Y 8.401007828073606 11.059016238978298 10.211998963992956
Y 11.190550185014718 12.0820385326717 8.698875515033468
Y 10.282778993483843 13.433159249253448 11.610980105904064
