8
Energy = -36.50735627 eV
Y 6.800347240807064 7.507605877146775 11.272976678352665
Y 9.564821002578228 9.098403635841324 6.929110810759406
Y 8.905784917253564 11.924772984840102 8.52661242723246
Y 8.337866666438714 6.567982126434204 8.508385676908484
Y 6.834288498647091 7.609158483643235 5.741448656909183
Y 6.746030288568282 9.396156725553451 8.523889440552518
Y 9.496969354370139 9.102156394377024 10.177783428357106
Y 11.616124031337035 7.095995772164014 8.622024880927814
