9
Energy = -42.77911043 eV
Y 12.476826495522054 14.084719257045746 9.403656844709205
Y 11.173561045686041 14.011824474270906 12.472404261563437
Y 13.682470429256083 12.033487636489275 11.810906313565706
Y 12.219991322381738 11.345285653914997 14.565085543381983
Y 9.42832410863826 12.71186914095736 9.546663863569007
Y 10.149756472380703 11.051995374026188 12.188653887165815
Y 12.000169232204463 10.779048934317085 9.350204943086204
Y 9.451653445017643 8.998604372211581 9.858566849093268
Y 12.262531005050317 8.804711789255585 12.045183751394452
