unknown system                          
           1
    21.884477    0.000000    0.000000
     0.000000   21.884477    0.000000
     0.000000    0.000000   21.884477
   Ag
  34
Direct configuration=     1
   0.36894381  0.50456506  0.34467970
   0.37784483  0.39311395  0.41201805
   0.54669935  0.41065987  0.65729670
   0.53863085  0.56615769  0.49008794
   0.49379232  0.33402800  0.41683851
   0.34721242  0.42460711  0.54194437
   0.70284568  0.51413402  0.54708878
   0.40980292  0.31981702  0.50898581
   0.43082387  0.37087256  0.62346107
   0.52832859  0.33480241  0.55289296
   0.54605886  0.69274861  0.50810940
   0.45982173  0.68641966  0.41525692
   0.63910608  0.62207687  0.55767582
   0.42654120  0.65068074  0.53316787
   0.52672151  0.62247100  0.61480874
   0.57512263  0.64269108  0.39007326
   0.66694209  0.57566578  0.44221993
   0.61820368  0.33234304  0.46522163
   0.60744695  0.51995797  0.63021963
   0.63616545  0.40873757  0.56637893
   0.40769541  0.60582743  0.64985645
   0.38037603  0.48226745  0.65134964
   0.36299714  0.60584770  0.42988384
   0.29796307  0.49217373  0.44841081
   0.47221697  0.57615643  0.35169058
   0.47937211  0.44450383  0.34451241
   0.34472450  0.55527475  0.54997849
   0.59257149  0.39272258  0.35568005
   0.49651555  0.52394260  0.69327691
   0.58679236  0.51816324  0.36232501
   0.48381208  0.48534720  0.57210397
   0.43192755  0.50216082  0.46031205
   0.67229624  0.44766202  0.44248643
   0.54368553  0.44140231  0.46970215
Direct configuration=     2
   0.36890013  0.50458955  0.34465589
   0.37783704  0.39315076  0.41201437
   0.54671803  0.41062227  0.65731553
   0.53871692  0.56630228  0.49003581
   0.49384668  0.33403828  0.41684507
   0.34724345  0.42457964  0.54193094
   0.70289404  0.51410133  0.54710111
   0.40976872  0.31975405  0.50905098
   0.43079833  0.37085294  0.62349116
   0.52834525  0.33480793  0.55286250
   0.54604906  0.69280583  0.50811740
   0.45978228  0.68641942  0.41525997
   0.63914828  0.62209545  0.55767589
   0.42658905  0.65072390  0.53316917
   0.52672880  0.62243820  0.61479951
   0.57513740  0.64273031  0.39005164
   0.66697526  0.57566772  0.44224367
   0.61818275  0.33234286  0.46520378
   0.60744097  0.51998100  0.63020428
   0.63614212  0.40873871  0.56637585
   0.40763891  0.60585223  0.64985377
   0.38035165  0.48229106  0.65137134
   0.36296172  0.60583492  0.42984931
   0.29800183  0.49219462  0.44842539
   0.47223157  0.57615714  0.35170578
   0.47935632  0.44450231  0.34454699
   0.34469646  0.55525057  0.54999219
   0.59261263  0.39267549  0.35566224
   0.49649827  0.52392233  0.69330980
   0.58678310  0.51815993  0.36232683
   0.48378459  0.48533021  0.57230195
   0.43177085  0.50214719  0.46017442
   0.67227995  0.44767399  0.44247592
   0.54378843  0.44126772  0.46959439
Direct configuration=     3
   0.36876909  0.50466300  0.34458444
   0.37781366  0.39326117  0.41200330
   0.54677406  0.41050948  0.65737203
   0.53897514  0.56673604  0.48987941
   0.49400977  0.33406910  0.41686473
   0.34733654  0.42449720  0.54189066
   0.70303914  0.51400325  0.54713808
   0.40966611  0.31956513  0.50924650
   0.43072171  0.37079407  0.62358141
   0.52839523  0.33482450  0.55277113
   0.54601965  0.69297748  0.50814142
   0.45966394  0.68641871  0.41526911
   0.63927488  0.62215120  0.55767609
   0.42673262  0.65085339  0.53317307
   0.52675066  0.62233978  0.61477183
   0.57518171  0.64284800  0.38998676
   0.66707476  0.57567353  0.44231489
   0.61811994  0.33234232  0.46515021
   0.60742305  0.52005009  0.63015823
   0.63607211  0.40874211  0.56636661
   0.40746940  0.60592661  0.64984571
   0.38027851  0.48236189  0.65143644
   0.36285547  0.60579657  0.42974572
   0.29811809  0.49225730  0.44846912
   0.47227538  0.57615926  0.35175139
   0.47930896  0.44449777  0.34465074
   0.34461236  0.55517804  0.55003330
   0.59273605  0.39253423  0.35560882
   0.49644643  0.52386150  0.69340846
   0.58675531  0.51815002  0.36233227
   0.48370210  0.48527924  0.57289589
   0.43130076  0.50210630  0.45976152
   0.67223106  0.44770991  0.44244439
   0.54409714  0.44086395  0.46927112
Direct configuration=     4
   0.36850700  0.50480991  0.34444155
   0.37776691  0.39348199  0.41198118
   0.54688613  0.41028389  0.65748503
   0.53949157  0.56760355  0.48956661
   0.49433594  0.33413075  0.41690404
   0.34752274  0.42433234  0.54181009
   0.70332934  0.51380711  0.54721204
   0.40946091  0.31918728  0.50963752
   0.43056849  0.37067634  0.62376193
   0.52849519  0.33485764  0.55258839
   0.54596085  0.69332078  0.50818946
   0.45942727  0.68641729  0.41528741
   0.63952807  0.62226269  0.55767650
   0.42701977  0.65111236  0.53318087
   0.52679439  0.62214296  0.61471648
   0.57527033  0.64308338  0.38985700
   0.66727376  0.57568515  0.44245733
   0.61799433  0.33234124  0.46504309
   0.60738720  0.52018826  0.63006613
   0.63593210  0.40874890  0.56634812
   0.40713039  0.60607538  0.64982960
   0.38013223  0.48250354  0.65156664
   0.36264297  0.60571988  0.42953853
   0.29835063  0.49238267  0.44855660
   0.47236300  0.57616351  0.35184260
   0.47921423  0.44448868  0.34485823
   0.34444415  0.55503298  0.55011552
   0.59298289  0.39225170  0.35550198
   0.49634274  0.52373986  0.69360580
   0.58669974  0.51813019  0.36234317
   0.48353714  0.48517729  0.57408377
   0.43036059  0.50202450  0.45893572
   0.67213330  0.44778174  0.44238133
   0.54471456  0.44005640  0.46862458
Direct configuration=     5
   0.36839058  0.50488472  0.34429004
   0.37776614  0.39345721  0.41200827
   0.54695295  0.41017040  0.65755974
   0.53951207  0.56760256  0.48946664
   0.49435078  0.33409477  0.41694611
   0.34762236  0.42427409  0.54179408
   0.70344052  0.51373117  0.54725629
   0.40940727  0.31902931  0.50972861
   0.43052793  0.37062158  0.62384959
   0.52846390  0.33488271  0.55255195
   0.54596554  0.69351884  0.50822198
   0.45934711  0.68641148  0.41528735
   0.63963985  0.62231477  0.55768745
   0.42707488  0.65115837  0.53319249
   0.52678563  0.62204622  0.61468222
   0.57532378  0.64319744  0.38978547
   0.66734689  0.57569808  0.44249434
   0.61802879  0.33226999  0.46500184
   0.60736875  0.52022252  0.63001774
   0.63587879  0.40876889  0.56633792
   0.40701589  0.60614518  0.64980636
   0.38001971  0.48253548  0.65164167
   0.36254012  0.60576640  0.42947666
   0.29836306  0.49242592  0.44859714
   0.47239412  0.57616526  0.35188862
   0.47920828  0.44448135  0.34494267
   0.34442512  0.55502410  0.55014656
   0.59308676  0.39216090  0.35537191
   0.49630210  0.52372477  0.69376099
   0.58669051  0.51812334  0.36237054
   0.48352723  0.48520911  0.57402409
   0.43038784  0.50196995  0.45891210
   0.67214396  0.44782277  0.44235358
   0.54470162  0.44009248  0.46854181
Direct configuration=     6
   0.36804130  0.50510915  0.34383550
   0.37776382  0.39338286  0.41208953
   0.54715342  0.40982994  0.65778386
   0.53957356  0.56759961  0.48916674
   0.49439531  0.33398684  0.41707232
   0.34792122  0.42409933  0.54174607
   0.70377404  0.51350335  0.54738904
   0.40924634  0.31855539  0.51000187
   0.43040627  0.37045730  0.62411256
   0.52837002  0.33495794  0.55244263
   0.54597963  0.69411302  0.50831951
   0.45910664  0.68639405  0.41528718
   0.63997518  0.62247101  0.55772028
   0.42724022  0.65129640  0.53322735
   0.52675935  0.62175599  0.61457946
   0.57548416  0.64353963  0.38957089
   0.66756631  0.57573685  0.44260538
   0.61813216  0.33205624  0.46487812
   0.60731342  0.52032529  0.62987257
   0.63571886  0.40882885  0.56630734
   0.40667239  0.60635460  0.64973667
   0.37968218  0.48263128  0.65186675
   0.36223158  0.60590596  0.42929105
   0.29840037  0.49255568  0.44871877
   0.47248745  0.57617052  0.35202668
   0.47919042  0.44445936  0.34519599
   0.34436802  0.55499746  0.55023969
   0.59339838  0.39188849  0.35498172
   0.49618017  0.52367951  0.69422654
   0.58666282  0.51810278  0.36245266
   0.48349750  0.48530456  0.57384506
   0.43046956  0.50180629  0.45884126
   0.67217594  0.44794587  0.44227033
   0.54466281  0.44020071  0.46829348
Direct configuration=     7
   0.36734274  0.50555800  0.34292642
   0.37775918  0.39323415  0.41225205
   0.54755436  0.40914901  0.65823210
   0.53969655  0.56759371  0.48856693
   0.49448436  0.33377097  0.41732474
   0.34851895  0.42374983  0.54165003
   0.70444108  0.51304771  0.54765454
   0.40892449  0.31760754  0.51054839
   0.43016295  0.37012874  0.62463851
   0.52818227  0.33510839  0.55222400
   0.54600780  0.69530138  0.50851459
   0.45862570  0.68635919  0.41528685
   0.64064585  0.62278350  0.55778594
   0.42757091  0.65157247  0.53329706
   0.52670679  0.62117555  0.61437393
   0.57580490  0.64422401  0.38914172
   0.66800513  0.57581440  0.44282745
   0.61833891  0.33162873  0.46463066
   0.60720275  0.52053084  0.62958224
   0.63539899  0.40894876  0.56624617
   0.40598541  0.60677342  0.64959728
   0.37900711  0.48282290  0.65231690
   0.36161449  0.60618506  0.42891984
   0.29847498  0.49281520  0.44896203
   0.47267413  0.57618104  0.35230279
   0.47915470  0.44441539  0.34570264
   0.34425384  0.55494419  0.55042596
   0.59402162  0.39134367  0.35420133
   0.49593632  0.52358899  0.69515764
   0.58660743  0.51806166  0.36261689
   0.48343804  0.48549546  0.57348698
   0.43063301  0.50147898  0.45869958
   0.67223990  0.44819207  0.44210383
   0.54458519  0.44041718  0.46779683
Direct configuration=     8
   0.36725291  0.50571926  0.34278595
   0.37777462  0.39314689  0.41241351
   0.54756540  0.40909266  0.65833583
   0.53985560  0.56800072  0.48825145
   0.49448856  0.33368476  0.41755249
   0.34892119  0.42369394  0.54162343
   0.70470518  0.51290611  0.54780410
   0.40879730  0.31705072  0.51071247
   0.43017260  0.37014234  0.62495384
   0.52800924  0.33530143  0.55209366
   0.54606581  0.69549313  0.50859078
   0.45858691  0.68632454  0.41533845
   0.64076728  0.62288478  0.55774671
   0.42760274  0.65158324  0.53324039
   0.52661648  0.62083247  0.61409295
   0.57594232  0.64446842  0.38914532
   0.66809001  0.57593902  0.44291638
   0.61839536  0.33165001  0.46451560
   0.60699209  0.52047435  0.62944308
   0.63517868  0.40900618  0.56604996
   0.40581524  0.60689642  0.64957493
   0.37887862  0.48283305  0.65241659
   0.36139669  0.60615513  0.42888537
   0.29866297  0.49289910  0.44900435
   0.47264857  0.57612930  0.35252568
   0.47912248  0.44438719  0.34596297
   0.34433005  0.55498536  0.55038326
   0.59415421  0.39121891  0.35398239
   0.49573030  0.52339696  0.69514767
   0.58669304  0.51805960  0.36278646
   0.48345775  0.48553743  0.57379150
   0.43044432  0.50156036  0.45843921
   0.67218527  0.44818518  0.44202667
   0.54470102  0.44036317  0.46746143
Direct configuration=     9
   0.36714409  0.50591461  0.34261580
   0.37779332  0.39304119  0.41260909
   0.54757877  0.40902439  0.65846148
   0.54004826  0.56849374  0.48786929
   0.49449365  0.33358033  0.41782837
   0.34940843  0.42362623  0.54159120
   0.70502511  0.51273458  0.54798527
   0.40864323  0.31637621  0.51091122
   0.43018430  0.37015882  0.62533583
   0.52779965  0.33553527  0.55193578
   0.54613608  0.69572541  0.50868307
   0.45853993  0.68628256  0.41540096
   0.64091438  0.62300745  0.55769919
   0.42764131  0.65159627  0.53317175
   0.52650709  0.62041687  0.61375260
   0.57610878  0.64476449  0.38914969
   0.66819283  0.57608997  0.44302410
   0.61846373  0.33167579  0.46437621
   0.60673690  0.52040592  0.62927451
   0.63491180  0.40907572  0.56581229
   0.40560912  0.60704540  0.64954786
   0.37872297  0.48284534  0.65253734
   0.36113286  0.60611888  0.42884363
   0.29889069  0.49300074  0.44905561
   0.47261761  0.57606662  0.35279566
   0.47908345  0.44435305  0.34627833
   0.34442238  0.55503523  0.55033153
   0.59431482  0.39106779  0.35371717
   0.49548074  0.52316434  0.69513559
   0.58679675  0.51805710  0.36299186
   0.48348163  0.48558828  0.57416037
   0.43021576  0.50165893  0.45812380
   0.67211910  0.44817683  0.44193321
   0.54484133  0.44029774  0.46705515
Direct configuration=    10
   0.36732024  0.50585191  0.34275867
   0.37783017  0.39293137  0.41278994
   0.54750365  0.40914393  0.65841580
   0.53996651  0.56862141  0.48776834
   0.49443165  0.33352806  0.41799727
   0.34975170  0.42369122  0.54155986
   0.70495187  0.51279537  0.54803215
   0.40855937  0.31611834  0.51099708
   0.43028308  0.37022216  0.62543069
   0.52762091  0.33576896  0.55184874
   0.54617830  0.69554947  0.50871780
   0.45870958  0.68623703  0.41546609
   0.64082183  0.62290085  0.55769663
   0.42751856  0.65149575  0.53307380
   0.52635264  0.62020792  0.61343947
   0.57614373  0.64478678  0.38923505
   0.66820604  0.57612899  0.44308776
   0.61843156  0.33180858  0.46434081
   0.60664880  0.52025222  0.62912487
   0.63475293  0.40916436  0.56562057
   0.40569827  0.60701592  0.64958281
   0.37875631  0.48282516  0.65245880
   0.36114073  0.60616250  0.42894021
   0.29897527  0.49287778  0.44902387
   0.47264376  0.57605024  0.35299095
   0.47910440  0.44430163  0.34638127
   0.34458373  0.55506610  0.55027013
   0.59413178  0.39116843  0.35372838
   0.49529282  0.52304293  0.69488507
   0.58689876  0.51811411  0.36312742
   0.48355822  0.48562909  0.57402595
   0.43032496  0.50186963  0.45820857
   0.67214872  0.44818817  0.44193535
   0.54475999  0.44048576  0.46703464
Direct configuration=    11
   0.36742151  0.50581587  0.34284080
   0.37785135  0.39286823  0.41289390
   0.54746046  0.40921264  0.65838954
   0.53991951  0.56869481  0.48771031
   0.49439600  0.33349802  0.41809436
   0.34994903  0.42372858  0.54154185
   0.70490977  0.51283031  0.54805910
   0.40851116  0.31597009  0.51104644
   0.43033987  0.37025857  0.62548522
   0.52751816  0.33590329  0.55179871
   0.54620257  0.69544833  0.50873776
   0.45880710  0.68621085  0.41550354
   0.64076862  0.62283957  0.55769516
   0.42744799  0.65143796  0.53301749
   0.52626385  0.62008779  0.61325946
   0.57616383  0.64479960  0.38928412
   0.66821363  0.57615142  0.44312436
   0.61841306  0.33188492  0.46432045
   0.60659815  0.52016386  0.62903885
   0.63466160  0.40921531  0.56551036
   0.40574953  0.60699897  0.64960290
   0.37877548  0.48281356  0.65241364
   0.36114526  0.60618758  0.42899574
   0.29902390  0.49280709  0.44900562
   0.47265880  0.57604081  0.35310322
   0.47911644  0.44427208  0.34644045
   0.34467649  0.55508385  0.55023483
   0.59402656  0.39122628  0.35373482
   0.49518478  0.52297313  0.69474106
   0.58695740  0.51814688  0.36320535
   0.48360224  0.48565255  0.57394867
   0.43038775  0.50199075  0.45825730
   0.67216575  0.44819469  0.44193658
   0.54471323  0.44059386  0.46702285
Direct configuration=    12
   0.36750578  0.50572281  0.34294942
   0.37790772  0.39287211  0.41296607
   0.54747413  0.40922464  0.65834977
   0.53984935  0.56862562  0.48770945
   0.49438090  0.33351050  0.41813507
   0.35003733  0.42374590  0.54149699
   0.70485198  0.51286446  0.54802820
   0.40844405  0.31595638  0.51111685
   0.43033307  0.37023456  0.62545775
   0.52749889  0.33598005  0.55174251
   0.54620313  0.69542692  0.50875354
   0.45886385  0.68623381  0.41551005
   0.64071739  0.62277729  0.55774916
   0.42740295  0.65145748  0.53301929
   0.52621788  0.62003123  0.61320539
   0.57622697  0.64477532  0.38925739
   0.66825257  0.57613888  0.44312610
   0.61833923  0.33193215  0.46431507
   0.60660349  0.52015215  0.62903151
   0.63464414  0.40925065  0.56549839
   0.40576493  0.60698968  0.64962210
   0.37876937  0.48281697  0.65234350
   0.36117334  0.60623145  0.42899066
   0.29902296  0.49271278  0.44902085
   0.47273504  0.57603842  0.35313248
   0.47909683  0.44426759  0.34643664
   0.34466666  0.55502994  0.55024082
   0.59393733  0.39128428  0.35381102
   0.49518761  0.52298599  0.69470905
   0.58697127  0.51818073  0.36320233
   0.48362111  0.48564140  0.57378275
   0.43039565  0.50203197  0.45830438
   0.67220433  0.44823013  0.44193907
   0.54469955  0.44064788  0.46704121
Direct configuration=    13
   0.36767607  0.50553477  0.34316888
   0.37802162  0.39287996  0.41311190
   0.54750175  0.40924888  0.65826941
   0.53970757  0.56848581  0.48770773
   0.49435037  0.33353572  0.41821733
   0.35021574  0.42378090  0.54140635
   0.70473522  0.51293347  0.54796579
   0.40830845  0.31592868  0.51125911
   0.43031933  0.37018604  0.62540223
   0.52745996  0.33613515  0.55162897
   0.54620426  0.69538367  0.50878543
   0.45897852  0.68628021  0.41552320
   0.64061389  0.62265144  0.55785828
   0.42731195  0.65149693  0.53302292
   0.52612501  0.61991693  0.61309615
   0.57635455  0.64472624  0.38920339
   0.66833126  0.57611355  0.44312961
   0.61819005  0.33202757  0.46430421
   0.60661428  0.52012847  0.62901669
   0.63460886  0.40932205  0.56547419
   0.40579606  0.60697091  0.64966090
   0.37875703  0.48282387  0.65220176
   0.36123006  0.60632010  0.42898040
   0.29902107  0.49252220  0.44905161
   0.47288909  0.57603358  0.35319159
   0.47905722  0.44425851  0.34642893
   0.34464681  0.55492100  0.55025292
   0.59375704  0.39140148  0.35396497
   0.49519334  0.52301197  0.69464437
   0.58699931  0.51824912  0.36319621
   0.48365923  0.48561889  0.57344748
   0.43041163  0.50211526  0.45839952
   0.67228230  0.44830173  0.44194410
   0.54467192  0.44075703  0.46707830
Direct configuration=    14
   0.36772621  0.50550748  0.34323535
   0.37805577  0.39283699  0.41317754
   0.54746828  0.40928284  0.65823814
   0.53970724  0.56856491  0.48765822
   0.49430865  0.33352432  0.41828060
   0.35030807  0.42378979  0.54139692
   0.70472515  0.51294813  0.54796945
   0.40826613  0.31583962  0.51128684
   0.43034364  0.37019739  0.62543609
   0.52739409  0.33621122  0.55160004
   0.54621483  0.69532395  0.50879466
   0.45904982  0.68627931  0.41553595
   0.64057004  0.62262736  0.55786212
   0.42725986  0.65149388  0.53300912
   0.52606872  0.61985679  0.61302099
   0.57639342  0.64473274  0.38923096
   0.66834659  0.57614441  0.44314016
   0.61818049  0.33206905  0.46429420
   0.60659055  0.52008906  0.62901642
   0.63459003  0.40934930  0.56542905
   0.40579618  0.60696389  0.64966892
   0.37878984  0.48281120  0.65216051
   0.36124028  0.60631897  0.42899459
   0.29902390  0.49248225  0.44904558
   0.47290467  0.57603364  0.35324100
   0.47906960  0.44424576  0.34644199
   0.34466405  0.55493898  0.55023166
   0.59370641  0.39144387  0.35398914
   0.49515658  0.52296783  0.69455011
   0.58704321  0.51826147  0.36321080
   0.48367469  0.48559074  0.57348641
   0.43038831  0.50218966  0.45838715
   0.67229220  0.44829637  0.44193351
   0.54468332  0.44078892  0.46704062
Direct configuration=    15
   0.36787664  0.50542561  0.34343477
   0.37815822  0.39270807  0.41337445
   0.54736789  0.40938473  0.65814433
   0.53970623  0.56880223  0.48750971
   0.49418347  0.33349010  0.41847042
   0.35058504  0.42381647  0.54136865
   0.70469494  0.51299208  0.54798044
   0.40813917  0.31557244  0.51137003
   0.43041660  0.37023145  0.62553765
   0.52719648  0.33643944  0.55151327
   0.54624655  0.69514479  0.50882234
   0.45926373  0.68627661  0.41557420
   0.64043850  0.62255514  0.55787365
   0.42710357  0.65148473  0.53296774
   0.52589982  0.61967638  0.61279549
   0.57651001  0.64475224  0.38931366
   0.66839259  0.57623696  0.44317182
   0.61815181  0.33219351  0.46426417
   0.60651937  0.51997081  0.62901564
   0.63453355  0.40943106  0.56529361
   0.40579654  0.60694281  0.64969299
   0.37888825  0.48277320  0.65203678
   0.36127094  0.60631558  0.42903718
   0.29903236  0.49236238  0.44902747
   0.47295143  0.57603383  0.35338925
   0.47910673  0.44420751  0.34648118
   0.34471577  0.55499293  0.55016788
   0.59355455  0.39157104  0.35406166
   0.49504632  0.52283543  0.69426733
   0.58717489  0.51829853  0.36325456
   0.48372108  0.48550629  0.57360318
   0.43031833  0.50241284  0.45835003
   0.67232192  0.44828030  0.44190174
   0.54471753  0.44088461  0.46692756
Direct configuration=    16
   0.36789933  0.50539602  0.34345656
   0.37819084  0.39265185  0.41346518
   0.54737104  0.40936406  0.65813825
   0.53966897  0.56883485  0.48742013
   0.49415102  0.33346118  0.41856921
   0.35073163  0.42381502  0.54134466
   0.70471200  0.51300126  0.54799706
   0.40804988  0.31537903  0.51145237
   0.43041110  0.37019750  0.62561879
   0.52711607  0.33656055  0.55144345
   0.54625581  0.69515984  0.50885777
   0.45933072  0.68626609  0.41559809
   0.64041896  0.62252571  0.55789357
   0.42704369  0.65151282  0.53294181
   0.52581132  0.61956549  0.61269099
   0.57659068  0.64481225  0.38930284
   0.66845265  0.57626931  0.44320015
   0.61814552  0.33221144  0.46425646
   0.60652028  0.51994257  0.62900271
   0.63449268  0.40946548  0.56523364
   0.40574326  0.60695659  0.64969923
   0.37887258  0.48277232  0.65201024
   0.36125441  0.60635645  0.42902913
   0.29902556  0.49231330  0.44904553
   0.47298990  0.57603259  0.35346325
   0.47911041  0.44419857  0.34652106
   0.34471528  0.55501432  0.55014110
   0.59353396  0.39157206  0.35404005
   0.49498324  0.52279704  0.69424268
   0.58724355  0.51833559  0.36327069
   0.48375211  0.48547659  0.57348749
   0.43037082  0.50247794  0.45839715
   0.67235835  0.44830415  0.44187998
   0.54468319  0.44100231  0.46688355
Direct configuration=    17
   0.36796740  0.50530726  0.34352193
   0.37828871  0.39248321  0.41373738
   0.54738049  0.40930205  0.65812000
   0.53955718  0.56893269  0.48715140
   0.49405368  0.33337443  0.41886559
   0.35117139  0.42381067  0.54127268
   0.70476316  0.51302878  0.54804691
   0.40778199  0.31479879  0.51169938
   0.43039458  0.37009563  0.62586223
   0.52687483  0.33692389  0.55123399
   0.54628362  0.69520498  0.50896406
   0.45953170  0.68623452  0.41566976
   0.64036032  0.62243741  0.55795332
   0.42686406  0.65159708  0.53286404
   0.52554582  0.61923281  0.61237748
   0.57683270  0.64499227  0.38927040
   0.66863284  0.57636633  0.44328513
   0.61812665  0.33226523  0.46423333
   0.60652303  0.51985784  0.62896391
   0.63437006  0.40956876  0.56505371
   0.40558344  0.60699791  0.64971797
   0.37882558  0.48276967  0.65193062
   0.36120482  0.60647903  0.42900500
   0.29900516  0.49216608  0.44909973
   0.47310530  0.57602888  0.35368525
   0.47912147  0.44417173  0.34664068
   0.34471380  0.55507850  0.55006075
   0.59347221  0.39157511  0.35397524
   0.49479400  0.52268188  0.69416874
   0.58744952  0.51844679  0.36331908
   0.48384519  0.48538751  0.57314043
   0.43052830  0.50267326  0.45853851
   0.67246765  0.44837570  0.44181470
   0.54458018  0.44135543  0.46675153
Direct configuration=    18
   0.36795580  0.50530664  0.34357014
   0.37831211  0.39252770  0.41380100
   0.54741222  0.40927877  0.65811940
   0.53962431  0.56910922  0.48706472
   0.49411081  0.33341936  0.41893994
   0.35127530  0.42376080  0.54124691
   0.70481709  0.51299441  0.54805590
   0.40770213  0.31469300  0.51179971
   0.43034028  0.37003150  0.62590950
   0.52682300  0.33700611  0.55117526
   0.54627815  0.69527426  0.50901467
   0.45953134  0.68624161  0.41566795
   0.64034852  0.62244753  0.55797834
   0.42686184  0.65167228  0.53289635
   0.52550766  0.61912689  0.61234763
   0.57690484  0.64504467  0.38924353
   0.66869178  0.57638373  0.44329804
   0.61808879  0.33231305  0.46420231
   0.60649130  0.51986458  0.62900263
   0.63435075  0.40959831  0.56503712
   0.40548947  0.60703235  0.64969680
   0.37879830  0.48279187  0.65189906
   0.36117296  0.60644490  0.42894207
   0.29909455  0.49216336  0.44911268
   0.47314583  0.57599983  0.35370573
   0.47911310  0.44417342  0.34669915
   0.34465514  0.55505105  0.55005749
   0.59348862  0.39154978  0.35400689
   0.49478669  0.52264541  0.69413141
   0.58747907  0.51845388  0.36329325
   0.48387962  0.48531989  0.57335286
   0.43026690  0.50267126  0.45836126
   0.67244474  0.44839147  0.44179436
   0.54475781  0.44121922  0.46657078
Direct configuration=    19
   0.36795782  0.50530675  0.34356173
   0.37830803  0.39251994  0.41378991
   0.54740669  0.40928283  0.65811951
   0.53961261  0.56907846  0.48707983
   0.49410085  0.33341153  0.41892698
   0.35125719  0.42376949  0.54125140
   0.70480769  0.51300040  0.54805433
   0.40771605  0.31471144  0.51178222
   0.43034974  0.37004268  0.62590126
   0.52683204  0.33699178  0.55118549
   0.54627910  0.69526218  0.50900585
   0.45953140  0.68624038  0.41566826
   0.64035058  0.62244576  0.55797398
   0.42686223  0.65165918  0.53289072
   0.52551431  0.61914535  0.61235284
   0.57689227  0.64503553  0.38924822
   0.66868151  0.57638070  0.44329579
   0.61809539  0.33230471  0.46420771
   0.60649683  0.51986340  0.62899588
   0.63435411  0.40959316  0.56504001
   0.40550584  0.60702635  0.64970049
   0.37880305  0.48278800  0.65190456
   0.36117851  0.60645085  0.42895303
   0.29907897  0.49216383  0.44911042
   0.47313877  0.57600489  0.35370216
   0.47911456  0.44417312  0.34668896
   0.34466537  0.55505584  0.55005806
   0.59348576  0.39155419  0.35400138
   0.49478796  0.52265176  0.69413792
   0.58747392  0.51845264  0.36329775
   0.48387362  0.48533168  0.57331584
   0.43031245  0.50267161  0.45839215
   0.67244873  0.44838872  0.44179791
   0.54472685  0.44124296  0.46660228
