   10   10 1000    2
  0.7700829E+03  0.1974752E-08  0.1974752E-08  0.1974752E-08  0.1000000E-15
  1.000000000000000E-004
  CAR 
 unknown system                          
    110      1     72
 
  0.0000000E+00  0.0000000E+00  0.0000000E+00  0.1000000E+01
    1       -9.248574     -9.248574
    2       -9.119669     -9.119669
    3       -8.977486     -8.977486
    4       -8.959529     -8.959529
    5       -8.909688     -8.909688
    6       -8.891563     -8.891563
    7       -8.672684     -8.672684
    8       -8.659969     -8.659969
    9       -8.510460     -8.510460
   10       -8.390053     -8.390053
   11       -8.342131     -8.342131
   12       -8.306768     -8.306768
   13       -8.273583     -8.273583
   14       -8.252367     -8.252367
   15       -8.242270     -8.242270
   16       -8.164066     -8.164066
   17       -8.052538     -8.052538
   18       -7.978630     -7.978630
   19       -7.841264     -7.841264
   20       -7.829767     -7.829767
   21       -7.693678     -7.693678
   22       -7.678635     -7.678635
   23       -7.671623     -7.671623
   24       -7.457309     -7.457309
   25       -7.440478     -7.440478
   26       -7.404382     -7.404382
   27       -7.379772     -7.379772
   28       -7.296160     -7.296160
   29       -7.292133     -7.292133
   30       -7.227748     -7.227748
   31       -7.193248     -7.193248
   32       -7.189614     -7.189614
   33       -7.184972     -7.184972
   34       -7.107862     -7.107862
   35       -7.046250     -7.046250
   36       -7.024189     -7.024189
   37       -6.999524     -6.999524
   38       -6.993056     -6.993056
   39       -6.967291     -6.967291
   40       -6.940150     -6.940150
   41       -6.874133     -6.874133
   42       -6.853753     -6.853753
   43       -6.832809     -6.832809
   44       -6.801754     -6.801754
   45       -6.793420     -6.793420
   46       -6.703441     -6.703442
   47       -6.686035     -6.686036
   48       -6.667429     -6.667429
   49       -6.605146     -6.605146
   50       -6.597952     -6.597952
   51       -6.554974     -6.554974
   52       -5.992387     -5.992387
   53       -4.903064     -4.903064
   54       -4.876098     -4.876098
   55       -3.923430     -3.923430
   56       -2.978120     -2.978120
   57       -2.942302     -2.942302
   58       -2.699490     -2.699490
   59       -2.360110     -2.360109
   60       -1.902654     -1.902654
   61       -1.688430     -1.688430
   62       -1.041976     -1.041976
   63       -1.019060     -1.019060
   64       -0.679288     -0.679287
   65       -0.593652     -0.593651
   66       -0.402399     -0.402397
   67       -0.376049     -0.376047
   68       -0.315096     -0.315095
   69        0.052820      0.052822
   70        0.199921      0.199924
   71        0.476443      0.476457
   72        0.508639      0.508645
