11
Energy = -77.25949687 eV
Cr 10.16091430152317 8.975551006334769 8.475946823640312
Cr 10.217740240557271 11.240457226111936 8.035014951133153
Cr 8.548431578698976 9.896376085146459 9.618204005036246
Cr 12.137565294554305 10.419148140267621 8.691698655634022
Cr 11.458827565570488 12.215674360677307 9.66361875542598
Cr 12.205613063448023 10.498042003202912 11.099343746866461
Cr 9.152260136197647 11.994133256165506 10.015443681698235
Cr 11.192954168307361 8.640799795059333 10.343460147993778
Cr 8.934783807792689 8.27632038087419 11.686263383848807
Cr 10.06846699128732 10.770320965061128 11.68399654694971
Cr 8.187410298178504 9.338144227214592 12.951976747888791
