10
Energy = -72.72762248 eV
Cr 8.690127399997428 6.217288508607546 9.109001082190717
Cr 10.12734253382947 8.687225344070255 8.861795497128202
Cr 8.7813786260993 7.704505692481055 7.16842221839675
Cr 10.533852610498936 9.810694281558407 6.713428465371092
Cr 5.962908055733586 6.570178354856916 9.76849009006691
Cr 6.6730264360029565 6.077389041863881 7.737099870789341
Cr 7.780571949778333 8.158563092350857 10.082715018606502
Cr 8.338428044505733 9.925229187929721 6.16520671506211
Cr 6.727651761990056 8.578677251234538 7.992866812668976
Cr 8.458939490033861 10.350058598510874 8.516355663283763
