18
Energy = -134.27137192 eV
Cr 8.447980207415613 7.706168988257798 5.638777263618731
Cr 6.773597396492677 6.183897300511032 6.316483570505234
Cr 10.296177228933574 9.294041091320468 5.049693761988195
Cr 6.672483100097357 8.9528738406916 6.53021329755362
Cr 8.632084371526284 10.290885296480996 6.718394183151886
Cr 9.398627251849643 6.37053965186817 7.359583116736682
Cr 5.522580210114821 7.370651166170063 8.249639942476035
Cr 7.228000011359849 10.996280149975407 8.258541916347385
Cr 10.607351489542033 8.39279722983064 7.4036624438748975
Cr 5.562621420321777 9.160977617174026 8.846650251571475
Cr 8.065512399106527 8.140327692835141 8.326862110805012
Cr 10.806600288461802 7.461828750101803 9.550260074660978
Cr 9.610282067553536 9.855712596817225 8.896655510659848
Cr 7.381835481033202 5.420870598753049 8.582379540920194
Cr 8.970034397055482 8.47126376548882 10.884290367822183
Cr 7.520660659312423 9.639904272560708 10.454131413215043
Cr 8.736929084615237 5.987966560948652 9.867528160490822
Cr 6.831614307362657 7.367984802369193 10.131224445756384
