12
Energy = -87.98659017 eV
Cr 10.764870765805973 10.76286701869694 12.395405373822015
Cr 13.707562352511513 10.856203646399777 11.487716749550282
Cr 10.450729084970437 13.026745327359556 13.282245070988994
Cr 9.651003019785644 11.50751300221114 8.117811969450624
Cr 11.879191920579249 13.062742601988514 11.468469830985201
Cr 12.721396718976285 11.509343982911348 13.501068971310417
Cr 13.209664980928016 9.14464298338309 13.723622655945473
Cr 9.627707749923776 10.074089222014612 9.968459378749463
Cr 12.170242703047084 8.902764472668188 11.68309065156433
Cr 10.920497066472159 13.155443079266679 8.829651281456439
Cr 9.479935517445464 12.483642790950805 10.721876029114657
Cr 11.80286669979276 11.163344991622145 9.980141129053525
