17
Energy = -126.49918066 eV
Cr 9.923647408289263 9.79873373081442 6.7488770915918455
Cr 10.072614484454965 6.762194530894739 9.236463880402722
Cr 7.712325837721513 8.758391931196869 7.131864436042313
Cr 9.309575180785357 7.15313736802336 6.88628276571352
Cr 6.444411869561595 6.697737517520207 6.517810140826308
Cr 7.8788730589012115 11.04021563455147 8.16955604950904
Cr 9.491463111837913 8.943144466940996 8.822187519797835
Cr 5.349669842555449 8.656694451077755 7.981370771011915
Cr 8.216898422717268 5.466824584009951 7.763228738924358
Cr 5.528033912803583 5.85358487814195 8.502255287359654
Cr 11.859613231844763 8.630691719648244 8.113083098332329
Cr 5.148168748853695 7.7288173073194235 9.990330208400124
Cr 9.60651175393823 10.855927873885934 10.445063136884087
Cr 10.82398138182033 11.179764571428999 8.500378872829263
Cr 7.073034407291295 9.786882258590108 9.611132144995013
Cr 11.658327862766962 8.91809197725036 10.244599154323687
Cr 7.490815394464113 7.357131109312557 8.923482613663165
