10
Energy = -72.29016345 eV
Cr 13.551233620620463 8.8859076100155 11.291414423330997
Cr 11.527107791681829 9.147365893771871 12.312545045635337
Cr 12.84573469660855 10.8801613916408 10.407624168573049
Cr 11.061192561617966 9.238799218214576 9.857130268474705
Cr 10.728664446448256 11.407243909684391 11.62913774716393
Cr 9.06916547806034 9.740794881871485 11.10820089989484
Cr 9.04806036444375 9.173285379455166 8.35037670199055
Cr 10.35635304797355 11.483770625369317 9.261654278399837
Cr 8.559310004497537 12.537872517673293 11.208243519058458
Cr 7.916961665419342 11.065022020267715 9.37396067229835
