14
Energy = -103.68732785 eV
Cr 5.438236007373155 8.318445359168487 8.732275785033929
Cr 6.5049837320787995 6.519232305901502 9.718319296065681
Cr 6.011049624480064 5.982751783785087 7.339368111910399
Cr 7.811189754701101 8.637289318812714 10.25038405178895
Cr 5.790144941969856 8.222305082674918 6.418463008690928
Cr 8.489857647932821 5.796692015624987 8.681240700098368
Cr 9.45860775938796 9.872439721141683 8.531109437161055
Cr 10.138518090938941 8.649987887680231 6.3270710944083435
Cr 10.116195600496255 8.201076791330701 8.97780982683405
Cr 8.0900343756531 6.2936928618160906 6.0968066312023215
Cr 7.999654369917147 7.889292215509347 7.855345766090133
Cr 7.870073100844872 9.719280187501345 6.433901948460154
Cr 10.353437641674741 6.6474254641104995 6.899213246571042
Cr 6.858059743545398 10.18013139593633 8.668733486678407
