20
Energy = -150.7816665 eV
Cr 8.389473583741557 11.374306935539215 6.695623469720311
Cr 8.22204397586947 9.129168540862624 6.60969085990245
Cr 10.504923530452482 9.901794858486603 7.471524232702955
Cr 9.9857954324499 7.875752651419698 8.244653541451662
Cr 12.848450047362073 10.108399600778654 7.813996492482909
Cr 7.776350790019545 8.166298555998033 9.125490962795778
Cr 10.11592670818907 11.982349474945767 8.68835602171561
Cr 11.991236049126396 8.267503171508906 9.125369519345591
Cr 7.6116080506690675 10.661386690784338 8.79590113475697
Cr 12.038186723236768 11.071152993058066 9.868153611900931
Cr 9.67290558124033 9.983454906776728 9.93112831544982
Cr 10.564944075183416 13.162278323238231 10.859356933207858
Cr 8.509319020785332 5.986976856255927 9.863793682795373
Cr 8.721704954282508 11.762218983320329 11.255945737174503
Cr 7.458045210173299 9.322423703179808 11.197998291251762
Cr 11.214778307987865 11.486277581185826 12.289290363289547
Cr 9.928236041003556 7.971316013545908 10.929722738369374
Cr 7.656769746373613 7.175647768480317 11.758572170052366
Cr 11.703358152459128 9.198917362296 11.228107892789938
Cr 9.412017913548999 9.738448922492822 12.573397922998769
