30
Energy = -231.40831461 eV
Cr 11.123477942156503 10.081188091940422 6.127813730096256
Cr 9.921326559409316 13.070436526003174 7.32223442924588
Cr 11.929156510644349 11.596996254955359 7.950116551460906
Cr 9.735142363515973 8.651886637647138 8.226401515927577
Cr 11.24300921587407 14.128482995310385 8.394155708646446
Cr 12.49947997228973 9.181910316661918 7.2941050057448855
Cr 9.457485677289863 10.630100760658987 7.753069429498327
Cr 13.354251535106702 10.71781875098275 9.35164272692082
Cr 7.893288921320691 12.487236542282208 8.93866620651855
Cr 8.75579078683876 14.110005403307198 9.676844319247872
Cr 11.274884625426163 9.729423259909558 9.672511352886625
Cr 10.376497643385648 12.100731678525394 9.685395065644798
Cr 8.722681344658634 10.408900500982124 10.07293823499953
Cr 12.924873693972774 12.907920277803244 9.867803090429165
Cr 12.197721640799866 7.725417158271723 9.485733794318211
Cr 9.221784098148694 8.148773167831148 10.826289016533073
Cr 7.562098519754317 10.023054059938602 11.994012912621058
Cr 8.572346702248115 12.362564875730415 11.59798898184868
Cr 10.728988523274625 13.614449352728782 11.199515211684535
Cr 11.506487406841593 8.027662921509812 11.88565676802268
Cr 12.112102285139214 11.864512698182107 11.452928163830725
Cr 10.214683932098268 10.366477536335433 11.921555084818003
Cr 12.853087943135336 9.559027331602678 11.769901173401868
Cr 9.21501795794679 8.261523366271973 12.867923155279671
Cr 10.000335578091624 12.295491601337442 13.089689079942533
Cr 8.279475612592437 10.616273303503936 13.548303303985643
Cr 12.14825211475106 10.850831565533555 13.76390888158768
Cr 12.895625665979317 8.214566142269797 14.139880479044724
Cr 11.222222808035623 7.144429724386472 14.295045663467091
Cr 10.604490368277363 9.66797514660015 14.37403891134931
