36
Energy = -207.19606986 eV
Cr 7.1933705541242805 10.889785876894017 9.22168650257365
Cr 7.873396918862661 8.705430933889637 10.045208689154071
Cr 7.2127412508387865 13.103203577598128 8.521091892242081
Cr 9.066767589179038 6.702944262974532 11.003722870093554
Cr 9.50624073060199 13.117977462753153 8.812459541744035
Cr 8.566150137435162 11.677252479332685 7.291412275902741
Cr 8.876897728719847 9.543655984768694 8.120260036949078
Cr 7.785386394900579 10.473158779267168 11.564652228821764
Cr 9.055853027174543 7.2468292344829734 8.641034125112618
Cr 8.823408246328093 8.558705236780478 12.418485361783953
Cr 7.936039751833828 12.722104388160139 10.673810189682065
Cr 9.439495981973696 11.021918144537898 9.91041339248599
Cr 10.229395559885043 8.654585946486447 10.405074405751707
Cr 9.201929398117011 10.245582293014435 14.173300249856366
Cr 10.071414146452236 14.687616052342161 10.233451979815923
Cr 11.240273815695732 7.116724679082438 11.859481769865216
Cr 10.80810784933324 10.996312330488017 7.833399696289203
Cr 8.422090202896602 12.106928714607529 13.019883561356158
Cr 10.231670567748223 10.484845552982216 12.130241553565465
Cr 11.37299844080665 13.180817040010782 7.482186179869149
Cr 12.037492104632927 10.504526842980647 13.886651948043491
Cr 11.867566671174762 10.503309424338426 9.91590411468461
Cr 10.994069904077099 6.493100669974199 9.546481756870465
Cr 10.061182729759436 12.920342720343182 11.556210223626326
Cr 12.1893885243252 11.862289610026757 11.954296631194088
Cr 10.814903152174445 8.549783155201876 13.590557091572496
Cr 11.02660880607006 8.634607094343954 8.17744038847735
Cr 10.602944226292266 12.25281954582961 13.78930679948201
Cr 13.065111013196617 11.80653320311341 8.334853270680961
Cr 12.62455191541853 8.080964042315205 9.926168229430647
Cr 13.863669895604904 12.15479649079897 10.484871396033661
Cr 12.417793180908424 9.247640691893055 11.926094897983793
Cr 13.134948427719022 9.507118965364985 8.120189018987682
Cr 11.731852742757665 13.033247560106258 9.832324009942708
Cr 14.111006166056708 9.881951299884273 10.37499759634398
Cr 14.085125044123775 10.74431330240119 12.574634823037988
