31
Energy = -238.36150172 eV
Cr 8.95537437633444 16.436290748962964 13.014300228018504
Cr 12.70594380908093 10.280024542558579 9.063814496878132
Cr 11.430784534488978 10.944816534747183 15.142528042900123
Cr 14.849997199222509 9.795129286764174 10.664437279805652
Cr 10.824322575359277 16.697855169539586 12.234895937037823
Cr 9.728885619298133 13.405944490094969 9.891302731999994
Cr 11.484454746330357 8.489989191414704 10.970679516557862
Cr 13.523502598809987 8.041085858374357 10.22430616226806
Cr 14.186414149166843 14.16644168159755 14.029603344704267
Cr 14.259485757904658 13.879911154440656 11.802119448084612
Cr 13.272715006906022 12.093910991392272 10.482307938298849
Cr 15.223430977035713 9.55994844703018 13.059055796847407
Cr 14.950983851124942 11.705433932400526 12.636739566332604
Cr 10.471334403883782 15.717406195622631 9.806193883400098
Cr 10.924912454846073 10.897848970985523 9.926000063306654
Cr 12.086098432190346 14.728629150504316 13.095567191350321
Cr 10.415741435274548 15.486215148661612 14.580695792649841
Cr 12.598801425109368 12.338363048958225 13.282956418377895
Cr 8.535440112314252 16.299743039550165 10.612051960030586
Cr 13.157930271784947 9.910847737184232 14.06604470240577
Cr 11.898955988982236 13.370307164234772 15.422235709496888
Cr 11.563757326694034 12.948409476567837 8.977654136778513
Cr 10.284761518165034 13.109611836470306 14.195425431141423
Cr 9.752606518584788 14.601255200635793 12.247669180728076
Cr 11.621932891033444 8.458938501574567 13.421805891420085
Cr 14.166094342054576 12.048040604942344 14.816666051241395
Cr 11.032163201981808 12.592123899680717 11.539350912550594
Cr 10.693698769928776 10.573428786907096 12.958535047405503
Cr 12.83031817546 10.210179807147497 11.830424047148401
Cr 12.161610292400148 14.501777280286552 10.857221111232723
Cr 13.689728249129496 7.857187033784641 12.482080064795019
