32
Energy = -249.43904503 eV
Cr 11.879801410881106 12.431429774250933 9.390593778614337
Cr 10.54863302813279 11.822773955946053 11.331251153581281
Cr 8.866249292412016 13.552786478029837 10.91598916623625
Cr 12.98060166923228 11.049710377019748 11.341547021112742
Cr 9.669934046587402 13.780280055540384 8.444459971269763
Cr 10.972796767576106 10.008775936937747 12.817319408075251
Cr 8.745178292684203 11.600114495221922 12.887815663836843
Cr 7.745945091330772 11.429045121178802 10.852843577558433
Cr 11.197410294530089 12.231080094133876 7.178228787491505
Cr 12.995170997116828 10.37061739347898 8.568014876230107
Cr 9.469613905215176 11.24814062247418 9.304608332440877
Cr 7.78920391471246 12.96621881096182 8.561804069187266
Cr 12.554783238193009 8.16499529746228 11.446119617141258
Cr 11.367633008018563 9.753026889778289 10.049627817996049
Cr 8.573731407203322 9.274190140810592 13.902343760841614
Cr 9.013997232251214 11.814254567317155 6.5597125444440785
Cr 10.726184092903296 7.854002029742263 13.145945897312455
Cr 9.246026672176098 9.399815420060346 11.284866764083361
Cr 10.985726441683918 10.042351653449408 7.455241590879891
Cr 7.024606957545986 9.487328433465558 12.593683702544185
Cr 12.236588866146294 7.852301694901088 8.67371731669089
Cr 7.941600576468519 10.339094980037935 7.974969687342939
Cr 10.747047171644832 7.214774525980638 10.499282768892312
Cr 9.510277053286817 8.47094045025663 8.789315445892766
Cr 8.759046896871245 7.2432088509798085 12.066995742742202
Cr 10.630002930578977 7.608918334468605 6.851844300509739
Cr 8.850449489991483 9.007266901845451 6.060303190930474
Cr 7.219980353635726 8.97875665266937 9.978052127675877
Cr 10.274233619364603 5.778218809798331 8.714192912122375
Cr 7.02126903638459 8.007159976938395 7.553105698811989
Cr 8.183705562698195 6.737143267206189 9.674670318801414
Cr 8.277745551479317 6.452176505674759 7.128724426254563
