32
Energy = -244.12109432 eV
Cr 13.993811347427192 11.227704535419548 8.16066801629293
Cr 11.851445942363812 10.001562035748707 6.962225477533098
Cr 14.600132297629337 13.080857364576058 9.51483951920802
Cr 12.168248962165674 12.17515325141588 7.177052134053421
Cr 12.240557559193586 12.794317453918097 9.527281522294924
Cr 12.059910078072557 10.451581611544183 9.321731248914073
Cr 14.205691864641226 12.977799118855511 12.264863563269138
Cr 13.370936899693568 14.780980009501487 10.949836548271618
Cr 14.049638567373096 11.17561460053997 10.845659217826825
Cr 15.204809359285075 12.371842373970912 14.546213984730633
Cr 14.280985276696041 14.768663114726928 13.651334975699465
Cr 10.169807571342643 11.608340453599457 8.30962207946128
Cr 15.474394608149725 10.613706996169219 12.571387496748018
Cr 10.20906337493826 13.711268993282372 8.752744827690954
Cr 11.848188217846268 12.057861159460645 11.69707499769469
Cr 10.498541961725401 14.258178507839268 11.27062951578893
Cr 13.473405867627967 10.868532805123209 13.428789042122567
Cr 14.691401081421388 13.524343227020369 16.00453326914786
Cr 12.041260079529764 14.604434162233844 12.772603375417681
Cr 12.849421163356492 15.433345260410633 15.295635358681889
Cr 11.92745774220152 9.622329379806338 11.801282763118044
Cr 12.415471461226835 12.745955167506088 14.495694330322683
Cr 9.839785274637011 10.374861409361994 10.676475036043712
Cr 13.282579298842082 11.17873559509393 16.086961760936823
Cr 9.237524411179287 12.230164875806837 10.745630040361386
Cr 9.885218863869868 12.872045266221543 13.297665947501812
Cr 11.774999594515783 10.0126606914646 14.853194727482602
Cr 10.163045018514865 10.964713619622158 13.198406446007693
Cr 12.329058954346365 13.587552795476242 16.80941202469957
Cr 10.753945368513289 14.712977690884937 14.702448679591683
Cr 10.621134945061856 11.872273383537955 15.674470449877248
Cr 11.598958437278831 11.240951707954617 17.58733566904782
