33
Energy = -254.33713986 eV
Cr 8.004631418467673 9.59869836666492 13.941085469745907
Cr 13.860037890397884 9.659191078382387 13.485216284518218
Cr 13.549278633601057 9.509408435528345 8.694662345682985
Cr 12.028516413019519 11.8158562061979 14.599238449619312
Cr 11.389540561902583 7.84265576493101 9.289256625676657
Cr 8.847899619565114 13.168396693843912 14.794615635262875
Cr 9.732146141258317 11.380593608879519 13.84180480743701
Cr 9.626025315178177 9.27723102031537 12.31943988863778
Cr 13.46836205667198 10.542681353384868 10.904215496317136
Cr 12.423490912394257 11.98627554017181 8.107290333780519
Cr 8.778775702121939 9.03290803406404 9.923866041641562
Cr 15.650193626887619 10.509435958529945 12.079984843764437
Cr 11.758760794386252 10.554637889018872 12.548735224497166
Cr 11.726568563658043 9.778150575896515 7.258531341437721
Cr 11.957545637085769 8.260760140477881 11.901817725727152
Cr 5.975867411096112 11.554475480799695 10.84598449038313
Cr 14.647481168553426 12.378434221973619 9.700831536845593
Cr 9.614564072201324 11.343295297623378 11.09177006511577
Cr 7.080941851385134 9.49780878463969 11.39379672839596
Cr 11.095844280000492 9.926308825662788 9.904274348773859
Cr 7.7752358255881235 7.429069026533631 12.519208963352362
Cr 9.758745319983191 13.517989733818853 9.858112249196763
Cr 10.834591886738254 13.028107897453955 12.451469783059927
Cr 9.634182934080275 7.06847018760265 11.027940458855937
Cr 7.928978655279375 11.913819251973235 12.300385748228342
Cr 9.636242909659543 9.07010548291357 7.802437020380382
Cr 11.877326734983134 12.31432743820766 10.331752895627044
Cr 12.002899857074105 14.65074295194103 8.349612062457439
Cr 13.078157586669397 14.112298196898623 10.476417798758478
Cr 7.897755155938771 11.290353964989997 9.44813389982513
Cr 13.697336834263025 12.226232318163959 12.218142770521572
Cr 10.15296530141867 11.645340928884115 8.404279784390914
Cr 14.15170443888791 13.75853485402808 7.828284392481903
