33
Energy = -254.25756844 eV
Cr 7.748864801938906 12.226729390963992 11.27614241156951
Cr 9.466872701109079 13.414254165165351 12.347611690448188
Cr 14.697294946967578 12.89894756829115 11.874589450330994
Cr 8.829686641323969 10.843945481054405 12.92993647826327
Cr 9.679259921181897 10.604112499556644 10.962823122473866
Cr 6.682709911734602 9.53236937734615 13.46075357767268
Cr 15.139108431300263 11.494125709046477 9.965646830412897
Cr 11.447841219518786 9.713278618237858 9.822894356897557
Cr 13.397329869790997 10.285933367215753 12.132219002072192
Cr 13.966892290776267 13.558939430966525 9.274943252702883
Cr 11.930142124209627 10.900471323655717 6.258153179270262
Cr 9.361298678672908 14.792635793345088 10.485449251236778
Cr 7.37354399036493 7.884460058284578 9.359789262362915
Cr 8.532215716002222 6.254363191485353 9.995467954983537
Cr 12.62360441610756 12.002897390389256 10.778605272558204
Cr 8.92162378053753 8.23159739330721 13.328956436301356
Cr 12.774231111110732 11.708849381222722 8.246902543245337
Cr 10.412742757160752 12.417548271898166 9.785070967834763
Cr 11.103182279601864 11.875749194212137 12.584384889349925
Cr 13.93337488788779 9.78053883710126 9.406513085032948
Cr 12.055976899101323 14.203123391122736 11.46786251780115
Cr 12.118257437124205 9.11391891550578 7.756700886804282
Cr 13.214242503524703 12.667572791559607 13.374205351362983
Cr 7.473045757346572 9.482710427698652 11.180739439512706
Cr 7.320715066219482 7.225355374028913 11.92547425130275
Cr 10.996904937359362 9.258443242853028 12.451347132010037
Cr 12.218888460741406 8.027753503872553 10.95589126296682
Cr 8.10715988849703 10.551335985846668 8.945399348760702
Cr 11.855592782022576 10.333201144232165 14.177035412151172
Cr 10.183892413156562 10.978758330305752 8.026046738845933
Cr 9.657193502218814 7.996479288220638 10.930181906926446
Cr 11.632868091644417 14.146967574265092 9.036868130458387
Cr 9.524673619185132 8.672337351193683 8.786374760176434
