35
Energy = -275.11180688 eV
Cr 8.150818992910228 12.545269422220453 9.536299823459508
Cr 13.045351292941362 9.412579505431435 11.128006280686964
Cr 13.829215096190277 11.835305317701101 12.061279050667522
Cr 14.258653331082444 11.424395394368457 14.814638494979066
Cr 11.810945189561366 9.436295955737986 8.906584446236092
Cr 10.865315584972825 8.716936825775866 11.53143733247815
Cr 15.059049337462062 9.503557307430125 13.0746606592553
Cr 12.016002592009766 11.59740091258484 9.913022947708388
Cr 12.556577431938466 12.083548340794769 7.581548574197237
Cr 12.826785828703935 15.493224999630797 12.74967509902113
Cr 13.859422059014262 13.639256854325183 13.917074464042829
Cr 14.039359756396127 10.275086891352606 8.60103426372658
Cr 10.171550981335715 12.943529756004283 15.953221772474787
Cr 14.665488000984194 14.396303311957448 11.415071240821655
Cr 10.326406038056453 11.249209705674787 7.754350713041675
Cr 9.702200625886057 10.795027322887128 9.940529747044812
Cr 10.115868261921838 14.730066971350277 13.200927717199573
Cr 12.925371669556624 13.40570232346632 16.223703214934922
Cr 11.791861606222106 12.614376350018267 13.861556177513974
Cr 10.497205202639982 13.351199228334464 9.156853087356748
Cr 12.14390486528516 13.56748749660793 11.555372184689666
Cr 9.319532544648782 12.443660148456699 13.830066193625465
Cr 12.828333630959536 9.870312253228608 13.579064619792877
Cr 15.940057665729263 11.886575616551351 13.134030043769311
Cr 11.982294463595629 11.211832563219573 15.952173855687953
Cr 15.360374380532425 10.085949885373353 10.923827301959268
Cr 11.557605843654366 14.873473595683244 14.973442529212758
Cr 9.934509704504542 12.790273043181037 11.503353109413743
Cr 11.163839130416422 11.103102424171448 12.075356756197491
Cr 9.456950972923995 8.590868258365116 9.551498633300008
Cr 10.284202519023436 10.197036847376008 14.173489658060301
Cr 14.339848726332967 12.281639953245167 9.776447077689692
Cr 8.638407619790877 10.2624478943919 12.278533811386275
Cr 12.966257653692747 14.155918431393372 9.326383248309915
Cr 8.750971660335754 14.777825477931264 15.20380610334851
