41
Energy = -321.97291653 eV
Cr 10.57307882589491 9.915589908403225 8.677401014459408
Cr 12.821544222454358 11.08543469243736 7.628301700082548
Cr 12.643572374719406 13.820908603181893 7.39889315914502
Cr 13.339743029795361 13.283662004496582 8.934105810743588
Cr 10.831575929486934 12.497908622017283 8.861811199899906
Cr 10.088749392407069 10.64984594494788 10.734639557875246
Cr 13.354316768999047 8.808361659704916 9.541772484723186
Cr 12.545244850591384 11.058176460570103 9.87558609652593
Cr 15.770692475649382 13.251993185258568 10.448777227255137
Cr 8.775768970983115 12.117481061393805 10.087498351164735
Cr 11.646427354268928 8.806947025339344 11.107057342005843
Cr 11.530779475185529 15.000027098601784 9.624057448196739
Cr 15.033374143968231 11.104935104842188 9.608005792773794
Cr 8.832988069411819 12.001160141794962 12.465747992883975
Cr 11.072150341335945 13.041299592474138 11.20863741810135
Cr 13.810957924957085 12.722994881395554 11.326272427360266
Cr 16.135536937603497 11.589440770541229 12.193969091046352
Cr 14.200667206142782 9.84487508917212 11.849892112693395
Cr 13.362441980698675 15.008982816321774 11.103231716326405
Cr 9.22725353247138 14.277060682910605 11.095125556291222
Cr 14.900470671713252 9.711733985322008 14.329998929914687
Cr 16.05955433427633 12.448105911985953 15.20849139545932
Cr 9.795569919684484 14.112155599476152 13.447022328149215
Cr 11.308198489127447 15.417954582075408 12.406715618796449
Cr 15.090197265568563 14.254028230889471 13.092839855042541
Cr 9.492306928101973 8.28565891113427 12.235858709175337
Cr 10.53790331859515 16.624003591095313 14.253537125532167
Cr 12.518725552279822 13.711701099538487 13.292445554452373
Cr 12.190495057440947 10.997726476586298 12.403314353419717
Cr 14.427673033026412 11.93203913969911 13.686869038574791
Cr 12.42675976487981 8.31583607968471 13.237939272946733
Cr 8.747608764509895 11.510926842088406 14.794609204618515
Cr 13.26923788895133 16.1801987519285 13.725540036834063
Cr 10.176080040806356 9.967732756243613 13.46892623075084
Cr 14.2712861659751 14.223527159431965 15.247540906198426
Cr 11.752434438120682 14.620102834013105 15.02392384041389
Cr 10.804401975171125 12.260204716293961 14.163129718357471
Cr 12.535714373702753 10.241408560060313 14.569140242365304
Cr 10.548817453688214 10.28909175540918 15.953819585685412
Cr 13.117014919051943 12.29820392887622 15.679173006427614
Cr 10.692684174342922 12.97057207840395 16.268379883371388
