45
Energy = -355.74556775 eV
Cr 13.66985900853003 8.28435079376803 12.808223368302531
Cr 12.384063281186057 8.48330847929526 10.682906553660713
Cr 12.15238729647091 6.561594847155019 12.452569102983736
Cr 12.351758872302 7.8584728044684 14.857901092042322
Cr 10.320635741311625 7.850241240876998 8.915446625753356
Cr 12.853544254573622 10.58920723042817 12.302822393895497
Cr 10.548971538087518 6.691797370655066 14.054239424942187
Cr 12.886029204355145 10.118190030217015 14.709322652573285
Cr 12.259729327737615 9.256097546083895 8.371637980442136
Cr 12.338406411487197 11.045464115591818 9.826780782857771
Cr 10.129150294886195 7.22239844226253 11.395348566516551
Cr 8.447045595024523 10.742985171187822 15.13535826395118
Cr 11.346478953877876 13.750131226186308 13.783328010091672
Cr 8.611375646435041 10.37160690270446 12.465386861727572
Cr 8.333114976913853 8.405783556206877 10.979553692392663
Cr 9.008099563282322 8.373647037005393 13.586919519729978
Cr 8.432076082801572 9.049090770418328 8.673897791070393
Cr 12.269978168010738 12.998783185632892 11.491967291729978
Cr 8.214026183215188 10.764174810793639 6.521150236939458
Cr 10.336764423136268 9.143843281313957 15.478288347621799
Cr 9.011605858820484 12.739374028833089 13.763326642833304
Cr 10.394815349139447 9.755354121165919 10.422028171270671
Cr 10.401787546078653 11.674511427271407 11.812168366410274
Cr 10.30950372553255 8.631701165582326 6.546964044276699
Cr 8.085853677710542 12.675023024604048 8.39465781046289
Cr 8.400173909208 10.970994195864732 10.000166930574537
Cr 10.637801973055367 11.30242989108531 5.514047555811189
Cr 9.44807492370866 13.095518086730682 7.0925398457023965
Cr 8.357675043965834 12.972996056646362 11.133226922460628
Cr 11.074323795710853 9.028011496688373 12.880260596952718
Cr 10.812957422649722 11.024262175235409 14.115064931135079
Cr 12.308326809658666 10.493730148889018 6.119307735579036
Cr 10.542535692260389 12.04828599832467 16.022924031667287
Cr 10.209959481763814 10.534121846795818 7.964178208565788
Cr 10.43687568070394 12.780999335454952 9.590956899960078
Cr 9.485876294590366 14.78285653635694 9.278187153532915
Cr 14.12923516474905 9.691019095284728 10.470825774483508
Cr 9.960087968532703 14.288297026962601 11.765839637080312
Cr 11.758107024880667 12.492152305182918 7.674651088272667
Cr 11.162215116709424 14.81530336232148 8.13781086735592
Cr 12.926615820072994 12.585379713414797 13.989487319493191
Cr 14.271030714512856 12.269955789900186 11.145809867619596
Cr 14.124031753638768 11.446842747476971 8.286448344395273
Cr 13.293145468718595 13.384906323714599 9.202442418613519
Cr 11.930850961397768 15.029725152883083 10.39704053252351
