45
Energy = -353.18512859 eV
Cr 9.054434839900967 7.482167790402525 10.51513809176464
Cr 10.11457583489668 7.32193091529655 8.699973139198692
Cr 10.127084343444047 7.552557513242712 12.983226240300079
Cr 11.53273259316678 7.4867574351004995 10.79137904418508
Cr 8.700623433490803 9.295305575861196 9.514382087094612
Cr 9.899361325563525 9.506068384093695 7.445719129000112
Cr 11.838730366802853 8.977028832187964 9.012769162371333
Cr 9.35352926993576 11.159055543927291 6.2542997385153605
Cr 8.15293435373727 9.12461248039454 12.309410822334666
Cr 8.259058775982817 11.481566944653524 8.370600578096576
Cr 10.57550965795742 10.87626497744694 9.561781819617902
Cr 8.398725055576941 11.229379392901754 11.096377517835197
Cr 9.916623611976302 8.444740412051807 14.809684125103276
Cr 11.932637127762728 11.216358107431446 7.456681944303877
Cr 11.912049388465817 12.753145622627507 9.851601445863668
Cr 13.243672515416185 8.97975723268684 11.34774600644155
Cr 12.217543523855253 9.241412470413383 13.754073367045311
Cr 7.348567338211914 11.429804026086181 13.325480393307629
Cr 10.54966929159385 9.359708216741323 11.307804026784984
Cr 9.420395716630317 13.07447705831741 9.666150779147802
Cr 10.579588402984212 12.765414336962433 7.655463610022926
Cr 8.876916015706618 15.210050874765988 9.987673113757909
Cr 12.707800248393692 7.175371304377382 13.137774828853663
Cr 14.071382679255466 12.582191564575712 8.353214115993596
Cr 12.214944431312306 10.981521022684504 11.819847210613423
Cr 10.249203698131373 12.278804743096297 11.981809187775887
Cr 13.293231875492918 10.573339760321755 9.54669864229739
Cr 10.980073746222718 15.023034203296389 8.650008596635665
Cr 9.465907045517893 12.51211901680823 14.60746087341366
Cr 12.931979064240984 14.724000531594397 10.037179283534773
Cr 7.117321492888688 13.370097007662169 14.033211211309824
Cr 9.768680673219311 10.438841867622243 13.403386182188303
Cr 14.893823810390607 8.865231247638079 13.23326989416678
Cr 15.799230133254104 11.2006249224843 9.372615586722407
Cr 8.090907023563393 13.61490675204821 11.778187323171812
Cr 12.87678753003202 13.861147284909588 7.467033130758343
Cr 11.090648442785229 10.564819354225826 15.562987582338954
Cr 9.85004699716987 14.198388524210214 13.472656284532077
Cr 10.694292220621016 14.691725923576755 11.24965268486578
Cr 14.282787612642668 12.543724665884366 10.930041065289815
Cr 12.44673636804208 13.464487928669962 12.442444967812328
Cr 15.450943563189709 10.060402177806731 10.965108908500488
Cr 14.118552168343824 11.038188928303203 13.07605909344412
Cr 13.672054261440106 10.269252983442435 15.160108867607626
Cr 11.952879750218969 11.912347495391543 14.260569456357306
