5
Energy = -22.26435247 eV
Cr 9.600123588086083 7.60258596271517 7.791893685407026
Cr 10.554337537566825 9.757276245617396 7.778191256919617
Cr 8.4785305189789 9.556337038399048 8.474536174714045
Cr 11.232749609354652 8.215201582282235 9.128867079293858
Cr 9.025767923723244 8.013001957501201 9.878315074770224
