53
Energy = -422.19604289 eV
Cr 8.569220521405128 10.74831035907425 4.919123178164655
Cr 10.257187721638287 8.863397220463574 6.159696663382753
Cr 12.221351347727392 6.9735149897203295 6.852300121647605
Cr 8.04623351030759 7.988525027050292 5.599774087653871
Cr 11.204776335923013 11.333958411290716 5.957748499034494
Cr 6.580551777753662 12.55617707253592 6.099328769055572
Cr 9.955943143000592 6.451462905221158 6.781631279057244
Cr 12.635419532760114 9.280454131138354 6.648192665302842
Cr 7.110221008489305 9.895825433102319 6.702186639467339
Cr 9.15342109707283 12.565157622658578 6.534143375456517
Cr 7.551417885383879 6.175216737629443 7.349415367242986
Cr 12.722583862630843 11.919379467565507 6.767654048774351
Cr 9.272112203696343 10.44506169764972 7.56233059299376
Cr 10.840065788963523 8.276477323294412 8.494208711875288
Cr 5.860422980482045 8.212548575671434 7.507115180214983
Cr 10.841370385405433 13.669339799077493 7.3516827507930955
Cr 13.797610361483374 10.415231030305959 8.963602769976418
Cr 13.439505394336107 7.728555243014025 8.757970321380531
Cr 8.364617496929121 7.959122883459857 8.196500381289427
Cr 11.528467386036219 10.72817657833823 8.578779343144882
Cr 11.598584771899436 5.707029713130305 8.85370216466869
Cr 7.48860298948315 11.880874012350324 8.631125149270824
Cr 5.452693287752277 11.095699878837458 7.761562172899165
Cr 7.8874212052724575 13.891924695248695 7.876595570936949
Cr 6.672093913835434 9.700002396406683 9.421667016886923
Cr 9.758012648172501 12.56408566703116 9.238438486216888
Cr 9.436326949565986 9.80834200536267 9.73768390982888
Cr 8.982488546678407 5.443867951997424 9.09884098129045
Cr 8.267067725732275 13.637454286992263 10.691362313077802
Cr 6.584145142507285 6.597333167703741 9.567184363323005
Cr 5.111766912441975 8.770287273725346 10.32207564407095
Cr 5.888456198561592 11.92565718089292 10.466660281923467
Cr 11.866525881154294 9.038468380014551 10.499759659879784
Cr 10.855013822358309 11.334277136611227 11.335179811942329
Cr 9.8199747513434 7.2400079790018435 10.34175138007845
Cr 7.906571778957249 8.463124788519474 10.912388820593034
Cr 8.297662115112981 11.145550103293118 11.110318203818215
Cr 13.98653519430897 8.794801408236353 10.824312028445924
Cr 13.080282282606536 11.087940106695717 11.52022299997425
Cr 12.583913959821267 6.681407061390708 11.113798691694726
Cr 10.767783129102229 4.947419650281704 10.985975903516621
Cr 11.962956089502105 12.603334029345854 9.545714768829626
Cr 8.19993346396501 5.876715825722494 11.66366000302312
Cr 9.924767650988619 9.223071169895604 12.095569522710532
Cr 6.955635416845632 12.190603020534057 12.602455246996156
Cr 6.295658497712651 7.25156623313962 11.996970123277675
Cr 6.362726657035172 9.963764838460872 12.374093782684689
Cr 12.441985596806413 8.75044491591467 12.896263067765787
Cr 11.28254825069813 11.03424607494172 13.682256063551856
Cr 10.502190430914672 6.790624991852791 12.792038860966152
Cr 8.624406881978361 10.702267814556706 13.66758934536831
Cr 8.028799574082916 7.968503245287262 13.537851464037246
Cr 10.326933814989317 8.856375761974508 14.20451272415603
