       N       E                     dE             d eps       ncg     rms          rms(c)
DAV:   1     0.470105832987E+04    0.47011E+04   -0.11900E+05  1488   0.624E+02
DAV:   2     0.694592301693E+03   -0.40065E+04   -0.36142E+04  2328   0.173E+02
DAV:   3    -0.804702965637E+02   -0.77506E+03   -0.71924E+03  1816   0.816E+01
DAV:   4    -0.107719030206E+03   -0.27249E+02   -0.27035E+02  1584   0.165E+01
DAV:   5    -0.108132131532E+03   -0.41310E+00   -0.41272E+00  1632   0.230E+00    0.478E+01
DAV:   6    -0.477868447405E+02    0.60345E+02   -0.18564E+02  1500   0.165E+01    0.269E+01
DAV:   7    -0.354597078297E+02    0.12327E+02   -0.13232E+01  1552   0.511E+00    0.157E+01
DAV:   8    -0.304254839546E+02    0.50342E+01   -0.35686E+00  1568   0.291E+00    0.789E+00
DAV:   9    -0.345705797705E+02   -0.41451E+01   -0.72063E-01  1584   0.109E+00    0.518E+00
DAV:  10    -0.487031467678E+02   -0.14133E+02   -0.39342E+00  1500   0.232E+00    0.438E+00
DAV:  11    -0.613295964820E+02   -0.12626E+02   -0.50489E+00  1544   0.285E+00    0.313E+00
DAV:  12    -0.765602467542E+02   -0.15231E+02   -0.67494E+00  1488   0.254E+00    0.247E+00
DAV:  13    -0.827782423875E+02   -0.62180E+01   -0.18495E+00  1568   0.164E+00    0.238E+00
DAV:  14    -0.857341105820E+02   -0.29559E+01   -0.52918E-01  1568   0.952E-01    0.190E+00
DAV:  15    -0.930432159798E+02   -0.73091E+01   -0.20471E+00  1504   0.132E+00    0.182E+00
DAV:  16    -0.952972690564E+02   -0.22541E+01   -0.29547E-01  1552   0.764E-01    0.131E+00
DAV:  17    -0.988278924825E+02   -0.35306E+01   -0.55685E-01  1500   0.736E-01    0.152E+00
DAV:  18    -0.997019614288E+02   -0.87407E+00   -0.67420E-02  1536   0.481E-01    0.111E+00
DAV:  19    -0.101450593321E+03   -0.17486E+01   -0.16976E-01  1504   0.493E-01    0.687E-01
DAV:  20    -0.103470434456E+03   -0.20198E+01   -0.16957E-01  1496   0.441E-01    0.360E-01
DAV:  21    -0.104299267533E+03   -0.82883E+00   -0.31357E-02  1544   0.191E-01    0.249E-01
DAV:  22    -0.104864346394E+03   -0.56508E+00   -0.16482E-02  1520   0.122E-01    0.153E-01
DAV:  23    -0.105124030538E+03   -0.25968E+00   -0.73309E-03  1520   0.888E-02    0.913E-02
DAV:  24    -0.105214320965E+03   -0.90290E-01   -0.15624E-03  1428   0.613E-02    0.489E-02
DAV:  25    -0.105248814169E+03   -0.34493E-01   -0.94372E-04  1088   0.278E-02    0.350E-02
DAV:  26    -0.105271646265E+03   -0.22832E-01   -0.44419E-04  1048   0.190E-02    0.221E-02
DAV:  27    -0.105283644654E+03   -0.11998E-01   -0.20412E-04  1016   0.138E-02    0.150E-02
DAV:  28    -0.105290904501E+03   -0.72598E-02   -0.10429E-04  1032   0.913E-03    0.124E-02
DAV:  29    -0.105296547456E+03   -0.56430E-02   -0.83805E-05   968   0.775E-03    0.690E-03
DAV:  30    -0.105299723733E+03   -0.31763E-02   -0.29331E-05   968   0.536E-03    0.459E-03
DAV:  31    -0.105300766264E+03   -0.10425E-02   -0.61360E-06   960   0.393E-03    0.286E-03
DAV:  32    -0.105301207231E+03   -0.44097E-03   -0.56114E-06   944   0.355E-03    0.188E-03
DAV:  33    -0.105301304833E+03   -0.97602E-04   -0.13940E-06   952   0.163E-03
   1 F= -.10530130E+03 E0= -.10530130E+03  d E =-.105301E+03  mag=     1.0014
       N       E                     dE             d eps       ncg     rms          rms(c)
DAV:   1    -0.106085693180E+03   -0.78449E+00   -0.59952E+01  1472   0.110E+01    0.112E+00
DAV:   2    -0.106112635163E+03   -0.26942E-01   -0.28350E-01  1512   0.105E+00    0.811E-01
DAV:   3    -0.106111252767E+03    0.13824E-02   -0.10241E-02  1524   0.206E-01    0.284E-01
DAV:   4    -0.106111100118E+03    0.15265E-03   -0.10350E-03  1568   0.114E-01    0.457E-02
DAV:   5    -0.106111012667E+03    0.87451E-04   -0.23098E-04  1080   0.315E-02
   2 F= -.10611101E+03 E0= -.10611101E+03  d E =-.809708E+00  mag=     1.0007
       N       E                     dE             d eps       ncg     rms          rms(c)
DAV:   1    -0.107544208044E+03   -0.14331E+01   -0.54371E+02  1456   0.334E+01    0.271E+00
DAV:   2    -0.107784458559E+03   -0.24025E+00   -0.25149E+00  1512   0.317E+00    0.214E+00
DAV:   3    -0.107774426057E+03    0.10033E-01   -0.60372E-02  1504   0.496E-01    0.107E+00
DAV:   4    -0.107772342892E+03    0.20832E-02   -0.16892E-02  1552   0.294E-01    0.134E-01
DAV:   5    -0.107771716439E+03    0.62645E-03   -0.18587E-03  1552   0.110E-01    0.824E-02
DAV:   6    -0.107771765017E+03   -0.48578E-04   -0.10608E-03  1572   0.460E-02    0.268E-02
DAV:   7    -0.107771960298E+03   -0.19528E-03   -0.25967E-05  1024   0.107E-02    0.146E-02
DAV:   8    -0.107772181813E+03   -0.22152E-03   -0.91871E-06   992   0.469E-03    0.734E-03
DAV:   9    -0.107772378922E+03   -0.19711E-03   -0.39563E-06   984   0.284E-03    0.330E-03
DAV:  10    -0.107772549627E+03   -0.17071E-03   -0.25639E-06   952   0.192E-03    0.212E-03
DAV:  11    -0.107772767885E+03   -0.21826E-03   -0.33414E-06   968   0.163E-03    0.155E-03
DAV:  12    -0.107772949535E+03   -0.18165E-03   -0.36457E-06  1000   0.145E-03    0.112E-03
DAV:  13    -0.107773037046E+03   -0.87510E-04   -0.93549E-07   976   0.842E-04
   3 F= -.10777304E+03 E0= -.10777304E+03  d E =-.247173E+01  mag=     1.0000
       N       E                     dE             d eps       ncg     rms          rms(c)
DAV:   1    -0.107552132987E+03    0.22082E+00   -0.22317E+03  1456   0.689E+01    0.369E+00
DAV:   2    -0.108571181800E+03   -0.10190E+01   -0.10601E+01  1516   0.670E+00    0.342E+00
DAV:   3    -0.108560364020E+03    0.10818E-01   -0.16922E-01  1568   0.805E-01    0.249E+00
DAV:   4    -0.108533551905E+03    0.26812E-01   -0.89522E-02  1544   0.519E-01    0.840E-01
DAV:   5    -0.108533837659E+03   -0.28575E-03   -0.66856E-03  1592   0.222E-01    0.213E-01
DAV:   6    -0.108533566174E+03    0.27148E-03   -0.17004E-03  1528   0.655E-02    0.112E-01
DAV:   7    -0.108534165181E+03   -0.59901E-03   -0.45529E-04  1520   0.375E-02    0.428E-02
DAV:   8    -0.108534697212E+03   -0.53203E-03   -0.30879E-05  1000   0.106E-02    0.191E-02
DAV:   9    -0.108535179202E+03   -0.48199E-03   -0.12479E-05  1008   0.506E-03    0.745E-03
DAV:  10    -0.108535676285E+03   -0.49708E-03   -0.76393E-06   992   0.342E-03    0.396E-03
DAV:  11    -0.108536254000E+03   -0.57772E-03   -0.11518E-05  1000   0.289E-03    0.321E-03
DAV:  12    -0.108536646651E+03   -0.39265E-03   -0.74714E-06   992   0.205E-03    0.241E-03
DAV:  13    -0.108536848561E+03   -0.20191E-03   -0.25852E-06  1008   0.130E-03    0.154E-03
DAV:  14    -0.108537023657E+03   -0.17510E-03   -0.18745E-06   960   0.113E-03    0.666E-04
DAV:  15    -0.108537085080E+03   -0.61423E-04   -0.44802E-07   976   0.583E-04
   4 F= -.10853709E+03 E0= -.10853709E+03  d E =-.323578E+01  mag=     1.0000
       N       E                     dE             d eps       ncg     rms          rms(c)
DAV:   1    -0.108565406263E+03   -0.28383E-01   -0.79709E+01  1456   0.127E+01    0.721E-01
DAV:   2    -0.108601851728E+03   -0.36445E-01   -0.38661E-01  1520   0.123E+00    0.497E-01
DAV:   3    -0.108600819293E+03    0.10324E-02   -0.77655E-03  1552   0.173E-01    0.292E-01
DAV:   4    -0.108600383258E+03    0.43603E-03   -0.27720E-03  1576   0.986E-02    0.593E-02
DAV:   5    -0.108600343354E+03    0.39904E-04   -0.14413E-04  1024   0.334E-02
   5 F= -.10860034E+03 E0= -.10860034E+03  d E =-.329904E+01  mag=     1.0000
       N       E                     dE             d eps       ncg     rms          rms(c)
DAV:   1    -0.108963782025E+03   -0.36340E+00   -0.99495E+01  1456   0.142E+01    0.855E-01
DAV:   2    -0.109006556146E+03   -0.42774E-01   -0.43580E-01  1496   0.133E+00    0.620E-01
DAV:   3    -0.109004671931E+03    0.18842E-02   -0.92727E-03  1552   0.222E-01    0.381E-01
DAV:   4    -0.109004172695E+03    0.49924E-03   -0.55240E-03  1516   0.144E-01    0.774E-02
DAV:   5    -0.109004052004E+03    0.12069E-03   -0.35753E-04  1184   0.479E-02    0.346E-02
DAV:   6    -0.109004078883E+03   -0.26879E-04   -0.14325E-04   992   0.190E-02
   6 F= -.10900408E+03 E0= -.10900408E+03  d E =-.403736E+00  mag=     1.0000
       N       E                     dE             d eps       ncg     rms          rms(c)
DAV:   1    -0.109244900379E+03   -0.24085E+00   -0.79010E+02  1456   0.405E+01    0.193E+00
DAV:   2    -0.109592608576E+03   -0.34771E+00   -0.35258E+00  1512   0.383E+00    0.153E+00
DAV:   3    -0.109583646187E+03    0.89624E-02   -0.62177E-02  1512   0.577E-01    0.111E+00
DAV:   4    -0.109575048674E+03    0.85975E-02   -0.42944E-02  1512   0.344E-01    0.228E-01
DAV:   5    -0.109574927127E+03    0.12155E-03   -0.14194E-03  1524   0.118E-01    0.987E-02
DAV:   6    -0.109574844186E+03    0.82942E-04   -0.56688E-04  1560   0.425E-02
   7 F= -.10957484E+03 E0= -.10957484E+03  d E =-.974501E+00  mag=     1.0000
       N       E                     dE             d eps       ncg     rms          rms(c)
DAV:   1    -0.109586283470E+03   -0.11356E-01   -0.67770E+01  1456   0.117E+01    0.499E-01
DAV:   2    -0.109615930294E+03   -0.29647E-01   -0.30092E-01  1528   0.110E+00    0.378E-01
DAV:   3    -0.109615161937E+03    0.76836E-03   -0.53714E-03  1528   0.164E-01    0.269E-01
DAV:   4    -0.109614540440E+03    0.62150E-03   -0.34318E-03  1496   0.971E-02    0.593E-02
DAV:   5    -0.109614584688E+03   -0.44248E-04   -0.10228E-04   984   0.309E-02
   8 F= -.10961458E+03 E0= -.10961458E+03  d E =-.101424E+01  mag=     1.0000
       N       E                     dE             d eps       ncg     rms          rms(c)
DAV:   1    -0.109753449054E+03   -0.13891E+00   -0.70940E+01  1456   0.120E+01    0.551E-01
DAV:   2    -0.109784349983E+03   -0.30901E-01   -0.31882E-01  1504   0.113E+00    0.413E-01
DAV:   3    -0.109783359935E+03    0.99005E-03   -0.57273E-03  1560   0.171E-01    0.274E-01
DAV:   4    -0.109782505547E+03    0.85439E-03   -0.32135E-03  1536   0.923E-02    0.619E-02
DAV:   5    -0.109782590684E+03   -0.85137E-04   -0.96513E-05  1008   0.255E-02
   9 F= -.10978259E+03 E0= -.10978259E+03  d E =-.168006E+00  mag=     1.0000
       N       E                     dE             d eps       ncg     rms          rms(c)
DAV:   1    -0.109782704570E+03   -0.19902E-03   -0.43909E+02  1456   0.300E+01    0.123E+00
DAV:   2    -0.109976220590E+03   -0.19352E+00   -0.19826E+00  1516   0.283E+00    0.943E-01
DAV:   3    -0.109971499399E+03    0.47212E-02   -0.32686E-02  1536   0.393E-01    0.663E-01
DAV:   4    -0.109966294784E+03    0.52046E-02   -0.16851E-02  1524   0.207E-01    0.188E-01
DAV:   5    -0.109966645566E+03   -0.35078E-03   -0.10315E-03  1560   0.682E-02    0.712E-02
DAV:   6    -0.109966983755E+03   -0.33819E-03   -0.15324E-04  1024   0.196E-02    0.428E-02
DAV:   7    -0.109967467444E+03   -0.48369E-03   -0.16626E-04   992   0.191E-02    0.126E-02
DAV:   8    -0.109967816547E+03   -0.34910E-03   -0.26272E-05  1008   0.935E-03    0.526E-03
DAV:   9    -0.109968016078E+03   -0.19953E-03   -0.65498E-06   952   0.420E-03    0.370E-03
DAV:  10    -0.109968207515E+03   -0.19144E-03   -0.29822E-06   968   0.201E-03    0.201E-03
DAV:  11    -0.109968448492E+03   -0.24098E-03   -0.59889E-06   980   0.214E-03    0.177E-03
DAV:  12    -0.109968561595E+03   -0.11310E-03   -0.25727E-06   976   0.131E-03    0.107E-03
DAV:  13    -0.109968618227E+03   -0.56632E-04   -0.82258E-07   944   0.861E-04
  10 F= -.10996862E+03 E0= -.10996862E+03  d E =-.354034E+00  mag=     1.0000
       N       E                     dE             d eps       ncg     rms          rms(c)
DAV:   1    -0.109968555378E+03    0.62168E-05   -0.45809E+00  1500   0.305E+00    0.117E-01
DAV:   2    -0.109970571547E+03   -0.20162E-02   -0.20559E-02  1516   0.287E-01    0.897E-02
DAV:   3    -0.109970520822E+03    0.50726E-04   -0.32291E-04  1160   0.387E-02
  11 F= -.10997052E+03 E0= -.10997052E+03  d E =-.355936E+00  mag=     1.0000
       N       E                     dE             d eps       ncg     rms          rms(c)
DAV:   1    -0.110031091246E+03   -0.60520E-01   -0.75377E+01  1456   0.124E+01    0.367E-01
DAV:   2    -0.110064116685E+03   -0.33025E-01   -0.33537E-01  1524   0.117E+00    0.332E-01
DAV:   3    -0.110063492059E+03    0.62463E-03   -0.52063E-03  1548   0.149E-01    0.244E-01
DAV:   4    -0.110062298750E+03    0.11933E-02   -0.22046E-03  1536   0.729E-02    0.109E-01
DAV:   5    -0.110062211989E+03    0.86761E-04   -0.89324E-04  1536   0.477E-02
  12 F= -.11006221E+03 E0= -.11006221E+03  d E =-.916912E-01  mag=     1.0000
       N       E                     dE             d eps       ncg     rms          rms(c)
DAV:   1    -0.109877838636E+03    0.18446E+00   -0.67489E+02  1456   0.373E+01    0.111E+00
DAV:   2    -0.110178666011E+03   -0.30083E+00   -0.30440E+00  1508   0.354E+00    0.987E-01
DAV:   3    -0.110174024529E+03    0.46415E-02   -0.46557E-02  1540   0.444E-01    0.721E-01
DAV:   4    -0.110164942530E+03    0.90820E-02   -0.14750E-02  1536   0.192E-01    0.373E-01
DAV:   5    -0.110164050593E+03    0.89194E-03   -0.90197E-03  1536   0.149E-01    0.117E-01
DAV:   6    -0.110164334082E+03   -0.28349E-03   -0.20180E-04  1032   0.243E-02    0.758E-02
DAV:   7    -0.110164798991E+03   -0.46491E-03   -0.26857E-04  1032   0.248E-02    0.239E-02
DAV:   8    -0.110165135725E+03   -0.33673E-03   -0.51129E-05   992   0.132E-02    0.915E-03
DAV:   9    -0.110165422273E+03   -0.28655E-03   -0.13875E-05   984   0.646E-03    0.470E-03
DAV:  10    -0.110165633663E+03   -0.21139E-03   -0.35886E-06   952   0.285E-03    0.248E-03
DAV:  11    -0.110165878034E+03   -0.24437E-03   -0.42227E-06   976   0.204E-03    0.187E-03
DAV:  12    -0.110166059846E+03   -0.18181E-03   -0.27441E-06   976   0.143E-03    0.118E-03
DAV:  13    -0.110166214012E+03   -0.15417E-03   -0.26428E-06   968   0.126E-03    0.105E-03
DAV:  14    -0.110166280037E+03   -0.66025E-04   -0.63559E-07   968   0.677E-04
  13 F= -.11016628E+03 E0= -.11016628E+03  d E =-.195759E+00  mag=     1.0000
       N       E                     dE             d eps       ncg     rms          rms(c)
DAV:   1    -0.110199315499E+03   -0.33101E-01   -0.12125E+02  1456   0.157E+01    0.367E-01
DAV:   2    -0.110252624642E+03   -0.53309E-01   -0.53369E-01  1512   0.147E+00    0.361E-01
DAV:   3    -0.110251840205E+03    0.78444E-03   -0.81760E-03  1560   0.180E-01    0.276E-01
DAV:   4    -0.110250102246E+03    0.17380E-02   -0.21334E-03  1544   0.708E-02    0.159E-01
DAV:   5    -0.110249710743E+03    0.39150E-03   -0.28933E-03  1516   0.801E-02    0.537E-02
DAV:   6    -0.110249723431E+03   -0.12688E-04   -0.40231E-05   920   0.110E-02
  14 F= -.11024972E+03 E0= -.11024972E+03  d E =-.834434E-01  mag=     1.0000
       N       E                     dE             d eps       ncg     rms          rms(c)
DAV:   1    -0.109937336331E+03    0.31237E+00   -0.92622E+02  1456   0.439E+01    0.124E+00
DAV:   2    -0.110354251385E+03   -0.41692E+00   -0.41742E+00  1512   0.414E+00    0.102E+00
DAV:   3    -0.110347066881E+03    0.71845E-02   -0.64105E-02  1540   0.510E-01    0.733E-01
DAV:   4    -0.110335185321E+03    0.11882E-01   -0.17459E-02  1520   0.204E-01    0.395E-01
DAV:   5    -0.110333343822E+03    0.18415E-02   -0.12755E-02  1552   0.172E-01    0.120E-01
DAV:   6    -0.110333475686E+03   -0.13186E-03   -0.21879E-04   984   0.263E-02    0.727E-02
DAV:   7    -0.110333657413E+03   -0.18173E-03   -0.13919E-04   968   0.196E-02    0.251E-02
DAV:   8    -0.110333774580E+03   -0.11717E-03   -0.29935E-05   968   0.968E-03    0.923E-03
DAV:   9    -0.110333895508E+03   -0.12093E-03   -0.80393E-06   952   0.507E-03    0.360E-03
DAV:  10    -0.110333972370E+03   -0.76862E-04   -0.24421E-06   952   0.239E-03
  15 F= -.11033397E+03 E0= -.11033397E+03  d E =-.167692E+00  mag=     1.0000
       N       E                     dE             d eps       ncg     rms          rms(c)
DAV:   1    -0.110337130509E+03   -0.32350E-02   -0.19034E+02  1456   0.197E+01    0.543E-01
DAV:   2    -0.110421595002E+03   -0.84464E-01   -0.84650E-01  1520   0.186E+00    0.483E-01
DAV:   3    -0.110420016502E+03    0.15785E-02   -0.12818E-02  1564   0.231E-01    0.349E-01
DAV:   4    -0.110417206746E+03    0.28098E-02   -0.48403E-03  1520   0.106E-01    0.171E-01
DAV:   5    -0.110417004017E+03    0.20273E-03   -0.27318E-03  1536   0.805E-02    0.612E-02
DAV:   6    -0.110417028647E+03   -0.24630E-04   -0.98073E-05   928   0.159E-02
  16 F= -.11041703E+03 E0= -.11041703E+03  d E =-.830563E-01  mag=     1.0000
       N       E                     dE             d eps       ncg     rms          rms(c)
DAV:   1    -0.110315805125E+03    0.10120E+00   -0.30522E+02  1456   0.250E+01    0.734E-01
DAV:   2    -0.110451938945E+03   -0.13613E+00   -0.13649E+00  1528   0.236E+00    0.615E-01
DAV:   3    -0.110449186283E+03    0.27527E-02   -0.20763E-02  1532   0.296E-01    0.434E-01
DAV:   4    -0.110444894009E+03    0.42923E-02   -0.83138E-03  1520   0.139E-01    0.200E-01
DAV:   5    -0.110444757535E+03    0.13647E-03   -0.34075E-03  1536   0.915E-02    0.709E-02
DAV:   6    -0.110444803744E+03   -0.46209E-04   -0.15794E-04   976   0.203E-02
  17 F= -.11044480E+03 E0= -.11044480E+03  d E =-.110831E+00  mag=     1.0000
       N       E                     dE             d eps       ncg     rms          rms(c)
DAV:   1    -0.110396943868E+03    0.47814E-01   -0.29271E+02  1456   0.245E+01    0.674E-01
DAV:   2    -0.110526806320E+03   -0.12986E+00   -0.13080E+00  1504   0.230E+00    0.562E-01
DAV:   3    -0.110524170534E+03    0.26358E-02   -0.20703E-02  1552   0.296E-01    0.407E-01
DAV:   4    -0.110520101600E+03    0.40689E-02   -0.66067E-03  1512   0.124E-01    0.198E-01
DAV:   5    -0.110519750619E+03    0.35098E-03   -0.41853E-03  1512   0.100E-01    0.656E-02
DAV:   6    -0.110519847882E+03   -0.97263E-04   -0.11676E-04   976   0.184E-02
  18 F= -.11051985E+03 E0= -.11051985E+03  d E =-.750441E-01  mag=     1.0000
       N       E                     dE             d eps       ncg     rms          rms(c)
DAV:   1    -0.110490157233E+03    0.29593E-01   -0.86091E+01  1456   0.133E+01    0.347E-01
DAV:   2    -0.110527991153E+03   -0.37834E-01   -0.38077E-01  1496   0.124E+00    0.311E-01
DAV:   3    -0.110527303268E+03    0.68789E-03   -0.59726E-03  1536   0.158E-01    0.229E-01
DAV:   4    -0.110526115738E+03    0.11875E-02   -0.19724E-03  1520   0.673E-02    0.116E-01
DAV:   5    -0.110526108623E+03    0.71151E-05   -0.14780E-03  1528   0.593E-02    0.408E-02
DAV:   6    -0.110526178580E+03   -0.69957E-04   -0.38986E-05   944   0.106E-02
  19 F= -.11052618E+03 E0= -.11052618E+03  d E =-.813748E-01  mag=     1.0000
       N       E                     dE             d eps       ncg     rms          rms(c)
DAV:   1    -0.110502046689E+03    0.24062E-01   -0.19500E+02  1456   0.200E+01    0.539E-01
DAV:   2    -0.110587488590E+03   -0.85442E-01   -0.86177E-01  1488   0.187E+00    0.488E-01
DAV:   3    -0.110585902608E+03    0.15860E-02   -0.13587E-02  1552   0.237E-01    0.358E-01
DAV:   4    -0.110583015452E+03    0.28872E-02   -0.48654E-03  1512   0.105E-01    0.176E-01
DAV:   5    -0.110582853615E+03    0.16184E-03   -0.30111E-03  1520   0.842E-02    0.625E-02
DAV:   6    -0.110582866454E+03   -0.12839E-04   -0.99221E-05   952   0.162E-02
  20 F= -.11058287E+03 E0= -.11058287E+03  d E =-.566879E-01  mag=     1.0000
       N       E                     dE             d eps       ncg     rms          rms(c)
DAV:   1    -0.110557601208E+03    0.25252E-01   -0.78319E+01  1456   0.126E+01    0.336E-01
DAV:   2    -0.110591899055E+03   -0.34298E-01   -0.34527E-01  1496   0.118E+00    0.310E-01
DAV:   3    -0.110591313550E+03    0.58550E-03   -0.54328E-03  1552   0.150E-01    0.229E-01
DAV:   4    -0.110590173470E+03    0.11401E-02   -0.19516E-03  1520   0.666E-02    0.114E-01
DAV:   5    -0.110590139237E+03    0.34233E-04   -0.13033E-03  1528   0.554E-02    0.415E-02
DAV:   6    -0.110590158079E+03   -0.18842E-04   -0.40282E-05   944   0.103E-02
  21 F= -.11059016E+03 E0= -.11059016E+03  d E =-.639795E-01  mag=     1.0000
       N       E                     dE             d eps       ncg     rms          rms(c)
DAV:   1    -0.110553386755E+03    0.36752E-01   -0.22461E+02  1456   0.214E+01    0.528E-01
DAV:   2    -0.110651209761E+03   -0.97823E-01   -0.98136E-01  1492   0.200E+00    0.498E-01
DAV:   3    -0.110649460417E+03    0.17493E-02   -0.15221E-02  1560   0.251E-01    0.377E-01
DAV:   4    -0.110646126925E+03    0.33335E-02   -0.42422E-03  1520   0.985E-02    0.208E-01
DAV:   5    -0.110645444105E+03    0.68282E-03   -0.48405E-03  1544   0.104E-01    0.670E-02
DAV:   6    -0.110645465273E+03   -0.21167E-04   -0.78433E-05   936   0.155E-02
  22 F= -.11064547E+03 E0= -.11064547E+03  d E =-.553072E-01  mag=     1.0000
       N       E                     dE             d eps       ncg     rms          rms(c)
DAV:   1    -0.110431260669E+03    0.21418E+00   -0.49629E+02  1456   0.320E+01    0.853E-01
DAV:   2    -0.110649276393E+03   -0.21802E+00   -0.21910E+00  1500   0.300E+00    0.745E-01
DAV:   3    -0.110644991246E+03    0.42851E-02   -0.34331E-02  1552   0.383E-01    0.546E-01
DAV:   4    -0.110637958978E+03    0.70323E-02   -0.95060E-03  1512   0.148E-01    0.294E-01
DAV:   5    -0.110636639043E+03    0.13199E-02   -0.85576E-03  1544   0.139E-01    0.887E-02
DAV:   6    -0.110636717197E+03   -0.78154E-04   -0.14500E-04   992   0.213E-02
  23 F= -.11063672E+03 E0= -.11063672E+03  d E =-.465591E-01  mag=     1.0000
       N       E                     dE             d eps       ncg     rms          rms(c)
DAV:   1    -0.110597600307E+03    0.39039E-01   -0.14062E+02  1456   0.170E+01    0.403E-01
DAV:   2    -0.110658773553E+03   -0.61173E-01   -0.61185E-01  1512   0.158E+00    0.396E-01
DAV:   3    -0.110657790287E+03    0.98327E-03   -0.95748E-03  1600   0.199E-01    0.304E-01
DAV:   4    -0.110655789778E+03    0.20005E-02   -0.25609E-03  1516   0.765E-02    0.173E-01
DAV:   5    -0.110655475282E+03    0.31450E-03   -0.35597E-03  1524   0.891E-02    0.565E-02
DAV:   6    -0.110655506419E+03   -0.31137E-04   -0.62446E-05   976   0.136E-02
  24 F= -.11065551E+03 E0= -.11065551E+03  d E =-.653483E-01  mag=     1.0000
       N       E                     dE             d eps       ncg     rms          rms(c)
DAV:   1    -0.110608677740E+03    0.46798E-01   -0.22435E+02  1456   0.214E+01    0.522E-01
DAV:   2    -0.110707407507E+03   -0.98730E-01   -0.99061E-01  1484   0.202E+00    0.526E-01
DAV:   3    -0.110705901134E+03    0.15064E-02   -0.15675E-02  1568   0.256E-01    0.400E-01
DAV:   4    -0.110702499876E+03    0.34013E-02   -0.39860E-03  1512   0.958E-02    0.237E-01
DAV:   5    -0.110701673426E+03    0.82645E-03   -0.57815E-03  1532   0.114E-01    0.768E-02
DAV:   6    -0.110701666278E+03    0.71476E-05   -0.82599E-05   944   0.160E-02
  25 F= -.11070167E+03 E0= -.11070167E+03  d E =-.461599E-01  mag=     1.0000
       N       E                     dE             d eps       ncg     rms          rms(c)
DAV:   1    -0.110657803318E+03    0.43870E-01   -0.11402E+02  1456   0.152E+01    0.365E-01
DAV:   2    -0.110707881720E+03   -0.50078E-01   -0.50332E-01  1480   0.143E+00    0.368E-01
DAV:   3    -0.110707152186E+03    0.72953E-03   -0.79077E-03  1560   0.181E-01    0.279E-01
DAV:   4    -0.110705480092E+03    0.16721E-02   -0.19876E-03  1540   0.677E-02    0.165E-01
DAV:   5    -0.110705101567E+03    0.37852E-03   -0.29838E-03  1524   0.816E-02    0.554E-02
DAV:   6    -0.110705108532E+03   -0.69641E-05   -0.43844E-05   896   0.115E-02
  26 F= -.11070511E+03 E0= -.11070511E+03  d E =-.496021E-01  mag=     1.0000
       N       E                     dE             d eps       ncg     rms          rms(c)
DAV:   1    -0.110659666082E+03    0.45435E-01   -0.18357E+02  1456   0.193E+01    0.439E-01
DAV:   2    -0.110740876882E+03   -0.81211E-01   -0.81147E-01  1500   0.182E+00    0.447E-01
DAV:   3    -0.110739640686E+03    0.12362E-02   -0.12500E-02  1560   0.228E-01    0.344E-01
DAV:   4    -0.110737034636E+03    0.26060E-02   -0.25885E-03  1536   0.776E-02    0.217E-01
DAV:   5    -0.110736103866E+03    0.93077E-03   -0.52984E-03  1544   0.108E-01    0.668E-02
DAV:   6    -0.110736134781E+03   -0.30914E-04   -0.52725E-05   920   0.138E-02
  27 F= -.11073613E+03 E0= -.11073613E+03  d E =-.310262E-01  mag=     1.0000
       N       E                     dE             d eps       ncg     rms          rms(c)
DAV:   1    -0.110687071946E+03    0.49032E-01   -0.13143E+02  1456   0.163E+01    0.368E-01
DAV:   2    -0.110745189596E+03   -0.58118E-01   -0.57995E-01  1492   0.154E+00    0.374E-01
DAV:   3    -0.110744316873E+03    0.87272E-03   -0.88955E-03  1568   0.191E-01    0.288E-01
DAV:   4    -0.110742460061E+03    0.18568E-02   -0.18741E-03  1528   0.660E-02    0.180E-01
DAV:   5    -0.110741833312E+03    0.62675E-03   -0.37989E-03  1500   0.913E-02    0.566E-02
DAV:   6    -0.110741860720E+03   -0.27409E-04   -0.39052E-05   920   0.117E-02
  28 F= -.11074186E+03 E0= -.11074186E+03  d E =-.367522E-01  mag=     1.0000
       N       E                     dE             d eps       ncg     rms          rms(c)
DAV:   1    -0.110738976809E+03    0.28565E-02   -0.84817E+01  1456   0.131E+01    0.351E-01
DAV:   2    -0.110777241187E+03   -0.38264E-01   -0.38440E-01  1508   0.124E+00    0.326E-01
DAV:   3    -0.110776641747E+03    0.59944E-03   -0.57465E-03  1568   0.151E-01    0.241E-01
DAV:   4    -0.110775419990E+03    0.12218E-02   -0.21411E-03  1500   0.708E-02    0.121E-01
DAV:   5    -0.110775375172E+03    0.44817E-04   -0.13422E-03  1528   0.562E-02    0.446E-02
DAV:   6    -0.110775377371E+03   -0.21990E-05   -0.49345E-05   904   0.112E-02
  29 F= -.11077538E+03 E0= -.11077538E+03  d E =-.335167E-01  mag=     1.0000
       N       E                     dE             d eps       ncg     rms          rms(c)
DAV:   1    -0.110703215167E+03    0.72160E-01   -0.18469E+02  1456   0.193E+01    0.540E-01
DAV:   2    -0.110787130081E+03   -0.83915E-01   -0.84282E-01  1484   0.184E+00    0.482E-01
DAV:   3    -0.110785734481E+03    0.13956E-02   -0.13163E-02  1576   0.228E-01    0.351E-01
DAV:   4    -0.110783064683E+03    0.26698E-02   -0.47152E-03  1492   0.105E-01    0.174E-01
DAV:   5    -0.110782921210E+03    0.14347E-03   -0.26020E-03  1548   0.786E-02    0.615E-02
DAV:   6    -0.110782904303E+03    0.16907E-04   -0.10853E-04   912   0.165E-02
  30 F= -.11078290E+03 E0= -.11078290E+03  d E =-.410436E-01  mag=     1.0000
       N       E                     dE             d eps       ncg     rms          rms(c)
DAV:   1    -0.110777439560E+03    0.54816E-02   -0.20300E+01  1456   0.641E+00    0.161E-01
DAV:   2    -0.110786521747E+03   -0.90822E-02   -0.90526E-02  1536   0.601E-01    0.159E-01
DAV:   3    -0.110786393605E+03    0.12814E-03   -0.13373E-03  1584   0.711E-02    0.123E-01
DAV:   4    -0.110786096966E+03    0.29664E-03   -0.52480E-04  1504   0.350E-02    0.633E-02
DAV:   5    -0.110786109338E+03   -0.12373E-04   -0.39685E-04  1488   0.304E-02
  31 F= -.11078611E+03 E0= -.11078611E+03  d E =-.442486E-01  mag=     1.0000
       N       E                     dE             d eps       ncg     rms          rms(c)
DAV:   1    -0.110783368022E+03    0.27289E-02   -0.73444E+01  1456   0.122E+01    0.288E-01
DAV:   2    -0.110816384460E+03   -0.33016E-01   -0.32845E-01  1492   0.115E+00    0.281E-01
DAV:   3    -0.110815841540E+03    0.54292E-03   -0.49498E-03  1584   0.138E-01    0.218E-01
DAV:   4    -0.110814677134E+03    0.11644E-02   -0.15485E-03  1512   0.595E-02    0.118E-01
DAV:   5    -0.110814482499E+03    0.19463E-03   -0.16882E-03  1544   0.616E-02    0.411E-02
DAV:   6    -0.110814486221E+03   -0.37215E-05   -0.31289E-05   912   0.942E-03
  32 F= -.11081449E+03 E0= -.11081449E+03  d E =-.283769E-01  mag=     1.0000
       N       E                     dE             d eps       ncg     rms          rms(c)
DAV:   1    -0.110694755092E+03    0.11973E+00   -0.31623E+02  1456   0.254E+01    0.684E-01
DAV:   2    -0.110839519126E+03   -0.14476E+00   -0.14483E+00  1500   0.241E+00    0.588E-01
DAV:   3    -0.110836864412E+03    0.26547E-02   -0.22350E-02  1552   0.299E-01    0.430E-01
DAV:   4    -0.110832275547E+03    0.45889E-02   -0.68340E-03  1500   0.125E-01    0.221E-01
DAV:   5    -0.110831650637E+03    0.62491E-03   -0.49271E-03  1544   0.107E-01    0.699E-02
DAV:   6    -0.110831677094E+03   -0.26457E-04   -0.11356E-04  1000   0.179E-02
  33 F= -.11083168E+03 E0= -.11083168E+03  d E =-.455678E-01  mag=     1.0000
       N       E                     dE             d eps       ncg     rms          rms(c)
DAV:   1    -0.110821818888E+03    0.98317E-02   -0.69142E+01  1456   0.118E+01    0.262E-01
DAV:   2    -0.110852715238E+03   -0.30896E-01   -0.30624E-01  1504   0.111E+00    0.268E-01
DAV:   3    -0.110852278565E+03    0.43667E-03   -0.45181E-03  1608   0.130E-01    0.211E-01
DAV:   4    -0.110851204003E+03    0.10746E-02   -0.12835E-03  1484   0.543E-02    0.122E-01
DAV:   5    -0.110850993321E+03    0.21068E-03   -0.18995E-03  1528   0.650E-02    0.428E-02
DAV:   6    -0.110851016685E+03   -0.23364E-04   -0.24579E-05   944   0.879E-03
  34 F= -.11085102E+03 E0= -.11085102E+03  d E =-.193396E-01  mag=     1.0000
       N       E                     dE             d eps       ncg     rms          rms(c)
DAV:   1    -0.110735199711E+03    0.11579E+00   -0.30655E+02  1456   0.250E+01    0.622E-01
DAV:   2    -0.110874557535E+03   -0.13936E+00   -0.13862E+00  1520   0.237E+00    0.571E-01
DAV:   3    -0.110872050946E+03    0.25066E-02   -0.20987E-02  1576   0.287E-01    0.430E-01
DAV:   4    -0.110867457507E+03    0.45934E-02   -0.57413E-03  1528   0.115E-01    0.241E-01
DAV:   5    -0.110866447075E+03    0.10104E-02   -0.61230E-03  1512   0.118E-01    0.732E-02
DAV:   6    -0.110866495210E+03   -0.48134E-04   -0.79605E-05   928   0.164E-02
  35 F= -.11086650E+03 E0= -.11086650E+03  d E =-.348181E-01  mag=     1.0000
       N       E                     dE             d eps       ncg     rms          rms(c)
DAV:   1    -0.110873719905E+03   -0.72728E-02   -0.48855E+01  1456   0.995E+00    0.253E-01
DAV:   2    -0.110895526219E+03   -0.21806E-01   -0.21896E-01  1512   0.936E-01    0.246E-01
DAV:   3    -0.110895193017E+03    0.33320E-03   -0.31831E-03  1568   0.111E-01    0.188E-01
DAV:   4    -0.110894435005E+03    0.75801E-03   -0.12257E-03  1532   0.528E-02    0.958E-02
DAV:   5    -0.110894379707E+03    0.55298E-04   -0.89404E-04  1528   0.459E-02
  36 F= -.11089438E+03 E0= -.11089438E+03  d E =-.278845E-01  mag=     1.0000
       N       E                     dE             d eps       ncg     rms          rms(c)
DAV:   1    -0.110847924537E+03    0.46510E-01   -0.15192E+02  1456   0.176E+01    0.453E-01
DAV:   2    -0.110916158182E+03   -0.68234E-01   -0.68610E-01  1512   0.166E+00    0.435E-01
DAV:   3    -0.110915137254E+03    0.10209E-02   -0.10030E-02  1536   0.198E-01    0.329E-01
DAV:   4    -0.110912862264E+03    0.22750E-02   -0.34865E-03  1512   0.896E-02    0.172E-01
DAV:   5    -0.110912622859E+03    0.23940E-03   -0.26735E-03  1528   0.796E-02    0.613E-02
DAV:   6    -0.110912628842E+03   -0.59826E-05   -0.72022E-05   912   0.144E-02
  37 F= -.11091263E+03 E0= -.11091263E+03  d E =-.461336E-01  mag=     1.0000
       N       E                     dE             d eps       ncg     rms          rms(c)
DAV:   1    -0.110915582457E+03   -0.29596E-02   -0.51170E+01  1456   0.102E+01    0.236E-01
DAV:   2    -0.110938269885E+03   -0.22687E-01   -0.22708E-01  1508   0.958E-01    0.241E-01
DAV:   3    -0.110937929423E+03    0.34046E-03   -0.33087E-03  1560   0.115E-01    0.187E-01
DAV:   4    -0.110937139658E+03    0.78977E-03   -0.95182E-04  1532   0.468E-02    0.109E-01
DAV:   5    -0.110936980083E+03    0.15957E-03   -0.13488E-03  1504   0.548E-02    0.383E-02
DAV:   6    -0.110937003696E+03   -0.23612E-04   -0.19574E-05   920   0.756E-03
  38 F= -.11093700E+03 E0= -.11093700E+03  d E =-.243749E-01  mag=     1.0000
       N       E                     dE             d eps       ncg     rms          rms(c)
DAV:   1    -0.110836056019E+03    0.10092E+00   -0.28976E+02  1456   0.243E+01    0.595E-01
DAV:   2    -0.110965893450E+03   -0.12984E+00   -0.13001E+00  1500   0.230E+00    0.582E-01
DAV:   3    -0.110963747583E+03    0.21459E-02   -0.19133E-02  1552   0.279E-01    0.440E-01
DAV:   4    -0.110959442277E+03    0.43053E-02   -0.51444E-03  1516   0.109E-01    0.258E-01
DAV:   5    -0.110958395230E+03    0.10470E-02   -0.65016E-03  1512   0.121E-01    0.820E-02
DAV:   6    -0.110958460448E+03   -0.65219E-04   -0.85183E-05   916   0.163E-02
  39 F= -.11095846E+03 E0= -.11095846E+03  d E =-.458316E-01  mag=     1.0000
       N       E                     dE             d eps       ncg     rms          rms(c)
DAV:   1    -0.110946122855E+03    0.12272E-01   -0.88846E+01  1456   0.135E+01    0.315E-01
DAV:   2    -0.110985016827E+03   -0.38894E-01   -0.38757E-01  1504   0.125E+00    0.307E-01
DAV:   3    -0.110984389637E+03    0.62719E-03   -0.58062E-03  1560   0.150E-01    0.238E-01
DAV:   4    -0.110983033182E+03    0.13565E-02   -0.18097E-03  1504   0.641E-02    0.129E-01
DAV:   5    -0.110982837945E+03    0.19524E-03   -0.19972E-03  1504   0.670E-02    0.453E-02
DAV:   6    -0.110982878950E+03   -0.41005E-04   -0.30725E-05   928   0.953E-03
  40 F= -.11098288E+03 E0= -.11098288E+03  d E =-.244185E-01  mag=     1.0000
       N       E                     dE             d eps       ncg     rms          rms(c)
DAV:   1    -0.110948914579E+03    0.33923E-01   -0.10306E+02  1456   0.145E+01    0.342E-01
DAV:   2    -0.110994117238E+03   -0.45203E-01   -0.44998E-01  1500   0.135E+00    0.331E-01
DAV:   3    -0.110993378480E+03    0.73876E-03   -0.67491E-03  1536   0.162E-01    0.255E-01
DAV:   4    -0.110991797979E+03    0.15805E-02   -0.20950E-03  1512   0.690E-02    0.138E-01
DAV:   5    -0.110991548509E+03    0.24947E-03   -0.22812E-03  1504   0.716E-02    0.477E-02
DAV:   6    -0.110991586020E+03   -0.37510E-04   -0.36873E-05   912   0.104E-02
  41 F= -.11099159E+03 E0= -.11099159E+03  d E =-.331256E-01  mag=     1.0000
       N       E                     dE             d eps       ncg     rms          rms(c)
DAV:   1    -0.110974683422E+03    0.16865E-01   -0.96379E+01  1456   0.140E+01    0.337E-01
DAV:   2    -0.111017169109E+03   -0.42486E-01   -0.42473E-01  1496   0.131E+00    0.329E-01
DAV:   3    -0.111016478803E+03    0.69031E-03   -0.64524E-03  1568   0.159E-01    0.250E-01
DAV:   4    -0.111014985483E+03    0.14933E-02   -0.20387E-03  1512   0.681E-02    0.136E-01
DAV:   5    -0.111014784746E+03    0.20074E-03   -0.21330E-03  1528   0.692E-02    0.487E-02
DAV:   6    -0.111014814363E+03   -0.29617E-04   -0.40343E-05   884   0.105E-02
  42 F= -.11101481E+03 E0= -.11101481E+03  d E =-.232283E-01  mag=     1.0000
       N       E                     dE             d eps       ncg     rms          rms(c)
DAV:   1    -0.110989807268E+03    0.24977E-01   -0.73627E+01  1456   0.122E+01    0.294E-01
DAV:   2    -0.111022163697E+03   -0.32356E-01   -0.32393E-01  1484   0.114E+00    0.288E-01
DAV:   3    -0.111021634249E+03    0.52945E-03   -0.49178E-03  1532   0.139E-01    0.219E-01
DAV:   4    -0.111020492345E+03    0.11419E-02   -0.15786E-03  1508   0.598E-02    0.119E-01
DAV:   5    -0.111020349896E+03    0.14245E-03   -0.16327E-03  1528   0.606E-02    0.429E-02
DAV:   6    -0.111020378080E+03   -0.28183E-04   -0.31431E-05   884   0.926E-03
  43 F= -.11102038E+03 E0= -.11102038E+03  d E =-.287921E-01  mag=     1.0000
       N       E                     dE             d eps       ncg     rms          rms(c)
DAV:   1    -0.110995956633E+03    0.24393E-01   -0.10824E+02  1456   0.148E+01    0.371E-01
DAV:   2    -0.111043396173E+03   -0.47440E-01   -0.47441E-01  1516   0.138E+00    0.351E-01
DAV:   3    -0.111042540656E+03    0.85552E-03   -0.71935E-03  1560   0.170E-01    0.263E-01
DAV:   4    -0.111040839646E+03    0.17010E-02   -0.25430E-03  1492   0.758E-02    0.136E-01
DAV:   5    -0.111040673080E+03    0.16657E-03   -0.20890E-03  1528   0.688E-02    0.490E-02
DAV:   6    -0.111040692811E+03   -0.19731E-04   -0.47500E-05   896   0.113E-02
  44 F= -.11104069E+03 E0= -.11104069E+03  d E =-.203147E-01  mag=     1.0000
       N       E                     dE             d eps       ncg     rms          rms(c)
DAV:   1    -0.111018771896E+03    0.21901E-01   -0.62602E+01  1456   0.113E+01    0.279E-01
DAV:   2    -0.111046069003E+03   -0.27297E-01   -0.27369E-01  1520   0.105E+00    0.268E-01
DAV:   3    -0.111045559624E+03    0.50938E-03   -0.39640E-03  1516   0.127E-01    0.202E-01
DAV:   4    -0.111044569440E+03    0.99018E-03   -0.14883E-03  1520   0.579E-02    0.105E-01
DAV:   5    -0.111044479769E+03    0.89672E-04   -0.12518E-03  1516   0.533E-02    0.387E-02
DAV:   6    -0.111044495958E+03   -0.16189E-04   -0.27019E-05   888   0.852E-03
  45 F= -.11104450E+03 E0= -.11104450E+03  d E =-.241179E-01  mag=     1.0000
       N       E                     dE             d eps       ncg     rms          rms(c)
DAV:   1    -0.111004836594E+03    0.39643E-01   -0.14146E+02  1456   0.170E+01    0.405E-01
DAV:   2    -0.111066377215E+03   -0.61541E-01   -0.61384E-01  1496   0.157E+00    0.375E-01
DAV:   3    -0.111065150005E+03    0.12272E-02   -0.90611E-03  1560   0.190E-01    0.289E-01
DAV:   4    -0.111062956648E+03    0.21934E-02   -0.29411E-03  1496   0.811E-02    0.149E-01
DAV:   5    -0.111062584139E+03    0.37251E-03   -0.28141E-03  1544   0.796E-02    0.489E-02
DAV:   6    -0.111062620443E+03   -0.36303E-04   -0.41837E-05   928   0.115E-02
  46 F= -.11106262E+03 E0= -.11106262E+03  d E =-.181245E-01  mag=     1.0000
       N       E                     dE             d eps       ncg     rms          rms(c)
DAV:   1    -0.111043164032E+03    0.19420E-01   -0.46083E+01  1456   0.967E+00    0.225E-01
DAV:   2    -0.111063143146E+03   -0.19979E-01   -0.19936E-01  1500   0.894E-01    0.213E-01
DAV:   3    -0.111062772384E+03    0.37076E-03   -0.29218E-03  1544   0.107E-01    0.165E-01
DAV:   4    -0.111062074680E+03    0.69770E-03   -0.94959E-04  1504   0.462E-02    0.861E-02
DAV:   5    -0.111061985395E+03    0.89285E-04   -0.98849E-04  1504   0.471E-02
  47 F= -.11106199E+03 E0= -.11106199E+03  d E =-.174894E-01  mag=     1.0000
       N       E                     dE             d eps       ncg     rms          rms(c)
DAV:   1    -0.111039246570E+03    0.22828E-01   -0.85497E+01  1456   0.132E+01    0.273E-01
DAV:   2    -0.111077006904E+03   -0.37760E-01   -0.37527E-01  1512   0.123E+00    0.291E-01
DAV:   3    -0.111076496077E+03    0.51083E-03   -0.53267E-03  1532   0.143E-01    0.230E-01
DAV:   4    -0.111075272279E+03    0.12238E-02   -0.11940E-03  1512   0.531E-02    0.146E-01
DAV:   5    -0.111074848516E+03    0.42376E-03   -0.26095E-03  1536   0.757E-02    0.486E-02
DAV:   6    -0.111074896011E+03   -0.47495E-04   -0.25002E-05   912   0.925E-03
  48 F= -.11107490E+03 E0= -.11107490E+03  d E =-.129106E-01  mag=     1.0000
       N       E                     dE             d eps       ncg     rms          rms(c)
DAV:   1    -0.111020859007E+03    0.53990E-01   -0.14110E+02  1456   0.169E+01    0.355E-01
DAV:   2    -0.111083340936E+03   -0.62482E-01   -0.61947E-01  1512   0.158E+00    0.377E-01
DAV:   3    -0.111082460527E+03    0.88041E-03   -0.87852E-03  1532   0.184E-01    0.298E-01
DAV:   4    -0.111080392272E+03    0.20683E-02   -0.19887E-03  1512   0.684E-02    0.189E-01
DAV:   5    -0.111079642362E+03    0.74991E-03   -0.42313E-03  1528   0.963E-02    0.615E-02
DAV:   6    -0.111079708795E+03   -0.66432E-04   -0.39205E-05   912   0.117E-02
  49 F= -.11107971E+03 E0= -.11107971E+03  d E =-.177234E-01  mag=     1.0000
       N       E                     dE             d eps       ncg     rms          rms(c)
DAV:   1    -0.111067852916E+03    0.11789E-01   -0.79150E+01  1456   0.127E+01    0.292E-01
DAV:   2    -0.111102899516E+03   -0.35047E-01   -0.34868E-01  1512   0.118E+00    0.297E-01
DAV:   3    -0.111102400413E+03    0.49910E-03   -0.49985E-03  1516   0.138E-01    0.230E-01
DAV:   4    -0.111101192583E+03    0.12078E-02   -0.15272E-03  1528   0.598E-02    0.132E-01
DAV:   5    -0.111100984598E+03    0.20798E-03   -0.18783E-03  1512   0.649E-02    0.474E-02
DAV:   6    -0.111101025086E+03   -0.40488E-04   -0.24444E-05   912   0.867E-03
  50 F= -.11110103E+03 E0= -.11110103E+03  d E =-.213163E-01  mag=     1.0000
       N       E                     dE             d eps       ncg     rms          rms(c)
DAV:   1    -0.111059621002E+03    0.41364E-01   -0.12067E+02  1456   0.156E+01    0.362E-01
DAV:   2    -0.111112945590E+03   -0.53325E-01   -0.53137E-01  1520   0.146E+00    0.366E-01
DAV:   3    -0.111112168653E+03    0.77694E-03   -0.76062E-03  1516   0.170E-01    0.284E-01
DAV:   4    -0.111110296776E+03    0.18719E-02   -0.23344E-03  1524   0.738E-02    0.163E-01
DAV:   5    -0.111109936005E+03    0.36077E-03   -0.27837E-03  1504   0.789E-02    0.575E-02
DAV:   6    -0.111109979181E+03   -0.43176E-04   -0.35555E-05   904   0.105E-02
  51 F= -.11110998E+03 E0= -.11110998E+03  d E =-.302704E-01  mag=     1.0000
       N       E                     dE             d eps       ncg     rms          rms(c)
DAV:   1    -0.111083300102E+03    0.26636E-01   -0.11222E+02  1456   0.151E+01    0.339E-01
DAV:   2    -0.111132647721E+03   -0.49348E-01   -0.49451E-01  1520   0.141E+00    0.357E-01
DAV:   3    -0.111131963502E+03    0.68422E-03   -0.73182E-03  1536   0.170E-01    0.275E-01
DAV:   4    -0.111130287702E+03    0.16758E-02   -0.17842E-03  1528   0.654E-02    0.172E-01
DAV:   5    -0.111129809048E+03    0.47865E-03   -0.31325E-03  1512   0.829E-02    0.592E-02
DAV:   6    -0.111129862719E+03   -0.53670E-04   -0.33692E-05   912   0.105E-02
  52 F= -.11112986E+03 E0= -.11112986E+03  d E =-.198835E-01  mag=     1.0000
       N       E                     dE             d eps       ncg     rms          rms(c)
DAV:   1    -0.111100789473E+03    0.29020E-01   -0.79128E+01  1456   0.127E+01    0.284E-01
DAV:   2    -0.111135538297E+03   -0.34749E-01   -0.34866E-01  1520   0.119E+00    0.298E-01
DAV:   3    -0.111135061144E+03    0.47715E-03   -0.51451E-03  1536   0.142E-01    0.229E-01
DAV:   4    -0.111133898990E+03    0.11622E-02   -0.12703E-03  1536   0.551E-02    0.143E-01
DAV:   5    -0.111133602155E+03    0.29684E-03   -0.21928E-03  1488   0.693E-02    0.498E-02
DAV:   6    -0.111133648931E+03   -0.46776E-04   -0.24161E-05   904   0.879E-03
  53 F= -.11113365E+03 E0= -.11113365E+03  d E =-.236697E-01  mag=     1.0000
       N       E                     dE             d eps       ncg     rms          rms(c)
DAV:   1    -0.111089125962E+03    0.44476E-01   -0.14728E+02  1456   0.173E+01    0.377E-01
DAV:   2    -0.111153766868E+03   -0.64641E-01   -0.64739E-01  1504   0.162E+00    0.396E-01
DAV:   3    -0.111152817476E+03    0.94939E-03   -0.95936E-03  1536   0.196E-01    0.304E-01
DAV:   4    -0.111150689030E+03    0.21284E-02   -0.20369E-03  1516   0.697E-02    0.196E-01
DAV:   5    -0.111149884304E+03    0.80473E-03   -0.43467E-03  1496   0.971E-02    0.639E-02
DAV:   6    -0.111149952796E+03   -0.68492E-04   -0.42787E-05   920   0.121E-02
  54 F= -.11114995E+03 E0= -.11114995E+03  d E =-.163039E-01  mag=     1.0000
       N       E                     dE             d eps       ncg     rms          rms(c)
DAV:   1    -0.111129921811E+03    0.19962E-01   -0.51129E+01  1456   0.102E+01    0.216E-01
DAV:   2    -0.111152331450E+03   -0.22410E-01   -0.22437E-01  1512   0.952E-01    0.233E-01
DAV:   3    -0.111152043581E+03    0.28787E-03   -0.33103E-03  1520   0.115E-01    0.180E-01
DAV:   4    -0.111151335495E+03    0.70809E-03   -0.69333E-04  1536   0.406E-02    0.118E-01
DAV:   5    -0.111151119652E+03    0.21584E-03   -0.16343E-03  1476   0.594E-02    0.404E-02
DAV:   6    -0.111151173276E+03   -0.53625E-04   -0.16217E-05   920   0.732E-03
  55 F= -.11115117E+03 E0= -.11115117E+03  d E =-.175243E-01  mag=     1.0000
       N       E                     dE             d eps       ncg     rms          rms(c)
DAV:   1    -0.111111209716E+03    0.39910E-01   -0.13040E+02  1456   0.163E+01    0.404E-01
DAV:   2    -0.111168994426E+03   -0.57785E-01   -0.57721E-01  1504   0.152E+00    0.375E-01
DAV:   3    -0.111167997363E+03    0.99706E-03   -0.84710E-03  1544   0.182E-01    0.283E-01
DAV:   4    -0.111166023743E+03    0.19736E-02   -0.28607E-03  1508   0.816E-02    0.147E-01
DAV:   5    -0.111165783958E+03    0.23979E-03   -0.23649E-03  1516   0.727E-02    0.517E-02
DAV:   6    -0.111165833067E+03   -0.49110E-04   -0.49433E-05   920   0.118E-02
  56 F= -.11116583E+03 E0= -.11116583E+03  d E =-.146598E-01  mag=     1.0000
       N       E                     dE             d eps       ncg     rms          rms(c)
DAV:   1    -0.111157585139E+03    0.81988E-02   -0.19103E+01  1456   0.622E+00    0.151E-01
DAV:   2    -0.111166054373E+03   -0.84692E-02   -0.84377E-02  1520   0.582E-01    0.144E-01
DAV:   3    -0.111165938121E+03    0.11625E-03   -0.12303E-03  1536   0.695E-02    0.109E-01
DAV:   4    -0.111165690900E+03    0.24722E-03   -0.40803E-04  1456   0.309E-02    0.584E-02
DAV:   5    -0.111165715819E+03   -0.24920E-04   -0.39300E-04  1472   0.298E-02
  57 F= -.11116572E+03 E0= -.11116572E+03  d E =-.145425E-01  mag=     1.0000
       N       E                     dE             d eps       ncg     rms          rms(c)
DAV:   1    -0.111121390859E+03    0.44300E-01   -0.13094E+02  1456   0.163E+01    0.395E-01
DAV:   2    -0.111179984477E+03   -0.58594E-01   -0.58511E-01  1504   0.154E+00    0.381E-01
DAV:   3    -0.111179114446E+03    0.87003E-03   -0.87411E-03  1536   0.187E-01    0.286E-01
DAV:   4    -0.111177200551E+03    0.19139E-02   -0.25035E-03  1508   0.764E-02    0.161E-01
DAV:   5    -0.111176870407E+03    0.33014E-03   -0.28494E-03  1524   0.795E-02    0.553E-02
DAV:   6    -0.111176911113E+03   -0.40705E-04   -0.55501E-05   944   0.125E-02
  58 F= -.11117691E+03 E0= -.11117691E+03  d E =-.111953E-01  mag=     1.0000
       N       E                     dE             d eps       ncg     rms          rms(c)
DAV:   1    -0.111168956763E+03    0.79136E-02   -0.17309E+01  1456   0.592E+00    0.139E-01
DAV:   2    -0.111176705403E+03   -0.77486E-02   -0.77117E-02  1512   0.558E-01    0.140E-01
DAV:   3    -0.111176622455E+03    0.82947E-04   -0.11447E-03  1560   0.677E-02    0.106E-01
DAV:   4    -0.111176402876E+03    0.21958E-03   -0.29967E-04  1144   0.272E-02    0.631E-02
DAV:   5    -0.111176411034E+03   -0.81579E-05   -0.49960E-04  1504   0.346E-02
  59 F= -.11117641E+03 E0= -.11117641E+03  d E =-.106952E-01  mag=     1.0000
       N       E                     dE             d eps       ncg     rms          rms(c)
DAV:   1    -0.111145099321E+03    0.31304E-01   -0.95800E+01  1456   0.140E+01    0.336E-01
DAV:   2    -0.111187853652E+03   -0.42754E-01   -0.42651E-01  1504   0.131E+00    0.325E-01
DAV:   3    -0.111187247354E+03    0.60630E-03   -0.63597E-03  1552   0.160E-01    0.248E-01
DAV:   4    -0.111185886435E+03    0.13609E-02   -0.18107E-03  1512   0.650E-02    0.137E-01
DAV:   5    -0.111185671462E+03    0.21497E-03   -0.21586E-03  1536   0.694E-02    0.478E-02
DAV:   6    -0.111185694068E+03   -0.22606E-04   -0.46403E-05   920   0.112E-02
  60 F= -.11118569E+03 E0= -.11118569E+03  d E =-.928303E-02  mag=     1.0000
       N       E                     dE             d eps       ncg     rms          rms(c)
DAV:   1    -0.111184589985E+03    0.10815E-02   -0.24465E+00  1488   0.223E+00    0.549E-02
DAV:   2    -0.111185710852E+03   -0.11209E-02   -0.10982E-02  1584   0.210E-01    0.512E-02
DAV:   3    -0.111185707158E+03    0.36941E-05   -0.14510E-04   912   0.259E-02
  61 F= -.11118571E+03 E0= -.11118571E+03  d E =-.929612E-02  mag=     1.0000
       N       E                     dE             d eps       ncg     rms          rms(c)
DAV:   1    -0.111179308682E+03    0.64022E-02   -0.31685E+01  1456   0.804E+00    0.271E-01
DAV:   2    -0.111193210462E+03   -0.13902E-01   -0.14301E-01  1492   0.754E-01    0.223E-01
DAV:   3    -0.111192942019E+03    0.26844E-03   -0.22870E-03  1544   0.959E-02    0.154E-01
DAV:   4    -0.111192598963E+03    0.34306E-03   -0.10775E-03  1520   0.508E-02    0.548E-02
DAV:   5    -0.111192632795E+03   -0.33831E-04   -0.13390E-04   952   0.228E-02
  62 F= -.11119263E+03 E0= -.11119263E+03  d E =-.692564E-02  mag=     1.0000
       N       E                     dE             d eps       ncg     rms          rms(c)
DAV:   1    -0.111192667657E+03   -0.68693E-04   -0.18081E+00  1468   0.192E+00    0.634E-02
DAV:   2    -0.111193468407E+03   -0.80075E-03   -0.80261E-03  1520   0.180E-01    0.558E-02
DAV:   3    -0.111193455333E+03    0.13075E-04   -0.11724E-04   936   0.229E-02
  63 F= -.11119346E+03 E0= -.11119346E+03  d E =-.774818E-02  mag=     1.0000
       N       E                     dE             d eps       ncg     rms          rms(c)
DAV:   1    -0.111192346268E+03    0.11221E-02   -0.23155E+01  1456   0.685E+00    0.160E-01
DAV:   2    -0.111202714095E+03   -0.10368E-01   -0.10361E-01  1500   0.646E-01    0.165E-01
DAV:   3    -0.111202573120E+03    0.14097E-03   -0.15351E-03  1536   0.781E-02    0.128E-01
DAV:   4    -0.111202225456E+03    0.34766E-03   -0.42350E-04  1440   0.315E-02    0.757E-02
DAV:   5    -0.111202160063E+03    0.65393E-04   -0.65226E-04  1520   0.384E-02
  64 F= -.11120216E+03 E0= -.11120216E+03  d E =-.870473E-02  mag=     1.0000
       N       E                     dE             d eps       ncg     rms          rms(c)
DAV:   1    -0.111192444948E+03    0.97805E-02   -0.30175E+01  1456   0.782E+00    0.187E-01
DAV:   2    -0.111205955105E+03   -0.13510E-01   -0.13543E-01  1504   0.738E-01    0.187E-01
DAV:   3    -0.111205784647E+03    0.17046E-03   -0.19990E-03  1508   0.893E-02    0.143E-01
DAV:   4    -0.111205369543E+03    0.41510E-03   -0.56103E-04  1520   0.364E-02    0.825E-02
DAV:   5    -0.111205308771E+03    0.60773E-04   -0.72274E-04  1496   0.405E-02
  65 F= -.11120531E+03 E0= -.11120531E+03  d E =-.118534E-01  mag=     1.0000
       N       E                     dE             d eps       ncg     rms          rms(c)
DAV:   1    -0.111204367295E+03    0.10022E-02   -0.17036E+01  1456   0.587E+00    0.140E-01
DAV:   2    -0.111211980509E+03   -0.76132E-02   -0.76048E-02  1508   0.550E-01    0.132E-01
DAV:   3    -0.111211879951E+03    0.10056E-03   -0.10942E-03  1524   0.659E-02    0.100E-01
DAV:   4    -0.111211661799E+03    0.21815E-03   -0.30349E-04  1080   0.276E-02    0.556E-02
DAV:   5    -0.111211645300E+03    0.16500E-04   -0.41619E-04  1480   0.323E-02
  66 F= -.11121165E+03 E0= -.11121165E+03  d E =-.633653E-02  mag=     1.0000
       N       E                     dE             d eps       ncg     rms          rms(c)
DAV:   1    -0.111196306114E+03    0.15356E-01   -0.43990E+01  1456   0.943E+00    0.225E-01
DAV:   2    -0.111215834654E+03   -0.19529E-01   -0.19564E-01  1524   0.883E-01    0.214E-01
DAV:   3    -0.111215544090E+03    0.29056E-03   -0.28069E-03  1524   0.105E-01    0.164E-01
DAV:   4    -0.111214939108E+03    0.60498E-03   -0.86390E-04  1512   0.449E-02    0.881E-02
DAV:   5    -0.111214862263E+03    0.76845E-04   -0.90492E-04  1508   0.452E-02
  67 F= -.11121486E+03 E0= -.11121486E+03  d E =-.955349E-02  mag=     1.0000
       N       E                     dE             d eps       ncg     rms          rms(c)
DAV:   1    -0.111209821781E+03    0.51173E-02   -0.29017E+01  1456   0.764E+00    0.164E-01
DAV:   2    -0.111222674620E+03   -0.12853E-01   -0.12840E-01  1496   0.715E-01    0.161E-01
DAV:   3    -0.111222509284E+03    0.16534E-03   -0.19050E-03  1540   0.866E-02    0.125E-01
DAV:   4    -0.111222154724E+03    0.35456E-03   -0.37247E-04  1352   0.299E-02    0.766E-02
DAV:   5    -0.111222060115E+03    0.94609E-04   -0.84567E-04  1504   0.434E-02
  68 F= -.11122206E+03 E0= -.11122206E+03  d E =-.719785E-02  mag=     1.0000
       N       E                     dE             d eps       ncg     rms          rms(c)
DAV:   1    -0.111142466939E+03    0.79688E-01   -0.20308E+02  1456   0.203E+01    0.476E-01
DAV:   2    -0.111233266570E+03   -0.90800E-01   -0.90437E-01  1504   0.190E+00    0.429E-01
DAV:   3    -0.111231820377E+03    0.14462E-02   -0.13471E-02  1540   0.230E-01    0.327E-01
DAV:   4    -0.111229193191E+03    0.26272E-02   -0.30997E-03  1504   0.848E-02    0.186E-01
DAV:   5    -0.111228534103E+03    0.65909E-03   -0.42738E-03  1516   0.964E-02    0.534E-02
DAV:   6    -0.111228563005E+03   -0.28902E-04   -0.48529E-05   936   0.128E-02
  69 F= -.11122856E+03 E0= -.11122856E+03  d E =-.137007E-01  mag=     1.0000
       N       E                     dE             d eps       ncg     rms          rms(c)
DAV:   1    -0.111224382441E+03    0.41517E-02   -0.23615E+01  1456   0.688E+00    0.144E-01
DAV:   2    -0.111234997843E+03   -0.10615E-01   -0.10496E-01  1504   0.647E-01    0.147E-01
DAV:   3    -0.111234896662E+03    0.10118E-03   -0.15686E-03  1536   0.784E-02    0.116E-01
DAV:   4    -0.111234613148E+03    0.28351E-03   -0.26314E-04  1040   0.259E-02    0.752E-02
DAV:   5    -0.111234526817E+03    0.86330E-04   -0.85236E-04  1484   0.443E-02
  70 F= -.11123453E+03 E0= -.11123453E+03  d E =-.596381E-02  mag=     1.0000
       N       E                     dE             d eps       ncg     rms          rms(c)
DAV:   1    -0.111149207501E+03    0.85406E-01   -0.21409E+02  1456   0.208E+01    0.482E-01
DAV:   2    -0.111245814519E+03   -0.96607E-01   -0.96065E-01  1480   0.196E+00    0.446E-01
DAV:   3    -0.111244448942E+03    0.13656E-02   -0.14536E-02  1560   0.241E-01    0.339E-01
DAV:   4    -0.111241789060E+03    0.26599E-02   -0.27822E-03  1520   0.814E-02    0.206E-01
DAV:   5    -0.111240906606E+03    0.88245E-03   -0.49917E-03  1512   0.104E-01    0.566E-02
DAV:   6    -0.111240968081E+03   -0.61475E-04   -0.48913E-05   920   0.134E-02
  71 F= -.11124097E+03 E0= -.11124097E+03  d E =-.124051E-01  mag=     1.0000
       N       E                     dE             d eps       ncg     rms          rms(c)
DAV:   1    -0.111230643251E+03    0.10263E-01   -0.42153E+01  1456   0.919E+00    0.193E-01
DAV:   2    -0.111249448049E+03   -0.18805E-01   -0.18740E-01  1488   0.864E-01    0.199E-01
DAV:   3    -0.111249230145E+03    0.21790E-03   -0.28068E-03  1552   0.105E-01    0.156E-01
DAV:   4    -0.111248709339E+03    0.52081E-03   -0.49655E-04  1496   0.345E-02    0.100E-01
DAV:   5    -0.111248533156E+03    0.17618E-03   -0.13468E-03  1488   0.537E-02    0.312E-02
DAV:   6    -0.111248561113E+03   -0.27957E-04   -0.12224E-05   920   0.641E-03
  72 F= -.11124856E+03 E0= -.11124856E+03  d E =-.759303E-02  mag=     1.0000
       N       E                     dE             d eps       ncg     rms          rms(c)
DAV:   1    -0.111206495210E+03    0.42038E-01   -0.11075E+02  1456   0.149E+01    0.325E-01
DAV:   2    -0.111256131276E+03   -0.49636E-01   -0.49439E-01  1496   0.140E+00    0.324E-01
DAV:   3    -0.111255493623E+03    0.63765E-03   -0.74245E-03  1548   0.171E-01    0.252E-01
DAV:   4    -0.111254076420E+03    0.14172E-02   -0.13602E-03  1512   0.570E-02    0.159E-01
DAV:   5    -0.111253542745E+03    0.53367E-03   -0.31622E-03  1496   0.824E-02    0.468E-02
DAV:   6    -0.111253582199E+03   -0.39453E-04   -0.28969E-05   920   0.100E-02
  73 F= -.11125358E+03 E0= -.11125358E+03  d E =-.126141E-01  mag=     1.0000
       N       E                     dE             d eps       ncg     rms          rms(c)
DAV:   1    -0.111256546781E+03   -0.30040E-02   -0.10390E+01  1456   0.459E+00    0.121E-01
DAV:   2    -0.111261123720E+03   -0.45769E-02   -0.45834E-02  1528   0.428E-01    0.111E-01
DAV:   3    -0.111261058440E+03    0.65280E-04   -0.67582E-04  1560   0.519E-02
  74 F= -.11126106E+03 E0= -.11126106E+03  d E =-.747624E-02  mag=     1.0000
       N       E                     dE             d eps       ncg     rms          rms(c)
DAV:   1    -0.111251566265E+03    0.95575E-02   -0.37317E+01  1456   0.870E+00    0.245E-01
DAV:   2    -0.111267623840E+03   -0.16058E-01   -0.16216E-01  1520   0.807E-01    0.229E-01
DAV:   3    -0.111267267568E+03    0.35627E-03   -0.23863E-03  1576   0.961E-02    0.172E-01
DAV:   4    -0.111266622140E+03    0.64543E-03   -0.14422E-03  1516   0.569E-02    0.712E-02
DAV:   5    -0.111266632219E+03   -0.10079E-04   -0.46042E-04  1528   0.338E-02
  75 F= -.11126663E+03 E0= -.11126663E+03  d E =-.130500E-01  mag=     1.0000
       N       E                     dE             d eps       ncg     rms          rms(c)
DAV:   1    -0.111268069052E+03   -0.14469E-02   -0.10964E+01  1456   0.470E+00    0.110E-01
DAV:   2    -0.111272937708E+03   -0.48687E-02   -0.48611E-02  1512   0.442E-01    0.110E-01
DAV:   3    -0.111272881542E+03    0.56167E-04   -0.71535E-04  1544   0.533E-02
  76 F= -.11127288E+03 E0= -.11127288E+03  d E =-.624932E-02  mag=     1.0000
       N       E                     dE             d eps       ncg     rms          rms(c)
DAV:   1    -0.111254618400E+03    0.18319E-01   -0.58666E+01  1456   0.109E+01    0.264E-01
DAV:   2    -0.111279926359E+03   -0.25308E-01   -0.25454E-01  1508   0.101E+00    0.282E-01
DAV:   3    -0.111279497107E+03    0.42925E-03   -0.36936E-03  1568   0.119E-01    0.224E-01
DAV:   4    -0.111278356014E+03    0.11411E-02   -0.15885E-03  1516   0.599E-02    0.125E-01
DAV:   5    -0.111278196194E+03    0.15982E-03   -0.16619E-03  1500   0.611E-02    0.488E-02
DAV:   6    -0.111278208793E+03   -0.12599E-04   -0.29570E-05   912   0.909E-03
  77 F= -.11127821E+03 E0= -.11127821E+03  d E =-.115766E-01  mag=     1.0000
       N       E                     dE             d eps       ncg     rms          rms(c)
DAV:   1    -0.111275583777E+03    0.26124E-02   -0.20756E+01  1456   0.647E+00    0.138E-01
DAV:   2    -0.111284819065E+03   -0.92353E-02   -0.91829E-02  1520   0.606E-01    0.145E-01
DAV:   3    -0.111284704113E+03    0.11495E-03   -0.13184E-03  1532   0.713E-02    0.114E-01
DAV:   4    -0.111284416303E+03    0.28781E-03   -0.30598E-04  1240   0.271E-02    0.707E-02
DAV:   5    -0.111284350646E+03    0.65657E-04   -0.68962E-04  1516   0.398E-02
  78 F= -.11128435E+03 E0= -.11128435E+03  d E =-.614185E-02  mag=     1.0000
       N       E                     dE             d eps       ncg     rms          rms(c)
DAV:   1    -0.111251261218E+03    0.33155E-01   -0.84830E+01  1456   0.131E+01    0.287E-01
DAV:   2    -0.111288988393E+03   -0.37727E-01   -0.37570E-01  1508   0.123E+00    0.292E-01
DAV:   3    -0.111288491764E+03    0.49663E-03   -0.54040E-03  1528   0.144E-01    0.227E-01
DAV:   4    -0.111287302279E+03    0.11895E-02   -0.13629E-03  1532   0.563E-02    0.137E-01
DAV:   5    -0.111287007679E+03    0.29460E-03   -0.22740E-03  1488   0.705E-02    0.459E-02
DAV:   6    -0.111287026172E+03   -0.18493E-04   -0.26021E-05   896   0.921E-03
  79 F= -.11128703E+03 E0= -.11128703E+03  d E =-.881738E-02  mag=     1.0000
       N       E                     dE             d eps       ncg     rms          rms(c)
DAV:   1    -0.111284629959E+03    0.23777E-02   -0.13785E+01  1456   0.527E+00    0.109E-01
DAV:   2    -0.111290820751E+03   -0.61908E-02   -0.60954E-02  1528   0.494E-01    0.118E-01
DAV:   3    -0.111290756135E+03    0.64617E-04   -0.87027E-04  1536   0.578E-02
  80 F= -.11129076E+03 E0= -.11129076E+03  d E =-.372996E-02  mag=     1.0000
       N       E                     dE             d eps       ncg     rms          rms(c)
DAV:   1    -0.111254436417E+03    0.36384E-01   -0.95196E+01  1456   0.139E+01    0.310E-01
DAV:   2    -0.111295880447E+03   -0.41444E-01   -0.41375E-01  1520   0.129E+00    0.337E-01
DAV:   3    -0.111295178125E+03    0.70232E-03   -0.58683E-03  1552   0.148E-01    0.274E-01
DAV:   4    -0.111293322710E+03    0.18554E-02   -0.22682E-03  1524   0.709E-02    0.158E-01
DAV:   5    -0.111292936070E+03    0.38664E-03   -0.31141E-03  1512   0.827E-02    0.592E-02
DAV:   6    -0.111292953414E+03   -0.17344E-04   -0.40180E-05   916   0.112E-02
  81 F= -.11129295E+03 E0= -.11129295E+03  d E =-.592724E-02  mag=     1.0000
       N       E                     dE             d eps       ncg     rms          rms(c)
DAV:   1    -0.111295241527E+03   -0.23055E-02   -0.57418E+00  1468   0.341E+00    0.964E-02
DAV:   2    -0.111297819110E+03   -0.25776E-02   -0.25945E-02  1520   0.322E-01    0.879E-02
DAV:   3    -0.111297781210E+03    0.37900E-04   -0.38294E-04  1416   0.392E-02
  82 F= -.11129778E+03 E0= -.11129778E+03  d E =-.482780E-02  mag=     1.0000
       N       E                     dE             d eps       ncg     rms          rms(c)
DAV:   1    -0.111296092135E+03    0.17270E-02   -0.12020E+01  1456   0.493E+00    0.153E-01
DAV:   2    -0.111301325259E+03   -0.52331E-02   -0.53326E-02  1516   0.462E-01    0.140E-01
DAV:   3    -0.111301200463E+03    0.12480E-03   -0.80160E-04  1592   0.553E-02    0.102E-01
DAV:   4    -0.111301011373E+03    0.18909E-03   -0.55648E-04  1492   0.355E-02    0.390E-02
DAV:   5    -0.111301030422E+03   -0.19049E-04   -0.92213E-05   928   0.172E-02
  83 F= -.11130103E+03 E0= -.11130103E+03  d E =-.807701E-02  mag=     1.0000
       N       E                     dE             d eps       ncg     rms          rms(c)
DAV:   1    -0.111302931332E+03   -0.19200E-02   -0.61988E+00  1456   0.353E+00    0.849E-02
DAV:   2    -0.111305709209E+03   -0.27779E-02   -0.27735E-02  1508   0.332E-01    0.853E-02
DAV:   3    -0.111305677348E+03    0.31861E-04   -0.41920E-04  1504   0.403E-02
  84 F= -.11130568E+03 E0= -.11130568E+03  d E =-.464693E-02  mag=     1.0000
       N       E                     dE             d eps       ncg     rms          rms(c)
DAV:   1    -0.111295308906E+03    0.10400E-01   -0.36585E+01  1456   0.859E+00    0.219E-01
DAV:   2    -0.111311342919E+03   -0.16034E-01   -0.16119E-01  1508   0.803E-01    0.225E-01
DAV:   3    -0.111311069384E+03    0.27354E-03   -0.24262E-03  1616   0.954E-02    0.176E-01
DAV:   4    -0.111310383904E+03    0.68548E-03   -0.11304E-03  1488   0.506E-02    0.933E-02
DAV:   5    -0.111310346258E+03    0.37646E-04   -0.84429E-04  1532   0.445E-02
  85 F= -.11131035E+03 E0= -.11131035E+03  d E =-.931584E-02  mag=     1.0000
       N       E                     dE             d eps       ncg     rms          rms(c)
DAV:   1    -0.111311604392E+03   -0.12205E-02   -0.33283E+00  1456   0.259E+00    0.595E-02
DAV:   2    -0.111313109666E+03   -0.15053E-02   -0.14941E-02  1528   0.243E-01    0.581E-02
DAV:   3    -0.111313096214E+03    0.13452E-04   -0.19961E-04   928   0.295E-02
  86 F= -.11131310E+03 E0= -.11131310E+03  d E =-.274996E-02  mag=     1.0000
       N       E                     dE             d eps       ncg     rms          rms(c)
DAV:   1    -0.111313984172E+03   -0.87451E-03   -0.40790E+00  1456   0.287E+00    0.665E-02
DAV:   2    -0.111315709034E+03   -0.17249E-02   -0.17424E-02  1528   0.265E-01    0.758E-02
DAV:   3    -0.111315678334E+03    0.30700E-04   -0.21806E-04   968   0.300E-02
  87 F= -.11131568E+03 E0= -.11131568E+03  d E =-.533208E-02  mag=     1.0000
       N       E                     dE             d eps       ncg     rms          rms(c)
DAV:   1    -0.111316766350E+03   -0.10573E-02   -0.58621E-01  1480   0.109E+00    0.494E-02
DAV:   2    -0.111317023045E+03   -0.25669E-03   -0.26998E-03  1524   0.103E-01    0.332E-02
DAV:   3    -0.111317020590E+03    0.24545E-05   -0.45523E-05   888   0.141E-02
  88 F= -.11131702E+03 E0= -.11131702E+03  d E =-.134226E-02  mag=     1.0000
       N       E                     dE             d eps       ncg     rms          rms(c)
DAV:   1    -0.111317621264E+03   -0.59822E-03   -0.10556E+00  1480   0.147E+00    0.545E-02
DAV:   2    -0.111318083965E+03   -0.46270E-03   -0.48135E-03  1536   0.137E-01    0.411E-02
DAV:   3    -0.111318079358E+03    0.46068E-05   -0.68598E-05   912   0.170E-02
  89 F= -.11131808E+03 E0= -.11131808E+03  d E =-.240102E-02  mag=     1.0000
       N       E                     dE             d eps       ncg     rms          rms(c)
DAV:   1    -0.111318846083E+03   -0.76212E-03   -0.42613E-01  1484   0.926E-01    0.229E-02
DAV:   2    -0.111319035122E+03   -0.18904E-03   -0.18692E-03  1552   0.861E-02    0.218E-02
DAV:   3    -0.111319032954E+03    0.21685E-05   -0.23867E-05   912   0.102E-02
  90 F= -.11131903E+03 E0= -.11131903E+03  d E =-.953595E-03  mag=     1.0000
       N       E                     dE             d eps       ncg     rms          rms(c)
DAV:   1    -0.111319817659E+03   -0.78254E-03   -0.38318E+00  1456   0.277E+00    0.658E-02
DAV:   2    -0.111321487854E+03   -0.16702E-02   -0.16727E-02  1512   0.258E-01    0.666E-02
DAV:   3    -0.111321458590E+03    0.29263E-04   -0.21867E-04   960   0.303E-02
  91 F= -.11132146E+03 E0= -.11132146E+03  d E =-.337923E-02  mag=     1.0000
       N       E                     dE             d eps       ncg     rms          rms(c)
DAV:   1    -0.111322113215E+03   -0.62536E-03   -0.69163E-01  1468   0.118E+00    0.346E-02
DAV:   2    -0.111322393504E+03   -0.28029E-03   -0.29234E-03  1512   0.109E-01    0.348E-02
DAV:   3    -0.111322384874E+03    0.86306E-05   -0.37882E-05   920   0.127E-02
  92 F= -.11132238E+03 E0= -.11132238E+03  d E =-.926284E-03  mag=     1.0000
       N       E                     dE             d eps       ncg     rms          rms(c)
DAV:   1    -0.111321464737E+03    0.92877E-03   -0.61891E+00  1456   0.353E+00    0.934E-02
DAV:   2    -0.111324151955E+03   -0.26872E-02   -0.27246E-02  1484   0.330E-01    0.907E-02
DAV:   3    -0.111324104918E+03    0.47036E-04   -0.42494E-04  1472   0.410E-02
  93 F= -.11132410E+03 E0= -.11132410E+03  d E =-.264633E-02  mag=     1.0000
       N       E                     dE             d eps       ncg     rms          rms(c)
DAV:   1    -0.111325048147E+03   -0.89619E-03   -0.54406E-01  1488   0.105E+00    0.417E-02
DAV:   2    -0.111325264351E+03   -0.21620E-03   -0.23863E-03  1488   0.960E-02    0.301E-02
DAV:   3    -0.111325255662E+03    0.86890E-05   -0.42067E-05   880   0.131E-02
  94 F= -.11132526E+03 E0= -.11132526E+03  d E =-.115074E-02  mag=     1.0000
       N       E                     dE             d eps       ncg     rms          rms(c)
DAV:   1    -0.111325665954E+03   -0.40160E-03   -0.51654E-01  1468   0.102E+00    0.418E-02
DAV:   2    -0.111325883441E+03   -0.21749E-03   -0.22978E-03  1512   0.935E-02    0.291E-02
DAV:   3    -0.111325879480E+03    0.39615E-05   -0.34643E-05   904   0.120E-02
  95 F= -.11132588E+03 E0= -.11132588E+03  d E =-.177456E-02  mag=     1.0000
