 vasp.5.3.5 31Mar14 (build Feb 01 2018 12:10:03) gamma-only                     
  
 executed on             LinuxIFC date 2019.03.21  23:09:43
 running on   32 total cores
 distrk:  each k-point on   32 cores,    1 groups
 distr:  one band on NCORES_PER_BAND=   8 cores,    4 groups


--------------------------------------------------------------------------------------------------------


 INCAR:
 POTCAR:    PAW_PBE Ag 02Apr2005                  
 POTCAR:    PAW_PBE Ag 02Apr2005                  
   VRHFIN =Ag : s1 d10                                                          
   LEXCH  = PE                                                                  
   EATOM  =  1037.2675 eV,   76.2370 Ry                                         
                                                                                
   TITEL  = PAW_PBE Ag 02Apr2005                                                
   LULTRA =        F    use ultrasoft PP ?                                      
   IUNSCR =        1    unscreen: 0-lin 1-nonlin 2-no                           
   RPACOR =    2.000    partial core radius                                     
   POMASS =  107.868; ZVAL   =   11.000    mass and valenz                      
   RCORE  =    2.500    outmost cutoff radius                                   
   RWIGS  =    2.840; RWIGS  =    1.503    wigner-seitz radius (au A)           
   ENMAX  =  249.844; ENMIN  =  187.383 eV                                      
   ICORE  =        3    local potential                                         
   LCOR   =        T    correct aug charges                                     
   LPAW   =        T    paw PP                                                  
   EAUG   =  412.496                                                            
   DEXC   =    0.000                                                            
   RMAX   =    2.560    core radius for proj-oper                               
   RAUG   =    1.300    factor for augmentation sphere                          
   RDEP   =    2.576    radius for radial grids                                 
   RDEPT  =    2.072    core radius for aug-charge                              
                                                                                
   Atomic configuration                                                         
   12 entries                                                                   
     n  l   j            E        occ.                                          
     1  0  0.50    -25324.9161   2.0000                                         
     2  0  0.50     -3728.5341   2.0000                                         
     2  1  1.50     -3344.0404   6.0000                                         
     3  0  0.50      -683.5581   2.0000                                         
     3  1  1.50      -557.3225   6.0000                                         
     3  2  2.50      -358.3853  10.0000                                         
     4  0  0.50       -95.0341   2.0000                                         
     4  1  1.50       -58.5511   6.0000                                         
     4  2  2.50        -7.4440  10.0000                                         
     5  0  0.50        -4.4045   1.0000                                         
     5  1  0.50        -1.3606   0.0000                                         
     4  3  2.50        -1.3606   0.0000                                         
   Description                                                                  
     l       E           TYP  RCUT    TYP  RCUT                                 
     2     -7.4439781     23  2.400                                             
     2     -8.8045607     23  2.400                                             
     0     -4.4044681     23  2.400                                             
     0      1.9520038     23  2.400                                             
     1     -1.3605826     23  2.500                                             
     1     27.2116520     23  2.500                                             
     3     -4.0817478     23  2.400                                             
  local pseudopotential read in
  partial core-charges read in
  partial kinetic energy density read in
  atomic valenz-charges read in
  non local Contribution for L=           2  read in
    real space projection operators read in
  non local Contribution for L=           2  read in
    real space projection operators read in
  non local Contribution for L=           0  read in
    real space projection operators read in
  non local Contribution for L=           0  read in
    real space projection operators read in
  non local Contribution for L=           1  read in
    real space projection operators read in
  non local Contribution for L=           1  read in
    real space projection operators read in
    PAW grid and wavefunctions read in
 
   number of l-projection  operators is LMAX  =           6
   number of lm-projection operators is LMMAX =          18
 

 ----------------------------------------------------------------------------- 
|                                                                             |
|  ADVICE TO THIS USER RUNNING 'VASP/VAMP'   (HEAR YOUR MASTER'S VOICE ...):  |
|                                                                             |
|      You have a (more or less) 'large supercell' and for larger cells       |
|      it might be more efficient to use real space projection opertators     |
|      So try LREAL= Auto  in the INCAR   file.                               |
|      Mind: At the moment your POTCAR file does not contain real space       |
|       projectors, and has to be modified,  BUT if you                       |
|      want to do an extremely  accurate calculation you might also keep the  |
|      reciprocal projection scheme          (i.e. LREAL=.FALSE.)             |
|                                                                             |
 ----------------------------------------------------------------------------- 

  PAW_PBE Ag 02Apr2005                  :
 energy of atom  1       EATOM=-1037.2675
 kinetic energy error for atom=    0.0689 (will be added to EATOM!!)
 
 
 POSCAR: Al24, -72.9874741 <s> Ag </s>           
  positions in direct lattice
  No initial velocities read in
 exchange correlation table for  LEXCH =        8
   RHO(1)=    0.500       N(1)  =     2000
   RHO(2)=  100.500       N(2)  =     4000
 


--------------------------------------------------------------------------------------------------------


 ion  position               nearest neighbor table
   1  0.657  0.434  0.668-   4 2.69   5 2.72   2 2.81   8 2.90
   2  0.643  0.517  0.562-   3 2.71   1 2.81   4 2.89   6 2.94   9 2.95   8 2.96   7 2.97  11 2.98
                             5 3.23
   3  0.641  0.547  0.434-   6 2.70   2 2.71  13 2.74  10 2.75  11 2.84   9 3.02
   4  0.561  0.522  0.675-   1 2.69  15 2.76  14 2.76   7 2.76   8 2.78   2 2.89
   5  0.657  0.362  0.558-   6 2.66   1 2.72   8 2.76  12 3.01   2 3.23
   6  0.601  0.426  0.462-   5 2.66   3 2.70  10 2.75  16 2.82   9 2.86   8 2.91  12 2.92   2 2.94

   7  0.624  0.635  0.642-  11 2.70   4 2.76  15 2.92   2 2.97
   8  0.541  0.420  0.589-  17 2.72  14 2.75   5 2.76   4 2.78  12 2.79   9 2.87   1 2.90   6 2.91
                             2 2.96  16 3.59
   9  0.514  0.525  0.502-  21 2.80  15 2.83   6 2.86   8 2.87  11 2.92   2 2.95  20 2.97  16 2.99
                            10 3.01   3 3.02  19 3.03  13 3.12  14 3.30
  10  0.542  0.492  0.364-  18 2.70  16 2.74   6 2.75   3 2.75  13 2.86  21 2.90   9 3.01
  11  0.589  0.643  0.517-  13 2.70   7 2.70   3 2.84  15 2.85   9 2.92  19 2.92   2 2.98
  12  0.530  0.313  0.509-   8 2.79  16 2.79  17 2.84   6 2.92   5 3.01
  13  0.543  0.627  0.396-  11 2.70   3 2.74  18 2.76  19 2.76  10 2.86  23 2.90   9 3.12  21 3.15

  14  0.438  0.487  0.637-  22 2.73   8 2.75  20 2.75   4 2.76  17 2.80  15 2.83   9 3.30
  15  0.490  0.610  0.606-  19 2.73   4 2.76   9 2.83  14 2.83  20 2.84  11 2.85   7 2.92
  16  0.469  0.406  0.432-  10 2.74  24 2.79  12 2.79   6 2.82  17 2.87   9 2.99  21 3.00   8 3.59

  17  0.421  0.379  0.559-   8 2.72  24 2.75  14 2.80  22 2.83  12 2.84  16 2.87
  18  0.475  0.578  0.292-  10 2.70  23 2.70  13 2.76  21 2.78
  19  0.451  0.656  0.488-  20 2.73  15 2.73  13 2.76  23 2.84  11 2.92  21 3.01   9 3.03
  20  0.380  0.559  0.541-  19 2.73  24 2.74  14 2.75  22 2.79  15 2.84  21 2.91   9 2.97
  21  0.418  0.540  0.408-  24 2.73  18 2.78   9 2.80  10 2.90  20 2.91  16 3.00  19 3.01  23 3.02
                            13 3.15
  22  0.316  0.456  0.600-  24 2.71  14 2.73  20 2.79  17 2.83
  23  0.418  0.676  0.356-  18 2.70  19 2.84  13 2.90  21 3.02
  24  0.349  0.449  0.473-  22 2.71  21 2.73  20 2.74  17 2.75  16 2.79
 
  LATTYP: Found a simple cubic cell.
 ALAT       =    20.7259461579
  
  Lattice vectors:
  
 A1 = (  20.7259461579,   0.0000000000,   0.0000000000)
 A2 = (   0.0000000000,  20.7259461579,   0.0000000000)
 A3 = (   0.0000000000,   0.0000000000,  20.7259461579)


Analysis of symmetry for initial positions (statically):
=====================================================================
 Subroutine PRICEL returns:
 Original cell was already a primitive cell.
 

 Routine SETGRP: Setting up the symmetry group for a 
 simple cubic supercell.


 Subroutine GETGRP returns: Found  1 space group operations
 (whereof  1 operations were pure point group operations)
 out of a pool of 48 trial point group operations.


The static configuration has the point symmetry C_1 .


Analysis of symmetry for dynamics (positions and initial velocities):
=====================================================================
 Subroutine PRICEL returns:
 Original cell was already a primitive cell.
 

 Routine SETGRP: Setting up the symmetry group for a 
 simple cubic supercell.


 Subroutine GETGRP returns: Found  1 space group operations
 (whereof  1 operations were pure point group operations)
 out of a pool of 48 trial point group operations.


The dynamic configuration has the point symmetry C_1 .


Analysis of magnetic symmetry:
=====================================================================
 Subroutine PRICEL returns:
 Original cell was already a primitive cell.
 

 Subroutine MAGSYM returns: Found  1 space group operations
 (whereof  1 operations were pure point group operations)
 out of a pool of  1 trial space group operations
 (whereof  1 operations were pure point group operations)
 and found also     1 'primitive' translations


The magnetic configuration has the point symmetry C_1 .
 
 
 KPOINTS: Gamma-point only                        
  k-points in reciprocal lattice
Space group operators:
 irot       det(A)        alpha          n_x          n_y          n_z        tau_x        tau_y        tau_z
    1     1.000000     0.000000     1.000000     0.000000     0.000000     0.000000     0.000000     0.000000


--------------------------------------------------------------------------------------------------------




 Dimension of arrays:
   k-points           NKPTS =      1   k-points in BZ     NKDIM =      1   number of bands    NBANDS=    172
   number of dos      NEDOS =    301   number of ions     NIONS =     24
   non local maximal  LDIM  =      6   non local SUM 2l+1 LMDIM =     18
   total plane-waves  NPLWV = 512000
   max r-space proj   IRMAX =      1   max aug-charges    IRDMAX=   3027
   dimension x,y,z NGX =    80 NGY =   80 NGZ =   80
   dimension x,y,z NGXF=   160 NGYF=  160 NGZF=  160
   support grid    NGXF=   160 NGYF=  160 NGZF=  160
   ions per type =              24
 NGX,Y,Z   is equivalent  to a cutoff of   6.42,  6.42,  6.42 a.u.
 NGXF,Y,Z  is equivalent  to a cutoff of  12.83, 12.83, 12.83 a.u.


 I would recommend the setting:
   dimension x,y,z NGX =    80 NGY =   80 NGZ =   80
 SYSTEM =  unknown system                          
 POSCAR =  Al24, -72.9874741 <s> Ag </s>           

 Startparameter for this run:
   NWRITE =      2    write-flag & timer
   PREC   = normal    normal or accurate (medium, high low for compatibility)
   ISTART =      0    job   : 0-new  1-cont  2-samecut
   ICHARG =      2    charge: 1-file 2-atom 10-const
   ISPIN  =      2    spin polarized calculation?
   LNONCOLLINEAR =      F non collinear calculations
   LSORBIT =      F    spin-orbit coupling
   INIWAV =      1    electr: 0-lowe 1-rand  2-diag
   LASPH  =      F    aspherical Exc in radial PAW
   METAGGA=      F    non-selfconsistent MetaGGA calc.

 Electronic Relaxation 1
   ENCUT  =  249.8 eV  18.36 Ry    4.29 a.u.  26.71 26.71 26.71*2*pi/ulx,y,z
   ENINI  =  249.8     initial cutoff
   ENAUG  =  412.5 eV  augmentation charge cutoff
   NELM   =     60;   NELMIN=  2; NELMDL= -5     # of ELM steps 
   EDIFF  = 0.1E-03   stopping-criterion for ELM
   LREAL  =      F    real-space projection
   NLSPLINE    = F    spline interpolate recip. space projectors
   LCOMPAT=      F    compatible to vasp.4.4
   GGA_COMPAT  = T    GGA compatible to vasp.4.4-vasp.4.6
   LMAXPAW     = -100 max onsite density
   LMAXMIX     =    2 max onsite mixed and CHGCAR
   VOSKOWN=      0    Vosko Wilk Nusair interpolation
   ROPT   =    0.00000
 Ionic relaxation
   EDIFFG = 0.1E-02   stopping-criterion for IOM
   NSW    =   1000    number of steps for IOM
   NBLOCK =      1;   KBLOCK =   1000    inner block; outer block 
   IBRION =      2    ionic relax: 0-MD 1-quasi-New 2-CG
   NFREE  =      1    steps in history (QN), initial steepest desc. (CG)
   ISIF   =      2    stress and relaxation
   IWAVPR =     11    prediction:  0-non 1-charg 2-wave 3-comb
   ISYM   =      2    0-nonsym 1-usesym 2-fastsym
   LCORR  =      T    Harris-Foulkes like correction to forces

   POTIM  = 0.1000    time-step for ionic-motion
   TEIN   =    0.0    initial temperature
   TEBEG  =    0.0;   TEEND  =   0.0 temperature during run
   SMASS  =  -3.00    Nose mass-parameter (am)
   estimated Nose-frequenzy (Omega)   =  0.10E-29 period in steps =****** mass=  -0.982E-26a.u.
   SCALEE = 1.0000    scale energy and forces
   NPACO  =    256;   APACO  = 16.0  distance and # of slots for P.C.
   PSTRESS=    0.0 pullay stress

  Mass of Ions in am
   POMASS = 107.87
  Ionic Valenz
   ZVAL   =  11.00
  Atomic Wigner-Seitz radii
   RWIGS  =  -1.00
  virtual crystal weights 
   VCA    =   1.00
   NELECT =     264.0000    total number of electrons
   NUPDOWN=      -1.0000    fix difference up-down

 DOS related values:
   EMIN   =  10.00;   EMAX   =-10.00  energy-range for DOS
   EFERMI =   0.00
   ISMEAR =     0;   SIGMA  =   0.00  broadening in eV -4-tet -1-fermi 0-gaus

 Electronic relaxation 2 (details)
   IALGO  =     38    algorithm
   LDIAG  =      T    sub-space diagonalisation (order eigenvalues)
   LSUBROT=      F    optimize rotation matrix (better conditioning)
   TURBO    =      0    0=normal 1=particle mesh
   IRESTART =      0    0=no restart 2=restart with 2 vectors
   NREBOOT  =      0    no. of reboots
   NMIN     =      0    reboot dimension
   EREF     =   0.00    reference energy to select bands
   IMIX   =      4    mixing-type and parameters
     AMIX     =   0.40;   BMIX     =  1.00
     AMIX_MAG =   1.60;   BMIX_MAG =  1.00
     AMIN     =   0.10
     WC   =   100.;   INIMIX=   1;  MIXPRE=   1;  MAXMIX= -45

 Intra band minimization:
   WEIMIN = 0.0010     energy-eigenvalue tresh-hold
   EBREAK =  0.15E-06  absolut break condition
   DEPER  =   0.30     relativ break condition  

   TIME   =   0.40     timestep for ELM

  volume/ion in A,a.u.               =     370.96      2503.39
  Fermi-wavevector in a.u.,A,eV,Ry     =   0.506713  0.957548  3.493401  0.256758
  Thomas-Fermi vector in A             =   1.517871
 
 Write flags
   LWAVE  =      F    write WAVECAR
   LCHARG =      F    write CHGCAR
   LVTOT  =      F    write LOCPOT, total local potential
   LVHAR  =      F    write LOCPOT, Hartree potential only
   LELF   =      F    write electronic localiz. function (ELF)
   LORBIT =      0    0 simple, 1 ext, 2 COOP (PROOUT)


 Dipole corrections
   LMONO  =      F    monopole corrections only (constant potential shift)
   LDIPOL =      F    correct potential (dipole corrections)
   IDIPOL =      0    1-x, 2-y, 3-z, 4-all directions 
   EPSILON=  1.0000000 bulk dielectric constant

 Exchange correlation treatment:
   GGA     =    PE    GGA type
   LEXCH   =     8    internal setting for exchange type
   VOSKOWN=      0    Vosko Wilk Nusair interpolation
   LHFCALC =     F    Hartree Fock is set to
   LHFONE  =     F    Hartree Fock one center treatment
   AEXX    =    0.0000 exact exchange contribution

 Linear response parameters
   LEPSILON=     F    determine dielectric tensor
   LRPA    =     F    only Hartree local field effects (RPA)
   LNABLA  =     F    use nabla operator in PAW spheres
   LVEL    =     F    velocity operator in full k-point grid
   LINTERFAST=   F  fast interpolation
   KINTER  =     0    interpolate to denser k-point grid
   CSHIFT  =0.1000    complex shift for real part using Kramers Kronig
   OMEGAMAX=  -1.0    maximum frequency
   DEG_THRESHOLD= 0.2000000E-02 threshold for treating states as degnerate
   RTIME   =    0.100 relaxation time in fs

 Orbital magnetization related:
   ORBITALMAG=     F  switch on orbital magnetization
   LCHIMAG   =     F  perturbation theory with respect to B field
   DQ        =  0.001000  dq finite difference perturbation B field



--------------------------------------------------------------------------------------------------------


 conjugate gradient relaxation of ions
 charge density and potential will be updated during run
 spin polarized calculation
 Variant of blocked Davidson
 Davidson routine will perform the subspace rotation
 perform sub-space diagonalisation
    after iterative eigenvector-optimisation
 modified Broyden-mixing scheme, WC =      100.0
 initial mixing is a Kerker type mixing with AMIX =  0.4000 and BMIX =      1.0000
 Hartree-type preconditioning will be used
 using additional bands           40
 reciprocal scheme for non local part
 use partial core corrections
 calculate Harris-corrections to forces 
   (improved forces if not selfconsistent)
 use gradient corrections 
 use of overlap-Matrix (Vanderbilt PP)
 Gauss-broadening in eV      SIGMA  =   0.00


--------------------------------------------------------------------------------------------------------


  energy-cutoff  :      249.84
  volume of cell :     8903.14
      direct lattice vectors                 reciprocal lattice vectors
    20.725946158  0.000000000  0.000000000     0.048248702  0.000000000  0.000000000
     0.000000000 20.725946158  0.000000000     0.000000000  0.048248702  0.000000000
     0.000000000  0.000000000 20.725946158     0.000000000  0.000000000  0.048248702

  length of vectors
    20.725946158 20.725946158 20.725946158     0.048248702  0.048248702  0.048248702


 
 k-points in units of 2pi/SCALE and weight: Gamma-point only                        
   0.00000000  0.00000000  0.00000000       1.000
 
 k-points in reciprocal lattice and weights: Gamma-point only                        
   0.00000000  0.00000000  0.00000000       1.000
 
 position of ions in fractional coordinates (direct lattice) 
   0.65663077  0.43418087  0.66778704
   0.64258439  0.51727535  0.56179630
   0.64064658  0.54659633  0.43427831
   0.56112375  0.52154270  0.67465323
   0.65727055  0.36202616  0.55827075
   0.60080055  0.42558919  0.46215019
   0.62365617  0.63458032  0.64199014
   0.54149823  0.42020870  0.58925538
   0.51373864  0.52457965  0.50232309
   0.54218682  0.49233719  0.36352134
   0.58884454  0.64288824  0.51651121
   0.52981022  0.31327740  0.50851305
   0.54273341  0.62664272  0.39557377
   0.43786737  0.48746395  0.63740684
   0.48953323  0.61001512  0.60574495
   0.46933248  0.40646244  0.43244314
   0.42080787  0.37878771  0.55928371
   0.47491946  0.57803150  0.29204024
   0.45142744  0.65599498  0.48807337
   0.38006699  0.55870749  0.54129456
   0.41841626  0.53981488  0.40774156
   0.31576785  0.45574456  0.59967229
   0.41789295  0.67602117  0.35648505
   0.34859232  0.44942011  0.47346484
 
 position of ions in cartesian coordinates  (Angst):
  13.60929400  8.99880932 13.84051828
  13.31816940 10.72102107 11.64375983
  13.27800652 11.32872604  9.00082883
  11.62982060 10.80946594 13.98282647
  13.62255408  7.50333473 11.57068953
  12.45215978  8.82073854  9.57849999
  12.92586413 13.15227760 13.30585311
  11.22306320  8.70922292 12.21287532
  10.64771947 10.87240957 10.41112130
  11.23733479 10.20415399  7.53432364
  12.20436026 13.32446697 10.70518346
  10.98081804  6.49297054 10.53941412
  11.24866349 12.98776318  8.19864073
   9.07521554 10.10315159 13.21085988
  10.14603932 12.64314059 12.55463712
   9.72735964  8.42431866  8.96279319
   8.72164132  7.85073376 11.59168415
   9.84315526 11.98024974  6.05281036
   9.35626092 13.59611670 10.11578249
   7.87724792 11.57974141 11.21884188
   8.67207293 11.18817423  8.45082968
   6.54458736  9.44573712 12.42877560
   8.66122681 14.01117837  7.38849006
   7.22490570  9.31465707  9.81300682
 


--------------------------------------------------------------------------------------------------------


 use parallel FFT for wavefunctions z direction half grid
 k-point  1 :   0.0000 0.0000 0.0000  plane waves:   39943

 maximum and minimum number of plane-waves per node :      4996     4990

 maximum number of plane-waves:     39943
 maximum index in each direction: 
   IXMAX=   26   IYMAX=   26   IZMAX=   26
   IXMIN=  -26   IYMIN=  -26   IZMIN=    0

 WARNING: aliasing errors must be expected set NGX to 106 to avoid them
 WARNING: aliasing errors must be expected set NGY to 106 to avoid them
 WARNING: aliasing errors must be expected set NGZ to 106 to avoid them
 aliasing errors are usually negligible using standard VASP settings
 and one can safely disregard these warnings

 parallel 3D FFT for wavefunctions:
    minimum data exchange during FFTs selected (reduces bandwidth)
 parallel 3D FFT for charge:
    minimum data exchange during FFTs selected (reduces bandwidth)


 total amount of memory used by VASP on root node    59825. kBytes
========================================================================

   base      :      30000. kBytes
   nonl-proj :       2637. kBytes
   fftplans  :       5778. kBytes
   grid      :      14451. kBytes
   one-center:         46. kBytes
   wavefun   :       6913. kBytes
 
     INWAV:  cpu time    0.00: real time    0.00
 Broyden mixing: mesh for mixing (old mesh)
   NGX = 53   NGY = 53   NGZ = 53
  (NGX  =160   NGY  =160   NGZ  =160)
  gives a total of 148877 points

 initial charge density was supplied:
 charge density of overlapping atoms calculated
 number of electron     264.0000000 magnetization      24.0000000
 keeping initial charge density in first step


--------------------------------------------------------------------------------------------------------


 Maximum index for augmentation-charges          239 (set IRDMAX)


--------------------------------------------------------------------------------------------------------


 First call to EWALD:  gamma=   0.086
 Maximum number of real-space cells 3x 3x 3
 Maximum number of reciprocal cells 3x 3x 3

 FEWALD executed in parallel
    FEWALD:  cpu time    0.00: real time    0.00


----------------------------------------- Iteration    1(   1)  ---------------------------------------


    POTLOK:  cpu time    0.23: real time    0.23
    SETDIJ:  cpu time    0.01: real time    0.01
     EDDAV:  cpu time    2.40: real time    2.40
       DOS:  cpu time    0.00: real time    0.00
    --------------------------------------------
      LOOP:  cpu time    2.64: real time    2.67

 eigenvalue-minimisations  :   688
 total energy-change (2. order) : 0.2317467E+04  (-0.4815856E+04)
 number of electron     264.0000000 magnetization      24.0000000
 augmentation part      264.0000000 magnetization      24.0000000

 Free energy of the ion-electron system (eV)
  ---------------------------------------------------
  alpha Z        PSCENC =        55.02924666
  Ewald energy   TEWEN  =     45385.30943464
  -Hartree energ DENC   =    -69250.36008464
  -exchange      EXHF   =         0.00000000
  -V(xc)+E(xc)   XCENC  =      -263.72519639
  PAW double counting   =     24080.93227367   -22974.35061309
  entropy T*S    EENTRO =        -0.00000000
  eigenvalues    EBANDS =       391.86498948
  atomic energy  EATOM  =     24892.76712207
  ---------------------------------------------------
  free energy    TOTEN  =      2317.46717239 eV

  energy without entropy =     2317.46717239  energy(sigma->0) =     2317.46717239


--------------------------------------------------------------------------------------------------------




----------------------------------------- Iteration    1(   2)  ---------------------------------------


     EDDAV:  cpu time    3.84: real time    3.83
       DOS:  cpu time    0.00: real time    0.00
    --------------------------------------------
      LOOP:  cpu time    3.84: real time    3.85

 eigenvalue-minimisations  :  1200
 total energy-change (2. order) :-0.1789824E+04  (-0.1602534E+04)
 number of electron     264.0000000 magnetization      24.0000000
 augmentation part      264.0000000 magnetization      24.0000000

 Free energy of the ion-electron system (eV)
  ---------------------------------------------------
  alpha Z        PSCENC =        55.02924666
  Ewald energy   TEWEN  =     45385.30943464
  -Hartree energ DENC   =    -69250.36008464
  -exchange      EXHF   =         0.00000000
  -V(xc)+E(xc)   XCENC  =      -263.72519639
  PAW double counting   =     24080.93227367   -22974.35061309
  entropy T*S    EENTRO =         0.00000000
  eigenvalues    EBANDS =     -1397.95886131
  atomic energy  EATOM  =     24892.76712207
  ---------------------------------------------------
  free energy    TOTEN  =       527.64332161 eV

  energy without entropy =      527.64332161  energy(sigma->0) =      527.64332161


--------------------------------------------------------------------------------------------------------




----------------------------------------- Iteration    1(   3)  ---------------------------------------


     EDDAV:  cpu time    3.06: real time    3.06
       DOS:  cpu time    0.00: real time    0.00
    --------------------------------------------
      LOOP:  cpu time    3.06: real time    3.07

 eigenvalue-minimisations  :   912
 total energy-change (2. order) :-0.5475424E+03  (-0.5008242E+03)
 number of electron     264.0000000 magnetization      24.0000000
 augmentation part      264.0000000 magnetization      24.0000000

 Free energy of the ion-electron system (eV)
  ---------------------------------------------------
  alpha Z        PSCENC =        55.02924666
  Ewald energy   TEWEN  =     45385.30943464
  -Hartree energ DENC   =    -69250.36008464
  -exchange      EXHF   =         0.00000000
  -V(xc)+E(xc)   XCENC  =      -263.72519639
  PAW double counting   =     24080.93227367   -22974.35061309
  entropy T*S    EENTRO =         0.00000000
  eigenvalues    EBANDS =     -1945.50121164
  atomic energy  EATOM  =     24892.76712207
  ---------------------------------------------------
  free energy    TOTEN  =       -19.89902873 eV

  energy without entropy =      -19.89902873  energy(sigma->0) =      -19.89902873


--------------------------------------------------------------------------------------------------------




----------------------------------------- Iteration    1(   4)  ---------------------------------------


     EDDAV:  cpu time    2.60: real time    2.61
       DOS:  cpu time    0.00: real time    0.00
    --------------------------------------------
      LOOP:  cpu time    2.60: real time    2.61

 eigenvalue-minimisations  :   744
 total energy-change (2. order) :-0.2824095E+02  (-0.2798218E+02)
 number of electron     264.0000000 magnetization      24.0000000
 augmentation part      264.0000000 magnetization      24.0000000

 Free energy of the ion-electron system (eV)
  ---------------------------------------------------
  alpha Z        PSCENC =        55.02924666
  Ewald energy   TEWEN  =     45385.30943464
  -Hartree energ DENC   =    -69250.36008464
  -exchange      EXHF   =         0.00000000
  -V(xc)+E(xc)   XCENC  =      -263.72519639
  PAW double counting   =     24080.93227367   -22974.35061309
  entropy T*S    EENTRO =         0.00000000
  eigenvalues    EBANDS =     -1973.74216450
  atomic energy  EATOM  =     24892.76712207
  ---------------------------------------------------
  free energy    TOTEN  =       -48.13998159 eV

  energy without entropy =      -48.13998159  energy(sigma->0) =      -48.13998159


--------------------------------------------------------------------------------------------------------




----------------------------------------- Iteration    1(   5)  ---------------------------------------


     EDDAV:  cpu time    2.72: real time    2.71
       DOS:  cpu time    0.00: real time    0.00
    CHARGE:  cpu time    0.09: real time    0.09
    MIXING:  cpu time    0.01: real time    0.01
    --------------------------------------------
      LOOP:  cpu time    2.82: real time    2.82

 eigenvalue-minimisations  :   784
 total energy-change (2. order) :-0.4095009E+00  (-0.4090156E+00)
 number of electron     263.9999463 magnetization      21.0372875
 augmentation part      124.1474037 magnetization      19.6191818

 Broyden mixing:
  rms(total) = 0.27889E+01    rms(broyden)= 0.27884E+01
  rms(prec ) = 0.28411E+01
  weight for this iteration     100.00

 Free energy of the ion-electron system (eV)
  ---------------------------------------------------
  alpha Z        PSCENC =        55.02924666
  Ewald energy   TEWEN  =     45385.30943464
  -Hartree energ DENC   =    -69250.36008464
  -exchange      EXHF   =         0.00000000
  -V(xc)+E(xc)   XCENC  =      -263.72519639
  PAW double counting   =     24080.93227367   -22974.35061309
  entropy T*S    EENTRO =         0.00000000
  eigenvalues    EBANDS =     -1974.15166541
  atomic energy  EATOM  =     24892.76712207
  ---------------------------------------------------
  free energy    TOTEN  =       -48.54948250 eV

  energy without entropy =      -48.54948250  energy(sigma->0) =      -48.54948250


--------------------------------------------------------------------------------------------------------




----------------------------------------- Iteration    1(   6)  ---------------------------------------


    POTLOK:  cpu time    0.23: real time    0.23
    SETDIJ:  cpu time    0.01: real time    0.01
     EDDAV:  cpu time    2.47: real time    2.47
       DOS:  cpu time    0.00: real time    0.00
    CHARGE:  cpu time    0.09: real time    0.09
    MIXING:  cpu time    0.00: real time    0.01
    --------------------------------------------
      LOOP:  cpu time    2.80: real time    2.81

 eigenvalue-minimisations  :   696
 total energy-change (2. order) : 0.2984478E+02  (-0.9133551E+01)
 number of electron     263.9999454 magnetization      19.1439974
 augmentation part      126.9391424 magnetization      11.4051124

 Broyden mixing:
  rms(total) = 0.14484E+01    rms(broyden)= 0.14483E+01
  rms(prec ) = 0.14724E+01
  weight for this iteration     100.00

 eigenvalues of (default mixing * dielectric matrix)
  average eigenvalue GAMMA=   0.8528
  0.8528

 Free energy of the ion-electron system (eV)
  ---------------------------------------------------
  alpha Z        PSCENC =        55.02924666
  Ewald energy   TEWEN  =     45385.30943464
  -Hartree energ DENC   =    -69156.26119268
  -exchange      EXHF   =         0.00000000
  -V(xc)+E(xc)   XCENC  =      -250.08666543
  PAW double counting   =     24884.90607380   -23795.80839638
  entropy T*S    EENTRO =        -0.00000000
  eigenvalues    EBANDS =     -2034.56032807
  atomic energy  EATOM  =     24892.76712207
  ---------------------------------------------------
  free energy    TOTEN  =       -18.70470539 eV

  energy without entropy =      -18.70470539  energy(sigma->0) =      -18.70470539


--------------------------------------------------------------------------------------------------------




----------------------------------------- Iteration    1(   7)  ---------------------------------------


    POTLOK:  cpu time    0.23: real time    0.23
    SETDIJ:  cpu time    0.01: real time    0.01
     EDDAV:  cpu time    2.58: real time    2.58
       DOS:  cpu time    0.00: real time    0.00
    CHARGE:  cpu time    0.09: real time    0.09
    MIXING:  cpu time    0.00: real time    0.01
    --------------------------------------------
      LOOP:  cpu time    2.92: real time    2.92

 eigenvalue-minimisations  :   736
 total energy-change (2. order) : 0.4571764E+01  (-0.5180334E+00)
 number of electron     263.9999453 magnetization      16.2835577
 augmentation part      126.8789138 magnetization       8.7990445

 Broyden mixing:
  rms(total) = 0.85533E+00    rms(broyden)= 0.85531E+00
  rms(prec ) = 0.86707E+00
  weight for this iteration     100.00

 eigenvalues of (default mixing * dielectric matrix)
  average eigenvalue GAMMA=   0.9963
  0.7572  1.2354

 Free energy of the ion-electron system (eV)
  ---------------------------------------------------
  alpha Z        PSCENC =        55.02924666
  Ewald energy   TEWEN  =     45385.30943464
  -Hartree energ DENC   =    -69210.30432735
  -exchange      EXHF   =         0.00000000
  -V(xc)+E(xc)   XCENC  =      -246.18431432
  PAW double counting   =     25372.41384312   -24294.49842171
  entropy T*S    EENTRO =         0.00000000
  eigenvalues    EBANDS =     -1968.66552465
  atomic energy  EATOM  =     24892.76712207
  ---------------------------------------------------
  free energy    TOTEN  =       -14.13294155 eV

  energy without entropy =      -14.13294155  energy(sigma->0) =      -14.13294155


--------------------------------------------------------------------------------------------------------




----------------------------------------- Iteration    1(   8)  ---------------------------------------


    POTLOK:  cpu time    0.23: real time    0.23
    SETDIJ:  cpu time    0.01: real time    0.01
     EDDAV:  cpu time    2.57: real time    2.57
       DOS:  cpu time    0.00: real time    0.00
    CHARGE:  cpu time    0.09: real time    0.09
    MIXING:  cpu time    0.00: real time    0.01
    --------------------------------------------
      LOOP:  cpu time    2.91: real time    2.91

 eigenvalue-minimisations  :   732
 total energy-change (2. order) :-0.1712777E+01  (-0.1805414E+00)
 number of electron     263.9999454 magnetization      14.3545866
 augmentation part      126.7246575 magnetization       7.0773458

 Broyden mixing:
  rms(total) = 0.44369E+00    rms(broyden)= 0.44367E+00
  rms(prec ) = 0.44743E+00
  weight for this iteration     100.00

 eigenvalues of (default mixing * dielectric matrix)
  average eigenvalue GAMMA=   1.2475
  2.2214  0.9057  0.6154

 Free energy of the ion-electron system (eV)
  ---------------------------------------------------
  alpha Z        PSCENC =        55.02924666
  Ewald energy   TEWEN  =     45385.30943464
  -Hartree energ DENC   =    -69270.11865966
  -exchange      EXHF   =         0.00000000
  -V(xc)+E(xc)   XCENC  =      -247.09537187
  PAW double counting   =     25930.21851713   -24863.84284552
  entropy T*S    EENTRO =         0.00000000
  eigenvalues    EBANDS =     -1898.11316159
  atomic energy  EATOM  =     24892.76712207
  ---------------------------------------------------
  free energy    TOTEN  =       -15.84571813 eV

  energy without entropy =      -15.84571813  energy(sigma->0) =      -15.84571813


--------------------------------------------------------------------------------------------------------




----------------------------------------- Iteration    1(   9)  ---------------------------------------


    POTLOK:  cpu time    0.23: real time    0.23
    SETDIJ:  cpu time    0.01: real time    0.01
     EDDAV:  cpu time    2.58: real time    2.58
       DOS:  cpu time    0.00: real time    0.00
    CHARGE:  cpu time    0.09: real time    0.09
    MIXING:  cpu time    0.01: real time    0.01
    --------------------------------------------
      LOOP:  cpu time    2.92: real time    2.92

 eigenvalue-minimisations  :   736
 total energy-change (2. order) :-0.3777286E+01  (-0.8851140E-01)
 number of electron     263.9999454 magnetization      13.8276516
 augmentation part      126.6937121 magnetization       8.6417292

 Broyden mixing:
  rms(total) = 0.33497E+00    rms(broyden)= 0.33486E+00
  rms(prec ) = 0.34357E+00
  weight for this iteration     100.00

 eigenvalues of (default mixing * dielectric matrix)
  average eigenvalue GAMMA=   1.0127
  2.2466  0.9054  0.6043  0.2946

 Free energy of the ion-electron system (eV)
  ---------------------------------------------------
  alpha Z        PSCENC =        55.02924666
  Ewald energy   TEWEN  =     45385.30943464
  -Hartree energ DENC   =    -69289.09712360
  -exchange      EXHF   =         0.00000000
  -V(xc)+E(xc)   XCENC  =      -249.84861604
  PAW double counting   =     26135.25566276   -25073.03372938
  entropy T*S    EENTRO =         0.00000000
  eigenvalues    EBANDS =     -1876.00500101
  atomic energy  EATOM  =     24892.76712207
  ---------------------------------------------------
  free energy    TOTEN  =       -19.62300390 eV

  energy without entropy =      -19.62300390  energy(sigma->0) =      -19.62300390


--------------------------------------------------------------------------------------------------------




----------------------------------------- Iteration    1(  10)  ---------------------------------------


    POTLOK:  cpu time    0.23: real time    0.23
    SETDIJ:  cpu time    0.00: real time    0.01
     EDDAV:  cpu time    2.72: real time    2.71
       DOS:  cpu time    0.00: real time    0.00
    CHARGE:  cpu time    0.09: real time    0.09
    MIXING:  cpu time    0.00: real time    0.01
    --------------------------------------------
      LOOP:  cpu time    3.05: real time    3.05

 eigenvalue-minimisations  :   784
 total energy-change (2. order) :-0.6628825E+00  (-0.1119063E-01)
 number of electron     263.9999454 magnetization      11.9437820
 augmentation part      126.6775900 magnetization       6.8278828

 Broyden mixing:
  rms(total) = 0.30085E+00    rms(broyden)= 0.30084E+00
  rms(prec ) = 0.30707E+00
  weight for this iteration     100.00

 eigenvalues of (default mixing * dielectric matrix)
  average eigenvalue GAMMA=   1.0639
  2.2517  0.9650  0.6378  0.7325  0.7325

 Free energy of the ion-electron system (eV)
  ---------------------------------------------------
  alpha Z        PSCENC =        55.02924666
  Ewald energy   TEWEN  =     45385.30943464
  -Hartree energ DENC   =    -69292.26524962
  -exchange      EXHF   =         0.00000000
  -V(xc)+E(xc)   XCENC  =      -250.22554158
  PAW double counting   =     26149.20114421   -25087.29384214
  entropy T*S    EENTRO =         0.00000000
  eigenvalues    EBANDS =     -1872.80820065
  atomic energy  EATOM  =     24892.76712207
  ---------------------------------------------------
  free energy    TOTEN  =       -20.28588641 eV

  energy without entropy =      -20.28588641  energy(sigma->0) =      -20.28588641


--------------------------------------------------------------------------------------------------------




----------------------------------------- Iteration    1(  11)  ---------------------------------------


    POTLOK:  cpu time    0.23: real time    0.23
    SETDIJ:  cpu time    0.01: real time    0.01
     EDDAV:  cpu time    2.50: real time    2.50
       DOS:  cpu time    0.00: real time    0.00
    CHARGE:  cpu time    0.09: real time    0.09
    MIXING:  cpu time    0.01: real time    0.01
    --------------------------------------------
      LOOP:  cpu time    2.84: real time    2.85

 eigenvalue-minimisations  :   704
 total energy-change (2. order) :-0.6174810E+01  (-0.2122727E+00)
 number of electron     263.9999455 magnetization       8.7594135
 augmentation part      126.6477667 magnetization       3.8965652

 Broyden mixing:
  rms(total) = 0.22472E+00    rms(broyden)= 0.22471E+00
  rms(prec ) = 0.22762E+00
  weight for this iteration     100.00

 eigenvalues of (default mixing * dielectric matrix)
  average eigenvalue GAMMA=   1.2320
  2.1577  2.1577  0.8941  0.8941  0.6080  0.6803

 Free energy of the ion-electron system (eV)
  ---------------------------------------------------
  alpha Z        PSCENC =        55.02924666
  Ewald energy   TEWEN  =     45385.30943464
  -Hartree energ DENC   =    -69297.38631350
  -exchange      EXHF   =         0.00000000
  -V(xc)+E(xc)   XCENC  =      -254.67944961
  PAW double counting   =     26142.83643075   -25081.15703808
  entropy T*S    EENTRO =         0.00000000
  eigenvalues    EBANDS =     -1869.18012981
  atomic energy  EATOM  =     24892.76712207
  ---------------------------------------------------
  free energy    TOTEN  =       -26.46069687 eV

  energy without entropy =      -26.46069687  energy(sigma->0) =      -26.46069687


--------------------------------------------------------------------------------------------------------




----------------------------------------- Iteration    1(  12)  ---------------------------------------


    POTLOK:  cpu time    0.23: real time    0.23
    SETDIJ:  cpu time    0.01: real time    0.01
     EDDAV:  cpu time    2.48: real time    2.48
       DOS:  cpu time    0.00: real time    0.00
    CHARGE:  cpu time    0.09: real time    0.09
    MIXING:  cpu time    0.01: real time    0.01
    --------------------------------------------
      LOOP:  cpu time    2.82: real time    2.82

 eigenvalue-minimisations  :   696
 total energy-change (2. order) :-0.9830338E+01  (-0.5040348E+00)
 number of electron     263.9999455 magnetization       7.8451578
 augmentation part      126.6654537 magnetization       5.3249233

 Broyden mixing:
  rms(total) = 0.22112E+00    rms(broyden)= 0.22098E+00
  rms(prec ) = 0.24103E+00
  weight for this iteration     100.00

 eigenvalues of (default mixing * dielectric matrix)
  average eigenvalue GAMMA=   1.1458
  2.5795  2.1370  0.8405  0.8405  0.6129  0.6874  0.3226

 Free energy of the ion-electron system (eV)
  ---------------------------------------------------
  alpha Z        PSCENC =        55.02924666
  Ewald energy   TEWEN  =     45385.30943464
  -Hartree energ DENC   =    -69296.97016886
  -exchange      EXHF   =         0.00000000
  -V(xc)+E(xc)   XCENC  =      -261.93731743
  PAW double counting   =     26111.44747799   -25049.74461740
  entropy T*S    EENTRO =         0.00000000
  eigenvalues    EBANDS =     -1872.19221223
  atomic energy  EATOM  =     24892.76712207
  ---------------------------------------------------
  free energy    TOTEN  =       -36.29103456 eV

  energy without entropy =      -36.29103456  energy(sigma->0) =      -36.29103456


--------------------------------------------------------------------------------------------------------




----------------------------------------- Iteration    1(  13)  ---------------------------------------


    POTLOK:  cpu time    0.23: real time    0.23
    SETDIJ:  cpu time    0.00: real time    0.01
     EDDAV:  cpu time    2.64: real time    2.64
       DOS:  cpu time    0.00: real time    0.00
    CHARGE:  cpu time    0.09: real time    0.09
    MIXING:  cpu time    0.01: real time    0.01
    --------------------------------------------
      LOOP:  cpu time    2.98: real time    3.07

 eigenvalue-minimisations  :   756
 total energy-change (2. order) :-0.1347154E+01  (-0.3112623E-01)
 number of electron     263.9999455 magnetization       6.9775375
 augmentation part      126.6447907 magnetization       4.5654609

 Broyden mixing:
  rms(total) = 0.18072E+00    rms(broyden)= 0.18070E+00
  rms(prec ) = 0.19633E+00
  weight for this iteration     100.00

 eigenvalues of (default mixing * dielectric matrix)
  average eigenvalue GAMMA=   1.1873
  2.7706  2.2930  0.9358  0.9358  0.6192  0.6851  0.6295  0.6295

 Free energy of the ion-electron system (eV)
  ---------------------------------------------------
  alpha Z        PSCENC =        55.02924666
  Ewald energy   TEWEN  =     45385.30943464
  -Hartree energ DENC   =    -69298.16046825
  -exchange      EXHF   =         0.00000000
  -V(xc)+E(xc)   XCENC  =      -262.91862140
  PAW double counting   =     26111.65074050   -25050.11688619
  entropy T*S    EENTRO =         0.00000000
  eigenvalues    EBANDS =     -1871.19875703
  atomic energy  EATOM  =     24892.76712207
  ---------------------------------------------------
  free energy    TOTEN  =       -37.63818900 eV

  energy without entropy =      -37.63818900  energy(sigma->0) =      -37.63818900


--------------------------------------------------------------------------------------------------------




----------------------------------------- Iteration    1(  14)  ---------------------------------------


    POTLOK:  cpu time    0.23: real time    0.23
    SETDIJ:  cpu time    0.01: real time    0.01
     EDDAV:  cpu time    2.48: real time    2.48
       DOS:  cpu time    0.00: real time    0.00
    CHARGE:  cpu time    0.09: real time    0.09
    MIXING:  cpu time    0.01: real time    0.01
    --------------------------------------------
      LOOP:  cpu time    2.82: real time    2.85

 eigenvalue-minimisations  :   696
 total energy-change (2. order) :-0.2600019E+01  (-0.6468444E-01)
 number of electron     263.9999455 magnetization       4.9035148
 augmentation part      126.6335417 magnetization       2.5752214

 Broyden mixing:
  rms(total) = 0.14344E+00    rms(broyden)= 0.14344E+00
  rms(prec ) = 0.15328E+00
  weight for this iteration     100.00

 eigenvalues of (default mixing * dielectric matrix)
  average eigenvalue GAMMA=   1.3294
  3.6491  2.4973  1.3401  1.1401  0.7600  0.7600  0.6419  0.5878  0.5878

 Free energy of the ion-electron system (eV)
  ---------------------------------------------------
  alpha Z        PSCENC =        55.02924666
  Ewald energy   TEWEN  =     45385.30943464
  -Hartree energ DENC   =    -69292.29710424
  -exchange      EXHF   =         0.00000000
  -V(xc)+E(xc)   XCENC  =      -264.98252987
  PAW double counting   =     26077.71700321   -25015.88949252
  entropy T*S    EENTRO =         0.00000000
  eigenvalues    EBANDS =     -1877.89188756
  atomic energy  EATOM  =     24892.76712207
  ---------------------------------------------------
  free energy    TOTEN  =       -40.23820761 eV

  energy without entropy =      -40.23820761  energy(sigma->0) =      -40.23820761


--------------------------------------------------------------------------------------------------------




----------------------------------------- Iteration    1(  15)  ---------------------------------------


    POTLOK:  cpu time    0.23: real time    0.23
    SETDIJ:  cpu time    0.00: real time    0.01
     EDDAV:  cpu time    2.47: real time    2.47
       DOS:  cpu time    0.00: real time    0.00
    CHARGE:  cpu time    0.09: real time    0.09
    MIXING:  cpu time    0.01: real time    0.01
    --------------------------------------------
      LOOP:  cpu time    2.81: real time    2.81

 eigenvalue-minimisations  :   692
 total energy-change (2. order) :-0.3643501E+01  (-0.1261174E+00)
 number of electron     263.9999456 magnetization       4.5734403
 augmentation part      126.6697997 magnetization       4.3458150

 Broyden mixing:
  rms(total) = 0.18721E+00    rms(broyden)= 0.18708E+00
  rms(prec ) = 0.20697E+00
  weight for this iteration     100.00

 eigenvalues of (default mixing * dielectric matrix)
  average eigenvalue GAMMA=   1.2314
  3.8921  2.3756  1.5493  1.0259  0.7733  0.7733  0.6284  0.5780  0.5780  0.1398

 Free energy of the ion-electron system (eV)
  ---------------------------------------------------
  alpha Z        PSCENC =        55.02924666
  Ewald energy   TEWEN  =     45385.30943464
  -Hartree energ DENC   =    -69275.66830043
  -exchange      EXHF   =         0.00000000
  -V(xc)+E(xc)   XCENC  =      -268.23508488
  PAW double counting   =     26021.41213554   -24959.15876037
  entropy T*S    EENTRO =        -0.00000000
  eigenvalues    EBANDS =     -1895.33750232
  atomic energy  EATOM  =     24892.76712207
  ---------------------------------------------------
  free energy    TOTEN  =       -43.88170909 eV

  energy without entropy =      -43.88170909  energy(sigma->0) =      -43.88170909


--------------------------------------------------------------------------------------------------------




----------------------------------------- Iteration    1(  16)  ---------------------------------------


    POTLOK:  cpu time    0.23: real time    0.23
    SETDIJ:  cpu time    0.01: real time    0.01
     EDDAV:  cpu time    2.77: real time    2.77
       DOS:  cpu time    0.00: real time    0.00
    CHARGE:  cpu time    0.09: real time    0.09
    MIXING:  cpu time    0.01: real time    0.01
    --------------------------------------------
      LOOP:  cpu time    3.11: real time    3.11

 eigenvalue-minimisations  :   800
 total energy-change (2. order) :-0.1891311E+00  (-0.4157081E-02)
 number of electron     263.9999456 magnetization       3.8486424
 augmentation part      126.6670417 magnetization       3.6539571

 Broyden mixing:
  rms(total) = 0.16986E+00    rms(broyden)= 0.16986E+00
  rms(prec ) = 0.18847E+00
  weight for this iteration     100.00

 eigenvalues of (default mixing * dielectric matrix)
  average eigenvalue GAMMA=   1.2662
  4.7508  2.3635  1.2081  1.2081  0.7531  0.7531  0.6913  0.5923  0.5923  0.5076
  0.5076

 Free energy of the ion-electron system (eV)
  ---------------------------------------------------
  alpha Z        PSCENC =        55.02924666
  Ewald energy   TEWEN  =     45385.30943464
  -Hartree energ DENC   =    -69274.56661772
  -exchange      EXHF   =         0.00000000
  -V(xc)+E(xc)   XCENC  =      -268.40602891
  PAW double counting   =     26019.39967152   -24957.17650252
  entropy T*S    EENTRO =         0.00000000
  eigenvalues    EBANDS =     -1896.42716597
  atomic energy  EATOM  =     24892.76712207
  ---------------------------------------------------
  free energy    TOTEN  =       -44.07084023 eV

  energy without entropy =      -44.07084023  energy(sigma->0) =      -44.07084023


--------------------------------------------------------------------------------------------------------




----------------------------------------- Iteration    1(  17)  ---------------------------------------


    POTLOK:  cpu time    0.23: real time    0.23
    SETDIJ:  cpu time    0.01: real time    0.01
     EDDAV:  cpu time    2.55: real time    2.56
       DOS:  cpu time    0.00: real time    0.00
    CHARGE:  cpu time    0.09: real time    0.09
    MIXING:  cpu time    0.01: real time    0.01
    --------------------------------------------
      LOOP:  cpu time    2.90: real time    2.90

 eigenvalue-minimisations  :   720
 total energy-change (2. order) :-0.5169192E+00  (-0.6279369E-02)
 number of electron     263.9999456 magnetization       2.4253931
 augmentation part      126.6747605 magnetization       2.2784459

 Broyden mixing:
  rms(total) = 0.14369E+00    rms(broyden)= 0.14369E+00
  rms(prec ) = 0.15986E+00
  weight for this iteration     100.00

 eigenvalues of (default mixing * dielectric matrix)
  average eigenvalue GAMMA=   1.3512
  5.6853  1.9559  1.3767  1.3767  1.0308  1.0308  0.8226  0.6109  0.6109  0.6065
  0.6065  0.5003

 Free energy of the ion-electron system (eV)
  ---------------------------------------------------
  alpha Z        PSCENC =        55.02924666
  Ewald energy   TEWEN  =     45385.30943464
  -Hartree energ DENC   =    -69272.15965399
  -exchange      EXHF   =         0.00000000
  -V(xc)+E(xc)   XCENC  =      -268.85233283
  PAW double counting   =     26012.03626816   -24949.77942832
  entropy T*S    EENTRO =         0.00000000
  eigenvalues    EBANDS =     -1898.93841578
  atomic energy  EATOM  =     24892.76712207
  ---------------------------------------------------
  free energy    TOTEN  =       -44.58775939 eV

  energy without entropy =      -44.58775939  energy(sigma->0) =      -44.58775939


--------------------------------------------------------------------------------------------------------




----------------------------------------- Iteration    1(  18)  ---------------------------------------


    POTLOK:  cpu time    0.23: real time    0.23
    SETDIJ:  cpu time    0.01: real time    0.01
     EDDAV:  cpu time    2.51: real time    2.51
       DOS:  cpu time    0.00: real time    0.00
    CHARGE:  cpu time    0.09: real time    0.09
    MIXING:  cpu time    0.01: real time    0.01
    --------------------------------------------
      LOOP:  cpu time    2.85: real time    2.85

 eigenvalue-minimisations  :   704
 total energy-change (2. order) :-0.1039678E+01  (-0.2711865E-01)
 number of electron     263.9999457 magnetization       0.8705670
 augmentation part      126.6348601 magnetization       0.7859941

 Broyden mixing:
  rms(total) = 0.72067E-01    rms(broyden)= 0.72059E-01
  rms(prec ) = 0.81725E-01
  weight for this iteration     100.00

 eigenvalues of (default mixing * dielectric matrix)
  average eigenvalue GAMMA=   1.5350
  7.9316  2.1578  1.6675  1.6675  0.9367  0.9367  0.8324  0.8324  0.5777  0.5777
  0.6550  0.6550  0.5275

 Free energy of the ion-electron system (eV)
  ---------------------------------------------------
  alpha Z        PSCENC =        55.02924666
  Ewald energy   TEWEN  =     45385.30943464
  -Hartree energ DENC   =    -69267.61007780
  -exchange      EXHF   =         0.00000000
  -V(xc)+E(xc)   XCENC  =      -269.75538387
  PAW double counting   =     26022.02539307   -24959.94800531
  entropy T*S    EENTRO =         0.00000000
  eigenvalues    EBANDS =     -1903.44516637
  atomic energy  EATOM  =     24892.76712207
  ---------------------------------------------------
  free energy    TOTEN  =       -45.62743691 eV

  energy without entropy =      -45.62743691  energy(sigma->0) =      -45.62743691


--------------------------------------------------------------------------------------------------------




----------------------------------------- Iteration    1(  19)  ---------------------------------------


    POTLOK:  cpu time    0.23: real time    0.23
    SETDIJ:  cpu time    0.01: real time    0.01
     EDDAV:  cpu time    2.48: real time    2.49
       DOS:  cpu time    0.00: real time    0.00
    CHARGE:  cpu time    0.09: real time    0.09
    MIXING:  cpu time    0.01: real time    0.01
    --------------------------------------------
      LOOP:  cpu time    2.83: real time    2.85

 eigenvalue-minimisations  :   696
 total energy-change (2. order) :-0.1217898E+01  (-0.2451596E-01)
 number of electron     263.9999457 magnetization       0.6876231
 augmentation part      126.6626190 magnetization       0.6825646

 Broyden mixing:
  rms(total) = 0.50162E-01    rms(broyden)= 0.50137E-01
  rms(prec ) = 0.53486E-01
  weight for this iteration     100.00

 eigenvalues of (default mixing * dielectric matrix)
  average eigenvalue GAMMA=   1.5183
  8.2291  2.0541  2.0541  1.2989  1.2989  0.9054  0.9054  0.8754  0.5618  0.5618
  0.6705  0.6705  0.6548  0.5156

 Free energy of the ion-electron system (eV)
  ---------------------------------------------------
  alpha Z        PSCENC =        55.02924666
  Ewald energy   TEWEN  =     45385.30943464
  -Hartree energ DENC   =    -69253.09830776
  -exchange      EXHF   =         0.00000000
  -V(xc)+E(xc)   XCENC  =      -271.02923721
  PAW double counting   =     26000.66374522   -24938.20740946
  entropy T*S    EENTRO =         0.00000000
  eigenvalues    EBANDS =     -1918.27992952
  atomic energy  EATOM  =     24892.76712207
  ---------------------------------------------------
  free energy    TOTEN  =       -46.84533535 eV

  energy without entropy =      -46.84533535  energy(sigma->0) =      -46.84533535


--------------------------------------------------------------------------------------------------------




----------------------------------------- Iteration    1(  20)  ---------------------------------------


    POTLOK:  cpu time    0.23: real time    0.23
    SETDIJ:  cpu time    0.01: real time    0.01
     EDDAV:  cpu time    2.68: real time    2.69
       DOS:  cpu time    0.00: real time    0.00
    CHARGE:  cpu time    0.09: real time    0.09
    MIXING:  cpu time    0.01: real time    0.01
    --------------------------------------------
      LOOP:  cpu time    3.03: real time    3.06

 eigenvalue-minimisations  :   768
 total energy-change (2. order) :-0.3053316E+00  (-0.2331690E-02)
 number of electron     263.9999457 magnetization       0.5535968
 augmentation part      126.6664166 magnetization       0.5543976

 Broyden mixing:
  rms(total) = 0.31642E-01    rms(broyden)= 0.31635E-01
  rms(prec ) = 0.35373E-01
  weight for this iteration     100.00

 eigenvalues of (default mixing * dielectric matrix)
  average eigenvalue GAMMA=   1.5112
  8.3438  2.1798  2.1798  1.3636  1.3636  0.9081  0.9081  0.9016  0.9016  0.5668
  0.5668  0.6745  0.6387  0.6387  0.5330

 Free energy of the ion-electron system (eV)
  ---------------------------------------------------
  alpha Z        PSCENC =        55.02924666
  Ewald energy   TEWEN  =     45385.30943464
  -Hartree energ DENC   =    -69249.55709107
  -exchange      EXHF   =         0.00000000
  -V(xc)+E(xc)   XCENC  =      -271.35562981
  PAW double counting   =     26007.04082584   -24944.67323881
  entropy T*S    EENTRO =         0.00000000
  eigenvalues    EBANDS =     -1921.71133643
  atomic energy  EATOM  =     24892.76712207
  ---------------------------------------------------
  free energy    TOTEN  =       -47.15066692 eV

  energy without entropy =      -47.15066692  energy(sigma->0) =      -47.15066692


--------------------------------------------------------------------------------------------------------




----------------------------------------- Iteration    1(  21)  ---------------------------------------


    POTLOK:  cpu time    0.23: real time    0.23
    SETDIJ:  cpu time    0.00: real time    0.01
     EDDAV:  cpu time    2.52: real time    2.52
       DOS:  cpu time    0.00: real time    0.00
    CHARGE:  cpu time    0.09: real time    0.09
    MIXING:  cpu time    0.02: real time    0.01
    --------------------------------------------
      LOOP:  cpu time    2.86: real time    2.87

 eigenvalue-minimisations  :   708
 total energy-change (2. order) :-0.3387136E+00  (-0.9566288E-03)
 number of electron     263.9999457 magnetization       0.2661489
 augmentation part      126.6658900 magnetization       0.2639340

 Broyden mixing:
  rms(total) = 0.21445E-01    rms(broyden)= 0.21441E-01
  rms(prec ) = 0.24949E-01
  weight for this iteration     100.00

 eigenvalues of (default mixing * dielectric matrix)
  average eigenvalue GAMMA=   1.5920
  8.8566  3.0424  1.7313  1.7313  1.5040  1.5040  0.8907  0.8907  0.8737  0.8737
  0.5658  0.5658  0.6359  0.6359  0.6441  0.5256

 Free energy of the ion-electron system (eV)
  ---------------------------------------------------
  alpha Z        PSCENC =        55.02924666
  Ewald energy   TEWEN  =     45385.30943464
  -Hartree energ DENC   =    -69244.35481440
  -exchange      EXHF   =         0.00000000
  -V(xc)+E(xc)   XCENC  =      -271.71965030
  PAW double counting   =     26005.42074029   -24942.91004334
  entropy T*S    EENTRO =         0.00000000
  eigenvalues    EBANDS =     -1927.03141617
  atomic energy  EATOM  =     24892.76712207
  ---------------------------------------------------
  free energy    TOTEN  =       -47.48938055 eV

  energy without entropy =      -47.48938055  energy(sigma->0) =      -47.48938055


--------------------------------------------------------------------------------------------------------




----------------------------------------- Iteration    1(  22)  ---------------------------------------


    POTLOK:  cpu time    0.23: real time    0.23
    SETDIJ:  cpu time    0.01: real time    0.01
     EDDAV:  cpu time    2.61: real time    2.61
       DOS:  cpu time    0.00: real time    0.00
    CHARGE:  cpu time    0.09: real time    0.09
    MIXING:  cpu time    0.01: real time    0.01
    --------------------------------------------
      LOOP:  cpu time    2.95: real time    2.96

 eigenvalue-minimisations  :   740
 total energy-change (2. order) :-0.4080888E+00  (-0.2200505E-02)
 number of electron     263.9999457 magnetization       0.1844843
 augmentation part      126.6707618 magnetization       0.1829936

 Broyden mixing:
  rms(total) = 0.90568E-02    rms(broyden)= 0.90486E-02
  rms(prec ) = 0.12025E-01
  weight for this iteration     100.00

 eigenvalues of (default mixing * dielectric matrix)
  average eigenvalue GAMMA=   1.6053
  9.0846  3.4532  2.1783  1.4784  1.4784  1.3611  1.3611  0.8700  0.8700  0.8889
  0.5661  0.5661  0.6565  0.6565  0.6704  0.6229  0.5285

 Free energy of the ion-electron system (eV)
  ---------------------------------------------------
  alpha Z        PSCENC =        55.02924666
  Ewald energy   TEWEN  =     45385.30943464
  -Hartree energ DENC   =    -69234.79226598
  -exchange      EXHF   =         0.00000000
  -V(xc)+E(xc)   XCENC  =      -272.18574515
  PAW double counting   =     26008.33146496   -24945.69284740
  entropy T*S    EENTRO =         0.00000000
  eigenvalues    EBANDS =     -1936.66387918
  atomic energy  EATOM  =     24892.76712207
  ---------------------------------------------------
  free energy    TOTEN  =       -47.89746937 eV

  energy without entropy =      -47.89746937  energy(sigma->0) =      -47.89746937


--------------------------------------------------------------------------------------------------------




----------------------------------------- Iteration    1(  23)  ---------------------------------------


    POTLOK:  cpu time    0.23: real time    0.23
    SETDIJ:  cpu time    0.01: real time    0.01
     EDDAV:  cpu time    2.44: real time    2.45
       DOS:  cpu time    0.00: real time    0.00
    CHARGE:  cpu time    0.09: real time    0.09
    MIXING:  cpu time    0.02: real time    0.01
    --------------------------------------------
      LOOP:  cpu time    2.79: real time    2.79

 eigenvalue-minimisations  :   680
 total energy-change (2. order) :-0.9903843E-01  (-0.2948016E-03)
 number of electron     263.9999457 magnetization       0.1034115
 augmentation part      126.6704555 magnetization       0.1003986

 Broyden mixing:
  rms(total) = 0.61902E-02    rms(broyden)= 0.61877E-02
  rms(prec ) = 0.86522E-02
  weight for this iteration     100.00

 eigenvalues of (default mixing * dielectric matrix)
  average eigenvalue GAMMA=   1.6136
  9.1740  3.8218  2.1729  1.7057  1.7057  1.3459  1.3459  0.8758  0.8758  0.5661
  0.5661  0.8635  0.7909  0.7909  0.6488  0.6488  0.6201  0.5267

 Free energy of the ion-electron system (eV)
  ---------------------------------------------------
  alpha Z        PSCENC =        55.02924666
  Ewald energy   TEWEN  =     45385.30943464
  -Hartree energ DENC   =    -69230.66819626
  -exchange      EXHF   =         0.00000000
  -V(xc)+E(xc)   XCENC  =      -272.31009142
  PAW double counting   =     26013.36720212   -24950.76651311
  entropy T*S    EENTRO =         0.00000000
  eigenvalues    EBANDS =     -1940.72471250
  atomic energy  EATOM  =     24892.76712207
  ---------------------------------------------------
  free energy    TOTEN  =       -47.99650780 eV

  energy without entropy =      -47.99650780  energy(sigma->0) =      -47.99650780


--------------------------------------------------------------------------------------------------------




----------------------------------------- Iteration    1(  24)  ---------------------------------------


    POTLOK:  cpu time    0.23: real time    0.23
    SETDIJ:  cpu time    0.01: real time    0.01
     EDDAV:  cpu time    2.14: real time    2.14
       DOS:  cpu time    0.00: real time    0.00
    CHARGE:  cpu time    0.09: real time    0.09
    MIXING:  cpu time    0.02: real time    0.02
    --------------------------------------------
      LOOP:  cpu time    2.49: real time    2.49

 eigenvalue-minimisations  :   564
 total energy-change (2. order) :-0.4445401E-01  (-0.1551605E-03)
 number of electron     263.9999457 magnetization       0.0367058
 augmentation part      126.6725469 magnetization       0.0346253

 Broyden mixing:
  rms(total) = 0.40829E-02    rms(broyden)= 0.40815E-02
  rms(prec ) = 0.57514E-02
  weight for this iteration     100.00

 eigenvalues of (default mixing * dielectric matrix)
  average eigenvalue GAMMA=   1.6606
  9.2733  4.4022  2.3764  1.9090  1.9090  1.4313  1.4313  0.8757  0.8757  1.0059
  1.0059  0.8485  0.5661  0.5661  0.6449  0.6449  0.6292  0.6292  0.5269

 Free energy of the ion-electron system (eV)
  ---------------------------------------------------
  alpha Z        PSCENC =        55.02924666
  Ewald energy   TEWEN  =     45385.30943464
  -Hartree energ DENC   =    -69226.80131798
  -exchange      EXHF   =         0.00000000
  -V(xc)+E(xc)   XCENC  =      -272.37934519
  PAW double counting   =     26014.07987341   -24951.47727643
  entropy T*S    EENTRO =         0.00000000
  eigenvalues    EBANDS =     -1944.56869899
  atomic energy  EATOM  =     24892.76712207
  ---------------------------------------------------
  free energy    TOTEN  =       -48.04096181 eV

  energy without entropy =      -48.04096181  energy(sigma->0) =      -48.04096181


--------------------------------------------------------------------------------------------------------




----------------------------------------- Iteration    1(  25)  ---------------------------------------


    POTLOK:  cpu time    0.23: real time    0.23
    SETDIJ:  cpu time    0.01: real time    0.01
     EDDAV:  cpu time    2.07: real time    2.07
       DOS:  cpu time    0.00: real time    0.00
    CHARGE:  cpu time    0.09: real time    0.09
    MIXING:  cpu time    0.02: real time    0.02
    --------------------------------------------
      LOOP:  cpu time    2.42: real time    2.57

 eigenvalue-minimisations  :   536
 total energy-change (2. order) :-0.1117448E-01  (-0.1210235E-03)
 number of electron     263.9999457 magnetization       0.0115206
 augmentation part      126.6732955 magnetization       0.0104016

 Broyden mixing:
  rms(total) = 0.22683E-02    rms(broyden)= 0.22667E-02
  rms(prec ) = 0.32986E-02
  weight for this iteration     100.00

 eigenvalues of (default mixing * dielectric matrix)
  average eigenvalue GAMMA=   1.6656
  9.3474  4.7472  2.7362  1.8288  1.6189  1.6189  1.4039  1.4039  0.8753  0.8753
  0.9183  0.9183  0.5661  0.5661  0.7856  0.6500  0.6500  0.5273  0.6537  0.6215

 Free energy of the ion-electron system (eV)
  ---------------------------------------------------
  alpha Z        PSCENC =        55.02924666
  Ewald energy   TEWEN  =     45385.30943464
  -Hartree energ DENC   =    -69223.37597281
  -exchange      EXHF   =         0.00000000
  -V(xc)+E(xc)   XCENC  =      -272.40973283
  PAW double counting   =     26015.85148833   -24953.27358636
  entropy T*S    EENTRO =         0.00000000
  eigenvalues    EBANDS =     -1947.95013599
  atomic energy  EATOM  =     24892.76712207
  ---------------------------------------------------
  free energy    TOTEN  =       -48.05213629 eV

  energy without entropy =      -48.05213629  energy(sigma->0) =      -48.05213629


--------------------------------------------------------------------------------------------------------




----------------------------------------- Iteration    1(  26)  ---------------------------------------


    POTLOK:  cpu time    0.23: real time    0.23
    SETDIJ:  cpu time    0.01: real time    0.01
     EDDAV:  cpu time    1.98: real time    1.99
       DOS:  cpu time    0.00: real time    0.00
    CHARGE:  cpu time    0.09: real time    0.09
    MIXING:  cpu time    0.02: real time    0.02
    --------------------------------------------
      LOOP:  cpu time    2.33: real time    2.34

 eigenvalue-minimisations  :   504
 total energy-change (2. order) :-0.4417130E-02  (-0.2585859E-04)
 number of electron     263.9999457 magnetization       0.0032012
 augmentation part      126.6736895 magnetization       0.0029312

 Broyden mixing:
  rms(total) = 0.14389E-02    rms(broyden)= 0.14385E-02
  rms(prec ) = 0.21978E-02
  weight for this iteration     100.00

 eigenvalues of (default mixing * dielectric matrix)
  average eigenvalue GAMMA=   1.6855
  9.3653  5.0448  2.9818  2.1169  1.8032  1.8032  1.3899  1.3899  0.8760  0.8760
  0.9986  0.9986  0.5661  0.5661  0.8355  0.6525  0.6525  0.5269  0.6664  0.6664
  0.6187

 Free energy of the ion-electron system (eV)
  ---------------------------------------------------
  alpha Z        PSCENC =        55.02924666
  Ewald energy   TEWEN  =     45385.30943464
  -Hartree energ DENC   =    -69221.94740027
  -exchange      EXHF   =         0.00000000
  -V(xc)+E(xc)   XCENC  =      -272.41959157
  PAW double counting   =     26016.47890161   -24953.90879905
  entropy T*S    EENTRO =         0.00000000
  eigenvalues    EBANDS =     -1949.36546750
  atomic energy  EATOM  =     24892.76712207
  ---------------------------------------------------
  free energy    TOTEN  =       -48.05655342 eV

  energy without entropy =      -48.05655342  energy(sigma->0) =      -48.05655342


--------------------------------------------------------------------------------------------------------




----------------------------------------- Iteration    1(  27)  ---------------------------------------


    POTLOK:  cpu time    0.22: real time    0.22
    SETDIJ:  cpu time    0.01: real time    0.01
     EDDAV:  cpu time    1.86: real time    1.86
       DOS:  cpu time    0.00: real time    0.00
    CHARGE:  cpu time    0.09: real time    0.09
    MIXING:  cpu time    0.02: real time    0.02
    --------------------------------------------
      LOOP:  cpu time    2.20: real time    2.86

 eigenvalue-minimisations  :   488
 total energy-change (2. order) :-0.3889059E-02  (-0.1729324E-04)
 number of electron     263.9999457 magnetization       0.0025738
 augmentation part      126.6736232 magnetization       0.0023671

 Broyden mixing:
  rms(total) = 0.95051E-03    rms(broyden)= 0.95029E-03
  rms(prec ) = 0.13891E-02
  weight for this iteration     100.00

 eigenvalues of (default mixing * dielectric matrix)
  average eigenvalue GAMMA=   1.7233
  9.3097  5.5700  3.4497  2.3735  1.9221  1.9221  1.4194  1.4194  1.1138  1.1138
  0.8742  0.8742  0.8925  0.5661  0.5661  0.7281  0.7281  0.6504  0.6504  0.5271
  0.6134  0.6281

 Free energy of the ion-electron system (eV)
  ---------------------------------------------------
  alpha Z        PSCENC =        55.02924666
  Ewald energy   TEWEN  =     45385.30943464
  -Hartree energ DENC   =    -69220.72130147
  -exchange      EXHF   =         0.00000000
  -V(xc)+E(xc)   XCENC  =      -272.42769604
  PAW double counting   =     26016.89020459   -24954.32166625
  entropy T*S    EENTRO =         0.00000000
  eigenvalues    EBANDS =     -1950.58578668
  atomic energy  EATOM  =     24892.76712207
  ---------------------------------------------------
  free energy    TOTEN  =       -48.06044248 eV

  energy without entropy =      -48.06044248  energy(sigma->0) =      -48.06044248


--------------------------------------------------------------------------------------------------------




----------------------------------------- Iteration    1(  28)  ---------------------------------------


    POTLOK:  cpu time    0.22: real time    0.23
    SETDIJ:  cpu time    0.01: real time    0.01
     EDDAV:  cpu time    1.96: real time    1.96
       DOS:  cpu time    0.00: real time    0.00
    CHARGE:  cpu time    0.09: real time    0.09
    MIXING:  cpu time    0.02: real time    0.02
    --------------------------------------------
      LOOP:  cpu time    2.31: real time    2.33

 eigenvalue-minimisations  :   496
 total energy-change (2. order) :-0.2248491E-02  (-0.7570556E-05)
 number of electron     263.9999457 magnetization       0.0011206
 augmentation part      126.6740003 magnetization       0.0008589

 Broyden mixing:
  rms(total) = 0.69762E-03    rms(broyden)= 0.69740E-03
  rms(prec ) = 0.94476E-03
  weight for this iteration     100.00

 eigenvalues of (default mixing * dielectric matrix)
  average eigenvalue GAMMA=   1.7368
  9.2457  6.1317  3.7747  2.4466  1.7693  1.7693  1.6802  1.4108  1.4108  0.8754
  0.8754  0.9828  0.9828  0.9571  0.5661  0.5661  0.6520  0.6520  0.5271  0.7107
  0.7107  0.6372  0.6117

 Free energy of the ion-electron system (eV)
  ---------------------------------------------------
  alpha Z        PSCENC =        55.02924666
  Ewald energy   TEWEN  =     45385.30943464
  -Hartree energ DENC   =    -69219.92975253
  -exchange      EXHF   =         0.00000000
  -V(xc)+E(xc)   XCENC  =      -272.43308206
  PAW double counting   =     26016.91680950   -24954.34585059
  entropy T*S    EENTRO =         0.00000000
  eigenvalues    EBANDS =     -1951.37661865
  atomic energy  EATOM  =     24892.76712207
  ---------------------------------------------------
  free energy    TOTEN  =       -48.06269097 eV

  energy without entropy =      -48.06269097  energy(sigma->0) =      -48.06269097


--------------------------------------------------------------------------------------------------------




----------------------------------------- Iteration    1(  29)  ---------------------------------------


    POTLOK:  cpu time    0.23: real time    0.23
    SETDIJ:  cpu time    0.01: real time    0.01
     EDDAV:  cpu time    1.90: real time    1.90
       DOS:  cpu time    0.00: real time    0.00
    CHARGE:  cpu time    0.09: real time    0.09
    MIXING:  cpu time    0.02: real time    0.02
    --------------------------------------------
      LOOP:  cpu time    2.25: real time    2.25

 eigenvalue-minimisations  :   472
 total energy-change (2. order) :-0.7483724E-03  (-0.2047314E-05)
 number of electron     263.9999457 magnetization       0.0026491
 augmentation part      126.6743674 magnetization       0.0024860

 Broyden mixing:
  rms(total) = 0.56924E-03    rms(broyden)= 0.56914E-03
  rms(prec ) = 0.70616E-03
  weight for this iteration     100.00

 eigenvalues of (default mixing * dielectric matrix)
  average eigenvalue GAMMA=   1.7619
  9.1378  6.7364  3.9464  2.4077  2.4077  1.7888  1.7888  1.4050  1.4050  0.8747
  0.8747  1.0427  1.0427  1.0383  0.5661  0.5661  0.7659  0.7659  0.6501  0.6501
  0.5270  0.6402  0.6402  0.6185

 Free energy of the ion-electron system (eV)
  ---------------------------------------------------
  alpha Z        PSCENC =        55.02924666
  Ewald energy   TEWEN  =     45385.30943464
  -Hartree energ DENC   =    -69219.51063847
  -exchange      EXHF   =         0.00000000
  -V(xc)+E(xc)   XCENC  =      -272.43594073
  PAW double counting   =     26016.77351977   -24954.20107231
  entropy T*S    EENTRO =         0.00000000
  eigenvalues    EBANDS =     -1951.79511097
  atomic energy  EATOM  =     24892.76712207
  ---------------------------------------------------
  free energy    TOTEN  =       -48.06343934 eV

  energy without entropy =      -48.06343934  energy(sigma->0) =      -48.06343934


--------------------------------------------------------------------------------------------------------




----------------------------------------- Iteration    1(  30)  ---------------------------------------


    POTLOK:  cpu time    0.22: real time    0.23
    SETDIJ:  cpu time    0.01: real time    0.01
     EDDAV:  cpu time    1.91: real time    1.91
       DOS:  cpu time    0.00: real time    0.00
    CHARGE:  cpu time    0.09: real time    0.09
    MIXING:  cpu time    0.02: real time    0.02
    --------------------------------------------
      LOOP:  cpu time    2.26: real time    2.27

 eigenvalue-minimisations  :   476
 total energy-change (2. order) :-0.1986972E-03  (-0.9744253E-06)
 number of electron     263.9999457 magnetization       0.0015666
 augmentation part      126.6744688 magnetization       0.0013779

 Broyden mixing:
  rms(total) = 0.36418E-03    rms(broyden)= 0.36410E-03
  rms(prec ) = 0.46374E-03
  weight for this iteration     100.00

 eigenvalues of (default mixing * dielectric matrix)
  average eigenvalue GAMMA=   1.7948
  8.9896  7.4413  4.1085  2.6893  2.6893  1.8551  1.8551  1.4143  1.4143  1.2229
  0.8748  0.8748  1.0698  1.0698  0.5661  0.5661  0.8984  0.8247  0.6510  0.6510
  0.5271  0.6894  0.6894  0.6139  0.6250

 Free energy of the ion-electron system (eV)
  ---------------------------------------------------
  alpha Z        PSCENC =        55.02924666
  Ewald energy   TEWEN  =     45385.30943464
  -Hartree energ DENC   =    -69219.29698568
  -exchange      EXHF   =         0.00000000
  -V(xc)+E(xc)   XCENC  =      -272.43701365
  PAW double counting   =     26016.74206440   -24954.17017300
  entropy T*S    EENTRO =         0.00000000
  eigenvalues    EBANDS =     -1952.00733348
  atomic energy  EATOM  =     24892.76712207
  ---------------------------------------------------
  free energy    TOTEN  =       -48.06363804 eV

  energy without entropy =      -48.06363804  energy(sigma->0) =      -48.06363804


--------------------------------------------------------------------------------------------------------




----------------------------------------- Iteration    1(  31)  ---------------------------------------


    POTLOK:  cpu time    0.22: real time    0.23
    SETDIJ:  cpu time    0.01: real time    0.01
     EDDAV:  cpu time    1.84: real time    1.84
       DOS:  cpu time    0.00: real time    0.00
    --------------------------------------------
      LOOP:  cpu time    2.08: real time    2.10

 eigenvalue-minimisations  :   448
 total energy-change (2. order) :-0.1589618E-04  (-0.3951683E-06)
 number of electron     263.9999457 magnetization       0.0015666
 augmentation part      126.6744688 magnetization       0.0013779

 Free energy of the ion-electron system (eV)
  ---------------------------------------------------
  alpha Z        PSCENC =        55.02924666
  Ewald energy   TEWEN  =     45385.30943464
  -Hartree energ DENC   =    -69219.20598129
  -exchange      EXHF   =         0.00000000
  -V(xc)+E(xc)   XCENC  =      -272.43715685
  PAW double counting   =     26016.76729858   -24954.19531131
  entropy T*S    EENTRO =         0.00000000
  eigenvalues    EBANDS =     -1952.09830644
  atomic energy  EATOM  =     24892.76712207
  ---------------------------------------------------
  free energy    TOTEN  =       -48.06365393 eV

  energy without entropy =      -48.06365393  energy(sigma->0) =      -48.06365393


--------------------------------------------------------------------------------------------------------




 average (electrostatic) potential at core
  the test charge radii are     1.1249
  (the norm of the test charge is              1.0000)
       1 -81.9320       2 -82.3605       3 -82.4611       4 -82.3409       5 -82.0645
       6 -82.3930       7 -82.2155       8 -82.5596       9 -82.4787      10 -82.2707
      11 -82.4118      12 -82.2897      13 -82.3699      14 -82.4978      15 -82.4697
      16 -82.3754      17 -82.4861      18 -81.9721      19 -82.2840      20 -82.5576
      21 -82.4149      22 -82.4310      23 -81.6856      24 -82.5293
 
 
 
 E-fermi :  -3.3112     XC(G=0):  -1.0324     alpha+bet : -0.6188


 spin component 1

 k-point     1 :       0.0000    0.0000    0.0000
[...]
    117      -6.3788      1.00000
    118      -6.3636      1.00000
    119      -6.3418      1.00000
    120      -6.3322      1.00000
    121      -6.2652      1.00000
    122      -6.2412      1.00000
    123      -6.2330      1.00000
    124      -6.1686      1.00000
    125      -5.6010      1.00000
    126      -5.1280      1.00000
    127      -4.9390      1.00000
    128      -4.8598      1.00000
    129      -4.5033      1.00000
    130      -4.1322      1.00000
    131      -3.8192      1.00000
    132      -3.5770      1.00000
    133      -3.1005      0.00000
    134      -2.8645      0.00000
    135      -2.8237      0.00000
    136      -2.7169      0.00000
    137      -2.6119      0.00000
    138      -2.4400      0.00000
    139      -2.2315      0.00000
    140      -2.0771      0.00000
    141      -1.9449      0.00000
    142      -1.7074      0.00000
    143      -1.2559      0.00000
    144      -1.1494      0.00000
    145      -1.0886      0.00000
    146      -1.0054      0.00000
    147      -0.9270      0.00000
    148      -0.7893      0.00000
    149      -0.7580      0.00000
    150      -0.7112      0.00000
    151      -0.5299      0.00000
    152      -0.4315      0.00000
    153      -0.3010      0.00000
    154      -0.2664      0.00000
    155      -0.0721      0.00000
    156       0.0577      0.00000
    157       0.2426      0.00000
    158       0.4239      0.00000
    159       0.4715      0.00000
    160       0.6468      0.00000
    161       0.6526      0.00000
    162       0.7136      0.00000
    163       0.7246      0.00000
    164       0.7418      0.00000
    165       0.7790      0.00000
    166       0.8508      0.00000
    167       0.8615      0.00000
    168       0.9050      0.00000
    169       0.9381      0.00000
    170       0.9973      0.00000
    171       1.0315      0.00000
    172       1.0414      0.00000


--------------------------------------------------------------------------------------------------------


 soft charge-density along one line, spin component           1
         0         1         2         3         4         5         6         7         8         9
 total charge-density along one line
 
 soft charge-density along one line, spin component           2
         0         1         2         3         4         5         6         7         8         9
 total charge-density along one line
 
 pseudopotential strength for first ion, spin component:           1
-10.235  -0.007  -0.005   0.000  -0.002 -10.213  -0.007  -0.005
 -0.007 -10.237   0.002   0.004  -0.003  -0.007 -10.215   0.002
 -0.005   0.002 -10.239  -0.004   0.008  -0.005   0.002 -10.217
  0.000   0.004  -0.004 -10.245  -0.013   0.000   0.004  -0.004
 -0.002  -0.003   0.008  -0.013 -10.235  -0.002  -0.003   0.007
-10.213  -0.007  -0.005   0.000  -0.002 -10.166  -0.006  -0.005
 -0.007 -10.215   0.002   0.004  -0.003  -0.006 -10.168   0.002
 -0.005   0.002 -10.217  -0.004   0.007  -0.005   0.002 -10.171
  0.000   0.004  -0.004 -10.223  -0.013   0.000   0.004  -0.004
 -0.002  -0.003   0.007  -0.013 -10.213  -0.002  -0.003   0.007
 -0.004   0.001   0.002   0.004   0.002  -0.004   0.001   0.002
 -0.006   0.002   0.003   0.007   0.003  -0.006   0.002   0.003
  0.024   0.021   0.003   0.000   0.005   0.023   0.020   0.003
  0.000  -0.006   0.025   0.024  -0.000   0.000  -0.005   0.024
 -0.005   0.000  -0.014   0.021   0.024  -0.005   0.000  -0.013
  0.029   0.026   0.003   0.000   0.006   0.028   0.025   0.003
  0.000  -0.007   0.030   0.029  -0.000   0.000  -0.006   0.028
 -0.006   0.000  -0.017   0.025   0.029  -0.006   0.000  -0.016
 pseudopotential strength for first ion, spin component:           2
-10.235  -0.007  -0.005   0.000  -0.002 -10.213  -0.007  -0.005
 -0.007 -10.237   0.002   0.004  -0.003  -0.007 -10.215   0.002
 -0.005   0.002 -10.239  -0.004   0.008  -0.005   0.002 -10.217
  0.000   0.004  -0.004 -10.245  -0.013   0.000   0.004  -0.004
 -0.002  -0.003   0.008  -0.013 -10.235  -0.002  -0.003   0.007
-10.213  -0.007  -0.005   0.000  -0.002 -10.166  -0.006  -0.005
 -0.007 -10.215   0.002   0.004  -0.003  -0.006 -10.168   0.002
 -0.005   0.002 -10.217  -0.004   0.007  -0.005   0.002 -10.171
  0.000   0.004  -0.004 -10.223  -0.013   0.000   0.004  -0.004
 -0.002  -0.003   0.007  -0.013 -10.213  -0.002  -0.003   0.007
 -0.004   0.001   0.002   0.004   0.002  -0.004   0.001   0.002
 -0.006   0.002   0.003   0.007   0.003  -0.006   0.002   0.003
  0.024   0.021   0.003   0.000   0.005   0.023   0.020   0.003
  0.000  -0.006   0.025   0.024  -0.000   0.000  -0.005   0.024
 -0.005   0.000  -0.014   0.021   0.024  -0.005   0.000  -0.013
  0.029   0.026   0.003   0.000   0.006   0.028   0.025   0.003
  0.000  -0.007   0.030   0.029  -0.000   0.000  -0.006   0.028
 -0.006   0.000  -0.017   0.025   0.029  -0.006   0.000  -0.016
 total augmentation occupancy for first ion, spin component:           1
  2.544   0.141   0.166  -0.031  -0.046  -0.542  -0.128  -0.198  -0.005   0.018   0.374  -0.063   0.102   0.020  -0.071   0.008
  0.141   2.474   0.088  -0.005   0.008  -0.128  -0.525  -0.081   0.034  -0.008  -0.188  -0.009   0.081   0.013  -0.009   0.008
  0.166   0.088   2.753   0.096  -0.022  -0.198  -0.081  -0.730  -0.088   0.052  -0.150   0.046   0.073   0.137  -0.048  -0.001
 -0.031  -0.005   0.096   2.492   0.046  -0.006   0.034  -0.088  -0.524  -0.119  -0.333   0.095   0.006   0.080   0.062   0.000
 -0.046   0.008  -0.022   0.046   2.499   0.018  -0.008   0.052  -0.119  -0.473  -0.126   0.032   0.011   0.001   0.054   0.004
 -0.542  -0.128  -0.198  -0.006   0.018   0.520   0.117   0.226   0.036   0.006  -0.333   0.060  -0.121  -0.021   0.076   0.007
 -0.128  -0.525  -0.081   0.034  -0.008   0.117   0.544   0.076  -0.058   0.008   0.173  -0.001  -0.105  -0.007   0.003   0.006
 -0.198  -0.081  -0.730  -0.088   0.052   0.226   0.076   0.685   0.082  -0.079   0.133  -0.041  -0.077  -0.159   0.065   0.004
 -0.005   0.034  -0.088  -0.524  -0.119   0.036  -0.058   0.082   0.530   0.181   0.279  -0.073  -0.009  -0.096  -0.092   0.000
  0.018  -0.008   0.052  -0.119  -0.473   0.006   0.008  -0.079   0.181   0.425   0.095  -0.018  -0.023  -0.002  -0.082   0.001
  0.374  -0.188  -0.150  -0.333  -0.126  -0.333   0.173   0.133   0.279   0.095   1.785  -0.209   0.058  -0.184  -0.168  -0.005
 -0.063  -0.009   0.046   0.095   0.032   0.060  -0.001  -0.041  -0.073  -0.018  -0.209   0.042  -0.014   0.038   0.029   0.001
  0.102   0.081   0.073   0.006   0.011  -0.121  -0.105  -0.077  -0.009  -0.023   0.058  -0.014   0.056   0.014  -0.020  -0.003
  0.020   0.013   0.137   0.080   0.001  -0.021  -0.007  -0.159  -0.096  -0.002  -0.184   0.038   0.014   0.070   0.006  -0.000
 -0.071  -0.009  -0.048   0.062   0.054   0.076   0.003   0.065  -0.092  -0.082  -0.168   0.029  -0.020   0.006   0.050   0.001
  0.008   0.008  -0.001   0.000   0.004   0.007   0.006   0.004   0.000   0.001  -0.005   0.001  -0.003  -0.000   0.001   0.000
  0.000  -0.004   0.007   0.007  -0.001   0.000   0.000   0.010   0.007   0.001   0.017  -0.003  -0.000  -0.005  -0.001  -0.000
  0.001   0.000  -0.007   0.007   0.011  -0.005   0.000  -0.003   0.008   0.005   0.015  -0.002   0.001  -0.001  -0.004  -0.000
 total augmentation occupancy for first ion, spin component:           2
  0.000  -0.000  -0.000  -0.000  -0.000  -0.000   0.000   0.000  -0.000   0.000  -0.000   0.000   0.000  -0.000   0.000  -0.000
 -0.000   0.000  -0.000  -0.000  -0.000   0.000  -0.000   0.000   0.000   0.000   0.000  -0.000  -0.000   0.000   0.000   0.000
 -0.000  -0.000   0.000  -0.000  -0.000   0.000   0.000  -0.000  -0.000   0.000   0.000  -0.000   0.000   0.000   0.000  -0.000
 -0.000  -0.000  -0.000  -0.000   0.000   0.000   0.000  -0.000   0.000  -0.000  -0.000   0.000  -0.000   0.000   0.000   0.000
 -0.000  -0.000  -0.000   0.000  -0.000   0.000   0.000   0.000  -0.000   0.000   0.000  -0.000   0.000   0.000  -0.000  -0.000
 -0.000   0.000   0.000   0.000   0.000  -0.000  -0.000  -0.000   0.000  -0.000   0.000  -0.000   0.000   0.000  -0.000  -0.000
  0.000  -0.000   0.000   0.000   0.000  -0.000  -0.000  -0.000  -0.000  -0.000  -0.000   0.000   0.000   0.000  -0.000  -0.000
  0.000   0.000  -0.000  -0.000   0.000  -0.000  -0.000   0.000   0.000  -0.000  -0.000   0.000  -0.000   0.000  -0.000   0.000
 -0.000   0.000  -0.000   0.000  -0.000   0.000  -0.000   0.000  -0.000   0.000   0.000  -0.000   0.000  -0.000  -0.000  -0.000
  0.000   0.000   0.000  -0.000   0.000  -0.000  -0.000  -0.000   0.000  -0.000  -0.000   0.000  -0.000  -0.000   0.000   0.000
 -0.000   0.000   0.000  -0.000   0.000   0.000  -0.000  -0.000   0.000  -0.000  -0.000   0.000  -0.000  -0.000  -0.000   0.000
  0.000  -0.000  -0.000   0.000  -0.000  -0.000   0.000   0.000  -0.000   0.000   0.000  -0.000   0.000   0.000   0.000  -0.000
  0.000  -0.000   0.000  -0.000   0.000   0.000   0.000  -0.000   0.000  -0.000  -0.000   0.000  -0.000  -0.000   0.000   0.000
 -0.000   0.000   0.000   0.000   0.000   0.000   0.000   0.000  -0.000  -0.000  -0.000   0.000  -0.000  -0.000   0.000   0.000
  0.000   0.000   0.000   0.000  -0.000  -0.000  -0.000  -0.000  -0.000   0.000  -0.000   0.000   0.000   0.000   0.000   0.000
 -0.000   0.000  -0.000   0.000  -0.000  -0.000  -0.000   0.000  -0.000   0.000   0.000  -0.000   0.000   0.000   0.000  -0.000
  0.000  -0.000  -0.000  -0.000  -0.000  -0.000   0.000  -0.000   0.000   0.000   0.000  -0.000   0.000   0.000   0.000  -0.000
 -0.000  -0.000  -0.000  -0.000   0.000   0.000   0.000   0.000   0.000  -0.000   0.000  -0.000   0.000  -0.000  -0.000  -0.000


------------------------ aborting loop because EDIFF is reached ----------------------------------------


    CHARGE:  cpu time    0.09: real time    0.09
    FORLOC:  cpu time    0.02: real time    0.01
    FORNL :  cpu time    1.61: real time    1.61
    STRESS:  cpu time    1.98: real time    1.99
    FORCOR:  cpu time    0.23: real time    0.23
    FORHAR:  cpu time    0.04: real time    0.04
    MIXING:  cpu time    0.00: real time    0.01
    OFIELD:  cpu time    0.00: real time    0.00

  FORCE on cell =-STRESS in cart. coord.  units (eV):
  Direction    XX          YY          ZZ          XY          YZ          ZX
  --------------------------------------------------------------------------------------
  Alpha Z    55.02925    55.02925    55.02925
  Ewald   13454.77144 12711.55701 18225.13584 -1363.55817 -3184.56684  3483.91027
  Hartree 21426.15713 20903.50712 25917.59374 -1244.41641 -2951.45599  3109.53955
  E(xc)   -1391.35299 -1392.19111 -1390.89169    -0.31704    -0.30773     0.92268
  Local  -38780.93086-37529.93309-48049.64362  2611.22162  6134.44710 -6588.19182
  n-local  -257.17954  -255.46264  -255.00372    -1.40404    -0.52577     0.82893
  augment  2202.58979  2206.82162  2203.88661    -0.32380     0.84589    -2.21173
  Kinetic  3283.18882  3292.62215  3286.05488    -1.34068     1.62734    -4.74377
  Fock        0.00000     0.00000     0.00000     0.00000     0.00000     0.00000
  -------------------------------------------------------------------------------------
  Total      -7.72696    -8.04968    -7.83872    -0.13852     0.06401     0.05411
  in kB      -1.39052    -1.44859    -1.41063    -0.02493     0.01152     0.00974
  external pressure =       -1.42 kB  Pullay stress =        0.00 kB


 VOLUME and BASIS-vectors are now :
 -----------------------------------------------------------------------------
  energy-cutoff  :      249.84
  volume of cell :     8903.14
      direct lattice vectors                 reciprocal lattice vectors
    20.725946158  0.000000000  0.000000000     0.048248702  0.000000000  0.000000000
     0.000000000 20.725946158  0.000000000     0.000000000  0.048248702  0.000000000
     0.000000000  0.000000000 20.725946158     0.000000000  0.000000000  0.048248702

  length of vectors
    20.725946158 20.725946158 20.725946158     0.048248702  0.048248702  0.048248702


 FORCES acting on ions
    electron-ion (+dipol)            ewald-force                    non-local-force                 convergence-correction
 -----------------------------------------------------------------------------------------------
   -.773E+03 0.437E+03 -.932E+03   0.769E+03 -.436E+03 0.928E+03   0.423E+01 -.109E+01 0.410E+01   -.179E-01 -.530E-02 0.253E-02
   -.109E+04 -.824E+02 -.259E+03   0.109E+04 0.823E+02 0.257E+03   0.198E+01 0.982E-01 0.214E+01   -.442E-02 0.147E-01 -.407E-03
   -.121E+04 -.318E+03 0.571E+03   0.121E+04 0.316E+03 -.569E+03   0.466E+01 0.160E+01 -.193E+01   0.108E-01 0.112E-01 -.224E-02
   -.166E+03 -.185E+03 -.126E+04   0.167E+03 0.184E+03 0.126E+04   -.630E+00 0.131E+01 0.270E+01   -.153E-01 -.661E-02 -.312E-01
   -.935E+03 0.922E+03 -.126E+03   0.931E+03 -.920E+03 0.127E+03   0.408E+01 -.269E+01 -.903E+00   0.661E-02 0.416E-01 -.144E-01
   -.850E+03 0.705E+03 0.642E+03   0.848E+03 -.704E+03 -.642E+03   0.168E+01 -.130E+01 -.650E-01   0.229E-01 -.154E-01 -.296E-01
   -.766E+03 -.836E+03 -.707E+03   0.762E+03 0.834E+03 0.704E+03   0.463E+01 0.282E+01 0.280E+01   0.635E-03 0.427E-03 0.117E-01
   -.545E+01 0.775E+03 -.746E+03   0.497E+01 -.774E+03 0.746E+03   0.479E+00 -.114E+01 0.710E+00   -.115E-01 0.719E-02 -.103E-01
   -.650E+02 -.419E+02 0.482E+02   0.649E+02 0.419E+02 -.474E+02   0.598E-01 0.520E-02 -.811E+00   0.932E-02 0.168E-02 -.822E-02
   -.440E+03 0.335E+03 0.118E+04   0.438E+03 -.333E+03 -.118E+04   0.186E+01 -.134E+01 -.243E+01   0.524E-02 -.116E-01 0.117E-02
   -.644E+03 -.115E+04 -.187E+02   0.642E+03 0.115E+04 0.186E+02   0.190E+01 0.249E+01 0.130E+00   0.166E-01 0.606E-02 0.118E-02
   -.196E+02 0.134E+04 0.132E+03   0.199E+02 -.134E+04 -.132E+03   -.373E+00 -.509E+01 0.436E-01   0.109E-01 0.158E-01 -.115E-01
   -.452E+03 -.883E+03 0.769E+03   0.452E+03 0.882E+03 -.767E+03   0.574E+00 0.144E+01 -.245E+01   0.200E-01 -.378E-02 0.639E-02
   0.619E+03 0.816E+02 -.114E+04   -.618E+03 -.814E+02 0.113E+04   -.164E+01 -.166E+00 0.353E+01   -.269E-01 -.126E-01 0.387E-02
   0.287E+03 -.892E+03 -.811E+03   -.287E+03 0.891E+03 0.809E+03   -.193E+00 0.794E+00 0.205E+01   0.658E-02 -.144E-01 0.897E-02
   0.339E+03 0.919E+03 0.828E+03   -.338E+03 -.918E+03 -.825E+03   -.136E+01 -.154E+01 -.229E+01   -.738E-02 0.132E-01 0.254E-01
   0.643E+03 0.966E+03 -.279E+03   -.641E+03 -.965E+03 0.279E+03   -.195E+01 -.539E+00 -.203E-01   -.543E-01 -.268E-01 0.174E-01
   0.205E+03 -.147E+03 0.123E+04   -.204E+03 0.146E+03 -.122E+04   -.126E+01 0.831E+00 -.593E+01   0.654E-02 -.140E-01 -.186E-02
   0.521E+03 -.118E+04 -.103E+03   -.520E+03 0.118E+04 0.101E+03   -.116E+01 0.276E+01 0.204E+01   0.128E-01 0.787E-02 -.152E-02
   0.102E+04 -.500E+03 -.271E+03   -.102E+04 0.500E+03 0.272E+03   -.218E+01 0.230E+00 -.350E+00   -.457E-02 -.337E-01 0.160E-01
   0.803E+03 -.652E+02 0.703E+03   -.802E+03 0.647E+02 -.703E+03   -.695E+00 0.533E+00 -.465E+00   -.477E-02 -.154E-02 0.117E-01
   0.116E+04 0.259E+03 -.550E+03   -.115E+04 -.257E+03 0.547E+03   -.522E+01 -.146E+01 0.313E+01   -.570E-02 0.155E-01 -.133E-01
   0.650E+03 -.912E+03 0.615E+03   -.647E+03 0.908E+03 -.612E+03   -.321E+01 0.376E+01 -.318E+01   0.125E-01 0.120E-02 0.349E-02
   0.117E+04 0.453E+03 0.487E+03   -.117E+04 -.452E+03 -.484E+03   -.468E+01 -.163E+01 -.322E+01   0.158E-01 0.705E-02 0.192E-01
 -----------------------------------------------------------------------------------------------
   -.156E+01 -.577E+00 0.817E+00   -.682E-12 0.341E-12 0.455E-12   0.158E+01 0.693E+00 -.671E+00   0.449E-02 -.222E-02 0.419E-02
 
 
 POSITION                                       TOTAL-FORCE (eV/Angst)
 -----------------------------------------------------------------------------------
     13.52442      8.76727     14.21043        -0.003527     -0.002425      0.001521
     13.19816     10.41317     11.81700        -0.001910      0.005749     -0.001506
     13.20383     11.40055      9.12328         0.003090     -0.008207     -0.000952
     11.66189     10.80282     14.44440        -0.004005     -0.003371     -0.000409
     13.54691      7.50637     11.70518         0.004677      0.014310     -0.004433
     12.59928      8.74627      9.35998         0.004382      0.009982     -0.011879
     12.95080     12.90352     13.18198         0.000858      0.003571      0.002497
     11.22145      8.59236     12.73802        -0.015610     -0.002695     -0.009858
     10.77399     10.76952     10.36924         0.003747      0.002461     -0.002017
     11.37364     10.28750      7.24503        -0.000695     -0.002378      0.001410
     12.07825     13.41430     10.62513         0.003969     -0.000063      0.007716
     11.05783      6.80110     10.56253        -0.001142      0.004218      0.001775
     11.09236     12.99228      7.99544        -0.001852     -0.005329     -0.002183
      9.04572     10.16632     13.51107        -0.002426     -0.004507      0.004948
     10.28832     12.51130     12.58367        -0.003465     -0.003807     -0.006608
      9.79931      8.56439      8.75200         0.000285      0.002858      0.006884
      8.86285      8.38758     11.37127         0.012558     -0.024339      0.012302
      9.63254     11.91715      5.78445         0.001278     -0.002288      0.005881
      9.33087     13.62839     10.07919         0.001531     -0.008193      0.007216
      8.11750     11.38072     11.16208         0.021603      0.021423     -0.004448
      8.78659     11.27397      8.31919         0.002839      0.008201     -0.001969
      6.49737      9.53718     12.35396        -0.023521     -0.002577      0.008436
      8.48827     13.93696      7.47764         0.006357     -0.000808     -0.002966
      7.09538      9.36159      9.54089        -0.009021     -0.001788     -0.011358
 -----------------------------------------------------------------------------------
    total drift:                                0.024186      0.113729      0.150309


--------------------------------------------------------------------------------------------------------



  FREE ENERGIE OF THE ION-ELECTRON SYSTEM (eV)
  ---------------------------------------------------
  free  energy   TOTEN  =       -48.79734473 eV

  energy  without entropy=      -48.79734473  energy(sigma->0) =      -48.79734473
 
 d Force = 0.4095029E-04[ 0.203E-04, 0.616E-04]  d Energy = 0.1136618E-03-0.727E-04
 d Force =-0.9451161E+00[-0.945E+00,-0.945E+00]  d Ewald  =-0.9451163E+00 0.134E-06


--------------------------------------------------------------------------------------------------------


    POTLOK:  cpu time    0.24: real time    0.24


--------------------------------------------------------------------------------------------------------




--------------------------------------------------------------------------------------------------------


  
 reached required accuracy - stopping structural energy minimisation
     LOOP+:  cpu time    9.86: real time    9.90
    4ORBIT:  cpu time    0.00: real time    0.00

 total amount of memory used by VASP on root node    59825. kBytes
========================================================================

   base      :      30000. kBytes
   nonl-proj :       2637. kBytes
   fftplans  :       5778. kBytes
   grid      :      14451. kBytes
   one-center:         46. kBytes
   wavefun   :       6913. kBytes
 
  
  
 General timing and accounting informations for this job:
 ========================================================
  
                  Total CPU time used (sec):      988.022
                            User time (sec):      981.621
                          System time (sec):        6.400
                         Elapsed time (sec):     1006.871
  
                   Maximum memory used (kb):       69372.
                   Average memory used (kb):           0.
  
                          Minor page faults:      1077424
                          Major page faults:            0
                 Voluntary context switches:         9415
