 vasp.5.3.5 31Mar14 (build Feb 01 2018 12:10:03) gamma-only                     
  
 executed on             LinuxIFC date 2019.04.02  05:05:46
 running on   32 total cores
 distrk:  each k-point on   32 cores,    1 groups
 distr:  one band on NCORES_PER_BAND=   8 cores,    4 groups


--------------------------------------------------------------------------------------------------------


 INCAR:
 POTCAR:    PAW_PBE Cu 22Jun2005                  
 POTCAR:    PAW_PBE Cu 22Jun2005                  
   VRHFIN =Cu: d10 p1                                                           
   LEXCH  = PE                                                                  
   EATOM  =  1390.9808 eV,  102.2342 Ry                                         
                                                                                
   TITEL  = PAW_PBE Cu 22Jun2005                                                
   LULTRA =        F    use ultrasoft PP ?                                      
   IUNSCR =        1    unscreen: 0-lin 1-nonlin 2-no                           
   RPACOR =    2.000    partial core radius                                     
   POMASS =   63.546; ZVAL   =   11.000    mass and valenz                      
   RCORE  =    2.300    outmost cutoff radius                                   
   RWIGS  =    2.200; RWIGS  =    1.164    wigner-seitz radius (au A)           
   ENMAX  =  295.446; ENMIN  =  221.585 eV                                      
   ICORE  =        3    local potential                                         
   LCOR   =        T    correct aug charges                                     
   LPAW   =        T    paw PP                                                  
   EAUG   =  586.980                                                            
   DEXC   =    0.000                                                            
   RMAX   =    2.344    core radius for proj-oper                               
   RAUG   =    1.300    factor for augmentation sphere                          
   RDEP   =    2.302    radius for radial grids                                 
   RDEPT  =    1.771    core radius for aug-charge                              
                                                                                
   Atomic configuration                                                         
    9 entries                                                                   
     n  l   j            E        occ.                                          
     1  0  0.50     -8850.2468   2.0000                                         
     2  0  0.50     -1062.3498   2.0000                                         
     2  1  1.50      -916.8226   6.0000                                         
     3  0  0.50      -114.6929   2.0000                                         
     3  1  1.50       -72.1325   6.0000                                         
     3  2  2.50        -5.0394  10.0000                                         
     4  0  0.50        -4.6097   1.0000                                         
     4  1  0.50        -4.0817   0.0000                                         
     4  3  2.50        -1.3606   0.0000                                         
   Description                                                                  
     l       E           TYP  RCUT    TYP  RCUT                                 
     2     -5.0393973     23  2.200                                             
     2     10.8846608     23  2.200                                             
     0     -4.6097109     23  2.200                                             
     0      8.2520465     23  2.200                                             
     1     -2.7211652     23  2.200                                             
     1     21.7055443     23  2.200                                             
     3      2.7211652     23  2.300                                             
  local pseudopotential read in
  partial core-charges read in
  partial kinetic energy density read in
  atomic valenz-charges read in
  non local Contribution for L=           2  read in
    real space projection operators read in
  non local Contribution for L=           2  read in
    real space projection operators read in
  non local Contribution for L=           0  read in
    real space projection operators read in
  non local Contribution for L=           0  read in
    real space projection operators read in
  non local Contribution for L=           1  read in
    real space projection operators read in
  non local Contribution for L=           1  read in
    real space projection operators read in
    PAW grid and wavefunctions read in
 
   number of l-projection  operators is LMAX  =           6
   number of lm-projection operators is LMMAX =          18
 
  PAW_PBE Cu 22Jun2005                  :
 energy of atom  1       EATOM=-1390.9808
 kinetic energy error for atom=    0.0452 (will be added to EATOM!!)
 
 
 POSCAR: Cu11, -935.0 <s> Cu </s>                
  positions in direct lattice
  No initial velocities read in
 exchange correlation table for  LEXCH =        8
   RHO(1)=    0.500       N(1)  =     2000
   RHO(2)=  100.500       N(2)  =     4000
 


--------------------------------------------------------------------------------------------------------


 ion  position               nearest neighbor table
   1  0.477  0.481  0.407-   8 2.44   9 2.44   4 2.49   5 2.49   2 2.50  11 2.50
   2  0.546  0.445  0.513-   7 2.41   5 2.41   8 2.42  10 2.46   1 2.50   3 2.50   9 2.55  11 2.71

   3  0.471  0.485  0.614-  11 2.41   8 2.41   6 2.47   7 2.48   2 2.50
   4  0.358  0.521  0.445-   8 2.40  11 2.41   6 2.43   1 2.49
   5  0.604  0.448  0.400-   9 2.40   2 2.41  10 2.43   1 2.49
   6  0.352  0.521  0.574-   4 2.43   8 2.43  11 2.46   3 2.47
   7  0.575  0.553  0.575-   2 2.41   9 2.41  10 2.47   3 2.48  11 2.49
   8  0.419  0.431  0.511-   4 2.40   3 2.41   2 2.42   6 2.43   1 2.44  11 2.55
   9  0.571  0.560  0.448-   5 2.40   7 2.41  11 2.42  10 2.43   1 2.44   2 2.55
  10  0.666  0.494  0.502-   5 2.43   9 2.43   2 2.46   7 2.47
  11  0.460  0.560  0.512-   3 2.41   4 2.41   9 2.42   6 2.46   7 2.49   1 2.50   8 2.55   2 2.71

 
  LATTYP: Found a simple cubic cell.
 ALAT       =    18.9383200000
  
  Lattice vectors:
  
 A1 = (  18.9383200000,   0.0000000000,   0.0000000000)
 A2 = (   0.0000000000,  18.9383200000,   0.0000000000)
 A3 = (   0.0000000000,   0.0000000000,  18.9383200000)


Analysis of symmetry for initial positions (statically):
=====================================================================
 Subroutine PRICEL returns:
 Original cell was already a primitive cell.
 

 Routine SETGRP: Setting up the symmetry group for a 
 simple cubic supercell.


 Subroutine GETGRP returns: Found  1 space group operations
 (whereof  1 operations were pure point group operations)
 out of a pool of 48 trial point group operations.


The static configuration has the point symmetry C_1 .


Analysis of symmetry for dynamics (positions and initial velocities):
=====================================================================
 Subroutine PRICEL returns:
 Original cell was already a primitive cell.
 

 Routine SETGRP: Setting up the symmetry group for a 
 simple cubic supercell.


 Subroutine GETGRP returns: Found  1 space group operations
 (whereof  1 operations were pure point group operations)
 out of a pool of 48 trial point group operations.


The dynamic configuration has the point symmetry C_1 .


Analysis of magnetic symmetry:
=====================================================================
 Subroutine PRICEL returns:
 Original cell was already a primitive cell.
 

 Subroutine MAGSYM returns: Found  1 space group operations
 (whereof  1 operations were pure point group operations)
 out of a pool of  1 trial space group operations
 (whereof  1 operations were pure point group operations)
 and found also     1 'primitive' translations


The magnetic configuration has the point symmetry C_1 .
 
 
 KPOINTS: Gamma-point only                        
  k-points in reciprocal lattice
Space group operators:
 irot       det(A)        alpha          n_x          n_y          n_z        tau_x        tau_y        tau_z
    1     1.000000     0.000000     1.000000     0.000000     0.000000     0.000000     0.000000     0.000000


--------------------------------------------------------------------------------------------------------




 Dimension of arrays:
   k-points           NKPTS =      1   k-points in BZ     NKDIM =      1   number of bands    NBANDS=     80
   number of dos      NEDOS =    301   number of ions     NIONS =     11
   non local maximal  LDIM  =      6   non local SUM 2l+1 LMDIM =     18
   total plane-waves  NPLWV = 512000
   max r-space proj   IRMAX =      1   max aug-charges    IRDMAX=   2383
   dimension x,y,z NGX =    80 NGY =   80 NGZ =   80
   dimension x,y,z NGXF=   160 NGYF=  160 NGZF=  160
   support grid    NGXF=   160 NGYF=  160 NGZF=  160
   ions per type =              11
 NGX,Y,Z   is equivalent  to a cutoff of   7.02,  7.02,  7.02 a.u.
 NGXF,Y,Z  is equivalent  to a cutoff of  14.05, 14.05, 14.05 a.u.


 I would recommend the setting:
   dimension x,y,z NGX =    80 NGY =   80 NGZ =   80
 SYSTEM =  unknown system                          
 POSCAR =  Cu11, -935.0 <s> Cu </s>                

 Startparameter for this run:
   NWRITE =      2    write-flag & timer
   PREC   = normal    normal or accurate (medium, high low for compatibility)
   ISTART =      0    job   : 0-new  1-cont  2-samecut
   ICHARG =      2    charge: 1-file 2-atom 10-const
   ISPIN  =      2    spin polarized calculation?
   LNONCOLLINEAR =      F non collinear calculations
   LSORBIT =      F    spin-orbit coupling
   INIWAV =      1    electr: 0-lowe 1-rand  2-diag
   LASPH  =      F    aspherical Exc in radial PAW
   METAGGA=      F    non-selfconsistent MetaGGA calc.

 Electronic Relaxation 1
   ENCUT  =  295.4 eV  21.71 Ry    4.66 a.u.  26.54 26.54 26.54*2*pi/ulx,y,z
   ENINI  =  295.4     initial cutoff
   ENAUG  =  587.0 eV  augmentation charge cutoff
   NELM   =     60;   NELMIN=  2; NELMDL= -5     # of ELM steps 
   EDIFF  = 0.1E-03   stopping-criterion for ELM
   LREAL  =      F    real-space projection
   NLSPLINE    = F    spline interpolate recip. space projectors
   LCOMPAT=      F    compatible to vasp.4.4
   GGA_COMPAT  = T    GGA compatible to vasp.4.4-vasp.4.6
   LMAXPAW     = -100 max onsite density
   LMAXMIX     =    2 max onsite mixed and CHGCAR
   VOSKOWN=      0    Vosko Wilk Nusair interpolation
   ROPT   =    0.00000
 Ionic relaxation
   EDIFFG = 0.1E-02   stopping-criterion for IOM
   NSW    =   1000    number of steps for IOM
   NBLOCK =      1;   KBLOCK =   1000    inner block; outer block 
   IBRION =      2    ionic relax: 0-MD 1-quasi-New 2-CG
   NFREE  =      1    steps in history (QN), initial steepest desc. (CG)
   ISIF   =      2    stress and relaxation
   IWAVPR =     11    prediction:  0-non 1-charg 2-wave 3-comb
   ISYM   =      2    0-nonsym 1-usesym 2-fastsym
   LCORR  =      T    Harris-Foulkes like correction to forces

   POTIM  = 0.1000    time-step for ionic-motion
   TEIN   =    0.0    initial temperature
   TEBEG  =    0.0;   TEEND  =   0.0 temperature during run
   SMASS  =  -3.00    Nose mass-parameter (am)
   estimated Nose-frequenzy (Omega)   =  0.10E-29 period in steps =****** mass=  -0.820E-26a.u.
   SCALEE = 1.0000    scale energy and forces
   NPACO  =    256;   APACO  = 16.0  distance and # of slots for P.C.
   PSTRESS=    0.0 pullay stress

  Mass of Ions in am
   POMASS =  63.55
  Ionic Valenz
   ZVAL   =  11.00
  Atomic Wigner-Seitz radii
   RWIGS  =  -1.00
  virtual crystal weights 
   VCA    =   1.00
   NELECT =     121.0000    total number of electrons
   NUPDOWN=      -1.0000    fix difference up-down

 DOS related values:
   EMIN   =  10.00;   EMAX   =-10.00  energy-range for DOS
   EFERMI =   0.00
   ISMEAR =     0;   SIGMA  =   0.00  broadening in eV -4-tet -1-fermi 0-gaus

 Electronic relaxation 2 (details)
   IALGO  =     38    algorithm
   LDIAG  =      T    sub-space diagonalisation (order eigenvalues)
   LSUBROT=      F    optimize rotation matrix (better conditioning)
   TURBO    =      0    0=normal 1=particle mesh
   IRESTART =      0    0=no restart 2=restart with 2 vectors
   NREBOOT  =      0    no. of reboots
   NMIN     =      0    reboot dimension
   EREF     =   0.00    reference energy to select bands
   IMIX   =      4    mixing-type and parameters
     AMIX     =   0.40;   BMIX     =  1.00
     AMIX_MAG =   1.60;   BMIX_MAG =  1.00
     AMIN     =   0.10
     WC   =   100.;   INIMIX=   1;  MIXPRE=   1;  MAXMIX= -45

 Intra band minimization:
   WEIMIN = 0.0010     energy-eigenvalue tresh-hold
   EBREAK =  0.31E-06  absolut break condition
   DEPER  =   0.30     relativ break condition  

   TIME   =   0.40     timestep for ELM

  volume/ion in A,a.u.               =     617.49      4167.04
  Fermi-wavevector in a.u.,A,eV,Ry     =   0.427558  0.807968  2.487226  0.182806
  Thomas-Fermi vector in A             =   1.394285
 
 Write flags
   LWAVE  =      F    write WAVECAR
   LCHARG =      F    write CHGCAR
   LVTOT  =      F    write LOCPOT, total local potential
   LVHAR  =      F    write LOCPOT, Hartree potential only
   LELF   =      F    write electronic localiz. function (ELF)
   LORBIT =      0    0 simple, 1 ext, 2 COOP (PROOUT)


 Dipole corrections
   LMONO  =      F    monopole corrections only (constant potential shift)
   LDIPOL =      F    correct potential (dipole corrections)
   IDIPOL =      0    1-x, 2-y, 3-z, 4-all directions 
   EPSILON=  1.0000000 bulk dielectric constant

 Exchange correlation treatment:
   GGA     =    PE    GGA type
   LEXCH   =     8    internal setting for exchange type
   VOSKOWN=      0    Vosko Wilk Nusair interpolation
   LHFCALC =     F    Hartree Fock is set to
   LHFONE  =     F    Hartree Fock one center treatment
   AEXX    =    0.0000 exact exchange contribution

 Linear response parameters
   LEPSILON=     F    determine dielectric tensor
   LRPA    =     F    only Hartree local field effects (RPA)
   LNABLA  =     F    use nabla operator in PAW spheres
   LVEL    =     F    velocity operator in full k-point grid
   LINTERFAST=   F  fast interpolation
   KINTER  =     0    interpolate to denser k-point grid
   CSHIFT  =0.1000    complex shift for real part using Kramers Kronig
   OMEGAMAX=  -1.0    maximum frequency
   DEG_THRESHOLD= 0.2000000E-02 threshold for treating states as degnerate
   RTIME   =    0.100 relaxation time in fs

 Orbital magnetization related:
   ORBITALMAG=     F  switch on orbital magnetization
   LCHIMAG   =     F  perturbation theory with respect to B field
   DQ        =  0.001000  dq finite difference perturbation B field



--------------------------------------------------------------------------------------------------------


 conjugate gradient relaxation of ions
 charge density and potential will be updated during run
 spin polarized calculation
 Variant of blocked Davidson
 Davidson routine will perform the subspace rotation
 perform sub-space diagonalisation
    after iterative eigenvector-optimisation
 modified Broyden-mixing scheme, WC =      100.0
 initial mixing is a Kerker type mixing with AMIX =  0.4000 and BMIX =      1.0000
 Hartree-type preconditioning will be used
 using additional bands           19
 reciprocal scheme for non local part
 use partial core corrections
 calculate Harris-corrections to forces 
   (improved forces if not selfconsistent)
 use gradient corrections 
 use of overlap-Matrix (Vanderbilt PP)
 Gauss-broadening in eV      SIGMA  =   0.00


--------------------------------------------------------------------------------------------------------


  energy-cutoff  :      295.45
  volume of cell :     6792.42
      direct lattice vectors                 reciprocal lattice vectors
    18.938320000  0.000000000  0.000000000     0.052802994  0.000000000  0.000000000
     0.000000000 18.938320000  0.000000000     0.000000000  0.052802994  0.000000000
     0.000000000  0.000000000 18.938320000     0.000000000  0.000000000  0.052802994

  length of vectors
    18.938320000 18.938320000 18.938320000     0.052802994  0.052802994  0.052802994


 
 k-points in units of 2pi/SCALE and weight: Gamma-point only                        
   0.00000000  0.00000000  0.00000000       1.000
 
 k-points in reciprocal lattice and weights: Gamma-point only                        
   0.00000000  0.00000000  0.00000000       1.000
 
 position of ions in fractional coordinates (direct lattice) 
   0.47726720  0.48118449  0.40683218
   0.54614559  0.44529873  0.51331407
   0.47079587  0.48477151  0.61403805
   0.35809670  0.52128319  0.44535836
   0.60431141  0.44786718  0.39994113
   0.35248744  0.52136351  0.57350938
   0.57525773  0.55288056  0.57488231
   0.41904588  0.43145685  0.51055844
   0.57059221  0.56020217  0.44768987
   0.66604851  0.49412836  0.50232545
   0.45995146  0.55956346  0.51155077
 
 position of ions in cartesian coordinates  (Angst):
   9.03863891  9.11282591  7.70471809
  10.34307991  8.43320991  9.72130609
   8.91608291  9.18075791 11.62884909
   6.78174991  9.87222791  8.43433909
  11.44464291  8.48185191  7.57421309
   6.67551991  9.87374891 10.86130409
  10.89441491 10.47062891 10.88730509
   7.93602491  8.17106791  9.66911909
  10.80605791 10.60928791  8.47849409
  12.61383991  9.35796091  9.51320009
   8.71070791 10.59719191  9.68791209
 


--------------------------------------------------------------------------------------------------------


 use parallel FFT for wavefunctions z direction half grid
 k-point  1 :   0.0000 0.0000 0.0000  plane waves:   39115

 maximum and minimum number of plane-waves per node :      4893     4885

 maximum number of plane-waves:     39115
 maximum index in each direction: 
   IXMAX=   26   IYMAX=   26   IZMAX=   26
   IXMIN=  -26   IYMIN=  -26   IZMIN=    0

 WARNING: aliasing errors must be expected set NGX to 106 to avoid them
 WARNING: aliasing errors must be expected set NGY to 106 to avoid them
 WARNING: aliasing errors must be expected set NGZ to 106 to avoid them
 aliasing errors are usually negligible using standard VASP settings
 and one can safely disregard these warnings

 parallel 3D FFT for wavefunctions:
    minimum data exchange during FFTs selected (reduces bandwidth)
 parallel 3D FFT for charge:
    minimum data exchange during FFTs selected (reduces bandwidth)


 total amount of memory used by VASP on root node    54962. kBytes
========================================================================

   base      :      30000. kBytes
   nonl-proj :       1564. kBytes
   fftplans  :       5777. kBytes
   grid      :      14451. kBytes
   one-center:         31. kBytes
   wavefun   :       3139. kBytes
 
     INWAV:  cpu time    0.00: real time    0.00
 Broyden mixing: mesh for mixing (old mesh)
   NGX = 53   NGY = 53   NGZ = 53
  (NGX  =160   NGY  =160   NGZ  =160)
  gives a total of 148877 points

 initial charge density was supplied:
 charge density of overlapping atoms calculated
 number of electron     121.0000000 magnetization      11.0000000
 keeping initial charge density in first step


--------------------------------------------------------------------------------------------------------


 Maximum index for augmentation-charges          198 (set IRDMAX)


--------------------------------------------------------------------------------------------------------


 First call to EWALD:  gamma=   0.094
 Maximum number of real-space cells 3x 3x 3
 Maximum number of reciprocal cells 3x 3x 3

 FEWALD executed in parallel
    FEWALD:  cpu time    0.00: real time    0.00


----------------------------------------- Iteration    1(   1)  ---------------------------------------


    POTLOK:  cpu time    0.23: real time    0.23
    SETDIJ:  cpu time    0.01: real time    0.01
     EDDAV:  cpu time    0.79: real time    0.79
       DOS:  cpu time    0.00: real time    0.00
    --------------------------------------------
      LOOP:  cpu time    1.03: real time    1.05

 eigenvalue-minimisations  :   320
 total energy-change (2. order) : 0.7939418E+03  (-0.2119289E+04)
 number of electron     121.0000000 magnetization      11.0000000
 augmentation part      121.0000000 magnetization      11.0000000

 Free energy of the ion-electron system (eV)
  ---------------------------------------------------
  alpha Z        PSCENC =        13.02786477
  Ewald energy   TEWEN  =     15856.45887400
  -Hartree energ DENC   =    -29801.40892537
  -exchange      EXHF   =         0.00000000
  -V(xc)+E(xc)   XCENC  =       494.50175393
  PAW double counting   =     13509.07245654   -14673.13024677
  entropy T*S    EENTRO =         0.00000000
  eigenvalues    EBANDS =        95.12863051
  atomic energy  EATOM  =     15300.29143124
  ---------------------------------------------------
  free energy    TOTEN  =       793.94183884 eV

  energy without entropy =      793.94183884  energy(sigma->0) =      793.94183884


--------------------------------------------------------------------------------------------------------




----------------------------------------- Iteration    1(   2)  ---------------------------------------


     EDDAV:  cpu time    0.84: real time    0.84
       DOS:  cpu time    0.00: real time    0.00
    --------------------------------------------
      LOOP:  cpu time    0.84: real time    0.85

 eigenvalue-minimisations  :   352
 total energy-change (2. order) :-0.6719413E+03  (-0.5968580E+03)
 number of electron     121.0000000 magnetization      11.0000000
 augmentation part      121.0000000 magnetization      11.0000000

 Free energy of the ion-electron system (eV)
  ---------------------------------------------------
  alpha Z        PSCENC =        13.02786477
  Ewald energy   TEWEN  =     15856.45887400
  -Hartree energ DENC   =    -29801.40892537
  -exchange      EXHF   =         0.00000000
  -V(xc)+E(xc)   XCENC  =       494.50175393
  PAW double counting   =     13509.07245654   -14673.13024677
  entropy T*S    EENTRO =         0.00000000
  eigenvalues    EBANDS =      -576.81269029
  atomic energy  EATOM  =     15300.29143124
  ---------------------------------------------------
  free energy    TOTEN  =       122.00051804 eV

  energy without entropy =      122.00051804  energy(sigma->0) =      122.00051804


--------------------------------------------------------------------------------------------------------




----------------------------------------- Iteration    1(   3)  ---------------------------------------


     EDDAV:  cpu time    0.90: real time    0.90
       DOS:  cpu time    0.00: real time    0.00
    --------------------------------------------
      LOOP:  cpu time    0.90: real time    0.91

 eigenvalue-minimisations  :   376
 total energy-change (2. order) :-0.1353859E+03  (-0.1261046E+03)
 number of electron     121.0000000 magnetization      11.0000000
 augmentation part      121.0000000 magnetization      11.0000000

 Free energy of the ion-electron system (eV)
  ---------------------------------------------------
  alpha Z        PSCENC =        13.02786477
  Ewald energy   TEWEN  =     15856.45887400
  -Hartree energ DENC   =    -29801.40892537
  -exchange      EXHF   =         0.00000000
  -V(xc)+E(xc)   XCENC  =       494.50175393
  PAW double counting   =     13509.07245654   -14673.13024677
  entropy T*S    EENTRO =         0.00000000
  eigenvalues    EBANDS =      -712.19863838
  atomic energy  EATOM  =     15300.29143124
  ---------------------------------------------------
  free energy    TOTEN  =       -13.38543005 eV

  energy without entropy =      -13.38543005  energy(sigma->0) =      -13.38543005


--------------------------------------------------------------------------------------------------------




----------------------------------------- Iteration    1(   4)  ---------------------------------------


     EDDAV:  cpu time    0.90: real time    0.90
       DOS:  cpu time    0.00: real time    0.00
    --------------------------------------------
      LOOP:  cpu time    0.90: real time    0.91

 eigenvalue-minimisations  :   376
 total energy-change (2. order) :-0.1691902E+02  (-0.1650222E+02)
 number of electron     121.0000000 magnetization      11.0000000
 augmentation part      121.0000000 magnetization      11.0000000

 Free energy of the ion-electron system (eV)
  ---------------------------------------------------
  alpha Z        PSCENC =        13.02786477
  Ewald energy   TEWEN  =     15856.45887400
  -Hartree energ DENC   =    -29801.40892537
  -exchange      EXHF   =         0.00000000
  -V(xc)+E(xc)   XCENC  =       494.50175393
  PAW double counting   =     13509.07245654   -14673.13024677
  entropy T*S    EENTRO =         0.00000000
  eigenvalues    EBANDS =      -729.11765667
  atomic energy  EATOM  =     15300.29143124
  ---------------------------------------------------
  free energy    TOTEN  =       -30.30444834 eV

  energy without entropy =      -30.30444834  energy(sigma->0) =      -30.30444834


--------------------------------------------------------------------------------------------------------




----------------------------------------- Iteration    1(   5)  ---------------------------------------


     EDDAV:  cpu time    0.88: real time    0.88
       DOS:  cpu time    0.00: real time    0.00
    CHARGE:  cpu time    0.06: real time    0.05
    MIXING:  cpu time    0.00: real time    0.01
    --------------------------------------------
      LOOP:  cpu time    0.94: real time    0.95

 eigenvalue-minimisations  :   368
 total energy-change (2. order) :-0.4986115E+00  (-0.4966001E+00)
 number of electron     121.0000047 magnetization       9.4134796
 augmentation part       74.2128649 magnetization       9.5642447

 Broyden mixing:
  rms(total) = 0.25937E+01    rms(broyden)= 0.25930E+01
  rms(prec ) = 0.26939E+01
  weight for this iteration     100.00

 Free energy of the ion-electron system (eV)
  ---------------------------------------------------
  alpha Z        PSCENC =        13.02786477
  Ewald energy   TEWEN  =     15856.45887400
  -Hartree energ DENC   =    -29801.40892537
  -exchange      EXHF   =         0.00000000
  -V(xc)+E(xc)   XCENC  =       494.50175393
  PAW double counting   =     13509.07245654   -14673.13024677
  entropy T*S    EENTRO =         0.00000000
  eigenvalues    EBANDS =      -729.61626819
  atomic energy  EATOM  =     15300.29143124
  ---------------------------------------------------
  free energy    TOTEN  =       -30.80305986 eV

  energy without entropy =      -30.80305986  energy(sigma->0) =      -30.80305986


--------------------------------------------------------------------------------------------------------




----------------------------------------- Iteration    1(   6)  ---------------------------------------


    POTLOK:  cpu time    0.22: real time    0.22
    SETDIJ:  cpu time    0.00: real time    0.01
     EDDAV:  cpu time    0.82: real time    0.83
       DOS:  cpu time    0.00: real time    0.00
    CHARGE:  cpu time    0.05: real time    0.05
    MIXING:  cpu time    0.01: real time    0.01
    --------------------------------------------
      LOOP:  cpu time    1.12: real time    1.12

 eigenvalue-minimisations  :   336
 total energy-change (2. order) : 0.1841240E+02  (-0.1076065E+02)
 number of electron     121.0000051 magnetization       8.4123078
 augmentation part       80.2556491 magnetization       6.3096485

 Broyden mixing:
  rms(total) = 0.11123E+01    rms(broyden)= 0.11117E+01
  rms(prec ) = 0.12192E+01
  weight for this iteration     100.00

 eigenvalues of (default mixing * dielectric matrix)
  average eigenvalue GAMMA=   0.8432
  0.8432

 Free energy of the ion-electron system (eV)
  ---------------------------------------------------
  alpha Z        PSCENC =        13.02786477
  Ewald energy   TEWEN  =     15856.45887400
  -Hartree energ DENC   =    -29630.44296364
  -exchange      EXHF   =         0.00000000
  -V(xc)+E(xc)   XCENC  =       496.38961640
  PAW double counting   =     13675.99526067   -14803.95740934
  entropy T*S    EENTRO =         0.00000000
  eigenvalues    EBANDS =      -920.15333760
  atomic energy  EATOM  =     15300.29143124
  ---------------------------------------------------
  free energy    TOTEN  =       -12.39066350 eV

  energy without entropy =      -12.39066350  energy(sigma->0) =      -12.39066350


--------------------------------------------------------------------------------------------------------




----------------------------------------- Iteration    1(   7)  ---------------------------------------


    POTLOK:  cpu time    0.22: real time    0.22
    SETDIJ:  cpu time    0.01: real time    0.01
     EDDAV:  cpu time    0.91: real time    0.91
       DOS:  cpu time    0.00: real time    0.00
    CHARGE:  cpu time    0.05: real time    0.05
    MIXING:  cpu time    0.01: real time    0.01
    --------------------------------------------
      LOOP:  cpu time    1.20: real time    1.21

 eigenvalue-minimisations  :   384
 total energy-change (2. order) : 0.5538776E+01  (-0.2667872E+01)
 number of electron     121.0000050 magnetization       7.1297625
 augmentation part       77.7363293 magnetization       4.8816317

 Broyden mixing:
  rms(total) = 0.50516E+00    rms(broyden)= 0.50492E+00
  rms(prec ) = 0.53890E+00
  weight for this iteration     100.00

 eigenvalues of (default mixing * dielectric matrix)
  average eigenvalue GAMMA=   0.8825
  0.6439  1.1210

 Free energy of the ion-electron system (eV)
  ---------------------------------------------------
  alpha Z        PSCENC =        13.02786477
  Ewald energy   TEWEN  =     15856.45887400
  -Hartree energ DENC   =    -29767.72989859
  -exchange      EXHF   =         0.00000000
  -V(xc)+E(xc)   XCENC  =       503.88559527
  PAW double counting   =     13953.18741798   -15125.52684173
  entropy T*S    EENTRO =        -0.00000000
  eigenvalues    EBANDS =      -740.44632994
  atomic energy  EATOM  =     15300.29143124
  ---------------------------------------------------
  free energy    TOTEN  =        -6.85188701 eV

  energy without entropy =       -6.85188701  energy(sigma->0) =       -6.85188701


--------------------------------------------------------------------------------------------------------




----------------------------------------- Iteration    1(   8)  ---------------------------------------


    POTLOK:  cpu time    0.22: real time    0.22
    SETDIJ:  cpu time    0.01: real time    0.01
     EDDAV:  cpu time    0.94: real time    0.94
       DOS:  cpu time    0.00: real time    0.00
    CHARGE:  cpu time    0.05: real time    0.05
    MIXING:  cpu time    0.01: real time    0.01
    --------------------------------------------
      LOOP:  cpu time    1.24: real time    1.24

 eigenvalue-minimisations  :   400
 total energy-change (2. order) : 0.1565139E+00  (-0.5267610E+00)
 number of electron     121.0000050 magnetization       6.3639043
 augmentation part       77.4494804 magnetization       4.0510411

 Broyden mixing:
  rms(total) = 0.43469E+00    rms(broyden)= 0.43454E+00
  rms(prec ) = 0.46428E+00
  weight for this iteration     100.00

 eigenvalues of (default mixing * dielectric matrix)
  average eigenvalue GAMMA=   0.8021
  1.2198  0.5932  0.5932

 Free energy of the ion-electron system (eV)
  ---------------------------------------------------
  alpha Z        PSCENC =        13.02786477
  Ewald energy   TEWEN  =     15856.45887400
  -Hartree energ DENC   =    -29798.06170798
  -exchange      EXHF   =         0.00000000
  -V(xc)+E(xc)   XCENC  =       503.95106793
  PAW double counting   =     14144.76605785   -15325.55852201
  entropy T*S    EENTRO =         0.00000000
  eigenvalues    EBANDS =      -701.57043889
  atomic energy  EATOM  =     15300.29143124
  ---------------------------------------------------
  free energy    TOTEN  =        -6.69537309 eV

  energy without entropy =       -6.69537309  energy(sigma->0) =       -6.69537309


--------------------------------------------------------------------------------------------------------




----------------------------------------- Iteration    1(   9)  ---------------------------------------


    POTLOK:  cpu time    0.22: real time    0.22
    SETDIJ:  cpu time    0.01: real time    0.01
     EDDAV:  cpu time    1.00: real time    1.00
       DOS:  cpu time    0.00: real time    0.00
    CHARGE:  cpu time    0.05: real time    0.05
    MIXING:  cpu time    0.01: real time    0.01
    --------------------------------------------
      LOOP:  cpu time    1.29: real time    1.30

 eigenvalue-minimisations  :   432
 total energy-change (2. order) :-0.2001024E+01  (-0.1334141E+00)
 number of electron     121.0000050 magnetization       4.8204946
 augmentation part       77.4312918 magnetization       2.6156621

 Broyden mixing:
  rms(total) = 0.26795E+00    rms(broyden)= 0.26788E+00
  rms(prec ) = 0.27977E+00
  weight for this iteration     100.00

 eigenvalues of (default mixing * dielectric matrix)
  average eigenvalue GAMMA=   1.0041
  1.4175  1.4175  0.4651  0.7163

 Free energy of the ion-electron system (eV)
  ---------------------------------------------------
  alpha Z        PSCENC =        13.02786477
  Ewald energy   TEWEN  =     15856.45887400
  -Hartree energ DENC   =    -29804.06435114
  -exchange      EXHF   =         0.00000000
  -V(xc)+E(xc)   XCENC  =       501.96047625
  PAW double counting   =     14213.79795452   -15395.32591345
  entropy T*S    EENTRO =         0.00000000
  eigenvalues    EBANDS =      -694.84273296
  atomic energy  EATOM  =     15300.29143124
  ---------------------------------------------------
  free energy    TOTEN  =        -8.69639677 eV

  energy without entropy =       -8.69639677  energy(sigma->0) =       -8.69639677


--------------------------------------------------------------------------------------------------------




----------------------------------------- Iteration    1(  10)  ---------------------------------------


    POTLOK:  cpu time    0.22: real time    0.22
    SETDIJ:  cpu time    0.01: real time    0.01
     EDDAV:  cpu time    0.92: real time    0.92
       DOS:  cpu time    0.00: real time    0.00
    CHARGE:  cpu time    0.05: real time    0.05
    MIXING:  cpu time    0.01: real time    0.01
    --------------------------------------------
      LOOP:  cpu time    1.22: real time    1.22

 eigenvalue-minimisations  :   392
 total energy-change (2. order) :-0.7594704E+01  (-0.5438703E+00)
 number of electron     121.0000051 magnetization       4.0825912
 augmentation part       77.8755800 magnetization       2.4312838

 Broyden mixing:
  rms(total) = 0.20670E+00    rms(broyden)= 0.20660E+00
  rms(prec ) = 0.21777E+00
  weight for this iteration     100.00

 eigenvalues of (default mixing * dielectric matrix)
  average eigenvalue GAMMA=   1.0573
  1.7797  1.7797  0.5998  0.5998  0.5276

 Free energy of the ion-electron system (eV)
  ---------------------------------------------------
  alpha Z        PSCENC =        13.02786477
  Ewald energy   TEWEN  =     15856.45887400
  -Hartree energ DENC   =    -29793.35142245
  -exchange      EXHF   =         0.00000000
  -V(xc)+E(xc)   XCENC  =       495.28161762
  PAW double counting   =     14247.54410160   -15423.59223948
  entropy T*S    EENTRO =         0.00000000
  eigenvalues    EBANDS =      -711.95132757
  atomic energy  EATOM  =     15300.29143124
  ---------------------------------------------------
  free energy    TOTEN  =       -16.29110028 eV

  energy without entropy =      -16.29110028  energy(sigma->0) =      -16.29110028


--------------------------------------------------------------------------------------------------------




----------------------------------------- Iteration    1(  11)  ---------------------------------------


    POTLOK:  cpu time    0.22: real time    0.22
    SETDIJ:  cpu time    0.00: real time    0.01
     EDDAV:  cpu time    1.00: real time    1.00
       DOS:  cpu time    0.00: real time    0.00
    CHARGE:  cpu time    0.05: real time    0.05
    MIXING:  cpu time    0.01: real time    0.01
    --------------------------------------------
      LOOP:  cpu time    1.28: real time    1.29

 eigenvalue-minimisations  :   432
 total energy-change (2. order) :-0.3171891E+01  (-0.1490155E+00)
 number of electron     121.0000051 magnetization       3.4394794
 augmentation part       77.8202207 magnetization       1.9989293

 Broyden mixing:
  rms(total) = 0.13624E+00    rms(broyden)= 0.13619E+00
  rms(prec ) = 0.14283E+00
  weight for this iteration     100.00

 eigenvalues of (default mixing * dielectric matrix)
  average eigenvalue GAMMA=   1.0859
  1.9384  1.9384  0.7760  0.7760  0.5661  0.5207

 Free energy of the ion-electron system (eV)
  ---------------------------------------------------
  alpha Z        PSCENC =        13.02786477
  Ewald energy   TEWEN  =     15856.45887400
  -Hartree energ DENC   =    -29797.72473375
  -exchange      EXHF   =         0.00000000
  -V(xc)+E(xc)   XCENC  =       492.97874955
  PAW double counting   =     14255.60511921   -15432.37001991
  entropy T*S    EENTRO =         0.00000000
  eigenvalues    EBANDS =      -707.73027620
  atomic energy  EATOM  =     15300.29143124
  ---------------------------------------------------
  free energy    TOTEN  =       -19.46299109 eV

  energy without entropy =      -19.46299109  energy(sigma->0) =      -19.46299109


--------------------------------------------------------------------------------------------------------




----------------------------------------- Iteration    1(  12)  ---------------------------------------


    POTLOK:  cpu time    0.22: real time    0.22
    SETDIJ:  cpu time    0.01: real time    0.01
     EDDAV:  cpu time    1.10: real time    1.10
       DOS:  cpu time    0.00: real time    0.00
    CHARGE:  cpu time    0.05: real time    0.05
    MIXING:  cpu time    0.01: real time    0.01
    --------------------------------------------
      LOOP:  cpu time    1.40: real time    1.40

 eigenvalue-minimisations  :   488
 total energy-change (2. order) :-0.2558212E+01  (-0.1064813E+00)
 number of electron     121.0000051 magnetization       2.6563274
 augmentation part       77.6631363 magnetization       1.3848753

 Broyden mixing:
  rms(total) = 0.90155E-01    rms(broyden)= 0.90116E-01
  rms(prec ) = 0.95673E-01
  weight for this iteration     100.00

 eigenvalues of (default mixing * dielectric matrix)
  average eigenvalue GAMMA=   1.2027
  2.4722  2.4722  1.1122  0.6583  0.6116  0.6116  0.4807

 Free energy of the ion-electron system (eV)
  ---------------------------------------------------
  alpha Z        PSCENC =        13.02786477
  Ewald energy   TEWEN  =     15856.45887400
  -Hartree energ DENC   =    -29801.15934534
  -exchange      EXHF   =         0.00000000
  -V(xc)+E(xc)   XCENC  =       491.23275021
  PAW double counting   =     14241.05438185   -15419.70138119
  entropy T*S    EENTRO =         0.00000000
  eigenvalues    EBANDS =      -703.22577881
  atomic energy  EATOM  =     15300.29143124
  ---------------------------------------------------
  free energy    TOTEN  =       -22.02120327 eV

  energy without entropy =      -22.02120327  energy(sigma->0) =      -22.02120327


--------------------------------------------------------------------------------------------------------




----------------------------------------- Iteration    1(  13)  ---------------------------------------


    POTLOK:  cpu time    0.22: real time    0.22
    SETDIJ:  cpu time    0.01: real time    0.01
     EDDAV:  cpu time    0.92: real time    0.93
       DOS:  cpu time    0.00: real time    0.00
    CHARGE:  cpu time    0.05: real time    0.05
    MIXING:  cpu time    0.01: real time    0.01
    --------------------------------------------
      LOOP:  cpu time    1.22: real time    1.22

 eigenvalue-minimisations  :   392
 total energy-change (2. order) :-0.2407723E+01  (-0.9331510E-01)
 number of electron     121.0000051 magnetization       2.0982617
 augmentation part       77.6223783 magnetization       1.0147168

 Broyden mixing:
  rms(total) = 0.63782E-01    rms(broyden)= 0.63750E-01
  rms(prec ) = 0.69265E-01
  weight for this iteration     100.00

 eigenvalues of (default mixing * dielectric matrix)
  average eigenvalue GAMMA=   1.2235
  2.6302  2.6302  1.0597  1.0597  0.7240  0.6387  0.5674  0.4784

 Free energy of the ion-electron system (eV)
  ---------------------------------------------------
  alpha Z        PSCENC =        13.02786477
  Ewald energy   TEWEN  =     15856.45887400
  -Hartree energ DENC   =    -29794.90572255
  -exchange      EXHF   =         0.00000000
  -V(xc)+E(xc)   XCENC  =       489.23075192
  PAW double counting   =     14207.36494421   -15386.16245241
  entropy T*S    EENTRO =        -0.00000000
  eigenvalues    EBANDS =      -709.73461725
  atomic energy  EATOM  =     15300.29143124
  ---------------------------------------------------
  free energy    TOTEN  =       -24.42892607 eV

  energy without entropy =      -24.42892607  energy(sigma->0) =      -24.42892607


--------------------------------------------------------------------------------------------------------




----------------------------------------- Iteration    1(  14)  ---------------------------------------


    POTLOK:  cpu time    0.22: real time    0.22
    SETDIJ:  cpu time    0.01: real time    0.01
     EDDAV:  cpu time    1.04: real time    1.04
       DOS:  cpu time    0.00: real time    0.00
    CHARGE:  cpu time    0.05: real time    0.05
    MIXING:  cpu time    0.01: real time    0.01
    --------------------------------------------
      LOOP:  cpu time    1.34: real time    1.34

 eigenvalue-minimisations  :   456
 total energy-change (2. order) :-0.1173262E+01  (-0.3100442E-01)
 number of electron     121.0000051 magnetization       1.7098319
 augmentation part       77.7142701 magnetization       0.7104666

 Broyden mixing:
  rms(total) = 0.48439E-01    rms(broyden)= 0.48409E-01
  rms(prec ) = 0.52661E-01
  weight for this iteration     100.00

 eigenvalues of (default mixing * dielectric matrix)
  average eigenvalue GAMMA=   1.2959
  3.5097  2.2666  1.7878  1.1521  0.6684  0.6684  0.6306  0.4898  0.4898

 Free energy of the ion-electron system (eV)
  ---------------------------------------------------
  alpha Z        PSCENC =        13.02786477
  Ewald energy   TEWEN  =     15856.45887400
  -Hartree energ DENC   =    -29785.20155465
  -exchange      EXHF   =         0.00000000
  -V(xc)+E(xc)   XCENC  =       487.96405021
  PAW double counting   =     14188.61169978   -15366.57735292
  entropy T*S    EENTRO =         0.00000000
  eigenvalues    EBANDS =      -720.17720050
  atomic energy  EATOM  =     15300.29143124
  ---------------------------------------------------
  free energy    TOTEN  =       -25.60218806 eV

  energy without entropy =      -25.60218806  energy(sigma->0) =      -25.60218806


--------------------------------------------------------------------------------------------------------




----------------------------------------- Iteration    1(  15)  ---------------------------------------


    POTLOK:  cpu time    0.22: real time    0.22
    SETDIJ:  cpu time    0.00: real time    0.01
     EDDAV:  cpu time    0.97: real time    0.97
       DOS:  cpu time    0.00: real time    0.00
    CHARGE:  cpu time    0.05: real time    0.05
    MIXING:  cpu time    0.01: real time    0.01
    --------------------------------------------
      LOOP:  cpu time    1.26: real time    1.27

 eigenvalue-minimisations  :   416
 total energy-change (2. order) :-0.6790440E+00  (-0.1040384E-01)
 number of electron     121.0000051 magnetization       1.3677126
 augmentation part       77.7546770 magnetization       0.4042845

 Broyden mixing:
  rms(total) = 0.38726E-01    rms(broyden)= 0.38715E-01
  rms(prec ) = 0.42250E-01
  weight for this iteration     100.00

 eigenvalues of (default mixing * dielectric matrix)
  average eigenvalue GAMMA=   1.3698
  4.3753  2.2539  2.2539  0.9595  0.8610  0.8610  0.5882  0.5882  0.4785  0.4785

 Free energy of the ion-electron system (eV)
  ---------------------------------------------------
  alpha Z        PSCENC =        13.02786477
  Ewald energy   TEWEN  =     15856.45887400
  -Hartree energ DENC   =    -29779.38977946
  -exchange      EXHF   =         0.00000000
  -V(xc)+E(xc)   XCENC  =       487.23753470
  PAW double counting   =     14175.85209374   -15353.87220128
  entropy T*S    EENTRO =        -0.00000000
  eigenvalues    EBANDS =      -725.88704980
  atomic energy  EATOM  =     15300.29143124
  ---------------------------------------------------
  free energy    TOTEN  =       -26.28123209 eV

  energy without entropy =      -26.28123209  energy(sigma->0) =      -26.28123209


--------------------------------------------------------------------------------------------------------




----------------------------------------- Iteration    1(  16)  ---------------------------------------


    POTLOK:  cpu time    0.22: real time    0.22
    SETDIJ:  cpu time    0.00: real time    0.01
     EDDAV:  cpu time    0.94: real time    0.94
       DOS:  cpu time    0.00: real time    0.00
    CHARGE:  cpu time    0.05: real time    0.05
    MIXING:  cpu time    0.01: real time    0.01
    --------------------------------------------
      LOOP:  cpu time    1.23: real time    1.24

 eigenvalue-minimisations  :   400
 total energy-change (2. order) :-0.6472729E+00  (-0.6524212E-02)
 number of electron     121.0000051 magnetization       1.2106805
 augmentation part       77.7045448 magnetization       0.2770668

 Broyden mixing:
  rms(total) = 0.20431E-01    rms(broyden)= 0.20416E-01
  rms(prec ) = 0.22807E-01
  weight for this iteration     100.00

 eigenvalues of (default mixing * dielectric matrix)
  average eigenvalue GAMMA=   1.3711
  4.7647  2.2629  2.2629  1.2206  0.8796  0.8796  0.6806  0.6806  0.5016  0.5016
  0.4469

 Free energy of the ion-electron system (eV)
  ---------------------------------------------------
  alpha Z        PSCENC =        13.02786477
  Ewald energy   TEWEN  =     15856.45887400
  -Hartree energ DENC   =    -29776.67496766
  -exchange      EXHF   =         0.00000000
  -V(xc)+E(xc)   XCENC  =       486.69625309
  PAW double counting   =     14168.95891021   -15348.10526943
  entropy T*S    EENTRO =         0.00000000
  eigenvalues    EBANDS =      -727.58160125
  atomic energy  EATOM  =     15300.29143124
  ---------------------------------------------------
  free energy    TOTEN  =       -26.92850503 eV

  energy without entropy =      -26.92850503  energy(sigma->0) =      -26.92850503


--------------------------------------------------------------------------------------------------------




----------------------------------------- Iteration    1(  17)  ---------------------------------------


    POTLOK:  cpu time    0.22: real time    0.22
    SETDIJ:  cpu time    0.00: real time    0.01
     EDDAV:  cpu time    0.95: real time    0.95
       DOS:  cpu time    0.00: real time    0.00
    CHARGE:  cpu time    0.05: real time    0.05
    MIXING:  cpu time    0.01: real time    0.01
    --------------------------------------------
      LOOP:  cpu time    1.25: real time    1.25

 eigenvalue-minimisations  :   408
 total energy-change (2. order) :-0.2122187E+00  (-0.1605193E-02)
 number of electron     121.0000051 magnetization       1.1222400
 augmentation part       77.6935452 magnetization       0.2099763

 Broyden mixing:
  rms(total) = 0.14495E-01    rms(broyden)= 0.14491E-01
  rms(prec ) = 0.16579E-01
  weight for this iteration     100.00

 eigenvalues of (default mixing * dielectric matrix)
  average eigenvalue GAMMA=   1.4149
  5.2446  2.3820  2.3820  1.6275  1.0250  0.7985  0.7985  0.6288  0.5777  0.5777
  0.4682  0.4682

 Free energy of the ion-electron system (eV)
  ---------------------------------------------------
  alpha Z        PSCENC =        13.02786477
  Ewald energy   TEWEN  =     15856.45887400
  -Hartree energ DENC   =    -29774.17372265
  -exchange      EXHF   =         0.00000000
  -V(xc)+E(xc)   XCENC  =       486.48034306
  PAW double counting   =     14169.54805825   -15348.76201028
  entropy T*S    EENTRO =         0.00000000
  eigenvalues    EBANDS =      -730.01156217
  atomic energy  EATOM  =     15300.29143124
  ---------------------------------------------------
  free energy    TOTEN  =       -27.14072378 eV

  energy without entropy =      -27.14072378  energy(sigma->0) =      -27.14072378


--------------------------------------------------------------------------------------------------------




----------------------------------------- Iteration    1(  18)  ---------------------------------------


    POTLOK:  cpu time    0.22: real time    0.22
    SETDIJ:  cpu time    0.01: real time    0.01
     EDDAV:  cpu time    0.98: real time    0.98
       DOS:  cpu time    0.00: real time    0.00
    CHARGE:  cpu time    0.05: real time    0.05
    MIXING:  cpu time    0.01: real time    0.01
    --------------------------------------------
      LOOP:  cpu time    1.28: real time    1.28

 eigenvalue-minimisations  :   424
 total energy-change (2. order) :-0.8589901E-01  (-0.4176488E-03)
 number of electron     121.0000051 magnetization       1.0714898
 augmentation part       77.6945756 magnetization       0.1636195

 Broyden mixing:
  rms(total) = 0.92011E-02    rms(broyden)= 0.91985E-02
  rms(prec ) = 0.10802E-01
  weight for this iteration     100.00

 eigenvalues of (default mixing * dielectric matrix)
  average eigenvalue GAMMA=   1.4153
  5.5543  2.4318  2.4318  1.9489  1.0796  0.8103  0.8103  0.6602  0.6602  0.5375
  0.5375  0.4680  0.4680

 Free energy of the ion-electron system (eV)
  ---------------------------------------------------
  alpha Z        PSCENC =        13.02786477
  Ewald energy   TEWEN  =     15856.45887400
  -Hartree energ DENC   =    -29772.44362654
  -exchange      EXHF   =         0.00000000
  -V(xc)+E(xc)   XCENC  =       486.37231218
  PAW double counting   =     14172.91860628   -15352.12049680
  entropy T*S    EENTRO =         0.00000000
  eigenvalues    EBANDS =      -731.73158791
  atomic energy  EATOM  =     15300.29143124
  ---------------------------------------------------
  free energy    TOTEN  =       -27.22662279 eV

  energy without entropy =      -27.22662279  energy(sigma->0) =      -27.22662279


--------------------------------------------------------------------------------------------------------




----------------------------------------- Iteration    1(  19)  ---------------------------------------


    POTLOK:  cpu time    0.23: real time    0.23
    SETDIJ:  cpu time    0.00: real time    0.01
     EDDAV:  cpu time    1.00: real time    0.99
       DOS:  cpu time    0.00: real time    0.00
    CHARGE:  cpu time    0.05: real time    0.05
    MIXING:  cpu time    0.01: real time    0.01
    --------------------------------------------
      LOOP:  cpu time    1.29: real time    1.30

 eigenvalue-minimisations  :   432
 total energy-change (2. order) :-0.3993424E-01  (-0.1986272E-03)
 number of electron     121.0000051 magnetization       1.0299217
 augmentation part       77.7016563 magnetization       0.1217439

 Broyden mixing:
  rms(total) = 0.52411E-02    rms(broyden)= 0.52385E-02
  rms(prec ) = 0.65814E-02
  weight for this iteration     100.00

 eigenvalues of (default mixing * dielectric matrix)
  average eigenvalue GAMMA=   1.4639
  5.8838  2.9394  2.2616  2.2616  1.2022  0.9197  0.9197  0.7585  0.7585  0.6280
  0.5483  0.4834  0.4834  0.4463

 Free energy of the ion-electron system (eV)
  ---------------------------------------------------
  alpha Z        PSCENC =        13.02786477
  Ewald energy   TEWEN  =     15856.45887400
  -Hartree energ DENC   =    -29770.91905409
  -exchange      EXHF   =         0.00000000
  -V(xc)+E(xc)   XCENC  =       486.30695648
  PAW double counting   =     14174.70869003   -15353.83082693
  entropy T*S    EENTRO =         0.00000000
  eigenvalues    EBANDS =      -733.31049253
  atomic energy  EATOM  =     15300.29143124
  ---------------------------------------------------
  free energy    TOTEN  =       -27.26655703 eV

  energy without entropy =      -27.26655703  energy(sigma->0) =      -27.26655703


--------------------------------------------------------------------------------------------------------




----------------------------------------- Iteration    1(  20)  ---------------------------------------


    POTLOK:  cpu time    0.22: real time    0.22
    SETDIJ:  cpu time    0.01: real time    0.01
     EDDAV:  cpu time    0.97: real time    0.97
       DOS:  cpu time    0.00: real time    0.00
    CHARGE:  cpu time    0.05: real time    0.05
    MIXING:  cpu time    0.02: real time    0.01
    --------------------------------------------
      LOOP:  cpu time    1.26: real time    1.27

 eigenvalue-minimisations  :   416
 total energy-change (2. order) :-0.2571436E-01  (-0.2012976E-03)
 number of electron     121.0000051 magnetization       1.0196063
 augmentation part       77.7110784 magnetization       0.1105870

 Broyden mixing:
  rms(total) = 0.28943E-02    rms(broyden)= 0.28919E-02
  rms(prec ) = 0.38648E-02
  weight for this iteration     100.00

 eigenvalues of (default mixing * dielectric matrix)
  average eigenvalue GAMMA=   1.4542
  5.9479  3.2994  2.2719  2.2719  1.4782  0.9264  0.8697  0.8697  0.6830  0.6830
  0.5545  0.5545  0.4554  0.4733  0.4733

 Free energy of the ion-electron system (eV)
  ---------------------------------------------------
  alpha Z        PSCENC =        13.02786477
  Ewald energy   TEWEN  =     15856.45887400
  -Hartree energ DENC   =    -29769.16742235
  -exchange      EXHF   =         0.00000000
  -V(xc)+E(xc)   XCENC  =       486.25702143
  PAW double counting   =     14175.71746664   -15354.72506986
  entropy T*S    EENTRO =         0.00000000
  eigenvalues    EBANDS =      -735.15243725
  atomic energy  EATOM  =     15300.29143124
  ---------------------------------------------------
  free energy    TOTEN  =       -27.29227138 eV

  energy without entropy =      -27.29227138  energy(sigma->0) =      -27.29227138


--------------------------------------------------------------------------------------------------------




----------------------------------------- Iteration    1(  21)  ---------------------------------------


    POTLOK:  cpu time    0.22: real time    0.22
    SETDIJ:  cpu time    0.01: real time    0.01
     EDDAV:  cpu time    0.70: real time    0.70
       DOS:  cpu time    0.00: real time    0.00
    CHARGE:  cpu time    0.05: real time    0.05
    MIXING:  cpu time    0.01: real time    0.01
    --------------------------------------------
      LOOP:  cpu time    1.00: real time    1.00

 eigenvalue-minimisations  :   264
 total energy-change (2. order) :-0.1567141E-02  (-0.3719108E-04)
 number of electron     121.0000051 magnetization       1.0141684
 augmentation part       77.7124770 magnetization       0.1046307

 Broyden mixing:
  rms(total) = 0.28869E-02    rms(broyden)= 0.28861E-02
  rms(prec ) = 0.35067E-02
  weight for this iteration     100.00

 eigenvalues of (default mixing * dielectric matrix)
  average eigenvalue GAMMA=   1.4179
  5.9658  3.4228  2.2858  2.2858  1.4987  1.0319  0.8544  0.8544  0.7465  0.7465
  0.5881  0.5360  0.5155  0.4660  0.4660  0.4217

 Free energy of the ion-electron system (eV)
  ---------------------------------------------------
  alpha Z        PSCENC =        13.02786477
  Ewald energy   TEWEN  =     15856.45887400
  -Hartree energ DENC   =    -29768.60609974
  -exchange      EXHF   =         0.00000000
  -V(xc)+E(xc)   XCENC  =       486.25112718
  PAW double counting   =     14176.64017318   -15355.63629561
  entropy T*S    EENTRO =         0.00000000
  eigenvalues    EBANDS =      -735.72091355
  atomic energy  EATOM  =     15300.29143124
  ---------------------------------------------------
  free energy    TOTEN  =       -27.29383853 eV

  energy without entropy =      -27.29383853  energy(sigma->0) =      -27.29383853


--------------------------------------------------------------------------------------------------------




----------------------------------------- Iteration    1(  22)  ---------------------------------------


    POTLOK:  cpu time    0.22: real time    0.22
    SETDIJ:  cpu time    0.00: real time    0.01
     EDDAV:  cpu time    0.69: real time    0.69
       DOS:  cpu time    0.00: real time    0.00
    CHARGE:  cpu time    0.05: real time    0.05
    MIXING:  cpu time    0.01: real time    0.01
    --------------------------------------------
      LOOP:  cpu time    0.98: real time    1.01

 eigenvalue-minimisations  :   256
 total energy-change (2. order) :-0.1255227E-02  (-0.2249198E-04)
 number of electron     121.0000051 magnetization       1.0050834
 augmentation part       77.7120829 magnetization       0.0962666

 Broyden mixing:
  rms(total) = 0.19737E-02    rms(broyden)= 0.19734E-02
  rms(prec ) = 0.25393E-02
  weight for this iteration     100.00

 eigenvalues of (default mixing * dielectric matrix)
  average eigenvalue GAMMA=   1.4361
  6.0166  3.5241  2.5314  2.0611  2.0611  1.1045  0.8745  0.8745  0.8510  0.8510
  0.6528  0.6528  0.5341  0.4906  0.4906  0.4523  0.3901

 Free energy of the ion-electron system (eV)
  ---------------------------------------------------
  alpha Z        PSCENC =        13.02786477
  Ewald energy   TEWEN  =     15856.45887400
  -Hartree energ DENC   =    -29768.26506317
  -exchange      EXHF   =         0.00000000
  -V(xc)+E(xc)   XCENC  =       486.25045124
  PAW double counting   =     14177.00596622   -15356.01712170
  entropy T*S    EENTRO =         0.00000000
  eigenvalues    EBANDS =      -736.04749635
  atomic energy  EATOM  =     15300.29143124
  ---------------------------------------------------
  free energy    TOTEN  =       -27.29509375 eV

  energy without entropy =      -27.29509375  energy(sigma->0) =      -27.29509375


--------------------------------------------------------------------------------------------------------




----------------------------------------- Iteration    1(  23)  ---------------------------------------


    POTLOK:  cpu time    0.22: real time    0.22
    SETDIJ:  cpu time    0.00: real time    0.01
     EDDAV:  cpu time    0.74: real time    0.74
       DOS:  cpu time    0.00: real time    0.00
    CHARGE:  cpu time    0.05: real time    0.05
    MIXING:  cpu time    0.02: real time    0.01
    --------------------------------------------
      LOOP:  cpu time    1.04: real time    1.04

 eigenvalue-minimisations  :   288
 total energy-change (2. order) :-0.1605485E-02  (-0.4431892E-04)
 number of electron     121.0000051 magnetization       1.0020279
 augmentation part       77.7085697 magnetization       0.0942437

 Broyden mixing:
  rms(total) = 0.10183E-02    rms(broyden)= 0.10177E-02
  rms(prec ) = 0.15002E-02
  weight for this iteration     100.00

 eigenvalues of (default mixing * dielectric matrix)
  average eigenvalue GAMMA=   1.4359
  6.0471  3.6860  2.8039  2.1226  2.1226  1.1027  1.1027  0.8719  0.8719  0.7589
  0.7589  0.6485  0.6001  0.5637  0.4809  0.4809  0.4471  0.3761

 Free energy of the ion-electron system (eV)
  ---------------------------------------------------
  alpha Z        PSCENC =        13.02786477
  Ewald energy   TEWEN  =     15856.45887400
  -Hartree energ DENC   =    -29767.74353175
  -exchange      EXHF   =         0.00000000
  -V(xc)+E(xc)   XCENC  =       486.25176271
  PAW double counting   =     14176.59469596   -15355.65591077
  entropy T*S    EENTRO =         0.00000000
  eigenvalues    EBANDS =      -736.52188538
  atomic energy  EATOM  =     15300.29143124
  ---------------------------------------------------
  free energy    TOTEN  =       -27.29669924 eV

  energy without entropy =      -27.29669924  energy(sigma->0) =      -27.29669924


--------------------------------------------------------------------------------------------------------




----------------------------------------- Iteration    1(  24)  ---------------------------------------


    POTLOK:  cpu time    0.22: real time    0.22
    SETDIJ:  cpu time    0.01: real time    0.01
     EDDAV:  cpu time    0.67: real time    0.67
       DOS:  cpu time    0.00: real time    0.00
    CHARGE:  cpu time    0.05: real time    0.05
    MIXING:  cpu time    0.01: real time    0.01
    --------------------------------------------
      LOOP:  cpu time    0.97: real time    1.29

 eigenvalue-minimisations  :   248
 total energy-change (2. order) :-0.1036631E-02  (-0.7812214E-05)
 number of electron     121.0000051 magnetization       1.0008590
 augmentation part       77.7086687 magnetization       0.0934748

 Broyden mixing:
  rms(total) = 0.96677E-03    rms(broyden)= 0.96650E-03
  rms(prec ) = 0.12681E-02
  weight for this iteration     100.00

 eigenvalues of (default mixing * dielectric matrix)
  average eigenvalue GAMMA=   1.4155
  6.0839  3.9373  2.8472  2.1540  2.1540  1.2404  0.9750  0.8965  0.8965  0.8033
  0.8033  0.6621  0.5871  0.5871  0.4908  0.4908  0.4565  0.4517  0.3770

 Free energy of the ion-electron system (eV)
  ---------------------------------------------------
  alpha Z        PSCENC =        13.02786477
  Ewald energy   TEWEN  =     15856.45887400
  -Hartree energ DENC   =    -29767.32385828
  -exchange      EXHF   =         0.00000000
  -V(xc)+E(xc)   XCENC  =       486.24848694
  PAW double counting   =     14176.45014243   -15355.51747417
  entropy T*S    EENTRO =         0.00000000
  eigenvalues    EBANDS =      -736.93320279
  atomic energy  EATOM  =     15300.29143124
  ---------------------------------------------------
  free energy    TOTEN  =       -27.29773587 eV

  energy without entropy =      -27.29773587  energy(sigma->0) =      -27.29773587


--------------------------------------------------------------------------------------------------------




----------------------------------------- Iteration    1(  25)  ---------------------------------------


    POTLOK:  cpu time    0.22: real time    0.22
    SETDIJ:  cpu time    0.00: real time    0.01
     EDDAV:  cpu time    0.66: real time    0.66
       DOS:  cpu time    0.00: real time    0.00
    CHARGE:  cpu time    0.05: real time    0.05
    MIXING:  cpu time    0.02: real time    0.02
    --------------------------------------------
      LOOP:  cpu time    0.96: real time    0.96

 eigenvalue-minimisations  :   240
 total energy-change (2. order) :-0.5425599E-03  (-0.5157376E-05)
 number of electron     121.0000051 magnetization       1.0001744
 augmentation part       77.7095371 magnetization       0.0928816

 Broyden mixing:
  rms(total) = 0.57415E-03    rms(broyden)= 0.57383E-03
  rms(prec ) = 0.81723E-03
  weight for this iteration     100.00

 eigenvalues of (default mixing * dielectric matrix)
  average eigenvalue GAMMA=   1.4294
  6.1481  4.4241  2.9177  2.2257  2.2257  1.3026  1.0031  1.0031  0.8986  0.8986
  0.7694  0.7694  0.6452  0.6452  0.5388  0.4831  0.4831  0.4518  0.4069  0.3480

 Free energy of the ion-electron system (eV)
  ---------------------------------------------------
  alpha Z        PSCENC =        13.02786477
  Ewald energy   TEWEN  =     15856.45887400
  -Hartree energ DENC   =    -29767.02732542
  -exchange      EXHF   =         0.00000000
  -V(xc)+E(xc)   XCENC  =       486.24494805
  PAW double counting   =     14176.48916510   -15355.55196895
  entropy T*S    EENTRO =         0.00000000
  eigenvalues    EBANDS =      -737.23126722
  atomic energy  EATOM  =     15300.29143124
  ---------------------------------------------------
  free energy    TOTEN  =       -27.29827843 eV

  energy without entropy =      -27.29827843  energy(sigma->0) =      -27.29827843


--------------------------------------------------------------------------------------------------------




----------------------------------------- Iteration    1(  26)  ---------------------------------------


    POTLOK:  cpu time    0.22: real time    0.22
    SETDIJ:  cpu time    0.00: real time    0.01
     EDDAV:  cpu time    0.68: real time    0.67
       DOS:  cpu time    0.00: real time    0.00
    CHARGE:  cpu time    0.05: real time    0.05
    MIXING:  cpu time    0.02: real time    0.02
    --------------------------------------------
      LOOP:  cpu time    0.97: real time    0.98

 eigenvalue-minimisations  :   248
 total energy-change (2. order) :-0.2493875E-03  (-0.3882772E-05)
 number of electron     121.0000051 magnetization       1.0000566
 augmentation part       77.7101176 magnetization       0.0927605

 Broyden mixing:
  rms(total) = 0.52148E-03    rms(broyden)= 0.52130E-03
  rms(prec ) = 0.67942E-03
  weight for this iteration     100.00

 eigenvalues of (default mixing * dielectric matrix)
  average eigenvalue GAMMA=   1.4410
  6.2187  4.9342  2.9808  2.3023  2.3023  1.4055  0.9953  0.9953  1.0136  0.8283
  0.8283  0.8166  0.6996  0.6996  0.5956  0.5495  0.4832  0.4832  0.4485  0.3791
  0.3003

 Free energy of the ion-electron system (eV)
  ---------------------------------------------------
  alpha Z        PSCENC =        13.02786477
  Ewald energy   TEWEN  =     15856.45887400
  -Hartree energ DENC   =    -29766.80328940
  -exchange      EXHF   =         0.00000000
  -V(xc)+E(xc)   XCENC  =       486.24257008
  PAW double counting   =     14176.61548288   -15355.68016728
  entropy T*S    EENTRO =         0.00000000
  eigenvalues    EBANDS =      -737.45129410
  atomic energy  EATOM  =     15300.29143124
  ---------------------------------------------------
  free energy    TOTEN  =       -27.29852782 eV

  energy without entropy =      -27.29852782  energy(sigma->0) =      -27.29852782


--------------------------------------------------------------------------------------------------------




----------------------------------------- Iteration    1(  27)  ---------------------------------------


    POTLOK:  cpu time    0.22: real time    0.22
    SETDIJ:  cpu time    0.00: real time    0.01
     EDDAV:  cpu time    0.64: real time    0.64
       DOS:  cpu time    0.00: real time    0.00
    --------------------------------------------
      LOOP:  cpu time    0.87: real time    1.47

 eigenvalue-minimisations  :   232
 total energy-change (2. order) :-0.9762130E-04  (-0.1975744E-05)
 number of electron     121.0000051 magnetization       1.0000566
 augmentation part       77.7101176 magnetization       0.0927605

 Free energy of the ion-electron system (eV)
  ---------------------------------------------------
  alpha Z        PSCENC =        13.02786477
  Ewald energy   TEWEN  =     15856.45887400
  -Hartree energ DENC   =    -29766.70851701
  -exchange      EXHF   =         0.00000000
  -V(xc)+E(xc)   XCENC  =       486.24238119
  PAW double counting   =     14176.67211654   -15355.74455534
  entropy T*S    EENTRO =         0.00000000
  eigenvalues    EBANDS =      -737.53822083
  atomic energy  EATOM  =     15300.29143124
  ---------------------------------------------------
  free energy    TOTEN  =       -27.29862544 eV

  energy without entropy =      -27.29862544  energy(sigma->0) =      -27.29862544


--------------------------------------------------------------------------------------------------------




 average (electrostatic) potential at core
  the test charge radii are     0.9430
  (the norm of the test charge is              1.0000)
       1 -74.4746       2 -74.7205       3 -74.4510       4 -74.3663       5 -74.3660
       6 -74.3086       7 -74.4513       8 -74.5712       9 -74.5708      10 -74.3103
      11 -74.7227
 
 
 
 E-fermi :  -4.1016     XC(G=0):  -0.6077     alpha+bet : -0.2568


 spin component 1

 k-point     1 :       0.0000    0.0000    0.0000
  band No.  band energies     occupation 
      1     -10.3173      1.00000
      2      -8.8697      1.00000
      3      -8.1387      1.00000
      4      -7.8043      1.00000
      5      -7.7747      1.00000
      6      -7.5418      1.00000
      7      -7.3895      1.00000
      8      -7.2707      1.00000
      9      -7.2192      1.00000
     10      -7.0266      1.00000
     11      -6.9433      1.00000
     12      -6.9234      1.00000
     13      -6.8004      1.00000
     14      -6.7590      1.00000
     15      -6.7218      1.00000
     16      -6.7094      1.00000
     17      -6.5754      1.00000
     18      -6.5183      1.00000
     19      -6.5116      1.00000
     20      -6.4983      1.00000
     21      -6.4652      1.00000
     22      -6.4564      1.00000
     23      -6.1864      1.00000
     24      -6.1302      1.00000
     25      -6.1255      1.00000
     26      -6.0202      1.00000
     27      -5.9431      1.00000
     28      -5.8907      1.00000
     29      -5.8262      1.00000
     30      -5.8156      1.00000
     31      -5.8030      1.00000
     32      -5.7256      1.00000
     33      -5.7179      1.00000
     34      -5.7062      1.00000
     35      -5.6761      1.00000
     36      -5.6390      1.00000
     37      -5.6260      1.00000
     38      -5.6135      1.00000
     39      -5.5704      1.00000
     40      -5.5375      1.00000
     41      -5.5161      1.00000
     42      -5.4639      1.00000
     43      -5.4216      1.00000
     44      -5.4105      1.00000
     45      -5.3933      1.00000
     46      -5.3927      1.00000
     47      -5.3547      1.00000
     48      -5.2976      1.00000
     49      -5.2544      1.00000
     50      -5.2464      1.00000
     51      -5.2326      1.00000
     52      -5.1981      1.00000
     53      -5.1934      1.00000
     54      -5.1766      1.00000
     55      -5.1651      1.00000
     56      -5.0808      1.00000
     57      -5.0643      1.00000
     58      -5.0516      1.00000
     59      -4.6225      1.00000
     60      -4.4547      1.00000
     61      -4.1045      1.00000
     62      -3.2069      0.00000
     63      -3.0226      0.00000
     64      -2.5162      0.00000
     65      -2.3482      0.00000
     66      -2.0806      0.00000
     67      -1.8124      0.00000
     68      -1.4603      0.00000
     69      -1.1459      0.00000
     70      -0.8267      0.00000
     71      -0.7085      0.00000
     72      -0.5088      0.00000
     73      -0.3524      0.00000
     74      -0.0602      0.00000
     75       0.0165      0.00000
     76       0.1493      0.00000
     77       0.4430      0.00000
     78       0.4938      0.00000
     79       0.5164      0.00000
     80       0.5546      0.00000

 spin component 2

 k-point     1 :       0.0000    0.0000    0.0000
  band No.  band energies     occupation 
      1     -10.2837      1.00000
      2      -8.8304      1.00000
      3      -8.0862      1.00000
      4      -7.7780      1.00000
      5      -7.7495      1.00000
      6      -7.4835      1.00000
      7      -7.3502      1.00000
      8      -7.2204      1.00000
      9      -7.1900      1.00000
     10      -6.9895      1.00000
     11      -6.8958      1.00000
     12      -6.8924      1.00000
     13      -6.7642      1.00000
     14      -6.7251      1.00000
     15      -6.6937      1.00000
     16      -6.6686      1.00000
     17      -6.5383      1.00000
     18      -6.4870      1.00000
     19      -6.4754      1.00000
     20      -6.4636      1.00000
     21      -6.4270      1.00000
     22      -6.4177      1.00000
     23      -6.1529      1.00000
     24      -6.0950      1.00000
     25      -6.0853      1.00000
     26      -5.9925      1.00000
     27      -5.9114      1.00000
     28      -5.8621      1.00000
     29      -5.7965      1.00000
     30      -5.7826      1.00000
     31      -5.7592      1.00000
     32      -5.6983      1.00000
     33      -5.6881      1.00000
     34      -5.6750      1.00000
     35      -5.6531      1.00000
     36      -5.6132      1.00000
     37      -5.5860      1.00000
     38      -5.5833      1.00000
     39      -5.5302      1.00000
     40      -5.5077      1.00000
     41      -5.4813      1.00000
     42      -5.4427      1.00000
     43      -5.3968      1.00000
     44      -5.3792      1.00000
     45      -5.3634      1.00000
     46      -5.3570      1.00000
     47      -5.3130      1.00000
     48      -5.2659      1.00000
     49      -5.2297      1.00000
     50      -5.2202      1.00000
     51      -5.2008      1.00000
     52      -5.1620      1.00000
     53      -5.1422      1.00000
     54      -5.1408      1.00000
     55      -5.1359      1.00000
     56      -5.0365      1.00000
     57      -5.0253      1.00000
     58      -4.9951      1.00000
     59      -4.5802      1.00000
     60      -4.4044      1.00000
     61      -3.8795      0.00000
     62      -3.1403      0.00000
     63      -2.9282      0.00000
     64      -2.4498      0.00000
     65      -2.2679      0.00000
     66      -1.9253      0.00000
     67      -1.7432      0.00000
     68      -1.2750      0.00000
     69      -1.0753      0.00000
     70      -0.7358      0.00000
     71      -0.6295      0.00000
     72      -0.4134      0.00000
     73      -0.2312      0.00000
     74       0.0166      0.00000
     75       0.0824      0.00000
     76       0.1450      0.00000
     77       0.4580      0.00000
     78       0.5192      0.00000
     79       0.5310      0.00000
     80       0.5588      0.00000


--------------------------------------------------------------------------------------------------------


 soft charge-density along one line, spin component           1
         0         1         2         3         4         5         6         7         8         9
 total charge-density along one line
 
 soft charge-density along one line, spin component           2
         0         1         2         3         4         5         6         7         8         9
 total charge-density along one line
 
 pseudopotential strength for first ion, spin component:           1
-10.716   0.009  -0.001   0.000   0.004   1.169  -0.008   0.001
  0.009 -10.682   0.002   0.002   0.003  -0.008   1.141  -0.001
 -0.001   0.002 -10.691   0.003   0.023   0.001  -0.001   1.148
  0.000   0.002   0.003 -10.713   0.008  -0.000  -0.001  -0.003
  0.004   0.003   0.023   0.008 -10.707  -0.003  -0.002  -0.018
  1.169  -0.008   0.001  -0.000  -0.003   6.183   0.006  -0.002
 -0.008   1.141  -0.001  -0.001  -0.002   0.006   6.207   0.001
  0.001  -0.001   1.148  -0.003  -0.018  -0.002   0.001   6.203
 -0.000  -0.001  -0.003   1.166  -0.007   0.001   0.002   0.002
 -0.003  -0.002  -0.018  -0.007   1.162   0.002   0.001   0.012
 -0.001  -0.000  -0.004  -0.003   0.006   0.001   0.001   0.004
 -0.002  -0.001  -0.008  -0.006   0.011   0.002   0.002   0.008
 -0.005  -0.021   0.002   0.001   0.004   0.003   0.015  -0.001
  0.001  -0.005  -0.024  -0.005  -0.000  -0.001   0.003   0.017
 -0.004   0.001   0.003  -0.021  -0.005   0.003  -0.001  -0.003
 -0.005  -0.023   0.002   0.001   0.005   0.003   0.016  -0.001
  0.001  -0.005  -0.027  -0.006  -0.001  -0.001   0.004   0.018
 -0.004   0.001   0.003  -0.024  -0.006   0.003  -0.001  -0.003
 pseudopotential strength for first ion, spin component:           2
-10.723   0.011  -0.002   0.000   0.004   1.175  -0.009   0.002
  0.011 -10.683   0.000   0.001   0.001  -0.009   1.141  -0.000
 -0.002   0.000 -10.696   0.004   0.024   0.002  -0.000   1.152
  0.000   0.001   0.004 -10.719   0.008  -0.000  -0.001  -0.003
  0.004   0.001   0.024   0.008 -10.712  -0.003  -0.001  -0.019
  1.175  -0.009   0.002  -0.000  -0.003   6.178   0.007  -0.002
 -0.009   1.141  -0.000  -0.001  -0.001   0.007   6.205   0.000
  0.002  -0.000   1.152  -0.003  -0.019  -0.002   0.000   6.199
 -0.000  -0.001  -0.003   1.170  -0.006   0.001   0.001   0.003
 -0.003  -0.001  -0.019  -0.006   1.167   0.002  -0.000   0.013
 -0.001  -0.000  -0.005  -0.004   0.006   0.001   0.001   0.005
 -0.002  -0.001  -0.009  -0.007   0.012   0.002   0.002   0.009
 -0.005  -0.021   0.002   0.000   0.004   0.004   0.015  -0.002
  0.000  -0.004  -0.024  -0.005  -0.000  -0.000   0.003   0.017
 -0.004   0.000   0.003  -0.021  -0.005   0.003  -0.000  -0.003
 -0.006  -0.023   0.003   0.000   0.005   0.004   0.016  -0.002
  0.000  -0.005  -0.027  -0.005  -0.000  -0.000   0.003   0.018
 -0.005   0.000   0.004  -0.024  -0.006   0.004  -0.000  -0.004
 total augmentation occupancy for first ion, spin component:           1
  1.925   0.008  -0.002   0.004   0.002  -0.008  -0.003   0.000   0.000  -0.005  -0.006   0.003   0.018   0.008   0.014  -0.007
  0.008   1.953   0.000   0.002   0.000  -0.003  -0.018  -0.002  -0.000  -0.002   0.002  -0.000   0.055   0.001   0.013  -0.028
 -0.002   0.000   1.953   0.000   0.007   0.000  -0.002  -0.017   0.000  -0.010  -0.007   0.007  -0.012   0.062  -0.008   0.004
  0.004   0.002   0.000   1.945   0.003   0.000  -0.000   0.000  -0.011  -0.002  -0.006   0.005   0.008   0.013   0.043  -0.000
  0.002   0.000   0.007   0.003   1.943  -0.005  -0.002  -0.009  -0.002  -0.018   0.019  -0.011  -0.011  -0.010   0.004   0.006
 -0.008  -0.003   0.000   0.000  -0.005   0.008   0.001   0.000   0.001  -0.001  -0.001   0.000   0.007   0.001   0.007  -0.000
 -0.003  -0.018  -0.002  -0.000  -0.002   0.001   0.010  -0.001   0.000  -0.001   0.007  -0.002   0.026   0.001   0.000  -0.001
  0.000  -0.002  -0.017   0.000  -0.009   0.000  -0.001   0.011  -0.000  -0.003  -0.004  -0.002  -0.006   0.022  -0.008   0.000
  0.000  -0.000   0.000  -0.011  -0.002   0.001   0.000  -0.000   0.012  -0.001  -0.011   0.000   0.001   0.001   0.028   0.000
 -0.005  -0.002  -0.010  -0.002  -0.018  -0.001  -0.001  -0.003  -0.001   0.010   0.039  -0.005  -0.005   0.000   0.007   0.000
 -0.006   0.002  -0.007  -0.006   0.019  -0.001   0.007  -0.004  -0.011   0.039   1.673  -0.124   0.047   0.232   0.057  -0.006
  0.003  -0.000   0.007   0.005  -0.011   0.000  -0.002  -0.002   0.000  -0.005  -0.124   0.014  -0.006  -0.029  -0.007   0.001
  0.018   0.055  -0.012   0.008  -0.011   0.007   0.026  -0.006   0.001  -0.005   0.047  -0.006   0.106   0.002  -0.008  -0.006
  0.008   0.001   0.062   0.013  -0.010   0.001   0.001   0.022   0.001   0.000   0.232  -0.029   0.002   0.111  -0.019  -0.001
  0.014   0.013  -0.008   0.043   0.004   0.007   0.000  -0.008   0.028   0.007   0.057  -0.007  -0.008  -0.019   0.192   0.000
 -0.007  -0.028   0.004  -0.000   0.006  -0.000  -0.001   0.000   0.000   0.000  -0.006   0.001  -0.006  -0.001   0.000   0.001
 -0.000  -0.005  -0.032  -0.007   0.001  -0.000  -0.000  -0.001   0.000  -0.000  -0.030   0.003  -0.001  -0.010   0.000   0.000
 -0.006  -0.001   0.004  -0.026  -0.006  -0.000   0.000   0.001  -0.002  -0.001  -0.007   0.001   0.000   0.000  -0.012   0.000
 total augmentation occupancy for first ion, spin component:           2
 -0.002   0.001  -0.000   0.000   0.000   0.002  -0.001  -0.000  -0.000  -0.000   0.000  -0.001  -0.001   0.000  -0.002  -0.000
  0.001   0.002  -0.001  -0.000  -0.001  -0.001  -0.000   0.000   0.000   0.000  -0.000   0.000  -0.002   0.003  -0.009  -0.000
 -0.000  -0.001  -0.000   0.000   0.001  -0.000   0.000   0.001  -0.000  -0.001  -0.001   0.000   0.001  -0.000   0.003   0.000
  0.000  -0.000   0.000  -0.001   0.000  -0.000   0.000  -0.000   0.001  -0.000  -0.001   0.001   0.000   0.000   0.002  -0.000
  0.000  -0.001   0.001   0.000  -0.001  -0.000   0.000  -0.001  -0.000   0.001   0.001  -0.001   0.000  -0.001   0.002  -0.000
  0.002  -0.001  -0.000  -0.000  -0.000   0.000   0.000  -0.000  -0.000   0.000   0.001  -0.000   0.000  -0.000   0.000  -0.000
 -0.001  -0.000   0.000   0.000   0.000   0.000   0.000  -0.000  -0.000  -0.000  -0.000   0.000   0.000  -0.001   0.002  -0.000
 -0.000   0.000   0.001  -0.000  -0.001  -0.000  -0.000   0.000   0.000  -0.000  -0.001   0.000  -0.000   0.000  -0.000   0.000
 -0.000   0.000  -0.000   0.001  -0.000  -0.000  -0.000   0.000  -0.000  -0.000  -0.001   0.000   0.000   0.000  -0.001  -0.000
 -0.000   0.000  -0.001  -0.000   0.001   0.000  -0.000  -0.000  -0.000   0.000   0.002  -0.000  -0.000   0.000  -0.001  -0.000
  0.000  -0.000  -0.001  -0.001   0.001   0.001  -0.000  -0.001  -0.001   0.002  -0.003  -0.002  -0.000  -0.001  -0.000   0.000
 -0.001   0.000   0.000   0.001  -0.001  -0.000   0.000   0.000   0.000  -0.000  -0.002   0.000   0.000   0.000   0.000   0.000
 -0.001  -0.002   0.001   0.000   0.000   0.000   0.000  -0.000   0.000  -0.000  -0.000   0.000   0.002  -0.002   0.008  -0.000
  0.000   0.003  -0.000   0.000  -0.001  -0.000  -0.001   0.000   0.000   0.000  -0.001   0.000  -0.002   0.003  -0.008   0.000
 -0.002  -0.009   0.003   0.002   0.002   0.000   0.002  -0.000  -0.001  -0.001  -0.000   0.000   0.008  -0.008   0.027  -0.000
 -0.000  -0.000   0.000  -0.000  -0.000  -0.000  -0.000   0.000  -0.000  -0.000   0.000   0.000  -0.000   0.000  -0.000   0.000
 -0.000   0.000  -0.000   0.000   0.000  -0.000   0.000  -0.000   0.000  -0.000   0.000  -0.000   0.000  -0.000   0.000  -0.000
 -0.000  -0.000   0.000   0.000   0.000  -0.000  -0.000   0.000  -0.000   0.000   0.000  -0.000  -0.000   0.000  -0.001   0.000


------------------------ aborting loop because EDIFF is reached ----------------------------------------


    CHARGE:  cpu time    0.05: real time    0.05
    FORLOC:  cpu time    0.01: real time    0.01
    FORNL :  cpu time    0.35: real time    0.35
    STRESS:  cpu time    0.39: real time    0.39
    FORCOR:  cpu time    0.22: real time    0.23
    FORHAR:  cpu time    0.03: real time    0.03
    MIXING:  cpu time    0.02: real time    0.02
    OFIELD:  cpu time    0.00: real time    0.00

  FORCE on cell =-STRESS in cart. coord.  units (eV):
  Direction    XX          YY          ZZ          XY          YZ          ZX
  --------------------------------------------------------------------------------------
  Alpha Z    13.02786    13.02786    13.02786
  Ewald    9599.11529  1107.59430  5149.74116  -229.85355   793.55108  -915.11581
  Hartree 13796.39028  6253.84092  9716.16914  -195.05472   669.44639  -834.19854
  E(xc)    -705.05881  -706.88565  -705.74256    -0.12710     0.26283    -0.13800
  Local  -24460.88616 -8438.34574-15927.86335   425.43817 -1459.97604  1750.26372
  n-local  -263.36717  -268.25558  -267.14998    -0.67412     0.34864    -0.84419
  augment  1028.16696  1036.49826  1028.40524     0.15843    -1.70151    -0.03230
  Kinetic   989.70621   999.62436   990.51190     0.13229    -1.92946     0.07173
  Fock        0.00000     0.00000     0.00000     0.00000     0.00000     0.00000
  -------------------------------------------------------------------------------------
  Total      -2.90554    -2.90126    -2.90059     0.01941     0.00192     0.00662
  in kB      -0.68535    -0.68434    -0.68418     0.00458     0.00045     0.00156
  external pressure =       -0.68 kB  Pullay stress =        0.00 kB


 VOLUME and BASIS-vectors are now :
 -----------------------------------------------------------------------------
  energy-cutoff  :      295.45
  volume of cell :     6792.42
      direct lattice vectors                 reciprocal lattice vectors
    18.938320000  0.000000000  0.000000000     0.052802994  0.000000000  0.000000000
     0.000000000 18.938320000  0.000000000     0.000000000  0.052802994  0.000000000
     0.000000000  0.000000000 18.938320000     0.000000000  0.000000000  0.052802994

  length of vectors
    18.938320000 18.938320000 18.938320000     0.052802994  0.052802994  0.052802994


 FORCES acting on ions
    electron-ion (+dipol)            ewald-force                    non-local-force                 convergence-correction
 -----------------------------------------------------------------------------------------------
   0.285E+03 0.236E+03 0.117E+04   -.283E+03 -.235E+03 -.116E+04   -.171E+01 -.140E+01 -.691E+01   -.126E-02 -.260E-03 -.591E-02
   -.403E+03 0.977E+03 -.300E+03   0.400E+03 -.976E+03 0.300E+03   0.289E+01 -.117E+01 0.432E+00   0.662E-03 0.210E-02 -.723E-03
   0.906E+02 0.246E+03 -.126E+04   -.909E+02 -.244E+03 0.125E+04   0.253E+00 -.139E+01 0.885E+01   -.169E-04 0.715E-03 0.497E-02
   0.104E+04 -.263E+03 0.683E+03   -.103E+04 0.261E+03 -.676E+03   -.687E+01 0.278E+01 -.664E+01   -.294E-03 0.446E-03 -.508E-02
   -.648E+03 0.584E+03 0.925E+03   0.645E+03 -.579E+03 -.918E+03   0.340E+01 -.555E+01 -.755E+01   -.259E-02 -.133E-02 -.498E-02
   0.104E+04 -.248E+03 -.667E+03   -.103E+04 0.246E+03 0.661E+03   -.694E+01 0.236E+01 0.572E+01   -.130E-02 -.205E-03 0.231E-02
   -.618E+03 -.679E+03 -.905E+03   0.615E+03 0.674E+03 0.898E+03   0.360E+01 0.452E+01 0.683E+01   0.118E-02 0.299E-02 0.381E-02
   0.643E+03 0.110E+04 -.476E+02   -.639E+03 -.109E+04 0.474E+02   -.390E+01 -.526E+01 0.298E+00   -.203E-02 0.911E-03 -.931E-03
   -.495E+03 -.979E+03 0.648E+03   0.492E+03 0.975E+03 -.645E+03   0.317E+01 0.465E+01 -.342E+01   0.383E-03 -.503E-03 -.131E-02
   -.124E+04 0.766E+02 -.172E+03   0.123E+04 -.760E+02 0.170E+03   0.890E+01 -.633E+00 0.243E+01   0.404E-03 0.227E-02 0.521E-03
   0.311E+03 -.105E+04 -.703E+02   -.309E+03 0.105E+04 0.691E+02   -.246E+01 0.152E+01 0.119E+01   -.763E-03 -.617E-03 0.397E-03
 -----------------------------------------------------------------------------------------------
   -.279E+00 -.314E+00 -.118E+01   -.114E-12 0.455E-12 0.853E-13   0.336E+00 0.416E+00 0.124E+01   -.563E-02 0.652E-02 -.693E-02
 
 
 POSITION                                       TOTAL-FORCE (eV/Angst)
 -----------------------------------------------------------------------------------
      9.03864      9.11283      7.70472        -0.020109     -0.015568     -0.003001
     10.34308      8.43321      9.72131        -0.000995     -0.008288      0.004328
      8.91608      9.18076     11.62885         0.022976      0.011606      0.021340
      6.78175      9.87223      8.43434         0.007040      0.014832      0.036746
     11.44464      8.48185      7.57421        -0.013250     -0.001286     -0.010303
      6.67552      9.87375     10.86130        -0.018617      0.012143     -0.021572
     10.89441     10.47063     10.88731        -0.003639     -0.022773      0.004859
      7.93602      8.17107      9.66912        -0.001613     -0.024161      0.012103
     10.80606     10.60929      8.47849         0.033344      0.008250     -0.001456
     12.61384      9.35796      9.51320        -0.004897      0.001662     -0.024152
      8.71071     10.59719      9.68791        -0.000240      0.023582     -0.018890
 -----------------------------------------------------------------------------------
    total drift:                                0.050959      0.108504      0.051824


--------------------------------------------------------------------------------------------------------



  FREE ENERGIE OF THE ION-ELECTRON SYSTEM (eV)
  ---------------------------------------------------
  free  energy   TOTEN  =       -27.29862544 eV

  energy  without entropy=      -27.29862544  energy(sigma->0) =      -27.29862544
 


--------------------------------------------------------------------------------------------------------


    POTLOK:  cpu time    0.23: real time    0.23


--------------------------------------------------------------------------------------------------------




--------------------------------------------------------------------------------------------------------


  
 reached required accuracy - stopping structural energy minimisation
     LOOP+:  cpu time   31.61: real time   34.39
    4ORBIT:  cpu time    0.00: real time    0.00

 total amount of memory used by VASP on root node    54962. kBytes
========================================================================

   base      :      30000. kBytes
   nonl-proj :       1564. kBytes
   fftplans  :       5777. kBytes
   grid      :      14451. kBytes
   one-center:         31. kBytes
   wavefun   :       3139. kBytes
 
  
  
 General timing and accounting informations for this job:
 ========================================================
  
                  Total CPU time used (sec):       32.682
                            User time (sec):       32.134
                          System time (sec):        0.548
                         Elapsed time (sec):       36.571
  
                   Maximum memory used (kb):       62396.
                   Average memory used (kb):           0.
  
                          Minor page faults:        81027
                          Major page faults:            0
                 Voluntary context switches:         1891
