   10   10 1000    2
  0.6440066E+03  0.1860502E-08  0.1860502E-08  0.1860502E-08  0.1000000E-15
  1.000000000000000E-004
  CAR 
 unknown system                          
    110      1     72
 
  0.0000000E+00  0.0000000E+00  0.0000000E+00  0.1000000E+01
    1       -9.024200     -9.024200
    2       -8.916349     -8.916349
    3       -8.876684     -8.876684
    4       -8.795967     -8.795967
    5       -8.679667     -8.679667
    6       -8.584002     -8.584002
    7       -8.531197     -8.531197
    8       -8.492525     -8.492526
    9       -8.451094     -8.451094
   10       -8.403788     -8.403788
   11       -8.380098     -8.380098
   12       -8.346625     -8.346625
   13       -8.219981     -8.219981
   14       -8.189380     -8.189380
   15       -8.128317     -8.128317
   16       -8.073969     -8.073969
   17       -7.990523     -7.990523
   18       -7.979523     -7.979523
   19       -7.882318     -7.882318
   20       -7.787672     -7.787672
   21       -7.730458     -7.730458
   22       -7.637004     -7.637004
   23       -7.575712     -7.575712
   24       -7.476173     -7.476173
   25       -7.464096     -7.464096
   26       -7.363905     -7.363905
   27       -7.317308     -7.317308
   28       -7.293487     -7.293487
   29       -7.252262     -7.252262
   30       -7.214742     -7.214742
   31       -7.175274     -7.175274
   32       -7.106459     -7.106459
   33       -7.063348     -7.063348
   34       -7.040016     -7.040016
   35       -7.005405     -7.005405
   36       -6.979396     -6.979396
   37       -6.944420     -6.944420
   38       -6.936097     -6.936097
   39       -6.890961     -6.890961
   40       -6.873636     -6.873636
   41       -6.833325     -6.833325
   42       -6.803879     -6.803879
   43       -6.745120     -6.745120
   44       -6.723740     -6.723740
   45       -6.675227     -6.675227
   46       -6.647861     -6.647861
   47       -6.623253     -6.623253
   48       -6.564362     -6.564362
   49       -6.517431     -6.517431
   50       -6.506019     -6.506019
   51       -6.432675     -6.432675
   52       -5.879537     -5.879537
   53       -5.090949     -5.090949
   54       -4.521071     -4.521071
   55       -4.020035     -4.020035
   56       -3.219622     -3.219622
   57       -2.769837     -2.769836
   58       -2.551047     -2.551048
   59       -2.199345     -2.199345
   60       -2.031661     -2.031661
   61       -1.667125     -1.667124
   62       -1.144213     -1.144214
   63       -0.904631     -0.904630
   64       -0.734961     -0.734962
   65       -0.527333     -0.527333
   66       -0.394348     -0.394349
   67       -0.173388     -0.173389
   68        0.070554      0.070555
   69        0.187970      0.187974
   70        0.252165      0.252162
   71        0.366597      0.366593
   72        0.489441      0.489445
