<?xml version="1.0" encoding="ISO-8859-1"?>
<modeling>
 <generator>
  <i name="program" type="string">vasp </i>
  <i name="version" type="string">5.3.5  </i>
  <i name="subversion" type="string">31Mar14 (build Feb 01 2018 12:10:03) gamma-only                       parallel </i>
  <i name="platform" type="string">LinuxIFC </i>
  <i name="date" type="string">2019 03 22 </i>
  <i name="time" type="string">10:00:29 </i>
 </generator>
 <incar>
  <i type="string" name="PREC">normal</i>
  <i type="int" name="ISPIN">     2</i>
  <i type="int" name="IBRION">     2</i>
  <i type="int" name="NSW">  1000</i>
  <i type="int" name="ISIF">     2</i>
  <i name="POTIM">      0.10000000</i>
  <i type="logical" name="LPLANE"> T  </i>
  <i type="int" name="ISMEAR">     0</i>
  <i name="SIGMA">      0.00010000</i>
  <i type="logical" name="LWAVE"> F  </i>
  <i type="logical" name="LCHARG"> F  </i>
  <i type="logical" name="LVTOT"> F  </i>
  <i type="string" name="GGA"> PE</i>
 </incar>
 <kpoints>
  <varray name="kpointlist" >
   <v>       0.00000000       0.00000000       0.00000000 </v>
  </varray>
  <varray name="weights" >
   <v>       1.00000000 </v>
  </varray>
 </kpoints>
 <parameters>
  <separator name="general" >
   <i type="string" name="SYSTEM">unknown system</i>
   <i type="logical" name="LCOMPAT"> F  </i>
  </separator>
  <separator name="electronic" >
   <i type="string" name="PREC">normal</i>
   <i name="ENMAX">    249.84400000</i>
   <i name="ENAUG">    412.49600000</i>
   <i name="EDIFF">      0.00010000</i>
   <i type="int" name="IALGO">    38</i>
   <i type="int" name="IWAVPR">    11</i>
   <i type="int" name="NBANDS">   216</i>
   <i name="NELECT">    330.00000000</i>
   <i type="int" name="TURBO">     0</i>
   <i type="int" name="IRESTART">     0</i>
   <i type="int" name="NREBOOT">     0</i>
   <i type="int" name="NMIN">     0</i>
   <i name="EREF">      0.00000000</i>
   <separator name="electronic smearing" >
    <i type="int" name="ISMEAR">     0</i>
    <i name="SIGMA">      0.00010000</i>
    <i name="KSPACING">      0.50000000</i>
    <i type="logical" name="KGAMMA"> T  </i>
   </separator>
   <separator name="electronic projectors" >
    <i type="logical" name="LREAL"> F  </i>
    <v name="ROPT">      0.00000000</v>
    <i type="int" name="LMAXPAW">  -100</i>
    <i type="int" name="LMAXMIX">     2</i>
    <i type="logical" name="NLSPLINE"> F  </i>
   </separator>
   <separator name="electronic startup" >
    <i type="int" name="ISTART">     0</i>
    <i type="int" name="ICHARG">     2</i>
    <i type="int" name="INIWAV">     1</i>
   </separator>
   <separator name="electronic spin" >
    <i type="int" name="ISPIN">     2</i>
    <i type="logical" name="LNONCOLLINEAR"> F  </i>
    <v name="MAGMOM">      1.00000000      1.00000000      1.00000000      1.00000000      1.00000000      1.00000000      1.00000000      1.00000000      1.00000000      1.00000000      1.00000000      1.00000000      1.00000000      1.00000000      1.00000000      1.00000000      1.00000000      1.00000000      1.00000000      1.00000000
      1.00000000      1.00000000      1.00000000      1.00000000      1.00000000      1.00000000      1.00000000      1.00000000      1.00000000      1.00000000</v>
    <i name="NUPDOWN">     -1.00000000</i>
    <i type="logical" name="LSORBIT"> F  </i>
    <v name="SAXIS">      0.00000000      0.00000000      1.00000000</v>
    <i type="logical" name="LSPIRAL"> F  </i>
    <v name="QSPIRAL">      0.00000000      0.00000000      0.00000000</v>
    <i type="logical" name="LZEROZ"> F  </i>
   </separator>
   <separator name="electronic exchange-correlation" >
    <i type="logical" name="LASPH"> F  </i>
    <i type="logical" name="LMETAGGA"> F  </i>
   </separator>
   <separator name="electronic convergence" >
    <i type="int" name="NELM">    60</i>
    <i type="int" name="NELMDL">    -5</i>
    <i type="int" name="NELMIN">     2</i>
    <i name="ENINI">    249.84400000</i>
    <separator name="electronic convergence detail" >
     <i type="logical" name="LDIAG"> T  </i>
     <i type="logical" name="LSUBROT"> F  </i>
     <i name="WEIMIN">      0.00100000</i>
     <i name="EBREAK">      0.00000012</i>
     <i name="DEPER">      0.30000000</i>
     <i type="int" name="NRMM">     4</i>
     <i name="TIME">      0.40000000</i>
    </separator>
   </separator>
   <separator name="electronic mixer" >
    <i name="AMIX">      0.40000000</i>
    <i name="BMIX">      1.00000000</i>
    <i name="AMIN">      0.10000000</i>
    <i name="AMIX_MAG">      1.60000000</i>
    <i name="BMIX_MAG">      1.00000000</i>
    <separator name="electronic mixer details" >
     <i type="int" name="IMIX">     4</i>
     <i type="int" name="MAXMIX">   -45</i>
     <i name="WC">    100.00000000</i>
     <i type="int" name="INIMIX">     1</i>
     <i type="int" name="MIXPRE">     1</i>
     <i type="int" name="MREMOVE">     5</i>
    </separator>
   </separator>
   <separator name="electronic dipolcorrection" >
    <i type="logical" name="LDIPOL"> F  </i>
    <i type="logical" name="LMONO"> F  </i>
    <i type="int" name="IDIPOL">     0</i>
    <i name="EPSILON">      1.00000000</i>
    <v name="DIPOL">   -100.00000000   -100.00000000   -100.00000000</v>
    <i name="EFIELD">      0.00000000</i>
   </separator>
  </separator>
  <separator name="grids" >
   <i type="int" name="NGX">    84</i>
   <i type="int" name="NGY">    84</i>
   <i type="int" name="NGZ">    84</i>
   <i type="int" name="NGXF">   168</i>
   <i type="int" name="NGYF">   168</i>
   <i type="int" name="NGZF">   168</i>
   <i type="logical" name="ADDGRID"> F  </i>
  </separator>
  <separator name="ionic" >
   <i type="int" name="NSW">  1000</i>
   <i type="int" name="IBRION">     2</i>
   <i type="int" name="ISIF">     2</i>
   <i name="PSTRESS">      0.00000000</i>
   <i name="EDIFFG">      0.00100000</i>
   <i type="int" name="NFREE">     1</i>
   <i name="POTIM">      0.10000000</i>
   <i name="SMASS">     -3.00000000</i>
   <i name="SCALEE">      1.00000000</i>
  </separator>
  <separator name="ionic md" >
   <i name="TEBEG">      0.00010000</i>
   <i name="TEEND">      0.00010000</i>
   <i type="int" name="NBLOCK">     1</i>
   <i type="int" name="KBLOCK">  1000</i>
   <i type="int" name="NPACO">   256</i>
   <i name="APACO">     16.00000000</i>
  </separator>
  <separator name="symmetry" >
   <i type="int" name="ISYM">     2</i>
   <i name="SYMPREC">      0.00001000</i>
  </separator>
  <separator name="dos" >
   <i type="logical" name="LORBIT"> F  </i>
   <v name="RWIGS">     -1.00000000</v>
   <i type="int" name="NEDOS">   301</i>
   <i name="EMIN">     10.00000000</i>
   <i name="EMAX">    -10.00000000</i>
   <i name="EFERMI">      0.00000000</i>
  </separator>
  <separator name="writing" >
   <i type="int" name="NWRITE">     2</i>
   <i type="logical" name="LWAVE"> F  </i>
   <i type="logical" name="LCHARG"> F  </i>
   <i type="logical" name="LPARD"> F  </i>
   <i type="logical" name="LVTOT"> F  </i>
   <i type="logical" name="LVHAR"> F  </i>
   <i type="logical" name="LELF"> F  </i>
   <i type="logical" name="LOPTICS"> F  </i>
   <v name="STM">      0.00000000      0.00000000      0.00000000      0.00000000      0.00000000      0.00000000      0.00000000</v>
  </separator>
  <separator name="performance" >
   <i type="int" name="NPAR">     4</i>
   <i type="int" name="NSIM">     4</i>
   <i type="int" name="NBLK">    -1</i>
   <i type="logical" name="LPLANE"> T  </i>
   <i type="logical" name="LSCALAPACK"> T  </i>
   <i type="logical" name="LSCAAWARE"> F  </i>
   <i type="logical" name="LSCALU"> F  </i>
   <i type="logical" name="LASYNC"> F  </i>
   <i type="logical" name="LORBITALREAL"> F  </i>
  </separator>
  <separator name="miscellaneous" >
   <i type="int" name="IDIOT">     3</i>
   <i type="logical" name="LMUSIC"> F  </i>
   <v name="POMASS">    107.86800000</v>
   <v name="DARWINR">      0.00000000</v>
   <v name="DARWINV">      1.00000000</v>
   <i type="logical" name="LCORR"> T  </i>
  </separator>
  <i type="logical" name="GGA_COMPAT"> T  </i>
  <i type="logical" name="LBERRY"> F  </i>
  <i type="int" name="ICORELEVEL">     0</i>
  <i type="logical" name="LDAU"> F  </i>
  <i type="int" name="I_CONSTRAINED_M">     0</i>
  <separator name="electronic exchange-correlation" >
   <i type="string" name="GGA">PE</i>
   <i type="int" name="VOSKOWN">     0</i>
   <i type="logical" name="LHFCALC"> F  </i>
   <i type="string" name="PRECFOCK"></i>
   <i type="logical" name="LSYMGRAD"> F  </i>
   <i type="logical" name="LHFONE"> F  </i>
   <i type="logical" name="LRHFCALC"> F  </i>
   <i type="logical" name="LTHOMAS"> F  </i>
   <i type="logical" name="LMODELHF"> F  </i>
   <i name="ENCUT4O">     -1.00000000</i>
   <i type="int" name="EXXOEP">     0</i>
   <i type="int" name="FOURORBIT">     0</i>
   <i name="AEXX">      0.00000000</i>
   <i name="HFALPHA">      0.00000000</i>
   <i name="MCALPHA">      0.00000000</i>
   <i name="ALDAX">      1.00000000</i>
   <i name="AGGAX">      1.00000000</i>
   <i name="ALDAC">      1.00000000</i>
   <i name="AGGAC">      1.00000000</i>
   <i type="int" name="NKREDX">     1</i>
   <i type="int" name="NKREDY">     1</i>
   <i type="int" name="NKREDZ">     1</i>
   <i type="logical" name="SHIFTRED"> F  </i>
   <i type="logical" name="ODDONLY"> F  </i>
   <i type="logical" name="EVENONLY"> F  </i>
   <i type="int" name="LMAXFOCK">     0</i>
   <i type="int" name="NMAXFOCKAE">     0</i>
   <i type="logical" name="LFOCKAEDFT"> F  </i>
   <i name="HFSCREEN">      0.00000000</i>
   <i name="HFSCREENC">      0.00000000</i>
   <i type="int" name="NBANDSGWLOW">     0</i>
  </separator>
  <separator name="vdW DFT" >
   <i type="logical" name="LUSE_VDW"> F  </i>
   <i name="Zab_VDW">     -0.84910000</i>
   <i name="PARAM1">      0.12340000</i>
   <i name="PARAM2">      1.00000000</i>
   <i name="PARAM3">      0.00000000</i>
  </separator>
  <separator name="model GW" >
   <i type="int" name="MODEL_GW">     0</i>
   <i name="MODEL_EPS0">    197.51330073</i>
   <i name="MODEL_ALPHA">      1.00000000</i>
  </separator>
  <separator name="linear response parameters" >
   <i type="logical" name="LEPSILON"> F  </i>
   <i type="logical" name="LRPA"> F  </i>
   <i type="logical" name="LNABLA"> F  </i>
   <i type="logical" name="LVEL"> F  </i>
   <i type="int" name="KINTER">     0</i>
   <i name="CSHIFT">      0.10000000</i>
   <i name="OMEGAMAX">     -1.00000000</i>
   <i name="DEG_THRESHOLD">      0.00200000</i>
  </separator>
  <separator name="orbital magnetization" >
   <i type="logical" name="NUCIND"> F  </i>
   <v name="MAGPOS">      0.00000000      0.00000000      0.00000000</v>
   <i type="logical" name="LNICSALL"> T  </i>
   <i type="logical" name="ORBITALMAG"> F  </i>
   <i type="logical" name="LMAGBLOCH"> F  </i>
   <i type="logical" name="LCHIMAG"> F  </i>
   <i type="logical" name="LGAUGE"> T  </i>
   <i type="int" name="MAGATOM">     0</i>
   <v name="MAGDIPOL">      0.00000000      0.00000000      0.00000000</v>
   <v name="AVECCONST">      0.00000000      0.00000000      0.00000000</v>
  </separator>
  <separator name="response functions" >
   <i type="logical" name="LADDER"> F  </i>
   <i type="logical" name="LFXC"> F  </i>
   <i type="logical" name="LHARTREE"> T  </i>
   <i type="int" name="IBSE">     0</i>
   <i type="logical" name="LTCTE"> F  </i>
   <i type="logical" name="LTETE"> F  </i>
   <i type="logical" name="LTRIPLET"> F  </i>
   <i type="logical" name="LFXCEPS"> F  </i>
   <i type="logical" name="LFXHEG"> F  </i>
   <i type="logical" name="L2ORDER"> F  </i>
   <i type="logical" name="LUSEW"> F  </i>
   <i name="ENCUTGW">     -2.00000000</i>
   <i name="ENCUTGWSOFT">     -2.00000000</i>
   <i name="ENCUTLF">     -1.00000000</i>
   <i type="int" name="LMAXMP2">    -1</i>
   <i name="SCISSOR">      0.00000000</i>
   <i type="int" name="NOMEGA">     0</i>
   <i type="int" name="NOMEGAR">     0</i>
   <i type="int" name="NBANDSGW">    -1</i>
   <i type="int" name="NBANDSO">    -1</i>
   <i type="int" name="NBANDSV">    -1</i>
   <i type="int" name="NELM">     1</i>
   <i type="int" name="DIM">     3</i>
   <i type="int" name="ANTIRES">     0</i>
   <i name="OMEGAMAX">    -30.00000000</i>
   <i name="OMEGAMIN">    -30.00000000</i>
   <i name="OMEGATL">   -200.00000000</i>
   <i type="int" name="OMEGAGRID">     0</i>
   <i name="CSHIFT">     -0.10000000</i>
   <i type="logical" name="SELFENERGY"> F  </i>
   <i type="logical" name="LSPECTRAL"> F  </i>
   <i type="logical" name="ODDONLYGW"> F  </i>
   <i type="logical" name="EVENONLYGW"> F  </i>
   <i type="int" name="NKREDLFX">     1</i>
   <i type="int" name="NKREDLFY">     1</i>
   <i type="int" name="NKREDLFZ">     1</i>
   <i type="int" name="MAXMEM">  1800</i>
   <i type="int" name="TELESCOPE">     0</i>
   <i type="int" name="TAUPAR">     1</i>
  </separator>
  <separator name="External order field" >
   <i name="OFIELD_KAPPA">      0.00000000</i>
   <v name="OFIELD_K">      0.00000000      0.00000000      0.00000000</v>
   <i name="OFIELD_Q6_NEAR">      0.00000000</i>
   <i name="OFIELD_Q6_FAR">      0.00000000</i>
   <i name="OFIELD_A">      0.00000000</i>
  </separator>
 </parameters>
 <atominfo>
  <atoms>      30 </atoms>
  <types>       1 </types>
  <array name="atoms" >
   <dimension dim="1">ion</dimension>
   <field type="string">element</field>
   <field type="int">atomtype</field>
   <set>
    <rc><c>Ag</c><c>   1</c></rc>
    <rc><c>Ag</c><c>   1</c></rc>
    <rc><c>Ag</c><c>   1</c></rc>
    <rc><c>Ag</c><c>   1</c></rc>
    <rc><c>Ag</c><c>   1</c></rc>
    <rc><c>Ag</c><c>   1</c></rc>
    <rc><c>Ag</c><c>   1</c></rc>
    <rc><c>Ag</c><c>   1</c></rc>
    <rc><c>Ag</c><c>   1</c></rc>
    <rc><c>Ag</c><c>   1</c></rc>
    <rc><c>Ag</c><c>   1</c></rc>
    <rc><c>Ag</c><c>   1</c></rc>
    <rc><c>Ag</c><c>   1</c></rc>
    <rc><c>Ag</c><c>   1</c></rc>
    <rc><c>Ag</c><c>   1</c></rc>
    <rc><c>Ag</c><c>   1</c></rc>
    <rc><c>Ag</c><c>   1</c></rc>
    <rc><c>Ag</c><c>   1</c></rc>
    <rc><c>Ag</c><c>   1</c></rc>
    <rc><c>Ag</c><c>   1</c></rc>
    <rc><c>Ag</c><c>   1</c></rc>
    <rc><c>Ag</c><c>   1</c></rc>
    <rc><c>Ag</c><c>   1</c></rc>
    <rc><c>Ag</c><c>   1</c></rc>
    <rc><c>Ag</c><c>   1</c></rc>
    <rc><c>Ag</c><c>   1</c></rc>
    <rc><c>Ag</c><c>   1</c></rc>
    <rc><c>Ag</c><c>   1</c></rc>
    <rc><c>Ag</c><c>   1</c></rc>
    <rc><c>Ag</c><c>   1</c></rc>
   </set>
  </array>
  <array name="atomtypes" >
   <dimension dim="1">type</dimension>
   <field type="int">atomspertype</field>
   <field type="string">element</field>
   <field>mass</field>
   <field>valence</field>
   <field type="string">pseudopotential</field>
   <set>
    <rc><c>  30</c><c>Ag</c><c>    107.86800000</c><c>     11.00000000</c><c>  PAW_PBE Ag 02Apr2005                  </c></rc>
   </set>
  </array>
 </atominfo>
 <structure name="initialpos" >
  <crystal>
   <varray name="basis" >
    <v>      21.45468374       0.00000000       0.00000000 </v>
    <v>       0.00000000      21.45468374       0.00000000 </v>
    <v>       0.00000000       0.00000000      21.45468374 </v>
   </varray>
   <i name="volume">   9875.66503659 </i>
   <varray name="rec_basis" >
    <v>       0.04660987       0.00000000       0.00000000 </v>
    <v>       0.00000000       0.04660987       0.00000000 </v>
    <v>       0.00000000       0.00000000       0.04660987 </v>
   </varray>
  </crystal>
  <varray name="positions" >
   <v>       0.51200256       0.75302340       0.70203479 </v>
   <v>       0.47730296       0.63768884       0.71581917 </v>
   <v>       0.49514587       0.51293431       0.70994267 </v>
   <v>       0.52462344       0.38509873       0.68894971 </v>
   <v>       0.59060307       0.71085923       0.62322602 </v>
   <v>       0.58140008       0.59558853       0.66673452 </v>
   <v>       0.69382318       0.68552769       0.56467276 </v>
   <v>       0.59783477       0.47373727       0.63169574 </v>
   <v>       0.65843963       0.56553470       0.56883990 </v>
   <v>       0.45099194       0.44644775       0.61067628 </v>
   <v>       0.44037624       0.58264749       0.60986632 </v>
   <v>       0.58170590       0.35913911       0.57896202 </v>
   <v>       0.63556374       0.45652029       0.50900254 </v>
   <v>       0.54360000       0.61969313       0.54360975 </v>
   <v>       0.64531363       0.63899355       0.46307868 </v>
   <v>       0.47794398       0.36838758       0.51329975 </v>
   <v>       0.35467676       0.39405702       0.52712021 </v>
   <v>       0.39158910       0.51160765       0.51581026 </v>
   <v>       0.51688280       0.49594100       0.50953313 </v>
   <v>       0.63406999       0.58231690       0.35562556 </v>
   <v>       0.58020917       0.35850538       0.44646390 </v>
   <v>       0.52802242       0.60242207       0.41956642 </v>
   <v>       0.58724288       0.47411994       0.39355427 </v>
   <v>       0.42648022       0.62600041       0.48816524 </v>
   <v>       0.40590769       0.35457827       0.41728789 </v>
   <v>       0.34034921       0.47069292       0.41045972 </v>
   <v>       0.50694381       0.34252820       0.34588124 </v>
   <v>       0.52281085       0.54351070       0.30405776 </v>
   <v>       0.41131798       0.57033489       0.37302359 </v>
   <v>       0.46054925       0.45528617       0.36676331 </v>
  </varray>
 </structure>
 <calculation>
  <scstep>
   <time name="dav">    3.90    3.91</time>
   <time name="total">    4.20    4.23</time>
   <energy>
    <i name="alphaZ">     77.51581886 </i>
    <i name="ewald">  62573.36161667 </i>
    <i name="hartreedc"> -92425.95096164 </i>
    <i name="XCdc">   -328.48066330 </i>
    <i name="pawpsdc">  30101.16534209 </i>
    <i name="pawaedc"> -28717.93826637 </i>
    <i name="eentropy">      0.00000000 </i>
    <i name="bandstr">    428.35182527 </i>
    <i name="atom">  31115.95890259 </i>
    <i name="e_fr_energy">   2823.98361417 </i>
    <i name="e_wo_entrp">   2823.98361417 </i>
    <i name="e_0_energy">   2823.98361417 </i>
   </energy>
  </scstep>
  <scstep>
   <time name="dav">    5.84    5.85</time>
   <time name="total">    5.84    5.85</time>
   <energy>
    <i name="e_fr_energy">    567.34487078 </i>
    <i name="e_wo_entrp">    567.34487078 </i>
    <i name="e_0_energy">    567.34487078 </i>
   </energy>
  </scstep>
  <scstep>
   <time name="dav">    4.78    4.79</time>
   <time name="total">    4.78    4.79</time>
   <energy>
    <i name="e_fr_energy">    -32.14931236 </i>
    <i name="e_wo_entrp">    -32.14931236 </i>
    <i name="e_0_energy">    -32.14931236 </i>
   </energy>
  </scstep>
  <scstep>
   <time name="dav">    4.19    4.19</time>
   <time name="total">    4.19    4.20</time>
   <energy>
    <i name="e_fr_energy">    -59.16216077 </i>
    <i name="e_wo_entrp">    -59.16216077 </i>
    <i name="e_0_energy">    -59.16216077 </i>
   </energy>
  </scstep>
  <scstep>
   <time name="dav">    4.30    4.30</time>
   <time name="total">    4.46    4.46</time>
   <energy>
    <i name="e_fr_energy">    -59.54359988 </i>
    <i name="e_wo_entrp">    -59.54359988 </i>
    <i name="e_0_energy">    -59.54359988 </i>
   </energy>
  </scstep>
  <scstep>
   <time name="dav">    3.95    3.95</time>
   <time name="total">    4.39    4.40</time>
   <energy>
    <i name="e_fr_energy">    -21.88373138 </i>
    <i name="e_wo_entrp">    -21.88373138 </i>
    <i name="e_0_energy">    -21.88373138 </i>
   </energy>
  </scstep>
  <scstep>
   <time name="dav">    4.12    4.12</time>
   <time name="total">    4.56    4.57</time>
   <energy>
    <i name="e_fr_energy">    -17.67129036 </i>
    <i name="e_wo_entrp">    -17.67129036 </i>
    <i name="e_0_energy">    -17.67129036 </i>
   </energy>
  </scstep>
  <scstep>
   <time name="dav">    4.07    4.07</time>
   <time name="total">    4.51    4.59</time>
   <energy>
    <i name="e_fr_energy">    -19.24114733 </i>
    <i name="e_wo_entrp">    -19.24114733 </i>
    <i name="e_0_energy">    -19.24114733 </i>
   </energy>
  </scstep>
  <scstep>
   <time name="dav">    4.21    4.21</time>
   <time name="total">    4.65    4.66</time>
   <energy>
    <i name="e_fr_energy">    -20.12591034 </i>
    <i name="e_wo_entrp">    -20.12591034 </i>
    <i name="e_0_energy">    -20.12591034 </i>
   </energy>
  </scstep>
  <scstep>
   <time name="dav">    4.05    4.05</time>
   <time name="total">    4.50    4.52</time>
   <energy>
    <i name="e_fr_energy">    -27.64273641 </i>
    <i name="e_wo_entrp">    -27.64273641 </i>
    <i name="e_0_energy">    -27.64273641 </i>
   </energy>
  </scstep>
  <scstep>
   <time name="dav">    4.02    4.03</time>
   <time name="total">    4.47    4.47</time>
   <energy>
    <i name="e_fr_energy">    -41.51736291 </i>
    <i name="e_wo_entrp">    -41.51736291 </i>
    <i name="e_0_energy">    -41.51736291 </i>
   </energy>
  </scstep>
  <scstep>
   <time name="dav">    4.19    4.19</time>
   <time name="total">    4.64    4.64</time>
   <energy>
    <i name="e_fr_energy">    -44.03103864 </i>
    <i name="e_wo_entrp">    -44.03103864 </i>
    <i name="e_0_energy">    -44.03103864 </i>
   </energy>
  </scstep>
  <scstep>
   <time name="dav">    3.97    3.97</time>
   <time name="total">    4.42    5.89</time>
   <energy>
    <i name="e_fr_energy">    -49.40360665 </i>
    <i name="e_wo_entrp">    -49.40360665 </i>
    <i name="e_0_energy">    -49.40360665 </i>
   </energy>
  </scstep>
  <scstep>
   <time name="dav">    4.28    4.28</time>
   <time name="total">    4.72    5.42</time>
   <energy>
    <i name="e_fr_energy">    -50.50276696 </i>
    <i name="e_wo_entrp">    -50.50276696 </i>
    <i name="e_0_energy">    -50.50276696 </i>
   </energy>
  </scstep>
  <scstep>
   <time name="dav">    3.98    3.98</time>
   <time name="total">    4.43    4.45</time>
   <energy>
    <i name="e_fr_energy">    -53.49363980 </i>
    <i name="e_wo_entrp">    -53.49363980 </i>
    <i name="e_0_energy">    -53.49363980 </i>
   </energy>
  </scstep>
  <scstep>
   <time name="dav">    3.98    3.98</time>
   <time name="total">    4.43    4.65</time>
   <energy>
    <i name="e_fr_energy">    -55.75107269 </i>
    <i name="e_wo_entrp">    -55.75107269 </i>
    <i name="e_0_energy">    -55.75107269 </i>
   </energy>
  </scstep>
  <scstep>
   <time name="dav">    4.30    4.30</time>
   <time name="total">    4.75    4.78</time>
   <energy>
    <i name="e_fr_energy">    -55.90154777 </i>
    <i name="e_wo_entrp">    -55.90154777 </i>
    <i name="e_0_energy">    -55.90154777 </i>
   </energy>
  </scstep>
  <scstep>
   <time name="dav">    4.03    4.03</time>
   <time name="total">    4.48    4.49</time>
   <energy>
    <i name="e_fr_energy">    -56.30615283 </i>
    <i name="e_wo_entrp">    -56.30615283 </i>
    <i name="e_0_energy">    -56.30615283 </i>
   </energy>
  </scstep>
  <scstep>
   <time name="dav">    3.92    3.92</time>
   <time name="total">    4.37    4.38</time>
   <energy>
    <i name="e_fr_energy">    -57.37282937 </i>
    <i name="e_wo_entrp">    -57.37282937 </i>
    <i name="e_0_energy">    -57.37282937 </i>
   </energy>
  </scstep>
  <scstep>
   <time name="dav">    4.09    4.09</time>
   <time name="total">    4.54    4.54</time>
   <energy>
    <i name="e_fr_energy">    -58.20755950 </i>
    <i name="e_wo_entrp">    -58.20755950 </i>
    <i name="e_0_energy">    -58.20755950 </i>
   </energy>
  </scstep>
  <scstep>
   <time name="dav">    4.29    4.29</time>
   <time name="total">    4.74    5.54</time>
   <energy>
    <i name="e_fr_energy">    -58.38299359 </i>
    <i name="e_wo_entrp">    -58.38299359 </i>
    <i name="e_0_energy">    -58.38299359 </i>
   </energy>
  </scstep>
  <scstep>
   <time name="dav">    4.04    4.04</time>
   <time name="total">    4.49    4.51</time>
   <energy>
    <i name="e_fr_energy">    -58.59913099 </i>
    <i name="e_wo_entrp">    -58.59913099 </i>
    <i name="e_0_energy">    -58.59913099 </i>
   </energy>
  </scstep>
  <scstep>
   <time name="dav">    4.09    4.09</time>
   <time name="total">    4.54    4.57</time>
   <energy>
    <i name="e_fr_energy">    -58.73043565 </i>
    <i name="e_wo_entrp">    -58.73043565 </i>
    <i name="e_0_energy">    -58.73043565 </i>
   </energy>
  </scstep>
  <scstep>
   <time name="dav">    3.88    3.88</time>
   <time name="total">    4.33    4.36</time>
   <energy>
    <i name="e_fr_energy">    -58.77847858 </i>
    <i name="e_wo_entrp">    -58.77847858 </i>
    <i name="e_0_energy">    -58.77847858 </i>
   </energy>
  </scstep>
  <scstep>
   <time name="dav">    3.20    3.20</time>
   <time name="total">    3.66    3.68</time>
   <energy>
    <i name="e_fr_energy">    -58.79863285 </i>
    <i name="e_wo_entrp">    -58.79863285 </i>
    <i name="e_0_energy">    -58.79863285 </i>
   </energy>
  </scstep>
  <scstep>
   <time name="dav">    3.61    3.61</time>
   <time name="total">    4.07    4.09</time>
   <energy>
    <i name="e_fr_energy">    -58.80801277 </i>
    <i name="e_wo_entrp">    -58.80801277 </i>
    <i name="e_0_energy">    -58.80801277 </i>
   </energy>
  </scstep>
  <scstep>
   <time name="dav">    3.20    3.21</time>
   <time name="total">    3.66    3.66</time>
   <energy>
    <i name="e_fr_energy">    -58.80977632 </i>
    <i name="e_wo_entrp">    -58.80977632 </i>
    <i name="e_0_energy">    -58.80977632 </i>
   </energy>
  </scstep>
  <scstep>
   <time name="dav">    2.99    2.99</time>
   <time name="total">    3.44    3.47</time>
   <energy>
    <i name="e_fr_energy">    -58.81187771 </i>
    <i name="e_wo_entrp">    -58.81187771 </i>
    <i name="e_0_energy">    -58.81187771 </i>
   </energy>
  </scstep>
  <scstep>
   <time name="dav">    3.10    3.10</time>
   <time name="total">    3.55    3.58</time>
   <energy>
    <i name="e_fr_energy">    -58.81490631 </i>
    <i name="e_wo_entrp">    -58.81490631 </i>
    <i name="e_0_energy">    -58.81490631 </i>
   </energy>
  </scstep>
  <scstep>
   <time name="dav">    3.18    3.18</time>
   <time name="total">    3.64    3.64</time>
   <energy>
    <i name="e_fr_energy">    -58.81545014 </i>
    <i name="e_wo_entrp">    -58.81545014 </i>
    <i name="e_0_energy">    -58.81545014 </i>
   </energy>
  </scstep>
  <scstep>
   <time name="dav">    3.04    3.05</time>
   <time name="total">    3.50    3.53</time>
   <energy>
    <i name="e_fr_energy">    -58.81578866 </i>
    <i name="e_wo_entrp">    -58.81578866 </i>
    <i name="e_0_energy">    -58.81578866 </i>
   </energy>
  </scstep>
  <scstep>
   <time name="dav">    3.13    3.13</time>
   <time name="total">    3.59    3.61</time>
   <energy>
    <i name="e_fr_energy">    -58.81593252 </i>
    <i name="e_wo_entrp">    -58.81593252 </i>
    <i name="e_0_energy">    -58.81593252 </i>
   </energy>
  </scstep>
  <scstep>
   <time name="dav">    2.99    3.00</time>
   <time name="total">    3.29    3.64</time>
   <energy>
    <i name="alphaZ">     77.51581886 </i>
    <i name="ewald">  62573.36161667 </i>
    <i name="hartreedc"> -92390.06304693 </i>
    <i name="XCdc">   -339.50167217 </i>
    <i name="pawpsdc">  32765.79493286 </i>
    <i name="pawaedc"> -31442.32189105 </i>
    <i name="eentropy">      0.00000000 </i>
    <i name="bandstr">  -2419.56060108 </i>
    <i name="atom">  31115.95890259 </i>
    <i name="e_fr_energy">    -58.81594026 </i>
    <i name="e_wo_entrp">    -58.81594026 </i>
    <i name="e_0_energy">    -58.81594026 </i>
   </energy>
  </scstep>
  <structure>
   <crystal>
    <varray name="basis" >
     <v>      21.45468374       0.00000000       0.00000000 </v>
     <v>       0.00000000      21.45468374       0.00000000 </v>
     <v>       0.00000000       0.00000000      21.45468374 </v>
    </varray>
    <i name="volume">   9875.66503659 </i>
    <varray name="rec_basis" >
     <v>       0.04660987       0.00000000       0.00000000 </v>
     <v>       0.00000000       0.04660987       0.00000000 </v>
     <v>       0.00000000       0.00000000       0.04660987 </v>
    </varray>
   </crystal>
   <varray name="positions" >
    <v>       0.51200256       0.75302340       0.70203479 </v>
    <v>       0.47730296       0.63768884       0.71581917 </v>
    <v>       0.49514587       0.51293431       0.70994267 </v>
    <v>       0.52462344       0.38509873       0.68894971 </v>
    <v>       0.59060307       0.71085923       0.62322602 </v>
    <v>       0.58140008       0.59558853       0.66673452 </v>
    <v>       0.69382318       0.68552769       0.56467276 </v>
    <v>       0.59783477       0.47373727       0.63169574 </v>
    <v>       0.65843963       0.56553470       0.56883990 </v>
    <v>       0.45099194       0.44644775       0.61067628 </v>
    <v>       0.44037624       0.58264749       0.60986632 </v>
    <v>       0.58170590       0.35913911       0.57896202 </v>
    <v>       0.63556374       0.45652029       0.50900254 </v>
    <v>       0.54360000       0.61969313       0.54360975 </v>
    <v>       0.64531363       0.63899355       0.46307868 </v>
    <v>       0.47794398       0.36838758       0.51329975 </v>
    <v>       0.35467676       0.39405702       0.52712021 </v>
    <v>       0.39158910       0.51160765       0.51581026 </v>
    <v>       0.51688280       0.49594100       0.50953313 </v>
    <v>       0.63406999       0.58231690       0.35562556 </v>
    <v>       0.58020917       0.35850538       0.44646390 </v>
    <v>       0.52802242       0.60242207       0.41956642 </v>
    <v>       0.58724288       0.47411994       0.39355427 </v>
    <v>       0.42648022       0.62600041       0.48816524 </v>
    <v>       0.40590769       0.35457827       0.41728789 </v>
    <v>       0.34034921       0.47069292       0.41045972 </v>
    <v>       0.50694381       0.34252820       0.34588124 </v>
    <v>       0.52281085       0.54351070       0.30405776 </v>
    <v>       0.41131798       0.57033489       0.37302359 </v>
    <v>       0.46054925       0.45528617       0.36676331 </v>
   </varray>
  </structure>
  <varray name="forces" >
   <v>      -0.31480674       0.69926842       0.30903191 </v>
   <v>      -0.49701887      -0.03602434       0.42591616 </v>
   <v>       0.03555950      -0.35534495       0.38821612 </v>
   <v>       0.12387869      -0.00203600       0.66232015 </v>
   <v>       0.12379580       0.36564724      -0.16951702 </v>
   <v>       0.46846889      -0.28081420       0.29564851 </v>
   <v>       0.59890047       0.28737813       0.07842348 </v>
   <v>      -0.22469208      -0.02240398       0.25231079 </v>
   <v>       0.16659266      -0.02594163       0.08278380 </v>
   <v>      -0.29097972       0.03261653      -0.07157172 </v>
   <v>      -0.22329046      -0.24202779       0.17680555 </v>
   <v>       0.37849808      -0.22659777      -0.06229291 </v>
   <v>       0.39774116      -0.28867093      -0.04459229 </v>
   <v>       0.17971909       0.17014217      -0.06907897 </v>
   <v>       0.00430781       0.11264303      -0.06198177 </v>
   <v>      -0.14523763      -0.12198133       0.35506348 </v>
   <v>      -0.31645659      -0.12633864       0.00295678 </v>
   <v>      -0.40288539       0.18314099       0.07985680 </v>
   <v>       0.18495922       0.25288254      -0.20220068 </v>
   <v>       0.41191753       0.04012934      -0.75246098 </v>
   <v>       0.48251980      -0.10225453      -0.09102386 </v>
   <v>       0.04207188      -0.23520717      -0.29892684 </v>
   <v>      -0.17467387      -0.27467977      -0.08971497 </v>
   <v>      -0.29378506       0.52269010       0.17828845 </v>
   <v>      -0.75410090      -0.31386441      -0.47491041 </v>
   <v>      -0.22832978      -0.30440490      -0.06550046 </v>
   <v>       0.29618572      -0.13331739      -0.35320098 </v>
   <v>       0.00469915       0.26067814      -0.38765614 </v>
   <v>      -0.04348184       0.13703656      -0.09022849 </v>
   <v>       0.00992347       0.02765653      -0.00276350 </v>
  </varray>
  <varray name="stress" >
   <v>       0.56859899       0.15869695      -0.28384491 </v>
   <v>       0.15869695       0.07071591       0.32985518 </v>
   <v>      -0.28384492       0.32985519       1.02149873 </v>
  </varray>
  <energy>
   <i name="e_fr_energy">    -58.81594026 </i>
   <i name="e_wo_entrp">    -58.81594026 </i>
   <i name="e_0_energy">      0.00000000 </i>
  </energy>
  <time name="totalsc">  149.31  154.74</time>
 </calculation>
 <calculation>
  <scstep>
   <time name="dav">    4.05    4.05</time>
   <time name="total">    4.50    4.51</time>
   <energy>
    <i name="alphaZ">     77.51581886 </i>
    <i name="ewald">  62443.49270988 </i>
    <i name="hartreedc"> -92261.06325730 </i>
    <i name="XCdc">   -339.67497411 </i>
    <i name="pawpsdc">  32765.80882123 </i>
    <i name="pawaedc"> -31442.33639462 </i>
    <i name="eentropy">      0.00000000 </i>
    <i name="bandstr">  -2418.58568769 </i>
    <i name="atom">  31115.95890259 </i>
    <i name="e_fr_energy">    -58.88406116 </i>
    <i name="e_wo_entrp">    -58.88406116 </i>
    <i name="e_0_energy">    -58.88406116 </i>
   </energy>
  </scstep>
  <scstep>
   <time name="dav">    4.08    4.08</time>
   <time name="total">    4.53    4.54</time>
   <energy>
    <i name="e_fr_energy">    -58.88637134 </i>
    <i name="e_wo_entrp">    -58.88637134 </i>
    <i name="e_0_energy">    -58.88637134 </i>
   </energy>
  </scstep>
  <scstep>
   <time name="dav">    4.13    4.13</time>
   <time name="total">    4.43    4.62</time>
   <energy>
    <i name="alphaZ">     77.51581886 </i>
    <i name="ewald">  62443.49270988 </i>
    <i name="hartreedc"> -92261.95469564 </i>
    <i name="XCdc">   -339.65015724 </i>
    <i name="pawpsdc">  32750.06949976 </i>
    <i name="pawaedc"> -31426.35099589 </i>
    <i name="eentropy">      0.00000000 </i>
    <i name="bandstr">  -2417.96740457 </i>
    <i name="atom">  31115.95890259 </i>
    <i name="e_fr_energy">    -58.88632225 </i>
    <i name="e_wo_entrp">    -58.88632225 </i>
    <i name="e_0_energy">    -58.88632225 </i>
   </energy>
  </scstep>
  <structure>
   <crystal>
    <varray name="basis" >
     <v>      21.45468374       0.00000000       0.00000000 </v>
     <v>       0.00000000      21.45468374       0.00000000 </v>
     <v>       0.00000000       0.00000000      21.45468374 </v>
    </varray>
    <i name="volume">   9875.66503659 </i>
    <varray name="rec_basis" >
     <v>       0.04660987       0.00000000       0.00000000 </v>
     <v>       0.00000000       0.04660987       0.00000000 </v>
     <v>       0.00000000       0.00000000       0.04660987 </v>
    </varray>
   </crystal>
   <varray name="positions" >
    <v>       0.51186098       0.75333787       0.70217377 </v>
    <v>       0.47707944       0.63767264       0.71601071 </v>
    <v>       0.49516187       0.51277450       0.71011725 </v>
    <v>       0.52467915       0.38509781       0.68924756 </v>
    <v>       0.59065875       0.71102367       0.62314979 </v>
    <v>       0.58161075       0.59546225       0.66686748 </v>
    <v>       0.69409251       0.68565693       0.56470803 </v>
    <v>       0.59773372       0.47372719       0.63180921 </v>
    <v>       0.65851455       0.56552303       0.56887713 </v>
    <v>       0.45086108       0.44646242       0.61064409 </v>
    <v>       0.44027582       0.58253865       0.60994583 </v>
    <v>       0.58187612       0.35903721       0.57893401 </v>
    <v>       0.63574261       0.45639047       0.50898248 </v>
    <v>       0.54368083       0.61976965       0.54357868 </v>
    <v>       0.64531557       0.63904420       0.46305081 </v>
    <v>       0.47787866       0.36833272       0.51345943 </v>
    <v>       0.35453445       0.39400020       0.52712154 </v>
    <v>       0.39140792       0.51169001       0.51584617 </v>
    <v>       0.51696598       0.49605473       0.50944220 </v>
    <v>       0.63425523       0.58233495       0.35528717 </v>
    <v>       0.58042617       0.35845940       0.44642297 </v>
    <v>       0.52804134       0.60231630       0.41943199 </v>
    <v>       0.58716432       0.47399641       0.39351392 </v>
    <v>       0.42634810       0.62623547       0.48824542 </v>
    <v>       0.40556856       0.35443712       0.41707432 </v>
    <v>       0.34024653       0.47055603       0.41043026 </v>
    <v>       0.50707701       0.34246824       0.34572240 </v>
    <v>       0.52281297       0.54362793       0.30388343 </v>
    <v>       0.41129843       0.57039652       0.37298301 </v>
    <v>       0.46055371       0.45529861       0.36676206 </v>
   </varray>
  </structure>
  <varray name="forces" >
   <v>      -0.29178738       0.63488887       0.27819556 </v>
   <v>      -0.44310119      -0.02902080       0.39020439 </v>
   <v>       0.03408378      -0.32607773       0.37346515 </v>
   <v>       0.11693680       0.00427885       0.61441890 </v>
   <v>       0.09932835       0.34176191      -0.13620409 </v>
   <v>       0.41519771      -0.23216080       0.29673445 </v>
   <v>       0.56579810       0.26407782       0.06819448 </v>
   <v>      -0.21641712      -0.03182281       0.22577853 </v>
   <v>       0.15897381      -0.01978176       0.07542151 </v>
   <v>      -0.26552411       0.02678699      -0.05411779 </v>
   <v>      -0.20171318      -0.23050679       0.17540466 </v>
   <v>       0.35538565      -0.21108501      -0.04632806 </v>
   <v>       0.38228800      -0.27027857      -0.03434849 </v>
   <v>       0.16249898       0.16245510      -0.05959969 </v>
   <v>       0.00609838       0.10069199      -0.06607241 </v>
   <v>      -0.14093151      -0.12494312       0.29344998 </v>
   <v>      -0.29891949      -0.11647260      -0.00854430 </v>
   <v>      -0.38475841       0.17962023       0.06728509 </v>
   <v>       0.17178979       0.23925734      -0.19030646 </v>
   <v>       0.38127105       0.03216340      -0.70550416 </v>
   <v>       0.44146519      -0.10539366      -0.07950478 </v>
   <v>       0.04320921      -0.23130862      -0.27718313 </v>
   <v>      -0.16098241      -0.24021628      -0.09744270 </v>
   <v>      -0.26539963       0.49550748       0.16914813 </v>
   <v>      -0.68531397      -0.29447869      -0.44347560 </v>
   <v>      -0.21531914      -0.29213046      -0.06126546 </v>
   <v>       0.27212330      -0.11258216      -0.31920779 </v>
   <v>       0.00413708       0.24705214      -0.37076303 </v>
   <v>      -0.04670326       0.12415824      -0.07814817 </v>
   <v>       0.00628560       0.01555951       0.00031527 </v>
  </varray>
  <varray name="stress" >
   <v>       0.42810433       0.15107280      -0.25920184 </v>
   <v>       0.15107280      -0.04651885       0.32563646 </v>
   <v>      -0.25920185       0.32563646       0.87556342 </v>
  </varray>
  <energy>
   <i name="e_fr_energy">    -58.88632225 </i>
   <i name="e_wo_entrp">    -58.88632225 </i>
   <i name="e_0_energy">      0.00000000 </i>
  </energy>
  <time name="totalsc">   20.92   21.40</time>
 </calculation>
 <calculation>
  <scstep>
   <time name="dav">    3.94    3.94</time>
   <time name="total">    4.38    4.41</time>
   <energy>
    <i name="alphaZ">     77.51581886 </i>
    <i name="ewald">  62055.60347135 </i>
    <i name="hartreedc"> -91876.98510184 </i>
    <i name="XCdc">   -340.15469329 </i>
    <i name="pawpsdc">  32741.71199473 </i>
    <i name="pawaedc"> -31417.85478501 </i>
    <i name="eentropy">      0.00000000 </i>
    <i name="bandstr">  -2414.84408483 </i>
    <i name="atom">  31115.95890259 </i>
    <i name="e_fr_energy">    -59.04847744 </i>
    <i name="e_wo_entrp">    -59.04847744 </i>
    <i name="e_0_energy">    -59.04847744 </i>
   </energy>
  </scstep>
  <scstep>
   <time name="dav">    4.07    4.07</time>
   <time name="total">    4.52    4.52</time>
   <energy>
    <i name="e_fr_energy">    -59.06897229 </i>
    <i name="e_wo_entrp">    -59.06897229 </i>
    <i name="e_0_energy">    -59.06897229 </i>
   </energy>
  </scstep>
  <scstep>
   <time name="dav">    4.05    4.05</time>
   <time name="total">    4.50    4.52</time>
   <energy>
    <i name="e_fr_energy">    -59.06849391 </i>
    <i name="e_wo_entrp">    -59.06849391 </i>
    <i name="e_0_energy">    -59.06849391 </i>
   </energy>
  </scstep>
  <scstep>
   <time name="dav">    4.15    4.16</time>
   <time name="total">    4.60    4.62</time>
   <energy>
    <i name="e_fr_energy">    -59.06821891 </i>
    <i name="e_wo_entrp">    -59.06821891 </i>
    <i name="e_0_energy">    -59.06821891 </i>
   </energy>
  </scstep>
  <scstep>
   <time name="dav">    3.02    3.02</time>
   <time name="total">    3.32    3.34</time>
   <energy>
    <i name="alphaZ">     77.51581886 </i>
    <i name="ewald">  62055.60347135 </i>
    <i name="hartreedc"> -91880.71621940 </i>
    <i name="XCdc">   -340.05760737 </i>
    <i name="pawpsdc">  32666.33681741 </i>
    <i name="pawaedc"> -31341.25219748 </i>
    <i name="eentropy">      0.00000000 </i>
    <i name="bandstr">  -2412.45717730 </i>
    <i name="atom">  31115.95890259 </i>
    <i name="e_fr_energy">    -59.06819134 </i>
    <i name="e_wo_entrp">    -59.06819134 </i>
    <i name="e_0_energy">    -59.06819134 </i>
   </energy>
  </scstep>
  <structure>
   <crystal>
    <varray name="basis" >
     <v>      21.45468374       0.00000000       0.00000000 </v>
     <v>       0.00000000      21.45468374       0.00000000 </v>
     <v>       0.00000000       0.00000000      21.45468374 </v>
    </varray>
    <i name="volume">   9875.66503659 </i>
    <varray name="rec_basis" >
     <v>       0.04660987       0.00000000       0.00000000 </v>
     <v>       0.00000000       0.04660987       0.00000000 </v>
     <v>       0.00000000       0.00000000       0.04660987 </v>
    </varray>
   </crystal>
   <varray name="positions" >
    <v>       0.51143626       0.75428129       0.70259070 </v>
    <v>       0.47640888       0.63762403       0.71658534 </v>
    <v>       0.49520984       0.51229509       0.71064102 </v>
    <v>       0.52484628       0.38509507       0.69014113 </v>
    <v>       0.59082577       0.71151698       0.62292109 </v>
    <v>       0.58224279       0.59508339       0.66726636 </v>
    <v>       0.69490052       0.68604465       0.56481383 </v>
    <v>       0.59743058       0.47369697       0.63214962 </v>
    <v>       0.65873931       0.56548803       0.56898881 </v>
    <v>       0.45046851       0.44650643       0.61054753 </v>
    <v>       0.43997457       0.58221212       0.61018437 </v>
    <v>       0.58238677       0.35873149       0.57884996 </v>
    <v>       0.63627922       0.45600101       0.50892232 </v>
    <v>       0.54392329       0.61999920       0.54348548 </v>
    <v>       0.64532138       0.63919617       0.46296718 </v>
    <v>       0.47768271       0.36816815       0.51393846 </v>
    <v>       0.35410750       0.39382975       0.52712553 </v>
    <v>       0.39086436       0.51193710       0.51595391 </v>
    <v>       0.51721551       0.49639591       0.50916940 </v>
    <v>       0.63481097       0.58238909       0.35427198 </v>
    <v>       0.58107716       0.35832144       0.44630016 </v>
    <v>       0.52809810       0.60199897       0.41902869 </v>
    <v>       0.58692866       0.47362583       0.39339288 </v>
    <v>       0.42595174       0.62694066       0.48848596 </v>
    <v>       0.40455116       0.35401367       0.41643359 </v>
    <v>       0.33993848       0.47014534       0.41034190 </v>
    <v>       0.50747661       0.34228838       0.34524588 </v>
    <v>       0.52281931       0.54397963       0.30336042 </v>
    <v>       0.41123977       0.57058140       0.37286128 </v>
    <v>       0.46056710       0.45533592       0.36675834 </v>
   </varray>
  </structure>
  <varray name="forces" >
   <v>      -0.23305746       0.48214917       0.19988034 </v>
   <v>      -0.30997042      -0.01518849       0.30446229 </v>
   <v>       0.03090229      -0.25203701       0.33951331 </v>
   <v>       0.10107944       0.01950156       0.50085062 </v>
   <v>       0.03755481       0.28606642      -0.05019778 </v>
   <v>       0.27941122      -0.10763755       0.30396570 </v>
   <v>       0.49338633       0.20815043       0.04363291 </v>
   <v>      -0.19560398      -0.06102449       0.16005556 </v>
   <v>       0.14202621      -0.00413754       0.05988528 </v>
   <v>      -0.20318341       0.01381114      -0.00705582 </v>
   <v>      -0.14749277      -0.20021011       0.17456701 </v>
   <v>       0.29991651      -0.17214463      -0.00610942 </v>
   <v>       0.34399532      -0.22666796      -0.00550707 </v>
   <v>       0.11782581       0.14625034      -0.03678970 </v>
   <v>       0.01092611       0.07220988      -0.07957353 </v>
   <v>      -0.12968704      -0.13637860       0.13724748 </v>
   <v>      -0.25521295      -0.09320368      -0.03885913 </v>
   <v>      -0.34114599       0.17365066       0.03448679 </v>
   <v>       0.14138296       0.20776635      -0.16185163 </v>
   <v>       0.30289924       0.01281616      -0.59132030 </v>
   <v>       0.33768754      -0.11895573      -0.05057738 </v>
   <v>       0.04601715      -0.22463355      -0.22330689 </v>
   <v>      -0.12701324      -0.15075314      -0.12104297 </v>
   <v>      -0.19460497       0.42607100       0.14451274 </v>
   <v>      -0.52022824      -0.24261446      -0.36960634 </v>
   <v>      -0.18246248      -0.27901359      -0.05343515 </v>
   <v>       0.21480740      -0.05651936      -0.23306439 </v>
   <v>       0.00323592       0.21616402      -0.33725132 </v>
   <v>      -0.05637487       0.09381494      -0.04499899 </v>
   <v>      -0.00701644      -0.01730218       0.00748775 </v>
  </varray>
  <varray name="stress" >
   <v>       0.06106610       0.13624494      -0.20646446 </v>
   <v>       0.13624494      -0.34557203       0.31700792 </v>
   <v>      -0.20646445       0.31700792       0.49368527 </v>
  </varray>
  <energy>
   <i name="e_fr_energy">    -59.06819134 </i>
   <i name="e_wo_entrp">    -59.06819134 </i>
   <i name="e_0_energy">      0.00000000 </i>
  </energy>
  <time name="totalsc">   28.77   28.88</time>
 </calculation>
 <calculation>
  <scstep>
   <time name="dav">    3.94    3.94</time>
   <time name="total">    4.39    4.40</time>
   <energy>
    <i name="alphaZ">     77.51581886 </i>
    <i name="ewald">  61287.46144325 </i>
    <i name="hartreedc"> -91117.17738638 </i>
    <i name="XCdc">   -341.03597386 </i>
    <i name="pawpsdc">  32666.65384958 </i>
    <i name="pawaedc"> -31341.57196716 </i>
    <i name="eentropy">      0.00000000 </i>
    <i name="bandstr">  -2407.03960593 </i>
    <i name="atom">  31115.95890259 </i>
    <i name="e_fr_energy">    -59.23491906 </i>
    <i name="e_wo_entrp">    -59.23491906 </i>
    <i name="e_0_energy">    -59.23491906 </i>
   </energy>
  </scstep>
  <scstep>
   <time name="dav">    4.05    4.05</time>
   <time name="total">    4.49    4.50</time>
   <energy>
    <i name="e_fr_energy">    -59.31747578 </i>
    <i name="e_wo_entrp">    -59.31747578 </i>
    <i name="e_0_energy">    -59.31747578 </i>
   </energy>
  </scstep>
  <scstep>
   <time name="dav">    4.05    4.05</time>
   <time name="total">    4.50    4.52</time>
   <energy>
    <i name="e_fr_energy">    -59.31634575 </i>
    <i name="e_wo_entrp">    -59.31634575 </i>
    <i name="e_0_energy">    -59.31634575 </i>
   </energy>
  </scstep>
  <scstep>
   <time name="dav">    4.16    4.16</time>
   <time name="total">    4.60    4.63</time>
   <energy>
    <i name="e_fr_energy">    -59.31474880 </i>
    <i name="e_wo_entrp">    -59.31474880 </i>
    <i name="e_0_energy">    -59.31474880 </i>
   </energy>
  </scstep>
  <scstep>
   <time name="dav">    4.10    4.10</time>
   <time name="total">    4.55    4.56</time>
   <energy>
    <i name="e_fr_energy">    -59.31473340 </i>
    <i name="e_wo_entrp">    -59.31473340 </i>
    <i name="e_0_energy">    -59.31473340 </i>
   </energy>
  </scstep>
  <scstep>
   <time name="dav">    2.94    2.94</time>
   <time name="total">    3.23    3.24</time>
   <energy>
    <i name="alphaZ">     77.51581886 </i>
    <i name="ewald">  61287.46144325 </i>
    <i name="hartreedc"> -91124.35423369 </i>
    <i name="XCdc">   -340.84733238 </i>
    <i name="pawpsdc">  32530.80120235 </i>
    <i name="pawaedc"> -31203.45189507 </i>
    <i name="eentropy">      0.00000000 </i>
    <i name="bandstr">  -2402.39857927 </i>
    <i name="atom">  31115.95890259 </i>
    <i name="e_fr_energy">    -59.31467336 </i>
    <i name="e_wo_entrp">    -59.31467336 </i>
    <i name="e_0_energy">    -59.31467336 </i>
   </energy>
  </scstep>
  <structure>
   <crystal>
    <varray name="basis" >
     <v>      21.45468374       0.00000000       0.00000000 </v>
     <v>       0.00000000      21.45468374       0.00000000 </v>
     <v>       0.00000000       0.00000000      21.45468374 </v>
    </varray>
    <i name="volume">   9875.66503659 </i>
    <varray name="rec_basis" >
     <v>       0.04660987       0.00000000       0.00000000 </v>
     <v>       0.00000000       0.04660987       0.00000000 </v>
     <v>       0.00000000       0.00000000       0.04660987 </v>
    </varray>
   </crystal>
   <varray name="positions" >
    <v>       0.51058682       0.75616813       0.70342456 </v>
    <v>       0.47506778       0.63752683       0.71773459 </v>
    <v>       0.49530579       0.51133626       0.71168854 </v>
    <v>       0.52518054       0.38508957       0.69192827 </v>
    <v>       0.59115980       0.71250361       0.62246368 </v>
    <v>       0.58350686       0.59432566       0.66806411 </v>
    <v>       0.69651653       0.68682008       0.56502544 </v>
    <v>       0.59682429       0.47363652       0.63283043 </v>
    <v>       0.65918883       0.56541803       0.56921219 </v>
    <v>       0.44968336       0.44659443       0.61035441 </v>
    <v>       0.43937206       0.58155906       0.61066145 </v>
    <v>       0.58340807       0.35812006       0.57868188 </v>
    <v>       0.63735244       0.45522208       0.50880200 </v>
    <v>       0.54440823       0.62045829       0.54329909 </v>
    <v>       0.64533301       0.63950012       0.46279994 </v>
    <v>       0.47729082       0.36783901       0.51489653 </v>
    <v>       0.35325360       0.39348885       0.52713351 </v>
    <v>       0.38977726       0.51243127       0.51616939 </v>
    <v>       0.51771459       0.49707826       0.50862380 </v>
    <v>       0.63592245       0.58249737       0.35224162 </v>
    <v>       0.58237914       0.35804553       0.44605455 </v>
    <v>       0.52821163       0.60136431       0.41822210 </v>
    <v>       0.58645734       0.47288466       0.39315081 </v>
    <v>       0.42515902       0.62835103       0.48896704 </v>
    <v>       0.40251637       0.35316677       0.41515214 </v>
    <v>       0.33932238       0.46932396       0.41016516 </v>
    <v>       0.50827581       0.34192865       0.34429284 </v>
    <v>       0.52283199       0.54468301       0.30231441 </v>
    <v>       0.41112244       0.57095117       0.37261782 </v>
    <v>       0.46059388       0.45541054       0.36675088 </v>
   </varray>
  </structure>
  <varray name="forces" >
   <v>      -0.12470495       0.22691503       0.05514388 </v>
   <v>      -0.08678826       0.00373624       0.14621343 </v>
   <v>       0.01470971      -0.10664118       0.26626583 </v>
   <v>       0.06762893       0.03306493       0.29855158 </v>
   <v>      -0.06923393       0.17490252       0.10023032 </v>
   <v>       0.04089518       0.12010737       0.30270581 </v>
   <v>       0.38330720       0.09372160      -0.00647114 </v>
   <v>      -0.15733546      -0.12337941       0.02403808 </v>
   <v>       0.10480462       0.02329414       0.02291888 </v>
   <v>      -0.09125694      -0.00206922       0.07803194 </v>
   <v>      -0.04499262      -0.13349146       0.17479609 </v>
   <v>       0.19139418      -0.09553104       0.06013692 </v>
   <v>       0.27096870      -0.12804708       0.04976539 </v>
   <v>       0.03377750       0.11383356       0.00711847 </v>
   <v>       0.02108606       0.01557201      -0.09551844 </v>
   <v>      -0.09894530      -0.15172687      -0.12376571 </v>
   <v>      -0.17299938      -0.04643059      -0.09518007 </v>
   <v>      -0.26568898       0.15860104      -0.02850949 </v>
   <v>       0.09022052       0.13953699      -0.10098239 </v>
   <v>       0.16967560      -0.02144888      -0.39145460 </v>
   <v>       0.14270634      -0.14892010      -0.00238850 </v>
   <v>       0.06287369      -0.21127939      -0.12035764 </v>
   <v>      -0.05801665       0.01564280      -0.16080619 </v>
   <v>      -0.06197768       0.27038994       0.10667591 </v>
   <v>      -0.22312695      -0.14524510      -0.23980280 </v>
   <v>      -0.12309883      -0.22874331      -0.03275562 </v>
   <v>       0.09663649       0.04937759      -0.07251153 </v>
   <v>       0.00308964       0.15207752      -0.26002132 </v>
   <v>      -0.07784695       0.03421025       0.01781022 </v>
   <v>      -0.03776149      -0.08202990       0.02012271 </v>
  </varray>
  <varray name="stress" >
   <v>      -0.62258360       0.10112478      -0.11001625 </v>
   <v>       0.10112478      -0.89060455       0.30250315 </v>
   <v>      -0.11001625       0.30250314      -0.21970514 </v>
  </varray>
  <energy>
   <i name="e_fr_energy">    -59.31467336 </i>
   <i name="e_wo_entrp">    -59.31467336 </i>
   <i name="e_0_energy">      0.00000000 </i>
  </energy>
  <time name="totalsc">   33.24   36.20</time>
 </calculation>
 <calculation>
  <scstep>
   <time name="dav">    3.94    3.94</time>
   <time name="total">    4.39    6.43</time>
   <energy>
    <i name="alphaZ">     77.51581886 </i>
    <i name="ewald">  59780.97313768 </i>
    <i name="hartreedc"> -89625.91642485 </i>
    <i name="XCdc">   -342.64408454 </i>
    <i name="pawpsdc">  32532.28024918 </i>
    <i name="pawaedc"> -31204.94470106 </i>
    <i name="eentropy">      0.00000000 </i>
    <i name="bandstr">  -2392.31611548 </i>
    <i name="atom">  31115.95890259 </i>
    <i name="e_fr_energy">    -59.09321762 </i>
    <i name="e_wo_entrp">    -59.09321762 </i>
    <i name="e_0_energy">    -59.09321762 </i>
   </energy>
  </scstep>
  <scstep>
   <time name="dav">    4.04    4.05</time>
   <time name="total">    4.49    4.50</time>
   <energy>
    <i name="e_fr_energy">    -59.43323209 </i>
    <i name="e_wo_entrp">    -59.43323209 </i>
    <i name="e_0_energy">    -59.43323209 </i>
   </energy>
  </scstep>
  <scstep>
   <time name="dav">    4.11    4.11</time>
   <time name="total">    4.55    4.57</time>
   <energy>
    <i name="e_fr_energy">    -59.43255661 </i>
    <i name="e_wo_entrp">    -59.43255661 </i>
    <i name="e_0_energy">    -59.43255661 </i>
   </energy>
  </scstep>
  <scstep>
   <time name="dav">    4.10    4.11</time>
   <time name="total">    4.55    4.57</time>
   <energy>
    <i name="e_fr_energy">    -59.42425736 </i>
    <i name="e_wo_entrp">    -59.42425736 </i>
    <i name="e_0_energy">    -59.42425736 </i>
   </energy>
  </scstep>
  <scstep>
   <time name="dav">    4.10    4.11</time>
   <time name="total">    4.55    4.56</time>
   <energy>
    <i name="e_fr_energy">    -59.42418427 </i>
    <i name="e_wo_entrp">    -59.42418427 </i>
    <i name="e_0_energy">    -59.42418427 </i>
   </energy>
  </scstep>
  <scstep>
   <time name="dav">    4.11    4.11</time>
   <time name="total">    4.55    4.57</time>
   <energy>
    <i name="e_fr_energy">    -59.42403234 </i>
    <i name="e_wo_entrp">    -59.42403234 </i>
    <i name="e_0_energy">    -59.42403234 </i>
   </energy>
  </scstep>
  <scstep>
   <time name="dav">    4.21    4.21</time>
   <time name="total">    4.51    4.84</time>
   <energy>
    <i name="alphaZ">     77.51581886 </i>
    <i name="ewald">  59780.97313768 </i>
    <i name="hartreedc"> -89638.99602357 </i>
    <i name="XCdc">   -342.28379249 </i>
    <i name="pawpsdc">  32300.75310922 </i>
    <i name="pawaedc"> -30969.37658969 </i>
    <i name="eentropy">      0.00000000 </i>
    <i name="bandstr">  -2383.96849674 </i>
    <i name="atom">  31115.95890259 </i>
    <i name="e_fr_energy">    -59.42393413 </i>
    <i name="e_wo_entrp">    -59.42393413 </i>
    <i name="e_0_energy">    -59.42393413 </i>
   </energy>
  </scstep>
  <structure>
   <crystal>
    <varray name="basis" >
     <v>      21.45468374       0.00000000       0.00000000 </v>
     <v>       0.00000000      21.45468374       0.00000000 </v>
     <v>       0.00000000       0.00000000      21.45468374 </v>
    </varray>
    <i name="volume">   9875.66503659 </i>
    <varray name="rec_basis" >
     <v>       0.04660987       0.00000000       0.00000000 </v>
     <v>       0.00000000       0.04660987       0.00000000 </v>
     <v>       0.00000000       0.00000000       0.04660987 </v>
    </varray>
   </crystal>
   <varray name="positions" >
    <v>       0.50888793       0.75994180       0.70509228 </v>
    <v>       0.47238557       0.63733242       0.72003309 </v>
    <v>       0.49549769       0.50941861       0.71378359 </v>
    <v>       0.52584907       0.38507859       0.69550255 </v>
    <v>       0.59182788       0.71447686       0.62154886 </v>
    <v>       0.58603500       0.59281022       0.66965960 </v>
    <v>       0.69974856       0.68837094       0.56544866 </v>
    <v>       0.59561172       0.47351561       0.63419205 </v>
    <v>       0.66008786       0.56527804       0.56965894 </v>
    <v>       0.44811305       0.44677045       0.60996817 </v>
    <v>       0.43816705       0.58025293       0.61161560 </v>
    <v>       0.58545068       0.35689721       0.57834571 </v>
    <v>       0.63949889       0.45366424       0.50856135 </v>
    <v>       0.54537810       0.62137648       0.54292629 </v>
    <v>       0.64535626       0.64010801       0.46246545 </v>
    <v>       0.47650703       0.36718072       0.51681267 </v>
    <v>       0.35154581       0.39280705       0.52714947 </v>
    <v>       0.38760305       0.51341960       0.51660034 </v>
    <v>       0.51871274       0.49844297       0.50753260 </v>
    <v>       0.63814540       0.58271393       0.34818089 </v>
    <v>       0.58498311       0.35749370       0.44556333 </v>
    <v>       0.52843867       0.60009499       0.41660891 </v>
    <v>       0.58551469       0.47140232       0.39266665 </v>
    <v>       0.42357358       0.63117178       0.48992919 </v>
    <v>       0.39844679       0.35147297       0.41258924 </v>
    <v>       0.33809017       0.46768121       0.40981168 </v>
    <v>       0.50987421       0.34120919       0.34238675 </v>
    <v>       0.52285735       0.54608979       0.30022238 </v>
    <v>       0.41088778       0.57169070       0.37213089 </v>
    <v>       0.46064743       0.45555980       0.36673597 </v>
   </varray>
  </structure>
  <varray name="forces" >
   <v>       0.06170261      -0.18183919      -0.17181337 </v>
   <v>       0.24280573       0.00934178      -0.06585638 </v>
   <v>      -0.01954460       0.16730761       0.13182179 </v>
   <v>       0.02606518       0.03160202      -0.00827888 </v>
   <v>      -0.20216900       0.01531951       0.31457486 </v>
   <v>      -0.30113243       0.47977972       0.28988331 </v>
   <v>       0.11804045      -0.10286536      -0.08024525 </v>
   <v>      -0.07975716      -0.26017076      -0.22503769 </v>
   <v>       0.05679427       0.06544687      -0.04376135 </v>
   <v>       0.07939046      -0.00209397       0.21594286 </v>
   <v>       0.13520405       0.00486392       0.18376987 </v>
   <v>       0.01127122       0.03623742       0.14574321 </v>
   <v>       0.10489568       0.05805250       0.14102862 </v>
   <v>      -0.10884089       0.05472207       0.07284285 </v>
   <v>       0.05461402      -0.07307378      -0.11365057 </v>
   <v>      -0.00891489      -0.16423029      -0.46410144 </v>
   <v>      -0.03789185       0.03982461      -0.19641908 </v>
   <v>      -0.17077669       0.12363983      -0.14363440 </v>
   <v>       0.03446927       0.01911515       0.00663222 </v>
   <v>      -0.03325464      -0.06861381      -0.08968051 </v>
   <v>      -0.14834021      -0.21785876       0.05094888 </v>
   <v>       0.11478418      -0.18478181       0.04537749 </v>
   <v>       0.07331074       0.26915973      -0.22798185 </v>
   <v>       0.14111037      -0.00438250       0.04065286 </v>
   <v>       0.16901809      -0.01057954      -0.06434796 </v>
   <v>      -0.00880342      -0.11258249       0.00661311 </v>
   <v>      -0.09339147       0.23151560       0.18385948 </v>
   <v>       0.01261993       0.03111543      -0.09009194 </v>
   <v>      -0.11327597      -0.06365886       0.12467757 </v>
   <v>      -0.11000302      -0.19031265       0.03053171 </v>
  </varray>
  <varray name="stress" >
   <v>      -1.73789059       0.02161683       0.03988743 </v>
   <v>       0.02161682      -1.76793267       0.27453028 </v>
   <v>       0.03988742       0.27453026      -1.38417603 </v>
  </varray>
  <energy>
   <i name="e_fr_energy">    -59.42393413 </i>
   <i name="e_wo_entrp">    -59.42393413 </i>
   <i name="e_0_energy">      0.00000000 </i>
  </energy>
  <time name="totalsc">   39.05   41.53</time>
 </calculation>
 <calculation>
  <scstep>
   <time name="dav">    4.05    4.06</time>
   <time name="total">    4.50    4.52</time>
   <energy>
    <i name="alphaZ">     77.51581886 </i>
    <i name="ewald">  60131.40742269 </i>
    <i name="hartreedc"> -89988.32689595 </i>
    <i name="XCdc">   -341.86705114 </i>
    <i name="pawpsdc">  32303.23283375 </i>
    <i name="pawaedc"> -30971.86006509 </i>
    <i name="eentropy">      0.00000000 </i>
    <i name="bandstr">  -2385.48052093 </i>
    <i name="atom">  31115.95890259 </i>
    <i name="e_fr_energy">    -59.41955522 </i>
    <i name="e_wo_entrp">    -59.41955522 </i>
    <i name="e_0_energy">    -59.41955522 </i>
   </energy>
  </scstep>
  <scstep>
   <time name="dav">    4.14    4.14</time>
   <time name="total">    4.58    4.59</time>
   <energy>
    <i name="e_fr_energy">    -59.43868751 </i>
    <i name="e_wo_entrp">    -59.43868751 </i>
    <i name="e_0_energy">    -59.43868751 </i>
   </energy>
  </scstep>
  <scstep>
   <time name="dav">    4.10    4.11</time>
   <time name="total">    4.55    4.58</time>
   <energy>
    <i name="e_fr_energy">    -59.43847926 </i>
    <i name="e_wo_entrp">    -59.43847926 </i>
    <i name="e_0_energy">    -59.43847926 </i>
   </energy>
  </scstep>
  <scstep>
   <time name="dav">    4.22    4.22</time>
   <time name="total">    4.67    4.69</time>
   <energy>
    <i name="e_fr_energy">    -59.43832343 </i>
    <i name="e_wo_entrp">    -59.43832343 </i>
    <i name="e_0_energy">    -59.43832343 </i>
   </energy>
  </scstep>
  <scstep>
   <time name="dav">    3.00    3.00</time>
   <time name="total">    3.29    3.31</time>
   <energy>
    <i name="alphaZ">     77.51581886 </i>
    <i name="ewald">  60131.40742269 </i>
    <i name="hartreedc"> -89985.79288899 </i>
    <i name="XCdc">   -341.95479729 </i>
    <i name="pawpsdc">  32353.69998339 </i>
    <i name="pawaedc"> -31023.21884790 </i>
    <i name="eentropy">      0.00000000 </i>
    <i name="bandstr">  -2387.05396102 </i>
    <i name="atom">  31115.95890259 </i>
    <i name="e_fr_energy">    -59.43836767 </i>
    <i name="e_wo_entrp">    -59.43836767 </i>
    <i name="e_0_energy">    -59.43836767 </i>
   </energy>
  </scstep>
  <structure>
   <crystal>
    <varray name="basis" >
     <v>      21.45468374       0.00000000       0.00000000 </v>
     <v>       0.00000000      21.45468374       0.00000000 </v>
     <v>       0.00000000       0.00000000      21.45468374 </v>
    </varray>
    <i name="volume">   9875.66503659 </i>
    <varray name="rec_basis" >
     <v>       0.04660987       0.00000000       0.00000000 </v>
     <v>       0.00000000       0.04660987       0.00000000 </v>
     <v>       0.00000000       0.00000000       0.04660987 </v>
    </varray>
   </crystal>
   <varray name="positions" >
    <v>       0.50928708       0.75905520       0.70470046 </v>
    <v>       0.47301574       0.63737809       0.71949306 </v>
    <v>       0.49545261       0.50986915       0.71329137 </v>
    <v>       0.52569200       0.38508117       0.69466279 </v>
    <v>       0.59167092       0.71401325       0.62176379 </v>
    <v>       0.58544103       0.59316627       0.66928475 </v>
    <v>       0.69898921       0.68800658       0.56534923 </v>
    <v>       0.59589660       0.47354402       0.63387214 </v>
    <v>       0.65987664       0.56531093       0.56955398 </v>
    <v>       0.44848199       0.44672910       0.61005891 </v>
    <v>       0.43845016       0.58055980       0.61139142 </v>
    <v>       0.58497078       0.35718451       0.57842469 </v>
    <v>       0.63899460       0.45403025       0.50861789 </v>
    <v>       0.54515024       0.62116076       0.54301388 </v>
    <v>       0.64535079       0.63996519       0.46254403 </v>
    <v>       0.47669118       0.36733538       0.51636248 </v>
    <v>       0.35194705       0.39296723       0.52714572 </v>
    <v>       0.38811386       0.51318740       0.51649909 </v>
    <v>       0.51847823       0.49812234       0.50778897 </v>
    <v>       0.63762313       0.58266305       0.34913493 </v>
    <v>       0.58437132       0.35762335       0.44567874 </v>
    <v>       0.52838533       0.60039321       0.41698792 </v>
    <v>       0.58573616       0.47175059       0.39278040 </v>
    <v>       0.42394607       0.63050906       0.48970314 </v>
    <v>       0.39940292       0.35187092       0.41319138 </v>
    <v>       0.33837967       0.46806717       0.40989472 </v>
    <v>       0.50949867       0.34137822       0.34283457 </v>
    <v>       0.52285139       0.54575928       0.30071389 </v>
    <v>       0.41094292       0.57151695       0.37224529 </v>
    <v>       0.46063485       0.45552473       0.36673947 </v>
   </varray>
  </structure>
  <varray name="forces" >
   <v>       0.01940392      -0.09493891      -0.12306207 </v>
   <v>       0.18248148       0.01220310      -0.02878466 </v>
   <v>      -0.01350554       0.10470501       0.15925628 </v>
   <v>       0.03182578       0.03465224       0.03925306 </v>
   <v>      -0.18026203       0.04555486       0.27420555 </v>
   <v>      -0.23575445       0.40495926       0.29497506 </v>
   <v>       0.18564366      -0.06004869      -0.06610718 </v>
   <v>      -0.10122097      -0.22757309      -0.17000194 </v>
   <v>       0.06535954       0.05717993      -0.02874045 </v>
   <v>       0.04614391      -0.00515396       0.18773372 </v>
   <v>       0.09635998      -0.02754066       0.18052007 </v>
   <v>       0.04819711       0.00828162       0.13179462 </v>
   <v>       0.14429877       0.01755404       0.12250632 </v>
   <v>      -0.07928364       0.06791091       0.06118766 </v>
   <v>       0.04361391      -0.05551691      -0.11020091 </v>
   <v>      -0.03394778      -0.16182508      -0.40259245 </v>
   <v>      -0.06721323       0.02125635      -0.17374790 </v>
   <v>      -0.18160112       0.13354467      -0.11701486 </v>
   <v>       0.04050715       0.04533925      -0.01587667 </v>
   <v>       0.01433956      -0.06053018      -0.15991562 </v>
   <v>      -0.08995877      -0.20020529       0.04424186 </v>
   <v>       0.10022902      -0.19529387       0.01144324 </v>
   <v>       0.04206794       0.21962433      -0.21258258 </v>
   <v>       0.10238726       0.05427315       0.05634877 </v>
   <v>       0.10627457      -0.03709466      -0.09281599 </v>
   <v>      -0.03580397      -0.13927529      -0.00112035 </v>
   <v>      -0.05596148       0.19245729       0.13116887 </v>
   <v>       0.00756346       0.05635528      -0.12746575 </v>
   <v>      -0.10855651      -0.04352651       0.10412042 </v>
   <v>      -0.09362754      -0.16732819       0.03127385 </v>
  </varray>
  <varray name="stress" >
   <v>      -1.49629866       0.03904600       0.01298420 </v>
   <v>       0.03904599      -1.57245830       0.28076224 </v>
   <v>       0.01298420       0.28076225      -1.13210479 </v>
  </varray>
  <energy>
   <i name="e_fr_energy">    -59.43836767 </i>
   <i name="e_wo_entrp">    -59.43836767 </i>
   <i name="e_0_energy">      0.00000000 </i>
  </energy>
  <time name="totalsc">   29.05   29.19</time>
 </calculation>
 <calculation>
  <scstep>
   <time name="dav">    3.94    3.94</time>
   <time name="total">    4.38    4.77</time>
   <energy>
    <i name="alphaZ">     77.51581886 </i>
    <i name="ewald">  59939.95174642 </i>
    <i name="hartreedc"> -89795.50394180 </i>
    <i name="XCdc">   -342.16891961 </i>
    <i name="pawpsdc">  32353.24673161 </i>
    <i name="pawaedc"> -31022.76129112 </i>
    <i name="eentropy">      0.00000000 </i>
    <i name="bandstr">  -2385.72291871 </i>
    <i name="atom">  31115.95890259 </i>
    <i name="e_fr_energy">    -59.48387177 </i>
    <i name="e_wo_entrp">    -59.48387177 </i>
    <i name="e_0_energy">    -59.48387177 </i>
   </energy>
  </scstep>
  <scstep>
   <time name="dav">    4.08    4.08</time>
   <time name="total">    4.52    4.55</time>
   <energy>
    <i name="e_fr_energy">    -59.49575634 </i>
    <i name="e_wo_entrp">    -59.49575634 </i>
    <i name="e_0_energy">    -59.49575634 </i>
   </energy>
  </scstep>
  <scstep>
   <time name="dav">    4.05    4.05</time>
   <time name="total">    4.50    6.85</time>
   <energy>
    <i name="e_fr_energy">    -59.49552807 </i>
    <i name="e_wo_entrp">    -59.49552807 </i>
    <i name="e_0_energy">    -59.49552807 </i>
   </energy>
  </scstep>
  <scstep>
   <time name="dav">    4.22    4.22</time>
   <time name="total">    4.66    4.67</time>
   <energy>
    <i name="e_fr_energy">    -59.49531509 </i>
    <i name="e_wo_entrp">    -59.49531509 </i>
    <i name="e_0_energy">    -59.49531509 </i>
   </energy>
  </scstep>
  <scstep>
   <time name="dav">    2.86    2.86</time>
   <time name="total">    3.15    3.16</time>
   <energy>
    <i name="alphaZ">     77.51581886 </i>
    <i name="ewald">  59939.95174642 </i>
    <i name="hartreedc"> -89797.38125688 </i>
    <i name="XCdc">   -342.12810247 </i>
    <i name="pawpsdc">  32322.87300856 </i>
    <i name="pawaedc"> -30991.88366601 </i>
    <i name="eentropy">      0.00000000 </i>
    <i name="bandstr">  -2384.40176621 </i>
    <i name="atom">  31115.95890259 </i>
    <i name="e_fr_energy">    -59.49531513 </i>
    <i name="e_wo_entrp">    -59.49531513 </i>
    <i name="e_0_energy">    -59.49531513 </i>
   </energy>
  </scstep>
  <structure>
   <crystal>
    <varray name="basis" >
     <v>      21.45468374       0.00000000       0.00000000 </v>
     <v>       0.00000000      21.45468374       0.00000000 </v>
     <v>       0.00000000       0.00000000      21.45468374 </v>
    </varray>
    <i name="volume">   9875.66503659 </i>
    <varray name="rec_basis" >
     <v>       0.04660987       0.00000000       0.00000000 </v>
     <v>       0.00000000       0.04660987       0.00000000 </v>
     <v>       0.00000000       0.00000000       0.04660987 </v>
    </varray>
   </crystal>
   <varray name="positions" >
    <v>       0.50918228       0.75917989       0.70458647 </v>
    <v>       0.47316688       0.63738692       0.71962957 </v>
    <v>       0.49544086       0.50992350       0.71380253 </v>
    <v>       0.52581551       0.38515248       0.69505023 </v>
    <v>       0.59135220       0.71427694       0.62225728 </v>
    <v>       0.58516564       0.59388102       0.67003617 </v>
    <v>       0.69965260       0.68801397       0.56524758 </v>
    <v>       0.59558189       0.47305920       0.63363411 </v>
    <v>       0.66008977       0.56541818       0.56953225 </v>
    <v>       0.44844394       0.44673340       0.61041731 </v>
    <v>       0.43854804       0.58039070       0.61184938 </v>
    <v>       0.58524590       0.35709722       0.57867073 </v>
    <v>       0.63947897       0.45393366       0.50885273 </v>
    <v>       0.54506786       0.62138085       0.54310958 </v>
    <v>       0.64544371       0.63990141       0.46228567 </v>
    <v>       0.47655339       0.36694171       0.51568692 </v>
    <v>       0.35166090       0.39295326       0.52678483 </v>
    <v>       0.38754935       0.51355033       0.51629197 </v>
    <v>       0.51864803       0.49833355       0.50766258 </v>
    <v>       0.63784309       0.58255537       0.34845433 </v>
    <v>       0.58440639       0.35715875       0.44572899 </v>
    <v>       0.52861371       0.59987751       0.41687385 </v>
    <v>       0.58574328       0.47208176       0.39229578 </v>
    <v>       0.42402399       0.63086339       0.48990288 </v>
    <v>       0.39927655       0.35164876       0.41277874 </v>
    <v>       0.33819967       0.46763633       0.40986217 </v>
    <v>       0.50951865       0.34171797       0.34294509 </v>
    <v>       0.52286933       0.54599705       0.30026927 </v>
    <v>       0.41069652       0.57148943       0.37242074 </v>
    <v>       0.46044422       0.45518862       0.36680340 </v>
   </varray>
  </structure>
  <varray name="forces" >
   <v>      -0.01021112      -0.07961887      -0.08973643 </v>
   <v>       0.15112354       0.03729449       0.00541805 </v>
   <v>       0.00595832       0.09509976       0.13895781 </v>
   <v>       0.02017483       0.02613447       0.04843445 </v>
   <v>      -0.07069591       0.00956470       0.18646275 </v>
   <v>      -0.16867754       0.26290858       0.19427443 </v>
   <v>       0.08301436      -0.06123565      -0.05631811 </v>
   <v>      -0.09135268      -0.05327598      -0.13970149 </v>
   <v>       0.00284254       0.06658119       0.02558427 </v>
   <v>       0.05307322      -0.02737903       0.08583158 </v>
   <v>       0.08185351      -0.03755150       0.12490077 </v>
   <v>      -0.00639652      -0.00430135       0.08384929 </v>
   <v>       0.08321237       0.00243906       0.06377340 </v>
   <v>      -0.04965607       0.06007734       0.06474935 </v>
   <v>       0.04600241      -0.06066369      -0.08696812 </v>
   <v>      -0.01227578      -0.10244446      -0.31348108 </v>
   <v>      -0.03371536       0.04179271      -0.16948209 </v>
   <v>      -0.14226168       0.11545376      -0.06859788 </v>
   <v>       0.03187526       0.01371058       0.00186347 </v>
   <v>       0.01308719      -0.04026395      -0.14209394 </v>
   <v>      -0.05673054      -0.11167636       0.04229915 </v>
   <v>       0.08476582      -0.19650300       0.02119589 </v>
   <v>       0.04584541       0.14066699      -0.13362092 </v>
   <v>       0.11905776       0.02998372       0.05374088 </v>
   <v>       0.07834879      -0.05891533      -0.08896419 </v>
   <v>      -0.04129899      -0.12568585      -0.00194918 </v>
   <v>      -0.03352576       0.15914393       0.11494829 </v>
   <v>      -0.02068077       0.02950716      -0.09352094 </v>
   <v>      -0.09069226      -0.06606358       0.11181492 </v>
   <v>      -0.07206436      -0.06477986       0.01633562 </v>
  </varray>
  <varray name="stress" >
   <v>      -1.64217054       0.03077609       0.00748830 </v>
   <v>       0.03077609      -1.71393829       0.27021520 </v>
   <v>       0.00748829       0.27021518      -1.29848607 </v>
  </varray>
  <energy>
   <i name="e_fr_energy">    -59.49531513 </i>
   <i name="e_wo_entrp">    -59.49531513 </i>
   <i name="e_0_energy">      0.00000000 </i>
  </energy>
  <time name="totalsc">   28.68   31.52</time>
 </calculation>
 <calculation>
  <scstep>
   <time name="dav">    3.94    3.94</time>
   <time name="total">    4.39    4.40</time>
   <energy>
    <i name="alphaZ">     77.51581886 </i>
    <i name="ewald">  59507.99290991 </i>
    <i name="hartreedc"> -89367.43159983 </i>
    <i name="XCdc">   -342.58288205 </i>
    <i name="pawpsdc">  32322.91335956 </i>
    <i name="pawaedc"> -30991.92357859 </i>
    <i name="eentropy">     -0.00000000 </i>
    <i name="bandstr">  -2381.93418213 </i>
    <i name="atom">  31115.95890259 </i>
    <i name="e_fr_energy">    -59.49125167 </i>
    <i name="e_wo_entrp">    -59.49125167 </i>
    <i name="e_0_energy">    -59.49125167 </i>
   </energy>
  </scstep>
  <scstep>
   <time name="dav">    4.08    4.08</time>
   <time name="total">    4.53    4.97</time>
   <energy>
    <i name="e_fr_energy">    -59.55309370 </i>
    <i name="e_wo_entrp">    -59.55309370 </i>
    <i name="e_0_energy">    -59.55309370 </i>
   </energy>
  </scstep>
  <scstep>
   <time name="dav">    4.04    4.05</time>
   <time name="total">    4.49    4.60</time>
   <energy>
    <i name="e_fr_energy">    -59.55226924 </i>
    <i name="e_wo_entrp">    -59.55226924 </i>
    <i name="e_0_energy">    -59.55226924 </i>
   </energy>
  </scstep>
  <scstep>
   <time name="dav">    4.16    4.16</time>
   <time name="total">    4.61    4.63</time>
   <energy>
    <i name="e_fr_energy">    -59.55109001 </i>
    <i name="e_wo_entrp">    -59.55109001 </i>
    <i name="e_0_energy">    -59.55109001 </i>
   </energy>
  </scstep>
  <scstep>
   <time name="dav">    4.05    4.05</time>
   <time name="total">    4.50    4.52</time>
   <energy>
    <i name="e_fr_energy">    -59.55110324 </i>
    <i name="e_wo_entrp">    -59.55110324 </i>
    <i name="e_0_energy">    -59.55110324 </i>
   </energy>
  </scstep>
  <scstep>
   <time name="dav">    2.86    2.86</time>
   <time name="total">    3.16    3.18</time>
   <energy>
    <i name="alphaZ">     77.51581886 </i>
    <i name="ewald">  59507.99290991 </i>
    <i name="hartreedc"> -89371.08456696 </i>
    <i name="XCdc">   -342.49208303 </i>
    <i name="pawpsdc">  32264.33625197 </i>
    <i name="pawaedc"> -30932.30521843 </i>
    <i name="eentropy">      0.00000000 </i>
    <i name="bandstr">  -2379.47308086 </i>
    <i name="atom">  31115.95890259 </i>
    <i name="e_fr_energy">    -59.55106595 </i>
    <i name="e_wo_entrp">    -59.55106595 </i>
    <i name="e_0_energy">    -59.55106595 </i>
   </energy>
  </scstep>
  <structure>
   <crystal>
    <varray name="basis" >
     <v>      21.45468374       0.00000000       0.00000000 </v>
     <v>       0.00000000      21.45468374       0.00000000 </v>
     <v>       0.00000000       0.00000000      21.45468374 </v>
    </varray>
    <i name="volume">   9875.66503659 </i>
    <varray name="rec_basis" >
     <v>       0.04660987       0.00000000       0.00000000 </v>
     <v>       0.00000000       0.04660987       0.00000000 </v>
     <v>       0.00000000       0.00000000       0.04660987 </v>
    </varray>
   </crystal>
   <varray name="positions" >
    <v>       0.50894371       0.75946378       0.70432696 </v>
    <v>       0.47351095       0.63740700       0.71994032 </v>
    <v>       0.49541410       0.51004723       0.71496621 </v>
    <v>       0.52609670       0.38531481       0.69593223 </v>
    <v>       0.59062663       0.71487724       0.62338073 </v>
    <v>       0.58453872       0.59550817       0.67174680 </v>
    <v>       0.70116283       0.68803082       0.56501618 </v>
    <v>       0.59486544       0.47195550       0.63309223 </v>
    <v>       0.66057499       0.56566233       0.56948279 </v>
    <v>       0.44835732       0.44674320       0.61123320 </v>
    <v>       0.43877087       0.58000576       0.61289192 </v>
    <v>       0.58587224       0.35689852       0.57923086 </v>
    <v>       0.64058166       0.45371376       0.50938737 </v>
    <v>       0.54488032       0.62188190       0.54332744 </v>
    <v>       0.64565525       0.63975622       0.46169750 </v>
    <v>       0.47623970       0.36604548       0.51414899 </v>
    <v>       0.35100947       0.39292145       0.52596325 </v>
    <v>       0.38626420       0.51437657       0.51582044 </v>
    <v>       0.51903457       0.49881437       0.50737483 </v>
    <v>       0.63834382       0.58231022       0.34690493 </v>
    <v>       0.58448624       0.35610108       0.44584337 </v>
    <v>       0.52913364       0.59870349       0.41661418 </v>
    <v>       0.58575948       0.47283568       0.39119253 </v>
    <v>       0.42420138       0.63167002       0.49035761 </v>
    <v>       0.39898888       0.35114301       0.41183935 </v>
[...]
       <r>    -0.3148     0.0000   189.0000 </r>
       <r>    -0.2752     0.0000   189.0000 </r>
       <r>    -0.2357     0.0000   190.0000 </r>
       <r>    -0.1962     0.0000   190.0000 </r>
       <r>    -0.1567    23.4471   190.9265 </r>
       <r>    -0.1172     0.0000   191.0000 </r>
       <r>    -0.0777     0.0000   192.0000 </r>
       <r>    -0.0381     0.0000   192.0000 </r>
       <r>     0.0014     0.0000   192.0000 </r>
       <r>     0.0409     0.0000   193.0000 </r>
       <r>     0.0804     0.0000   193.0000 </r>
       <r>     0.1199     0.0000   193.0000 </r>
       <r>     0.1594     0.0000   193.0000 </r>
       <r>     0.1989     0.0000   193.0000 </r>
       <r>     0.2385     0.0000   193.0000 </r>
       <r>     0.2780     0.0000   193.0000 </r>
       <r>     0.3175     0.0000   193.0000 </r>
       <r>     0.3570     0.0000   194.0000 </r>
       <r>     0.3965     0.0000   195.0000 </r>
       <r>     0.4360     0.0000   196.0000 </r>
       <r>     0.4755     0.0000   196.0000 </r>
       <r>     0.5151     0.0000   196.0000 </r>
       <r>     0.5546     0.0000   197.0000 </r>
       <r>     0.5941     0.0000   198.0000 </r>
       <r>     0.6336     0.0000   199.0000 </r>
       <r>     0.6731     0.0000   199.0000 </r>
       <r>     0.7126     0.0000   199.0000 </r>
       <r>     0.7521     0.0000   201.0000 </r>
       <r>     0.7917     0.0000   202.0000 </r>
       <r>     0.8312     0.0000   203.0000 </r>
       <r>     0.8707     0.0000   204.0000 </r>
       <r>     0.9102     0.0000   205.0000 </r>
       <r>     0.9497     0.0000   206.0000 </r>
       <r>     0.9892     0.0000   206.0000 </r>
       <r>     1.0287     0.0000   208.0000 </r>
       <r>     1.0683     0.0000   210.0000 </r>
       <r>     1.1078     0.0000   211.0000 </r>
       <r>     1.1473     0.0000   214.0000 </r>
       <r>     1.1868     0.0000   214.0000 </r>
       <r>     1.2263     0.0000   216.0000 </r>
       <r>     1.2658     0.0000   216.0000 </r>
       <r>     1.3054     0.0000   216.0000 </r>
       <r>     1.3449     0.0000   216.0000 </r>
       <r>     1.3844     0.0000   216.0000 </r>
       <r>     1.4239     0.0000   216.0000 </r>
       <r>     1.4634     0.0000   216.0000 </r>
       <r>     1.5029     0.0000   216.0000 </r>
       <r>     1.5424     0.0000   216.0000 </r>
       <r>     1.5820     0.0000   216.0000 </r>
       <r>     1.6215     0.0000   216.0000 </r>
       <r>     1.6610     0.0000   216.0000 </r>
       <r>     1.7005     0.0000   216.0000 </r>
       <r>     1.7400     0.0000   216.0000 </r>
      </set>
      <set comment="spin 2">
       <r>   -10.1144     0.0000     0.0000 </r>
       <r>   -10.0749     0.0000     0.0000 </r>
       <r>   -10.0354     0.0000     0.0000 </r>
       <r>    -9.9959     0.0000     0.0000 </r>
       <r>    -9.9564     0.0000     0.0000 </r>
       <r>    -9.9168     0.0000     0.0000 </r>
       <r>    -9.8773     0.0000     0.0000 </r>
       <r>    -9.8378     0.0000     0.0000 </r>
       <r>    -9.7983     0.0000     0.0000 </r>
       <r>    -9.7588     0.0000     0.0000 </r>
       <r>    -9.7193     0.0000     0.0000 </r>
       <r>    -9.6798     0.0000     0.0000 </r>
       <r>    -9.6402     0.0000     0.0000 </r>
       <r>    -9.6007     0.0000     0.0000 </r>
       <r>    -9.5612     0.0000     1.0000 </r>
       <r>    -9.5217     0.0000     1.0000 </r>
       <r>    -9.4822     0.0000     1.0000 </r>
       <r>    -9.4427     0.0000     1.0000 </r>
       <r>    -9.4032     0.0000     1.0000 </r>
       <r>    -9.3636     0.0000     1.0000 </r>
       <r>    -9.3241     0.0000     1.0000 </r>
       <r>    -9.2846     0.0000     1.0000 </r>
       <r>    -9.2451     0.0000     1.0000 </r>
       <r>    -9.2056     0.0000     1.0000 </r>
       <r>    -9.1661     0.0000     1.0000 </r>
       <r>    -9.1265     0.0000     2.0000 </r>
       <r>    -9.0870     0.0000     3.0000 </r>
       <r>    -9.0475     0.0000     3.0000 </r>
       <r>    -9.0080     0.0000     5.0000 </r>
       <r>    -8.9685     0.0000     5.0000 </r>
       <r>    -8.9290     0.0000     6.0000 </r>
       <r>    -8.8895     0.0000     8.0000 </r>
       <r>    -8.8499     0.0000    10.0000 </r>
       <r>    -8.8104     0.0000    11.0000 </r>
       <r>    -8.7709     0.0000    11.0000 </r>
       <r>    -8.7314     0.0000    12.0000 </r>
       <r>    -8.6919     0.0000    14.0000 </r>
       <r>    -8.6524     0.0000    15.0000 </r>
       <r>    -8.6129     0.0000    16.0000 </r>
       <r>    -8.5733    25.1175    19.9925 </r>
       <r>    -8.5338     0.0000    21.0000 </r>
       <r>    -8.4943     0.0000    21.0000 </r>
       <r>    -8.4548     0.0000    24.0000 </r>
       <r>    -8.4153     0.0000    25.0000 </r>
       <r>    -8.3758     0.0000    26.0000 </r>
       <r>    -8.3363     0.1875    27.0074 </r>
       <r>    -8.2967     0.0000    30.0000 </r>
       <r>    -8.2572     0.0000    32.0000 </r>
       <r>    -8.2177     0.0000    34.0000 </r>
       <r>    -8.1782     0.0000    35.0000 </r>
       <r>    -8.1387     0.0000    38.0000 </r>
       <r>    -8.0992     0.0000    39.0000 </r>
       <r>    -8.0596     0.0000    42.0000 </r>
       <r>    -8.0201     0.0000    44.0000 </r>
       <r>    -7.9806     0.0000    46.0000 </r>
       <r>    -7.9411     0.0000    48.0000 </r>
       <r>    -7.9016     0.0000    50.0000 </r>
       <r>    -7.8621     0.0000    51.0000 </r>
       <r>    -7.8226     0.0000    53.0000 </r>
       <r>    -7.7830     0.0000    54.0000 </r>
       <r>    -7.7435     0.0000    56.0000 </r>
       <r>    -7.7040     0.0000    59.0000 </r>
       <r>    -7.6645     0.0000    59.0000 </r>
       <r>    -7.6250     0.0000    62.0000 </r>
       <r>    -7.5855    25.3069    65.0000 </r>
       <r>    -7.5460     0.0000    66.0000 </r>
       <r>    -7.5064     0.0000    68.0000 </r>
       <r>    -7.4669    25.3070    70.0000 </r>
       <r>    -7.4274     0.0000    72.0000 </r>
       <r>    -7.3879     0.0000    72.0000 </r>
       <r>    -7.3484     0.0000    75.0000 </r>
       <r>    -7.3089     0.0000    76.0000 </r>
       <r>    -7.2694     0.0000    78.0000 </r>
       <r>    -7.2298     0.0000    80.0000 </r>
       <r>    -7.1903     0.0000    83.0000 </r>
       <r>    -7.1508     0.0000    85.0000 </r>
       <r>    -7.1113     0.0000    86.0000 </r>
       <r>    -7.0718     0.0000    89.0000 </r>
       <r>    -7.0323     0.0000    93.0000 </r>
       <r>    -6.9928     0.0000    95.0000 </r>
       <r>    -6.9532     0.0000    97.0000 </r>
       <r>    -6.9137     0.0000   101.0000 </r>
       <r>    -6.8742     0.0000   104.0000 </r>
       <r>    -6.8347     0.0000   107.0000 </r>
       <r>    -6.7952     0.0000   110.0000 </r>
       <r>    -6.7557     0.0000   113.0000 </r>
       <r>    -6.7161     0.0000   114.0000 </r>
       <r>    -6.6766     0.0000   118.0000 </r>
       <r>    -6.6371     0.0000   121.0000 </r>
       <r>    -6.5976     0.0000   123.0000 </r>
       <r>    -6.5581     0.0000   127.0000 </r>
       <r>    -6.5186     0.0000   130.0000 </r>
       <r>    -6.4791     0.0000   134.0000 </r>
       <r>    -6.4395     0.0000   136.0000 </r>
       <r>    -6.4000     0.0000   139.0000 </r>
       <r>    -6.3605     0.0000   142.0000 </r>
       <r>    -6.3210     0.0000   145.0000 </r>
       <r>    -6.2815     0.0000   147.0000 </r>
       <r>    -6.2420     0.0000   148.0000 </r>
       <r>    -6.2025     0.0000   150.0000 </r>
       <r>    -6.1629     0.0000   151.0000 </r>
       <r>    -6.1234     0.0000   154.0000 </r>
       <r>    -6.0839     0.0000   154.0000 </r>
       <r>    -6.0444     0.0000   154.0000 </r>
       <r>    -6.0049     0.0000   154.0000 </r>
       <r>    -5.9654     0.0000   154.0000 </r>
       <r>    -5.9259     0.0000   154.0000 </r>
       <r>    -5.8863     0.0000   154.0000 </r>
       <r>    -5.8468     0.0000   154.0000 </r>
       <r>    -5.8073     0.0000   155.0000 </r>
       <r>    -5.7678     0.0000   155.0000 </r>
       <r>    -5.7283     0.0000   156.0000 </r>
       <r>    -5.6888     0.0000   156.0000 </r>
       <r>    -5.6492     0.0000   156.0000 </r>
       <r>    -5.6097     0.0000   156.0000 </r>
       <r>    -5.5702     0.0000   156.0000 </r>
       <r>    -5.5307     0.0000   156.0000 </r>
       <r>    -5.4912     0.0000   156.0000 </r>
       <r>    -5.4517     0.0000   156.0000 </r>
       <r>    -5.4122     0.0000   157.0000 </r>
       <r>    -5.3726     0.0000   157.0000 </r>
       <r>    -5.3331     0.0000   157.0000 </r>
       <r>    -5.2936     0.0000   157.0000 </r>
       <r>    -5.2541     0.0000   157.0000 </r>
       <r>    -5.2146     0.0000   157.0000 </r>
       <r>    -5.1751     0.0000   157.0000 </r>
       <r>    -5.1356     0.0000   157.0000 </r>
       <r>    -5.0960     0.0000   157.0000 </r>
       <r>    -5.0565     0.0000   157.0000 </r>
       <r>    -5.0170     0.0000   157.0000 </r>
       <r>    -4.9775     0.0000   157.0000 </r>
       <r>    -4.9380     0.0000   158.0000 </r>
       <r>    -4.8985     0.0000   158.0000 </r>
       <r>    -4.8590     0.0000   159.0000 </r>
       <r>    -4.8194     0.0000   159.0000 </r>
       <r>    -4.7799     0.0000   159.0000 </r>
       <r>    -4.7404     0.0000   159.0000 </r>
       <r>    -4.7009     0.0000   159.0000 </r>
       <r>    -4.6614     0.0000   159.0000 </r>
       <r>    -4.6219     0.0000   159.0000 </r>
       <r>    -4.5823     0.0000   159.0000 </r>
       <r>    -4.5428     0.0000   159.0000 </r>
       <r>    -4.5033     0.0000   159.0000 </r>
       <r>    -4.4638     0.0000   159.0000 </r>
       <r>    -4.4243     0.0000   160.0000 </r>
       <r>    -4.3848     0.0000   160.0000 </r>
       <r>    -4.3453     0.0000   160.0000 </r>
       <r>    -4.3057     0.0000   161.0000 </r>
       <r>    -4.2662     0.0000   161.0000 </r>
       <r>    -4.2267     0.0000   161.0000 </r>
       <r>    -4.1872     0.0000   161.0000 </r>
       <r>    -4.1477     0.0000   162.0000 </r>
       <r>    -4.1082     0.0000   162.0000 </r>
       <r>    -4.0687     0.0000   162.0000 </r>
       <r>    -4.0291     0.0000   162.0000 </r>
       <r>    -3.9896     0.0000   162.0000 </r>
       <r>    -3.9501     0.0000   162.0000 </r>
       <r>    -3.9106     0.0000   163.0000 </r>
       <r>    -3.8711     0.0000   163.0000 </r>
       <r>    -3.8316     0.0000   163.0000 </r>
       <r>    -3.7921     0.0000   163.0000 </r>
       <r>    -3.7525     0.0000   164.0000 </r>
       <r>    -3.7130     0.0000   164.0000 </r>
       <r>    -3.6735     0.0000   164.0000 </r>
       <r>    -3.6340     0.0000   164.0000 </r>
       <r>    -3.5945     0.0000   165.0000 </r>
       <r>    -3.5550     0.0000   165.0000 </r>
       <r>    -3.5155     0.0000   165.0000 </r>
       <r>    -3.4759     0.0000   165.0000 </r>
       <r>    -3.4364     0.0000   165.0000 </r>
       <r>    -3.3969     0.0000   165.0000 </r>
       <r>    -3.3574     0.0000   165.0000 </r>
       <r>    -3.3179     0.0000   165.0000 </r>
       <r>    -3.2784     0.0000   165.0000 </r>
       <r>    -3.2388     0.0000   165.0000 </r>
       <r>    -3.1993     0.0000   165.0000 </r>
       <r>    -3.1598     0.0000   165.0000 </r>
       <r>    -3.1203     0.0000   166.0000 </r>
       <r>    -3.0808     0.0000   166.0000 </r>
       <r>    -3.0413     0.0000   166.0000 </r>
       <r>    -3.0018     0.0000   166.0000 </r>
       <r>    -2.9622     0.0000   166.0000 </r>
       <r>    -2.9227     0.0000   166.0000 </r>
       <r>    -2.8832     0.0000   166.0000 </r>
       <r>    -2.8437     0.0000   166.0000 </r>
       <r>    -2.8042     0.0000   167.0000 </r>
       <r>    -2.7647     0.0000   168.0000 </r>
       <r>    -2.7252     0.0000   168.0000 </r>
       <r>    -2.6856     0.0000   168.0000 </r>
       <r>    -2.6461     0.0000   169.0000 </r>
       <r>    -2.6066     0.0000   169.0000 </r>
       <r>    -2.5671     0.0000   169.0000 </r>
       <r>    -2.5276     0.0000   169.0000 </r>
       <r>    -2.4881     0.0000   169.0000 </r>
       <r>    -2.4486     0.0000   169.0000 </r>
       <r>    -2.4090     0.0000   170.0000 </r>
       <r>    -2.3695     0.0000   170.0000 </r>
       <r>    -2.3300    25.3070   171.0000 </r>
       <r>    -2.2905     0.0000   171.0000 </r>
       <r>    -2.2510     0.0000   172.0000 </r>
       <r>    -2.2115     0.0000   172.0000 </r>
       <r>    -2.1719     0.0000   172.0000 </r>
       <r>    -2.1324     0.0000   172.0000 </r>
       <r>    -2.0929     0.0000   172.0000 </r>
       <r>    -2.0534     0.0000   173.0000 </r>
       <r>    -2.0139     0.0000   173.0000 </r>
       <r>    -1.9744     0.0000   174.0000 </r>
       <r>    -1.9349     0.0000   174.0000 </r>
       <r>    -1.8953     0.0000   174.0000 </r>
       <r>    -1.8558     0.0000   175.0000 </r>
       <r>    -1.8163     0.0000   175.0000 </r>
       <r>    -1.7768     0.0000   176.0000 </r>
       <r>    -1.7373     0.0000   176.0000 </r>
       <r>    -1.6978     0.0000   176.0000 </r>
       <r>    -1.6583     0.0000   177.0000 </r>
       <r>    -1.6187     0.0000   177.0000 </r>
       <r>    -1.5792     0.0000   177.0000 </r>
       <r>    -1.5397     0.0000   177.0000 </r>
       <r>    -1.5002     0.0000   178.0000 </r>
       <r>    -1.4607     0.0000   178.0000 </r>
       <r>    -1.4212     0.0000   178.0000 </r>
       <r>    -1.3817     0.0000   178.0000 </r>
       <r>    -1.3421     0.0000   179.0000 </r>
       <r>    -1.3026     0.0000   179.0000 </r>
       <r>    -1.2631     0.0000   179.0000 </r>
       <r>    -1.2236     0.0000   179.0000 </r>
       <r>    -1.1841     0.0000   179.0000 </r>
       <r>    -1.1446     0.0000   179.0000 </r>
       <r>    -1.1050     0.0000   179.0000 </r>
       <r>    -1.0655     0.0000   180.0000 </r>
       <r>    -1.0260     0.0000   180.0000 </r>
       <r>    -0.9865     0.0000   181.0000 </r>
       <r>    -0.9470     0.0000   181.0000 </r>
       <r>    -0.9075     0.0000   181.0000 </r>
       <r>    -0.8680     0.0000   181.0000 </r>
       <r>    -0.8284     0.0000   182.0000 </r>
       <r>    -0.7889     0.0000   182.0000 </r>
       <r>    -0.7494     0.0000   183.0000 </r>
       <r>    -0.7099     0.0000   183.0000 </r>
       <r>    -0.6704     0.0000   184.0000 </r>
       <r>    -0.6309     0.0000   185.0000 </r>
       <r>    -0.5914     0.0000   185.0000 </r>
       <r>    -0.5518     0.0000   185.0000 </r>
       <r>    -0.5123     0.0000   187.0000 </r>
       <r>    -0.4728     0.0000   187.0000 </r>
       <r>    -0.4333     0.0000   187.0000 </r>
       <r>    -0.3938     0.0000   188.0000 </r>
       <r>    -0.3543     0.0000   188.0000 </r>
       <r>    -0.3148     0.0000   189.0000 </r>
       <r>    -0.2752     0.0000   189.0000 </r>
       <r>    -0.2357     0.0000   190.0000 </r>
       <r>    -0.1962     0.0000   190.0000 </r>
       <r>    -0.1567    23.4661   190.9273 </r>
       <r>    -0.1172     0.0000   191.0000 </r>
       <r>    -0.0777     0.0000   192.0000 </r>
       <r>    -0.0381     0.0000   192.0000 </r>
       <r>     0.0014     0.0000   192.0000 </r>
       <r>     0.0409     0.0000   193.0000 </r>
       <r>     0.0804     0.0000   193.0000 </r>
       <r>     0.1199     0.0000   193.0000 </r>
       <r>     0.1594     0.0000   193.0000 </r>
       <r>     0.1989     0.0000   193.0000 </r>
       <r>     0.2385     0.0000   193.0000 </r>
       <r>     0.2780     0.0000   193.0000 </r>
       <r>     0.3175     0.0000   193.0000 </r>
       <r>     0.3570     0.0000   194.0000 </r>
       <r>     0.3965     0.0000   195.0000 </r>
       <r>     0.4360     0.0000   196.0000 </r>
       <r>     0.4755     0.0000   196.0000 </r>
       <r>     0.5151     0.0000   196.0000 </r>
       <r>     0.5546     0.0000   197.0000 </r>
       <r>     0.5941     0.0000   198.0000 </r>
       <r>     0.6336     0.0000   199.0000 </r>
       <r>     0.6731     0.0000   199.0000 </r>
       <r>     0.7126     0.0000   199.0000 </r>
       <r>     0.7521     0.0000   201.0000 </r>
       <r>     0.7917     0.0000   202.0000 </r>
       <r>     0.8312     0.0000   203.0000 </r>
       <r>     0.8707     0.0000   204.0000 </r>
       <r>     0.9102     0.0000   205.0000 </r>
       <r>     0.9497     0.0000   206.0000 </r>
       <r>     0.9892     0.0000   206.0000 </r>
       <r>     1.0287     0.0000   208.0000 </r>
       <r>     1.0683     0.0000   210.0000 </r>
       <r>     1.1078     0.0000   211.0000 </r>
       <r>     1.1473     0.0000   214.0000 </r>
       <r>     1.1868     0.0000   214.0000 </r>
       <r>     1.2263     0.0000   216.0000 </r>
       <r>     1.2658     0.0000   216.0000 </r>
       <r>     1.3054     0.0000   216.0000 </r>
       <r>     1.3449     0.0000   216.0000 </r>
       <r>     1.3844     0.0000   216.0000 </r>
       <r>     1.4239     0.0000   216.0000 </r>
       <r>     1.4634     0.0000   216.0000 </r>
       <r>     1.5029     0.0000   216.0000 </r>
       <r>     1.5424     0.0000   216.0000 </r>
       <r>     1.5820     0.0000   216.0000 </r>
       <r>     1.6215     0.0000   216.0000 </r>
       <r>     1.6610     0.0000   216.0000 </r>
       <r>     1.7005     0.0000   216.0000 </r>
       <r>     1.7400     0.0000   216.0000 </r>
      </set>
     </set>
    </array>
   </total>
  </dos>
 </calculation>
 <structure name="finalpos" >
  <crystal>
   <varray name="basis" >
    <v>      21.45468374       0.00000000       0.00000000 </v>
    <v>       0.00000000      21.45468374       0.00000000 </v>
    <v>       0.00000000       0.00000000      21.45468374 </v>
   </varray>
   <i name="volume">   9875.66503659 </i>
   <varray name="rec_basis" >
    <v>       0.04660987       0.00000000       0.00000000 </v>
    <v>       0.00000000       0.04660987       0.00000000 </v>
    <v>       0.00000000       0.00000000       0.04660987 </v>
   </varray>
  </crystal>
  <varray name="positions" >
   <v>       0.49445375       0.68769180       0.62564099 </v>
   <v>       0.45960114       0.62938869       0.74015540 </v>
   <v>       0.48933431       0.50161682       0.72347778 </v>
   <v>       0.52226769       0.37915118       0.69300133 </v>
   <v>       0.62923933       0.69825981       0.63215039 </v>
   <v>       0.56900474       0.59415268       0.68124966 </v>
   <v>       0.70479349       0.67434758       0.52546732 </v>
   <v>       0.59226951       0.47160001       0.63985985 </v>
   <v>       0.65455059       0.57360315       0.58597219 </v>
   <v>       0.45982469       0.44752476       0.60306887 </v>
   <v>       0.42441058       0.57693591       0.62914672 </v>
   <v>       0.55081574       0.36195757       0.56255707 </v>
   <v>       0.62886116       0.46507606       0.51362781 </v>
   <v>       0.57256761       0.66812015       0.52015237 </v>
   <v>       0.64763280       0.58324142       0.45051087 </v>
   <v>       0.50468178       0.44443435       0.46669296 </v>
   <v>       0.38445436       0.39373379       0.50106666 </v>
   <v>       0.40159217       0.52123075       0.51383492 </v>
   <v>       0.52891991       0.54724411       0.54835839 </v>
   <v>       0.59689886       0.58906385       0.32019720 </v>
   <v>       0.60385078       0.35865154       0.43959027 </v>
   <v>       0.52015200       0.58375316       0.42368185 </v>
   <v>       0.60404534       0.47739180       0.38292203 </v>
   <v>       0.44246364       0.64364104       0.51218374 </v>
   <v>       0.48017329       0.31706968       0.45485054 </v>
   <v>       0.30196887       0.48352639       0.44377609 </v>
   <v>       0.51537213       0.38405630       0.34579826 </v>
   <v>       0.49108075       0.51077993       0.31994412 </v>
   <v>       0.39522870       0.56982411       0.39543895 </v>
   <v>       0.40321340       0.43665474       0.37934852 </v>
  </varray>
 </structure>
</modeling>
