   16   16 1000    2
  0.5010471E+03  0.2001395E-08  0.2001395E-08  0.2001395E-08  0.1000000E-15
  1.000000000000000E-004
  CAR 
 unknown system                          
    176      1    116
 
  0.0000000E+00  0.0000000E+00  0.0000000E+00  0.1000000E+01
    1       -9.635120     -9.635120
    2       -9.284403     -9.284403
    3       -9.262237     -9.262237
    4       -9.148548     -9.148548
    5       -9.075308     -9.075308
    6       -9.070996     -9.070996
    7       -8.923641     -8.923641
    8       -8.758688     -8.758688
    9       -8.632161     -8.632161
   10       -8.628205     -8.628205
   11       -8.586442     -8.586443
   12       -8.578655     -8.578655
   13       -8.534060     -8.534060
   14       -8.464435     -8.464435
   15       -8.414610     -8.414610
   16       -8.407331     -8.407331
   17       -8.369046     -8.369046
   18       -8.338408     -8.338408
   19       -8.303780     -8.303780
   20       -8.277310     -8.277310
   21       -8.236977     -8.236977
   22       -8.204267     -8.204267
   23       -8.162878     -8.162878
   24       -8.113368     -8.113368
   25       -8.017939     -8.017939
   26       -8.000438     -8.000438
   27       -7.984155     -7.984155
   28       -7.969809     -7.969809
   29       -7.967147     -7.967147
   30       -7.918587     -7.918587
   31       -7.892840     -7.892840
   32       -7.772931     -7.772931
   33       -7.760159     -7.760159
   34       -7.726695     -7.726695
   35       -7.670976     -7.670976
   36       -7.657786     -7.657786
   37       -7.622246     -7.622246
   38       -7.578832     -7.578832
   39       -7.544302     -7.544302
   40       -7.504239     -7.504239
   41       -7.486972     -7.486972
   42       -7.478774     -7.478774
   43       -7.428802     -7.428802
   44       -7.392136     -7.392136
   45       -7.359635     -7.359635
   46       -7.298630     -7.298630
   47       -7.245806     -7.245806
   48       -7.243081     -7.243081
   49       -7.205841     -7.205841
   50       -7.198363     -7.198363
   51       -7.173552     -7.173552
   52       -7.133536     -7.133536
   53       -7.115840     -7.115840
   54       -7.109959     -7.109959
   55       -7.053836     -7.053836
   56       -7.030699     -7.030699
   57       -6.988534     -6.988534
   58       -6.966116     -6.966116
   59       -6.933321     -6.933321
   60       -6.914903     -6.914903
   61       -6.887738     -6.887738
   62       -6.845995     -6.845995
   63       -6.832529     -6.832529
   64       -6.816562     -6.816562
   65       -6.767460     -6.767460
   66       -6.764186     -6.764186
   67       -6.736980     -6.736980
   68       -6.727186     -6.727186
   69       -6.694634     -6.694634
   70       -6.693540     -6.693540
   71       -6.670018     -6.670018
   72       -6.636403     -6.636403
   73       -6.592130     -6.592130
   74       -6.575863     -6.575864
   75       -6.514370     -6.514370
   76       -6.513942     -6.513942
   77       -6.477350     -6.477350
   78       -6.471518     -6.471518
   79       -6.467300     -6.467300
   80       -6.415337     -6.415337
   81       -6.292579     -6.292579
   82       -6.278003     -6.278003
   83       -5.895090     -5.895090
   84       -5.837604     -5.837604
   85       -4.656311     -4.656310
   86       -4.288690     -4.288690
   87       -4.143317     -4.143317
   88       -3.784969     -3.784969
   89       -3.527293     -3.527293
   90       -3.134190     -3.134190
   91       -2.513132     -2.513132
   92       -2.324321     -2.324321
   93       -2.238338     -2.238338
   94       -1.906701     -1.906701
   95       -1.858712     -1.858712
   96       -1.731155     -1.731155
   97       -1.379815     -1.379815
   98       -1.204537     -1.204537
   99       -1.168226     -1.168223
  100       -1.153422     -1.153422
  101       -0.670999     -0.670998
  102       -0.465080     -0.465077
  103       -0.186384     -0.186383
  104       -0.082987     -0.082989
  105        0.023006      0.023008
  106        0.029957      0.029955
  107        0.228579      0.228582
  108        0.375768      0.375770
  109        0.425401      0.425401
  110        0.471629      0.471633
  111        0.527577      0.527575
  112        0.656328      0.656336
  113        0.662694      0.662698
  114        0.701498      0.701493
  115        0.708143      0.708146
  116        0.722032      0.722033
