   35   35 1000    2
  0.3119250E+03  0.2218398E-08  0.2218398E-08  0.2218398E-08  0.1000000E-15
  1.000000000000000E-004
  CAR 
 unknown system                          
    385      1    252
 
  0.0000000E+00  0.0000000E+00  0.0000000E+00  0.1000000E+01
    1       -9.687545     -9.671136
    2       -9.115567     -9.105384
    3       -9.101883     -9.092293
    4       -9.086154     -9.075203
    5       -9.027512     -9.016233
    6       -9.016087     -9.006381
    7       -8.996651     -8.986098
    8       -8.973360     -8.964967
    9       -8.936135     -8.928290
   10       -8.914603     -8.903232
   11       -8.898088     -8.888114
   12       -8.886220     -8.871187
   13       -8.859048     -8.848993
   14       -8.820819     -8.808844
   15       -8.751618     -8.742784
   16       -8.748505     -8.739755
   17       -8.739536     -8.728396
   18       -8.728533     -8.720114
   19       -8.718617     -8.711483
   20       -8.706276     -8.697981
   21       -8.697552     -8.685559
   22       -8.687706     -8.678367
   23       -8.653362     -8.644451
   24       -8.642999     -8.631747
   25       -8.601864     -8.593440
   26       -8.585064     -8.571625
   27       -8.577288     -8.566858
   28       -8.557282     -8.548366
   29       -8.536829     -8.528848
   30       -8.522533     -8.511577
   31       -8.510323     -8.502767
   32       -8.483115     -8.474251
   33       -8.411903     -8.402019
   34       -8.390707     -8.382380
   35       -8.373549     -8.363628
   36       -8.363450     -8.354159
   37       -8.345926     -8.332459
   38       -8.333250     -8.322883
   39       -8.306566     -8.293235
   40       -8.298365     -8.289239
   41       -8.270276     -8.259742
   42       -8.245308     -8.236293
   43       -8.232907     -8.223281
   44       -8.200316     -8.191548
   45       -8.185304     -8.175817
   46       -8.174154     -8.165820
   47       -8.164148     -8.156547
   48       -8.142339     -8.133640
   49       -8.124431     -8.115139
   50       -8.112191     -8.104216
   51       -8.096092     -8.088390
   52       -8.091129     -8.082959
   53       -8.084833     -8.075524
   54       -8.065426     -8.056510
   55       -8.038672     -8.027294
   56       -8.006131     -7.997297
   57       -7.992724     -7.984958
   58       -7.967762     -7.956347
   59       -7.954899     -7.948497
   60       -7.920417     -7.911397
   61       -7.902817     -7.894907
   62       -7.894880     -7.886877
   63       -7.871660     -7.862588
   64       -7.864911     -7.855764
   65       -7.844485     -7.836621
   66       -7.832776     -7.823663
   67       -7.804454     -7.795572
   68       -7.790617     -7.782229
   69       -7.766913     -7.759549
   70       -7.757605     -7.750827
   71       -7.736137     -7.727275
   72       -7.723820     -7.712636
   73       -7.699447     -7.690366
   74       -7.692652     -7.684170
   75       -7.676988     -7.670131
   76       -7.670433     -7.662658
   77       -7.659565     -7.647906
   78       -7.639239     -7.630569
   79       -7.615270     -7.606082
   80       -7.597214     -7.589460
   81       -7.578025     -7.570381
   82       -7.575847     -7.568825
   83       -7.542707     -7.535789
   84       -7.522328     -7.514497
   85       -7.503241     -7.494320
   86       -7.478647     -7.471397
   87       -7.464851     -7.456652
   88       -7.441630     -7.433819
   89       -7.439665     -7.431491
   90       -7.406217     -7.399151
   91       -7.384478     -7.375838
   92       -7.377412     -7.370025
   93       -7.355672     -7.346867
   94       -7.344562     -7.335799
   95       -7.309532     -7.299387
   96       -7.293938     -7.286955
   97       -7.267346     -7.261257
   98       -7.249122     -7.239683
   99       -7.227682     -7.218618
  100       -7.199825     -7.191552
  101       -7.195931     -7.186841
  102       -7.172159     -7.166262
  103       -7.152212     -7.144260
  104       -7.145480     -7.137178
  105       -7.122829     -7.113124
  106       -7.110718     -7.101557
  107       -7.104456     -7.092616
  108       -7.089003     -7.081555
  109       -7.083756     -7.075281
  110       -7.068566     -7.059905
  111       -7.055539     -7.048630
  112       -7.035478     -7.027051
  113       -7.021966     -7.015885
  114       -7.013634     -7.006410
  115       -7.012161     -7.003137
  116       -7.002812     -6.994968
  117       -6.983544     -6.975686
  118       -6.965431     -6.956893
  119       -6.959062     -6.949015
  120       -6.948507     -6.941740
  121       -6.934938     -6.928608
  122       -6.926254     -6.918329
  123       -6.917557     -6.910427
  124       -6.897603     -6.889776
  125       -6.888654     -6.878012
  126       -6.883611     -6.873206
  127       -6.872443     -6.864073
  128       -6.864851     -6.857697
  129       -6.864361     -6.856503
  130       -6.851438     -6.843625
  131       -6.818471     -6.811521
  132       -6.806908     -6.799635
  133       -6.806464     -6.795946
  134       -6.782576     -6.772619
  135       -6.769992     -6.760590
  136       -6.760948     -6.754309
  137       -6.750581     -6.742056
  138       -6.743363     -6.735516
  139       -6.739231     -6.729813
  140       -6.713697     -6.704646
  141       -6.697306     -6.689472
  142       -6.674114     -6.667374
  143       -6.668178     -6.660487
  144       -6.661446     -6.653956
  145       -6.644464     -6.638991
  146       -6.641144     -6.633385
  147       -6.630149     -6.621743
  148       -6.628247     -6.617548
  149       -6.607569     -6.599837
  150       -6.603718     -6.597423
  151       -6.591296     -6.583953
  152       -6.568449     -6.560221
  153       -6.555191     -6.548793
  154       -6.544657     -6.537617
  155       -6.528042     -6.521263
  156       -6.522023     -6.514618
  157       -6.512109     -6.505143
  158       -6.499746     -6.492871
  159       -6.488852     -6.480029
  160       -6.471396     -6.465325
  161       -6.465142     -6.456889
  162       -6.461316     -6.451626
  163       -6.430379     -6.423710
  164       -6.419503     -6.409433
  165       -6.403719     -6.395286
  166       -6.392461     -6.382424
  167       -6.379567     -6.369761
  168       -6.362415     -6.353971
  169       -6.354345     -6.348132
  170       -6.333175     -6.325893
  171       -6.310005     -6.300981
  172       -6.304853     -6.295680
  173       -6.285932     -6.277310
  174       -6.263372     -6.257044
  175       -6.260371     -6.253559
  176       -6.223389     -6.217482
  177       -6.190595     -6.183902
  178       -6.183245     -6.177695
  179       -6.165716     -6.159219
  180       -5.955857     -5.945232
  181       -5.886204     -5.864804
  182       -5.808806     -5.793003
  183       -5.580516     -5.544931
  184       -5.493263     -5.479932
  185       -4.799159     -4.760566
  186       -4.504955     -4.486393
  187       -4.424901     -4.407482
  188       -4.274948     -4.248314
  189       -4.160634     -4.137458
  190       -4.017554     -3.993725
  191       -3.816085     -3.797087
  192       -3.698943     -3.679637
  193       -3.473382     -3.377914
  194       -3.271822     -3.250268
  195       -2.821342     -2.796668
  196       -2.714277     -2.696723
  197       -2.638151     -2.605850
  198       -2.560221     -2.534197
  199       -2.443873     -2.420862
  200       -2.324131     -2.288944
  201       -2.243692     -2.224357
  202       -2.230053     -2.211724
  203       -2.081465     -2.052452
  204       -1.947030     -1.914675
  205       -1.930462     -1.902978
  206       -1.758024     -1.700197
  207       -1.696360     -1.672378
  208       -1.362309     -1.324892
  209       -1.251994     -1.187356
  210       -1.100165     -1.074232
  211       -0.961972     -0.940556
  212       -0.908980     -0.866113
  213       -0.819917     -0.792052
  214       -0.646647     -0.619636
  215       -0.595019     -0.575754
  216       -0.498796     -0.473837
  217       -0.462648     -0.428748
  218       -0.437844     -0.406664
  219       -0.404277     -0.382616
  220       -0.295866     -0.262409
  221       -0.216324     -0.186281
  222       -0.182861     -0.149550
  223        0.048982      0.081134
  224        0.222465      0.264135
  225        0.293874      0.322570
  226        0.458991      0.491817
  227        0.523295      0.553900
  228        0.530945      0.555285
  229        0.645442      0.665731
  230        0.665850      0.682491
  231        0.731163      0.730209
  232        0.779166      0.795182
  233        0.804280      0.834663
  234        0.861857      0.866749
  235        0.877314      0.888736
  236        0.918333      0.920785
  237        0.979796      0.990204
  238        1.017469      1.030492
  239        1.021773      1.041560
  240        1.044360      1.052056
  241        1.053928      1.058624
  242        1.061418      1.071445
  243        1.080653      1.095069
  244        1.102671      1.114847
  245        1.125412      1.135703
  246        1.155147      1.163652
  247        1.159813      1.170008
  248        1.219946      1.227106
  249        1.239605      1.240224
  250        1.276942      1.276858
  251        1.304938      1.307373
  252        1.325850      1.328310
