       N       E                     dE             d eps       ncg     rms          rms(c)
DAV:   1     0.265300138356E+04    0.26530E+04   -0.59051E+04   800   0.601E+02
DAV:   2     0.526763565599E+03   -0.21262E+04   -0.19065E+04  1344   0.152E+02
DAV:   3    -0.313230056467E+02   -0.55809E+03   -0.51091E+03  1032   0.863E+01
DAV:   4    -0.577858772731E+02   -0.26463E+02   -0.26216E+02   872   0.203E+01
DAV:   5    -0.581711901940E+02   -0.38531E+00   -0.38458E+00   912   0.290E+00    0.304E+01
DAV:   6    -0.209015351862E+02    0.37270E+02   -0.11033E+02   800   0.162E+01    0.160E+01
DAV:   7    -0.146133693046E+02    0.62882E+01   -0.64209E+00   840   0.502E+00    0.955E+00
DAV:   8    -0.171474059562E+02   -0.25340E+01   -0.20638E+00   840   0.266E+00    0.507E+00
DAV:   9    -0.217979019427E+02   -0.46505E+01   -0.10675E+00   864   0.166E+00    0.374E+00
DAV:  10    -0.231092966464E+02   -0.13114E+01   -0.19433E-01   904   0.132E+00    0.331E+00
DAV:  11    -0.330373890980E+02   -0.99281E+01   -0.39185E+00   808   0.331E+00    0.313E+00
DAV:  12    -0.359375769869E+02   -0.29002E+01   -0.90111E-01   848   0.193E+00    0.254E+00
DAV:  13    -0.406493190235E+02   -0.47117E+01   -0.13581E+00   816   0.195E+00    0.187E+00
DAV:  14    -0.480290426841E+02   -0.73797E+01   -0.32733E+00   816   0.217E+00    0.122E+00
DAV:  15    -0.515680478040E+02   -0.35390E+01   -0.84630E-01   856   0.110E+00    0.898E-01
DAV:  16    -0.539918394278E+02   -0.24238E+01   -0.42022E-01   800   0.759E-01    0.633E-01
DAV:  17    -0.557933346814E+02   -0.18015E+01   -0.29050E-01   832   0.640E-01    0.352E-01
DAV:  18    -0.565178066255E+02   -0.72447E+00   -0.46260E-02   856   0.264E-01    0.220E-01
DAV:  19    -0.569575558124E+02   -0.43975E+00   -0.15977E-02   848   0.169E-01    0.138E-01
DAV:  20    -0.572004814662E+02   -0.24293E+00   -0.88219E-03   832   0.152E-01    0.730E-02
DAV:  21    -0.572719190285E+02   -0.71438E-01   -0.19587E-03   840   0.814E-02    0.530E-02
DAV:  22    -0.572856395820E+02   -0.13721E-01   -0.65577E-04   624   0.371E-02    0.320E-02
DAV:  23    -0.572917395666E+02   -0.61000E-02   -0.64559E-04   592   0.352E-02    0.227E-02
DAV:  24    -0.572941866336E+02   -0.24471E-02   -0.22088E-04   584   0.204E-02    0.161E-02
DAV:  25    -0.572975021089E+02   -0.33155E-02   -0.17815E-04   536   0.167E-02    0.112E-02
DAV:  26    -0.572996185001E+02   -0.21164E-02   -0.60249E-05   576   0.105E-02    0.906E-03
DAV:  27    -0.573014553072E+02   -0.18368E-02   -0.41182E-05   560   0.895E-03    0.529E-03
DAV:  28    -0.573022542782E+02   -0.79897E-03   -0.20113E-05   544   0.656E-03    0.336E-03
DAV:  29    -0.573023323184E+02   -0.78040E-04   -0.45689E-06   536   0.405E-03
   1 F= -.57302332E+02 E0= -.57302332E+02  d E =-.573023E+02  mag=     1.9995
       N       E                     dE             d eps       ncg     rms          rms(c)
DAV:   1    -0.573333913737E+02   -0.31137E-01   -0.22246E+00   840   0.286E+00    0.107E-01
DAV:   2    -0.573343928765E+02   -0.10015E-02   -0.96100E-03   840   0.258E-01    0.696E-02
DAV:   3    -0.573343894393E+02    0.34372E-05   -0.16269E-04   536   0.372E-02
   2 F= -.57334389E+02 E0= -.57334389E+02  d E =-.320571E-01  mag=     1.9997
       N       E                     dE             d eps       ncg     rms          rms(c)
DAV:   1    -0.574073430024E+02   -0.72950E-01   -0.20065E+01   800   0.859E+00    0.307E-01
DAV:   2    -0.574160165688E+02   -0.86736E-02   -0.86986E-02   848   0.777E-01    0.199E-01
DAV:   3    -0.574157938340E+02    0.22273E-03   -0.15425E-03   872   0.110E-01    0.127E-01
DAV:   4    -0.574156534945E+02    0.14034E-03   -0.81128E-04   848   0.580E-02    0.219E-02
DAV:   5    -0.574156450244E+02    0.84700E-05   -0.36884E-05   528   0.153E-02
   3 F= -.57415645E+02 E0= -.57415645E+02  d E =-.113313E+00  mag=     1.9999
       N       E                     dE             d eps       ncg     rms          rms(c)
DAV:   1    -0.574836033107E+02   -0.67950E-01   -0.80215E+01   800   0.172E+01    0.558E-01
DAV:   2    -0.575185138192E+02   -0.34911E-01   -0.34811E-01   840   0.156E+00    0.373E-01
DAV:   3    -0.575177090773E+02    0.80474E-03   -0.58788E-03   848   0.218E-01    0.253E-01
DAV:   4    -0.575171620292E+02    0.54705E-03   -0.36501E-03   848   0.122E-01    0.445E-02
DAV:   5    -0.575171199953E+02    0.42034E-04   -0.12522E-04   552   0.290E-02
   4 F= -.57517120E+02 E0= -.57517120E+02  d E =-.214788E+00  mag=     2.0000
       N       E                     dE             d eps       ncg     rms          rms(c)
DAV:   1    -0.573696845546E+02    0.14748E+00   -0.32281E+02   800   0.347E+01    0.101E+00
DAV:   2    -0.575139183151E+02   -0.14423E+00   -0.14339E+00   832   0.321E+00    0.674E-01
DAV:   3    -0.575116095588E+02    0.23088E-02   -0.22807E-02   864   0.441E-01    0.485E-01
DAV:   4    -0.575090549877E+02    0.25546E-02   -0.12040E-02   832   0.224E-01    0.108E-01
DAV:   5    -0.575090894862E+02   -0.34498E-04   -0.29376E-04   624   0.486E-02
   5 F= -.57509089E+02 E0= -.57509089E+02  d E =-.206757E+00  mag=     2.0000
       N       E                     dE             d eps       ncg     rms          rms(c)
DAV:   1    -0.575117602454E+02   -0.27053E-02   -0.79797E+01   800   0.172E+01    0.487E-01
DAV:   2    -0.575467620315E+02   -0.35002E-01   -0.34652E-01   848   0.156E+00    0.308E-01
DAV:   3    -0.575461206634E+02    0.64137E-03   -0.57615E-03   888   0.203E-01    0.214E-01
DAV:   4    -0.575457775080E+02    0.34316E-03   -0.31347E-03   840   0.113E-01    0.462E-02
DAV:   5    -0.575458552763E+02   -0.77768E-04   -0.62698E-05   560   0.240E-02
   6 F= -.57545855E+02 E0= -.57545855E+02  d E =-.243523E+00  mag=     2.0000
       N       E                     dE             d eps       ncg     rms          rms(c)
DAV:   1    -0.575992473512E+02   -0.53470E-01   -0.31970E+01   816   0.108E+01    0.287E-01
DAV:   2    -0.576138519226E+02   -0.14605E-01   -0.14937E-01   840   0.106E+00    0.266E-01
DAV:   3    -0.576136760445E+02    0.17588E-03   -0.25039E-03   888   0.145E-01    0.189E-01
DAV:   4    -0.576132186137E+02    0.45743E-03   -0.12230E-03   848   0.707E-02    0.816E-02
DAV:   5    -0.576132382741E+02   -0.19660E-04   -0.23687E-04   544   0.350E-02
   7 F= -.57613238E+02 E0= -.57613238E+02  d E =-.673830E-01  mag=     2.0000
       N       E                     dE             d eps       ncg     rms          rms(c)
DAV:   1    -0.576141501372E+02   -0.93152E-03   -0.28957E+02   800   0.326E+01    0.762E-01
DAV:   2    -0.577459901632E+02   -0.13184E+00   -0.13473E+00   864   0.320E+00    0.814E-01
DAV:   3    -0.577453964441E+02    0.59372E-03   -0.22310E-02   872   0.420E-01    0.605E-01
DAV:   4    -0.577414499323E+02    0.39465E-02   -0.67410E-03   864   0.172E-01    0.366E-01
DAV:   5    -0.577411818308E+02    0.26810E-03   -0.52759E-03   840   0.149E-01    0.123E-01
DAV:   6    -0.577412317289E+02   -0.49898E-04   -0.19161E-04   544   0.292E-02
   8 F= -.57741232E+02 E0= -.57741232E+02  d E =-.195376E+00  mag=     2.0000
       N       E                     dE             d eps       ncg     rms          rms(c)
DAV:   1    -0.571627670961E+02    0.57841E+00   -0.11854E+03   800   0.671E+01    0.154E+00
DAV:   2    -0.577135680768E+02   -0.55080E+00   -0.56001E+00   864   0.666E+00    0.171E+00
DAV:   3    -0.577130572945E+02    0.51078E-03   -0.91503E-02   864   0.832E-01    0.124E+00
DAV:   4    -0.577004790591E+02    0.12578E-01   -0.17061E-02   864   0.287E-01    0.876E-01
DAV:   5    -0.576976942653E+02    0.27848E-02   -0.21806E-02   840   0.296E-01    0.305E-01
DAV:   6    -0.576981720285E+02   -0.47776E-03   -0.40272E-04   760   0.473E-02    0.165E-01
DAV:   7    -0.576984277456E+02   -0.25572E-03   -0.23234E-04   560   0.335E-02    0.764E-02
DAV:   8    -0.576986926815E+02   -0.26494E-03   -0.16287E-04   544   0.287E-02    0.287E-02
DAV:   9    -0.576989294964E+02   -0.23681E-03   -0.19037E-05   544   0.106E-02    0.828E-03
DAV:  10    -0.576990647809E+02   -0.13528E-03   -0.50406E-06   560   0.461E-03    0.392E-03
DAV:  11    -0.576992089065E+02   -0.14413E-03   -0.44179E-06   544   0.263E-03    0.218E-03
DAV:  12    -0.576993952772E+02   -0.18637E-03   -0.10331E-05   536   0.270E-03    0.353E-03
DAV:  13    -0.576994408410E+02   -0.45564E-04   -0.15862E-06   544   0.147E-03
   9 F= -.57699441E+02 E0= -.57699441E+02  d E =-.153586E+00  mag=     2.0000
       N       E                     dE             d eps       ncg     rms          rms(c)
DAV:   1    -0.575805340085E+02    0.11886E+00   -0.40409E+02   800   0.386E+01    0.117E+00
DAV:   2    -0.577749602029E+02   -0.19443E+00   -0.19802E+00   864   0.383E+00    0.696E-01
DAV:   3    -0.577720594851E+02    0.29007E-02   -0.32727E-02   872   0.513E-01    0.457E-01
DAV:   4    -0.577686345349E+02    0.34250E-02   -0.10529E-02   856   0.215E-01    0.171E-01
DAV:   5    -0.577689145511E+02   -0.28002E-03   -0.15575E-03   848   0.856E-02    0.588E-02
DAV:   6    -0.577690226638E+02   -0.10811E-03   -0.20679E-04   552   0.304E-02    0.321E-02
DAV:   7    -0.577692005534E+02   -0.17789E-03   -0.84510E-05   544   0.202E-02    0.975E-03
DAV:   8    -0.577693600176E+02   -0.15946E-03   -0.13365E-05   536   0.736E-03    0.352E-03
DAV:   9    -0.577694433645E+02   -0.83347E-04   -0.37027E-06   560   0.380E-03
  10 F= -.57769443E+02 E0= -.57769443E+02  d E =-.223588E+00  mag=     2.0000
       N       E                     dE             d eps       ncg     rms          rms(c)
DAV:   1    -0.577980383838E+02   -0.28678E-01   -0.49401E+01   816   0.133E+01    0.306E-01
DAV:   2    -0.578215873819E+02   -0.23549E-01   -0.23694E-01   832   0.131E+00    0.272E-01
DAV:   3    -0.578213185529E+02    0.26883E-03   -0.40917E-03   888   0.172E-01    0.195E-01
DAV:   4    -0.578205832100E+02    0.73534E-03   -0.14907E-03   848   0.759E-02    0.922E-02
DAV:   5    -0.578205598079E+02    0.23402E-04   -0.58497E-04   864   0.524E-02
  11 F= -.57820560E+02 E0= -.57820560E+02  d E =-.511164E-01  mag=     2.0000
       N       E                     dE             d eps       ncg     rms          rms(c)
DAV:   1    -0.576767943014E+02    0.14379E+00   -0.45254E+02   800   0.407E+01    0.122E+00
DAV:   2    -0.579033426811E+02   -0.22655E+00   -0.23026E+00   856   0.410E+00    0.854E-01
DAV:   3    -0.578995495848E+02    0.37931E-02   -0.41529E-02   880   0.574E-01    0.551E-01
DAV:   4    -0.578940243943E+02    0.55252E-02   -0.12726E-02   848   0.223E-01    0.241E-01
DAV:   5    -0.578940806170E+02   -0.56223E-04   -0.26401E-03   856   0.116E-01    0.760E-02
DAV:   6    -0.578944088328E+02   -0.32822E-03   -0.27153E-04   688   0.361E-02    0.475E-02
DAV:   7    -0.578948282132E+02   -0.41938E-03   -0.99059E-05   568   0.202E-02    0.151E-02
DAV:   8    -0.578952201747E+02   -0.39196E-03   -0.20110E-05   552   0.879E-03    0.469E-03
DAV:   9    -0.578954818872E+02   -0.26171E-03   -0.59108E-06   552   0.451E-03    0.300E-03
DAV:  10    -0.578957081325E+02   -0.22625E-03   -0.40156E-06   552   0.246E-03    0.212E-03
DAV:  11    -0.578961249707E+02   -0.41684E-03   -0.15286E-05   544   0.349E-03    0.149E-03
DAV:  12    -0.578963161225E+02   -0.19115E-03   -0.54301E-06   568   0.219E-03    0.826E-04
DAV:  13    -0.578964073614E+02   -0.91239E-04   -0.25354E-06   544   0.147E-03
  12 F= -.57896407E+02 E0= -.57896407E+02  d E =-.126964E+00  mag=     2.0000
       N       E                     dE             d eps       ncg     rms          rms(c)
DAV:   1    -0.579032290065E+02   -0.69129E-02   -0.46817E+01   800   0.131E+01    0.381E-01
DAV:   2    -0.579237538603E+02   -0.20525E-01   -0.21159E-01   840   0.123E+00    0.260E-01
DAV:   3    -0.579232791818E+02    0.47468E-03   -0.36963E-03   864   0.168E-01    0.172E-01
DAV:   4    -0.579227364290E+02    0.54275E-03   -0.15681E-03   856   0.873E-02    0.516E-02
DAV:   5    -0.579227664102E+02   -0.29981E-04   -0.95361E-05   544   0.263E-02
  13 F= -.57922766E+02 E0= -.57922766E+02  d E =-.263590E-01  mag=     2.0000
       N       E                     dE             d eps       ncg     rms          rms(c)
DAV:   1    -0.579185596608E+02    0.41768E-02   -0.14892E+01   808   0.737E+00    0.218E-01
DAV:   2    -0.579250644542E+02   -0.65048E-02   -0.67429E-02   832   0.694E-01    0.149E-01
DAV:   3    -0.579249397048E+02    0.12475E-03   -0.11724E-03   872   0.945E-02    0.978E-02
DAV:   4    -0.579248555430E+02    0.84162E-04   -0.46544E-04   832   0.482E-02
  14 F= -.57924856E+02 E0= -.57924856E+02  d E =-.284482E-01  mag=     2.0000
       N       E                     dE             d eps       ncg     rms          rms(c)
DAV:   1    -0.579227241773E+02    0.22155E-02   -0.31346E+01   800   0.105E+01    0.240E-01
DAV:   2    -0.579369020216E+02   -0.14178E-01   -0.14856E-01   832   0.105E+00    0.229E-01
DAV:   3    -0.579367975653E+02    0.10446E-03   -0.27004E-03   880   0.146E-01    0.153E-01
DAV:   4    -0.579363988334E+02    0.39873E-03   -0.60055E-04   840   0.526E-02    0.911E-02
DAV:   5    -0.579364129818E+02   -0.14148E-04   -0.50480E-04   848   0.458E-02
  15 F= -.57936413E+02 E0= -.57936413E+02  d E =-.115574E-01  mag=     2.0000
       N       E                     dE             d eps       ncg     rms          rms(c)
DAV:   1    -0.579316701889E+02    0.47286E-02   -0.14657E+01   800   0.719E+00    0.170E-01
DAV:   2    -0.579382740243E+02   -0.66038E-02   -0.69664E-02   832   0.714E-01    0.160E-01
DAV:   3    -0.579382378744E+02    0.36150E-04   -0.12687E-03   872   0.101E-01    0.106E-01
DAV:   4    -0.579381392908E+02    0.98584E-04   -0.27629E-04   664   0.368E-02
  16 F= -.57938139E+02 E0= -.57938139E+02  d E =-.132837E-01  mag=     2.0000
       N       E                     dE             d eps       ncg     rms          rms(c)
DAV:   1    -0.579387098887E+02   -0.47201E-03   -0.16461E+01   800   0.770E+00    0.173E-01
DAV:   2    -0.579462103970E+02   -0.75005E-02   -0.78872E-02   848   0.754E-01    0.145E-01
DAV:   3    -0.579460961696E+02    0.11423E-03   -0.12737E-03   864   0.982E-02    0.103E-01
DAV:   4    -0.579459470354E+02    0.14913E-03   -0.30008E-04   640   0.380E-02    0.530E-02
DAV:   5    -0.579460757774E+02   -0.12874E-03   -0.25005E-04   552   0.354E-02    0.170E-02
DAV:   6    -0.579462191828E+02   -0.14341E-03   -0.20868E-05   536   0.111E-02    0.119E-02
DAV:   7    -0.579464558691E+02   -0.23669E-03   -0.16701E-05   544   0.736E-03    0.444E-03
DAV:   8    -0.579466597021E+02   -0.20383E-03   -0.61519E-06   544   0.419E-03    0.203E-03
DAV:   9    -0.579468452857E+02   -0.18558E-03   -0.37845E-06   552   0.237E-03    0.167E-03
DAV:  10    -0.579470364583E+02   -0.19117E-03   -0.36187E-06   544   0.188E-03    0.113E-03
DAV:  11    -0.579471904829E+02   -0.15402E-03   -0.41110E-06   552   0.168E-03    0.602E-04
DAV:  12    -0.579472536920E+02   -0.63209E-04   -0.12967E-06   560   0.996E-04
  17 F= -.57947254E+02 E0= -.57947254E+02  d E =-.911440E-02  mag=     2.0000
       N       E                     dE             d eps       ncg     rms          rms(c)
DAV:   1    -0.579477392663E+02   -0.54878E-03   -0.24077E+00   848   0.295E+00    0.660E-02
DAV:   2    -0.579488423698E+02   -0.11031E-02   -0.11555E-02   848   0.289E-01    0.549E-02
DAV:   3    -0.579488122702E+02    0.30100E-04   -0.17103E-04   568   0.380E-02
  18 F= -.57948812E+02 E0= -.57948812E+02  d E =-.106730E-01  mag=     2.0000
       N       E                     dE             d eps       ncg     rms          rms(c)
DAV:   1    -0.579485076649E+02    0.33470E-03   -0.11615E+01   816   0.649E+00    0.181E-01
DAV:   2    -0.579535606656E+02   -0.50530E-02   -0.54138E-02   856   0.630E-01    0.147E-01
DAV:   3    -0.579534020217E+02    0.15864E-03   -0.95773E-04   888   0.860E-02    0.979E-02
DAV:   4    -0.579532117041E+02    0.19032E-03   -0.39215E-04   808   0.433E-02    0.361E-02
DAV:   5    -0.579532432642E+02   -0.31560E-04   -0.61072E-05   544   0.191E-02
  19 F= -.57953243E+02 E0= -.57953243E+02  d E =-.443099E-02  mag=     2.0000
       N       E                     dE             d eps       ncg     rms          rms(c)
DAV:   1    -0.579523833627E+02    0.82834E-03   -0.27692E+00   832   0.317E+00    0.908E-02
DAV:   2    -0.579536345850E+02   -0.12512E-02   -0.13153E-02   832   0.310E-01    0.692E-02
DAV:   3    -0.579536176902E+02    0.16895E-04   -0.22056E-04   544   0.435E-02
  20 F= -.57953618E+02 E0= -.57953618E+02  d E =-.480542E-02  mag=     2.0000
       N       E                     dE             d eps       ncg     rms          rms(c)
DAV:   1    -0.579498998504E+02    0.37347E-02   -0.10669E+01   816   0.626E+00    0.225E-01
DAV:   2    -0.579545033382E+02   -0.46035E-02   -0.49033E-02   856   0.593E-01    0.164E-01
DAV:   3    -0.579543612614E+02    0.14208E-03   -0.92207E-04   864   0.767E-02    0.987E-02
DAV:   4    -0.579542892454E+02    0.72016E-04   -0.30929E-04   648   0.450E-02
  21 F= -.57954289E+02 E0= -.57954289E+02  d E =-.671555E-03  mag=     2.0000
       N       E                     dE             d eps       ncg     rms          rms(c)
DAV:   1    -0.579546046657E+02   -0.24340E-03   -0.23788E+00   840   0.296E+00    0.111E-01
DAV:   2    -0.579557634373E+02   -0.11588E-02   -0.10722E-02   864   0.279E-01    0.819E-02
DAV:   3    -0.579558316693E+02   -0.68232E-04   -0.20309E-04   584   0.364E-02
  22 F= -.57955832E+02 E0= -.57955832E+02  d E =-.221398E-02  mag=     2.0000
       N       E                     dE             d eps       ncg     rms          rms(c)
DAV:   1    -0.579563601629E+02   -0.59673E-03   -0.30896E+00   848   0.331E+00    0.656E-02
DAV:   2    -0.579577898932E+02   -0.14297E-02   -0.14649E-02   824   0.326E-01    0.602E-02
DAV:   3    -0.579577469192E+02    0.42974E-04   -0.22991E-04   624   0.430E-02
  23 F= -.57957747E+02 E0= -.57957747E+02  d E =-.191525E-02  mag=     2.0000
       N       E                     dE             d eps       ncg     rms          rms(c)
DAV:   1    -0.579579808321E+02   -0.19094E-03   -0.18667E+00   840   0.258E+00    0.621E-02
DAV:   2    -0.579586393399E+02   -0.65851E-03   -0.85151E-03   864   0.249E-01    0.567E-02
DAV:   3    -0.579585653811E+02    0.73959E-04   -0.12737E-04   552   0.322E-02
  24 F= -.57958565E+02 E0= -.57958565E+02  d E =-.273371E-02  mag=     2.0000
       N       E                     dE             d eps       ncg     rms          rms(c)
DAV:   1    -0.579590565730E+02   -0.41723E-03   -0.27153E+00   832   0.313E+00    0.833E-02
DAV:   2    -0.579601891648E+02   -0.11326E-02   -0.12779E-02   856   0.307E-01    0.691E-02
DAV:   3    -0.579601512204E+02    0.37944E-04   -0.20584E-04   544   0.422E-02
  25 F= -.57960151E+02 E0= -.57960151E+02  d E =-.158584E-02  mag=     2.0000
       N       E                     dE             d eps       ncg     rms          rms(c)
DAV:   1    -0.579604030412E+02   -0.21388E-03   -0.34941E-01   840   0.112E+00    0.425E-02
DAV:   2    -0.579605799130E+02   -0.17687E-03   -0.16055E-03   864   0.109E-01    0.318E-02
DAV:   3    -0.579606175933E+02   -0.37680E-04   -0.28956E-05   520   0.158E-02
  26 F= -.57960618E+02 E0= -.57960618E+02  d E =-.205221E-02  mag=     2.0000
       N       E                     dE             d eps       ncg     rms          rms(c)
DAV:   1    -0.579610692488E+02   -0.48934E-03   -0.11582E+00   840   0.204E+00    0.591E-02
DAV:   2    -0.579616085960E+02   -0.53935E-03   -0.55044E-03   864   0.199E-01    0.459E-02
DAV:   3    -0.579616077790E+02    0.81702E-06   -0.86131E-05   512   0.262E-02
  27 F= -.57961608E+02 E0= -.57961608E+02  d E =-.990186E-03  mag=     2.0000
       N       E                     dE             d eps       ncg     rms          rms(c)
DAV:   1    -0.579617077917E+02   -0.99196E-04   -0.26633E-02   840   0.312E-01    0.173E-02
DAV:   2    -0.579617580434E+02   -0.50252E-04   -0.10982E-04   512   0.296E-02
  28 F= -.57961758E+02 E0= -.57961758E+02  d E =-.114045E-02  mag=     2.0000
       N       E                     dE             d eps       ncg     rms          rms(c)
DAV:   1    -0.579622693974E+02   -0.56161E-03   -0.79591E-01   840   0.166E+00    0.296E-02
DAV:   2    -0.579626201588E+02   -0.35076E-03   -0.37444E-03   832   0.163E-01    0.286E-02
DAV:   3    -0.579626113448E+02    0.88139E-05   -0.54743E-05   496   0.214E-02
  29 F= -.57962611E+02 E0= -.57962611E+02  d E =-.853301E-03  mag=     2.0000
       N       E                     dE             d eps       ncg     rms          rms(c)
DAV:   1    -0.579615150206E+02    0.11051E-02   -0.71694E+00   800   0.498E+00    0.931E-02
DAV:   2    -0.579645686251E+02   -0.30536E-02   -0.33807E-02   832   0.489E-01    0.896E-02
DAV:   3    -0.579644492337E+02    0.11939E-03   -0.56826E-04   896   0.657E-02    0.667E-02
DAV:   4    -0.579643165564E+02    0.13268E-03   -0.98820E-05   528   0.208E-02    0.401E-02
DAV:   5    -0.579642947638E+02    0.21793E-04   -0.24091E-04   664   0.319E-02
  30 F= -.57964295E+02 E0= -.57964295E+02  d E =-.253672E-02  mag=     2.0000
       N       E                     dE             d eps       ncg     rms          rms(c)
DAV:   1    -0.579539693504E+02    0.10347E-01   -0.28657E+01   800   0.997E+00    0.193E-01
DAV:   2    -0.579665473589E+02   -0.12578E-01   -0.13794E-01   816   0.989E-01    0.170E-01
DAV:   3    -0.579662384250E+02    0.30893E-03   -0.24006E-03   904   0.140E-01    0.120E-01
DAV:   4    -0.579659297479E+02    0.30868E-03   -0.28471E-04   680   0.350E-02    0.771E-02
DAV:   5    -0.579658807718E+02    0.48976E-04   -0.80634E-04   832   0.563E-02
  31 F= -.57965881E+02 E0= -.57965881E+02  d E =-.412273E-02  mag=     2.0000
       N       E                     dE             d eps       ncg     rms          rms(c)
DAV:   1    -0.579112761414E+02    0.54654E-01   -0.11518E+02   800   0.200E+01    0.427E-01
DAV:   2    -0.579616181441E+02   -0.50342E-01   -0.56361E-01   832   0.202E+00    0.356E-01
DAV:   3    -0.579609615741E+02    0.65657E-03   -0.10553E-02   872   0.312E-01    0.240E-01
DAV:   4    -0.579601625881E+02    0.79899E-03   -0.11598E-03   856   0.689E-02    0.156E-01
DAV:   5    -0.579601908911E+02   -0.28303E-04   -0.28468E-03   840   0.105E-01    0.420E-02
DAV:   6    -0.579609004589E+02   -0.70957E-03   -0.60292E-05   552   0.259E-02    0.271E-02
DAV:   7    -0.579621085383E+02   -0.12081E-02   -0.78217E-05   544   0.174E-02    0.128E-02
DAV:   8    -0.579633617421E+02   -0.12532E-02   -0.44220E-05   568   0.120E-02    0.659E-03
DAV:   9    -0.579641292279E+02   -0.76749E-03   -0.14505E-05   544   0.522E-03    0.466E-03
DAV:  10    -0.579649293400E+02   -0.80011E-03   -0.16706E-05   552   0.433E-03    0.327E-03
DAV:  11    -0.579657801218E+02   -0.85078E-03   -0.27042E-05   544   0.424E-03    0.180E-03
DAV:  12    -0.579660612888E+02   -0.28117E-03   -0.65327E-06   560   0.203E-03    0.112E-03
DAV:  13    -0.579662067780E+02   -0.14549E-03   -0.24143E-06   536   0.138E-03    0.666E-04
DAV:  14    -0.579662802666E+02   -0.73489E-04   -0.14915E-06   544   0.112E-03
  32 F= -.57966280E+02 E0= -.57966280E+02  d E =-.452222E-02  mag=     2.0000
       N       E                     dE             d eps       ncg     rms          rms(c)
DAV:   1    -0.579523558968E+02    0.13851E-01   -0.35681E+01   832   0.111E+01    0.221E-01
DAV:   2    -0.579679405099E+02   -0.15585E-01   -0.17104E-01   840   0.111E+00    0.198E-01
DAV:   3    -0.579674827300E+02    0.45778E-03   -0.31356E-03   888   0.165E-01    0.138E-01
DAV:   4    -0.579669797181E+02    0.50301E-03   -0.36992E-04   760   0.396E-02    0.886E-02
DAV:   5    -0.579666190071E+02    0.36071E-03   -0.99314E-04   840   0.624E-02    0.246E-02
DAV:   6    -0.579668143400E+02   -0.19533E-03   -0.18063E-05   536   0.119E-02    0.161E-02
DAV:   7    -0.579671935875E+02   -0.37925E-03   -0.26937E-05   536   0.956E-03    0.672E-03
DAV:   8    -0.579675585932E+02   -0.36501E-03   -0.12499E-05   544   0.617E-03    0.315E-03
DAV:   9    -0.579677944647E+02   -0.23587E-03   -0.37539E-06   576   0.263E-03    0.221E-03
DAV:  10    -0.579680284283E+02   -0.23396E-03   -0.29419E-06   536   0.185E-03    0.158E-03
DAV:  11    -0.579682890118E+02   -0.26058E-03   -0.50479E-06   544   0.189E-03    0.861E-04
DAV:  12    -0.579683888989E+02   -0.99887E-04   -0.14038E-06   552   0.995E-04
  33 F= -.57968389E+02 E0= -.57968389E+02  d E =-.663086E-02  mag=     2.0000
       N       E                     dE             d eps       ncg     rms          rms(c)
DAV:   1    -0.579685963229E+02   -0.30731E-03   -0.26673E-01   848   0.962E-01    0.184E-02
DAV:   2    -0.579687119433E+02   -0.11562E-03   -0.12827E-03   840   0.962E-02    0.171E-02
DAV:   3    -0.579687139467E+02   -0.20034E-05   -0.21374E-05   520   0.143E-02
  34 F= -.57968714E+02 E0= -.57968714E+02  d E =-.325048E-03  mag=     2.0000
       N       E                     dE             d eps       ncg     rms          rms(c)
DAV:   1    -0.579687628763E+02   -0.50933E-04   -0.84250E-01   848   0.171E+00    0.341E-02
DAV:   2    -0.579690627348E+02   -0.29986E-03   -0.39729E-03   848   0.170E-01    0.334E-02
DAV:   3    -0.579690377369E+02    0.24998E-04   -0.66594E-05   544   0.251E-02
  35 F= -.57969038E+02 E0= -.57969038E+02  d E =-.648838E-03  mag=     2.0000
