unknown system                          
           1
    20.419748    0.000000    0.000000
     0.000000   20.419748    0.000000
     0.000000    0.000000   20.419748
   Ag
  23
Direct configuration=     1
   0.68326160  0.35268292  0.66837905
   0.71206799  0.46709153  0.62398907
   0.68781610  0.59564255  0.62907736
   0.66404826  0.58359016  0.50267696
   0.56785753  0.37757042  0.62584743
   0.63053922  0.45408775  0.52014432
   0.54961934  0.61088158  0.56023227
   0.58850818  0.50740191  0.63770391
   0.57265743  0.65338172  0.43773762
   0.59381045  0.39468568  0.40586077
   0.58983273  0.52495303  0.41004858
   0.47094605  0.44857426  0.39115812
   0.45897613  0.52996797  0.61975915
   0.47455605  0.58126373  0.38389589
   0.51203484  0.38556162  0.50698933
   0.48189305  0.71493004  0.36916787
   0.43626719  0.65623645  0.60248357
   0.43948105  0.40278720  0.61462803
   0.37527105  0.58381296  0.51416745
   0.35648240  0.52033902  0.39625151
   0.33239546  0.49445703  0.60250040
   0.37268084  0.65805262  0.41160822
   0.39132762  0.44476209  0.49710314
Direct configuration=     2
   0.68348481  0.35237465  0.66856383
   0.71233924  0.46718996  0.62397885
   0.68786001  0.59591299  0.62922797
   0.66429432  0.58360953  0.50260813
   0.56772657  0.37750664  0.62586679
   0.63051594  0.45394647  0.52012296
   0.54970342  0.61087371  0.56029829
   0.58833155  0.50745347  0.63786095
   0.57278026  0.65359915  0.43771580
   0.59390316  0.39453562  0.40562055
   0.58985668  0.52481907  0.40997229
   0.47109013  0.44846437  0.39107150
   0.45900216  0.52993377  0.61978733
   0.47451351  0.58132426  0.38375116
   0.51195795  0.38545435  0.50682702
   0.48189720  0.71512325  0.36903586
   0.43618832  0.65658025  0.60257360
   0.43928803  0.40261928  0.61485745
   0.37528316  0.58362755  0.51425296
   0.35634217  0.52047639  0.39612736
   0.33226059  0.49440005  0.60275166
   0.37241548  0.65827272  0.41143389
   0.39129590  0.44461675  0.49710385
Direct configuration=     3
   0.68415445  0.35144983  0.66911816
   0.71315298  0.46748526  0.62394818
   0.68799173  0.59672433  0.62967977
   0.66503250  0.58366765  0.50240164
   0.56733371  0.37731528  0.62592486
   0.63044607  0.45352261  0.52005886
   0.54995568  0.61085012  0.56049634
   0.58780168  0.50760816  0.63833206
   0.57314876  0.65425145  0.43765037
   0.59418132  0.39408543  0.40489987
   0.58992851  0.52441716  0.40974343
   0.47152235  0.44813472  0.39081163
   0.45908024  0.52983118  0.61987187
   0.47438590  0.58150584  0.38331698
   0.51172725  0.38513252  0.50634009
   0.48190965  0.71570289  0.36863985
   0.43595170  0.65761164  0.60284368
   0.43870899  0.40211551  0.61554568
   0.37531952  0.58307132  0.51450950
   0.35592147  0.52088847  0.39575490
   0.33185596  0.49422912  0.60350546
   0.37161941  0.65893300  0.41091090
   0.39120072  0.44418075  0.49710597
Direct configuration=     4
   0.68549373  0.34960020  0.67022681
   0.71478047  0.46807586  0.62388684
   0.68825518  0.59834701  0.63058339
   0.66650886  0.58378389  0.50198867
   0.56654798  0.37693258  0.62604101
   0.63030633  0.45267490  0.51993066
   0.55046019  0.61080294  0.56089244
   0.58674193  0.50791754  0.63927430
   0.57388576  0.65555605  0.43751949
   0.59473763  0.39318505  0.40345853
   0.59007217  0.52361335  0.40928571
   0.47238680  0.44747541  0.39029190
   0.45923640  0.52962600  0.62004094
   0.47413068  0.58186900  0.38244861
   0.51126585  0.38448886  0.50536623
   0.48193455  0.71686216  0.36784781
   0.43547847  0.65967442  0.60338385
   0.43755090  0.40110798  0.61692215
   0.37539224  0.58195884  0.51502256
   0.35508008  0.52171265  0.39500997
   0.33104670  0.49388726  0.60501304
   0.37002727  0.66025358  0.40986491
   0.39101036  0.44330874  0.49711021
Direct configuration=     5
   0.68817229  0.34590093  0.67244411
   0.71803545  0.46925705  0.62376416
   0.68878208  0.60159236  0.63239061
   0.66946159  0.58401637  0.50116272
   0.56497653  0.37616716  0.62627331
   0.63002687  0.45097948  0.51967427
   0.55146922  0.61070858  0.56168465
   0.58462244  0.50853629  0.64115876
   0.57535975  0.65816524  0.43725775
   0.59585024  0.39138429  0.40057584
   0.59035951  0.52200574  0.40837027
   0.47411569  0.44615678  0.38925244
   0.45954872  0.52921562  0.62037909
   0.47362024  0.58259533  0.38071187
   0.51034306  0.38320155  0.50341852
   0.48198436  0.71918070  0.36626373
   0.43453201  0.66379998  0.60446419
   0.43523473  0.39909291  0.61967510
   0.37553766  0.57973390  0.51604869
   0.35339729  0.52336100  0.39352012
   0.32942819  0.49320354  0.60802820
   0.36684299  0.66289473  0.40777293
   0.39062965  0.44156473  0.49711869
Direct configuration=     6
   0.68711603  0.34735970  0.67156974
   0.71675188  0.46879126  0.62381254
   0.68857431  0.60031259  0.63167795
   0.66829722  0.58392469  0.50148843
   0.56559621  0.37646899  0.62618171
   0.63013707  0.45164805  0.51977538
   0.55107132  0.61074579  0.56137225
   0.58545824  0.50829229  0.64041564
   0.57477850  0.65713633  0.43736096
   0.59541149  0.39209440  0.40171260
   0.59024620  0.52263968  0.40873126
   0.47343392  0.44667677  0.38966234
   0.45942556  0.52937745  0.62024574
   0.47382153  0.58230891  0.38139674
   0.51070695  0.38370919  0.50418658
   0.48196472  0.71826641  0.36688840
   0.43490524  0.66217311  0.60403817
   0.43614809  0.39988753  0.61858950
   0.37548032  0.58061128  0.51564405
   0.35406088  0.52271099  0.39410763
   0.33006643  0.49347315  0.60683921
   0.36809868  0.66185322  0.40859788
   0.39077978  0.44225246  0.49711535
Direct configuration=     7
   0.68721194  0.34744061  0.67159924
   0.71656622  0.46885004  0.62398318
   0.68830855  0.60064145  0.63191569
   0.66868814  0.58376375  0.50150543
   0.56608403  0.37627711  0.62637345
   0.63004276  0.45136225  0.52007368
   0.55130709  0.61094511  0.56134463
   0.58635573  0.50809205  0.64083863
   0.57501299  0.65726700  0.43727689
   0.59585017  0.39142608  0.40110114
   0.59025876  0.52286129  0.40884488
   0.47333875  0.44683252  0.38940423
   0.45865115  0.52963440  0.62007551
   0.47370930  0.58291039  0.38107896
   0.51051367  0.38323030  0.50401535
   0.48181358  0.71858216  0.36653807
   0.43499606  0.66243235  0.60380967
   0.43558632  0.39958250  0.61895585
   0.37582220  0.58053306  0.51544795
   0.35408067  0.52308297  0.39402498
   0.33002493  0.49301739  0.60763843
   0.36764087  0.66187357  0.40846292
   0.39046669  0.44207590  0.49710129
Direct configuration=     8
   0.68742872  0.34762349  0.67166590
   0.71614657  0.46898290  0.62436886
   0.68770789  0.60138474  0.63245304
   0.66957170  0.58339998  0.50154385
   0.56718660  0.37584342  0.62680684
   0.62982961  0.45071626  0.52074789
   0.55183996  0.61139562  0.56128220
   0.58838425  0.50763946  0.64179466
   0.57554298  0.65756233  0.43708688
   0.59684167  0.38991553  0.39971911
   0.59028715  0.52336218  0.40910167
   0.47312364  0.44718456  0.38882085
   0.45690082  0.53021517  0.61969074
   0.47345563  0.58426986  0.38036072
   0.51007680  0.38214791  0.50362835
   0.48147199  0.71929581  0.36574625
   0.43520134  0.66301828  0.60329322
   0.43431661  0.39889307  0.61978387
   0.37659494  0.58035627  0.51500471
   0.35412540  0.52392375  0.39383817
   0.32993113  0.49198728  0.60944484
   0.36660610  0.66191955  0.40815787
   0.38975905  0.44167684  0.49706952
Direct configuration=     9
   0.68750030  0.34806220  0.67159472
   0.71590173  0.46899769  0.62457714
   0.68725556  0.60154569  0.63254042
   0.66965447  0.58311069  0.50175770
   0.56717229  0.37588907  0.62666737
   0.62947838  0.45046055  0.52072180
   0.55206584  0.61126062  0.56145403
   0.58834640  0.50766799  0.64189333
   0.57559467  0.65752584  0.43690467
   0.59683110  0.38996483  0.39970912
   0.59007857  0.52320506  0.40945168
   0.47314286  0.44759029  0.38889490
   0.45725124  0.53034526  0.61952076
   0.47355337  0.58482671  0.38007899
   0.51004339  0.38175183  0.50361058
   0.48124586  0.71938565  0.36561310
   0.43552078  0.66292885  0.60274718
   0.43450552  0.39885231  0.61982933
   0.37694270  0.58033190  0.51485242
   0.35440531  0.52411048  0.39384495
   0.32994398  0.49142236  0.60989921
   0.36637764  0.66180274  0.40813883
   0.38951860  0.44167565  0.49710779
Direct configuration=    10
   0.68771503  0.34937832  0.67138118
   0.71516719  0.46904204  0.62520199
   0.68589858  0.60202852  0.63280255
   0.66990279  0.58224284  0.50239925
   0.56712936  0.37602602  0.62624895
   0.62842468  0.44969344  0.52064352
   0.55274349  0.61085561  0.56196951
   0.58823287  0.50775359  0.64218931
   0.57574975  0.65741634  0.43635805
   0.59679939  0.39011273  0.39967915
   0.58945283  0.52273370  0.41050170
   0.47320051  0.44880745  0.38911705
   0.45830247  0.53073553  0.61901085
   0.47384658  0.58649727  0.37923378
   0.50994318  0.38056360  0.50355727
   0.48056747  0.71965515  0.36521366
   0.43647910  0.66266057  0.60110908
   0.43507227  0.39873002  0.61996570
   0.37798598  0.58025881  0.51439555
   0.35524504  0.52467068  0.39386531
   0.32998251  0.48972762  0.61126229
   0.36569224  0.66145231  0.40808173
   0.38879723  0.44167210  0.49722260
Direct configuration=    11
   0.68814449  0.35201057  0.67095409
   0.71369812  0.46913073  0.62645167
   0.68318462  0.60299418  0.63332682
   0.67039944  0.58050713  0.50368236
   0.56704350  0.37629992  0.62541211
   0.62631729  0.44815921  0.52048696
   0.55409877  0.61004560  0.56300048
   0.58800581  0.50792479  0.64278129
   0.57605990  0.65719735  0.43526481
   0.59673598  0.39040853  0.39961919
   0.58820135  0.52179098  0.41260175
   0.47331582  0.45124179  0.38956134
   0.46040495  0.53151607  0.61799102
   0.47443301  0.58983840  0.37754336
   0.50974275  0.37818714  0.50345064
   0.47921069  0.72019416  0.36441478
   0.43839575  0.66212400  0.59783288
   0.43620577  0.39848543  0.62023844
   0.38007253  0.58011261  0.51348181
   0.35692451  0.52579109  0.39390602
   0.33005959  0.48633813  0.61398847
   0.36432143  0.66075146  0.40796751
   0.38735450  0.44166498  0.49745222
Direct configuration=    12
   0.68784117  0.35015145  0.67125573
   0.71473570  0.46906809  0.62556904
   0.68510145  0.60231215  0.63295654
   0.67004866  0.58173304  0.50277612
   0.56710415  0.37610647  0.62600316
   0.62780571  0.44924282  0.52059753
   0.55314155  0.61061770  0.56227232
   0.58816618  0.50780387  0.64236319
   0.57584084  0.65735202  0.43603695
   0.59678077  0.39019961  0.39966154
   0.58908525  0.52245681  0.41111851
   0.47323438  0.44952245  0.38924755
   0.45892000  0.53096478  0.61871131
   0.47401882  0.58747861  0.37873728
   0.50988431  0.37986560  0.50352595
   0.48016897  0.71981346  0.36497902
   0.43704205  0.66250297  0.60014682
   0.43540519  0.39865818  0.62004581
   0.37859883  0.58021587  0.51412718
   0.35573832  0.52499976  0.39387727
   0.33000515  0.48873208  0.61206301
   0.36528961  0.66124646  0.40804818
   0.38837348  0.44167001  0.49729004
Direct configuration=    13
   0.68787700  0.35043062  0.67129642
   0.71451681  0.46949023  0.62557603
   0.68459466  0.60256083  0.63319397
   0.67005561  0.58130214  0.50286830
   0.56710118  0.37612751  0.62590195
   0.62749847  0.44900938  0.52074526
   0.55367534  0.61060877  0.56215248
   0.58803150  0.50768554  0.64259218
   0.57597040  0.65725113  0.43602218
   0.59663367  0.39022552  0.39964388
   0.58877208  0.52251059  0.41154112
   0.47326871  0.44996392  0.38953511
   0.45892263  0.53074858  0.61848129
   0.47421360  0.58781905  0.37835241
   0.50955119  0.37932740  0.50331721
   0.47984875  0.72011031  0.36488690
   0.43741228  0.66266087  0.59954104
   0.43566117  0.39877006  0.62000390
   0.37889192  0.57990420  0.51419260
   0.35608730  0.52508370  0.39377396
   0.33042750  0.48823406  0.61239651
   0.36501481  0.66129377  0.40799185
   0.38830400  0.44159606  0.49740350
Direct configuration=    14
   0.68798452  0.35126813  0.67141849
   0.71386013  0.47075666  0.62559700
   0.68307428  0.60330689  0.63390625
   0.67007645  0.58000947  0.50314484
   0.56709227  0.37619064  0.62559835
   0.62657672  0.44830907  0.52118845
   0.55527672  0.61058198  0.56179293
   0.58762747  0.50733055  0.64327915
   0.57635906  0.65694845  0.43597787
   0.59619237  0.39030324  0.39959092
   0.58783256  0.52267193  0.41280896
   0.47337169  0.45128831  0.39039778
   0.45893050  0.53009998  0.61779123
   0.47479792  0.58884039  0.37719779
   0.50855182  0.37771281  0.50269097
   0.47888812  0.72100086  0.36461052
   0.43852298  0.66313457  0.59772372
   0.43642910  0.39910572  0.61987819
   0.37977119  0.57896918  0.51438887
   0.35713422  0.52533553  0.39346403
   0.33169455  0.48674000  0.61339703
   0.36419039  0.66143570  0.40782285
   0.38809555  0.44137424  0.49774385
Direct configuration=    15
   0.68819954  0.35294315  0.67166261
   0.71254678  0.47328951  0.62563894
   0.68003352  0.60479900  0.63533081
   0.67011812  0.57742411  0.50369793
   0.56707446  0.37631689  0.62499114
   0.62473324  0.44690844  0.52207482
   0.55847947  0.61052840  0.56107384
   0.58681939  0.50662055  0.64465310
   0.57713640  0.65634311  0.43588925
   0.59530978  0.39045868  0.39948499
   0.58595353  0.52299460  0.41534463
   0.47357764  0.45393710  0.39212314
   0.45894624  0.52880276  0.61641112
   0.47596656  0.59088306  0.37488854
   0.50655307  0.37448362  0.50143851
   0.47696685  0.72278194  0.36405777
   0.44074438  0.66408196  0.59408906
   0.43796497  0.39977704  0.61962675
   0.38152972  0.57709916  0.51478142
   0.35922805  0.52583918  0.39284419
   0.33422864  0.48375188  0.61539806
   0.36254156  0.66171955  0.40748486
   0.38767865  0.44093059  0.49842457
Direct configuration=    16
   0.68806288  0.35187855  0.67150745
   0.71338152  0.47167969  0.62561229
   0.68196615  0.60385065  0.63442539
   0.67009164  0.57906730  0.50334640
   0.56708578  0.37623665  0.62537707
   0.62590491  0.44779864  0.52151146
   0.55644388  0.61056245  0.56153087
   0.58733298  0.50707181  0.64377985
   0.57664234  0.65672785  0.43594558
   0.59587073  0.39035988  0.39955231
   0.58714780  0.52278952  0.41373302
   0.47344674  0.45225360  0.39102655
   0.45893623  0.52962724  0.61728829
   0.47522380  0.58958479  0.37635624
   0.50782343  0.37653601  0.50223454
   0.47818796  0.72164993  0.36440908
   0.43933251  0.66347982  0.59639916
   0.43698881  0.39935037  0.61978656
   0.38041204  0.57828770  0.51453193
   0.35789726  0.52551907  0.39323815
   0.33261803  0.48565105  0.61412626
   0.36358952  0.66153914  0.40769968
   0.38794362  0.44121256  0.49799192
Direct configuration=    17
   0.68803092  0.35216663  0.67167579
   0.71341583  0.47272798  0.62512303
   0.68123867  0.60447977  0.63492061
   0.67080171  0.57799246  0.50336291
   0.56725347  0.37581192  0.62534537
   0.62553523  0.44746370  0.52188365
   0.55665547  0.61057798  0.56161328
   0.58667576  0.50686322  0.64447408
   0.57665504  0.65708826  0.43590445
   0.59544151  0.39043234  0.39952916
   0.58686287  0.52300243  0.41424044
   0.47345516  0.45236519  0.39157664
   0.45911162  0.52999587  0.61669290
   0.47520662  0.58992748  0.37572040
   0.50718957  0.37565063  0.50176425
   0.47783764  0.72221095  0.36471373
   0.44017316  0.66382199  0.59559455
   0.43740831  0.39894974  0.61974125
   0.38039649  0.57765875  0.51447786
   0.35825874  0.52556641  0.39291939
   0.33308574  0.48549382  0.61446336
   0.36356627  0.66151652  0.40776691
   0.38807477  0.44095022  0.49790603
Direct configuration=    18
   0.68795534  0.35284797  0.67207393
   0.71349697  0.47520721  0.62396593
   0.67951814  0.60596766  0.63609183
   0.67248105  0.57545043  0.50340196
   0.56765007  0.37480743  0.62527041
   0.62466094  0.44667156  0.52276388
   0.55715588  0.61061469  0.56180817
   0.58512141  0.50636990  0.64611596
   0.57668507  0.65794064  0.43580718
   0.59442638  0.39060369  0.39947439
   0.58618901  0.52350599  0.41544051
   0.47347509  0.45262911  0.39287762
   0.45952641  0.53086769  0.61528480
   0.47516598  0.59073795  0.37421661
   0.50569049  0.37355667  0.50065199
   0.47700911  0.72353777  0.36543422
   0.44216131  0.66463123  0.59369163
   0.43840044  0.39800226  0.61963411
   0.38035970  0.57617128  0.51434998
   0.35911363  0.52567837  0.39216552
   0.33419190  0.48512197  0.61526062
   0.36351130  0.66146302  0.40792591
   0.38838495  0.44032976  0.49770290
Direct configuration=    19
   0.68818323  0.35381888  0.67209268
   0.71333399  0.47615839  0.62324628
   0.67827973  0.60675489  0.63640360
   0.67321992  0.57439878  0.50397639
   0.56784522  0.37389096  0.62510680
   0.62405237  0.44623497  0.52309181
   0.55826441  0.61025361  0.56152652
   0.58488180  0.50595523  0.64714643
   0.57658880  0.65838606  0.43601117
   0.59399327  0.39078401  0.39949342
   0.58603788  0.52386169  0.41588414
   0.47349306  0.45247710  0.39313436
   0.45950764  0.53119299  0.61464971
   0.47528970  0.59107787  0.37357312
   0.50529234  0.37236545  0.50059853
   0.47685775  0.72407008  0.36617419
   0.44261073  0.66516687  0.59250782
   0.43876955  0.39776236  0.61949931
   0.37989604  0.57595553  0.51415413
   0.35917016  0.52560605  0.39166228
   0.33464404  0.48528967  0.61544302
   0.36383202  0.66128421  0.40829373
   0.38828689  0.43996860  0.49774059
Direct configuration=    20
   0.68886692  0.35673163  0.67214894
   0.71284505  0.47901191  0.62108732
   0.67456449  0.60911658  0.63733892
   0.67543656  0.57124381  0.50569971
   0.56843068  0.37114155  0.62461599
   0.62222668  0.44492520  0.52407560
   0.56159001  0.60917036  0.56068155
   0.58416299  0.50471123  0.65023784
   0.57629997  0.65972232  0.43662313
   0.59269393  0.39132496  0.39955050
   0.58558450  0.52492881  0.41721502
   0.47354699  0.45202106  0.39390459
   0.45945134  0.53216888  0.61274443
   0.47566089  0.59209761  0.37164266
   0.50409789  0.36879179  0.50043814
   0.47640366  0.72566701  0.36839412
   0.44395897  0.66677379  0.58895641
   0.43987687  0.39704267  0.61909492
   0.37850506  0.57530828  0.51356659
   0.35933974  0.52538906  0.39015259
   0.33600048  0.48579280  0.61599020
   0.36479419  0.66074780  0.40939721
   0.38799272  0.43888514  0.49785367
Direct configuration=    21
   0.68958915  0.35881213  0.67198907
   0.71244727  0.47992332  0.62020425
   0.67334793  0.61001173  0.63786385
   0.67642644  0.57027863  0.50648678
   0.56841529  0.36989310  0.62438885
   0.62119158  0.44446397  0.52410707
   0.56182676  0.60832592  0.56049332
   0.58398654  0.50373726  0.65108018
   0.57612797  0.65990906  0.43705229
   0.59235895  0.39155523  0.39967189
   0.58560796  0.52543491  0.41784661
   0.47332313  0.45206146  0.39401148
   0.46021382  0.53257804  0.61213454
   0.47608200  0.59212319  0.37122448
   0.50400231  0.36735870  0.50065418
   0.47648328  0.72617899  0.36956885
   0.44473982  0.66673984  0.58673326
   0.44010306  0.39751719  0.61888277
   0.37757517  0.57542943  0.51338465
   0.35942468  0.52510440  0.38981807
   0.33612149  0.48596318  0.61599520
   0.36529293  0.66063725  0.40993930
   0.38764301  0.43867732  0.49787911
Direct configuration=    22
   0.69175585  0.36505363  0.67150946
   0.71125394  0.48265755  0.61755503
   0.66969828  0.61269717  0.63943865
   0.67939609  0.56738311  0.50884798
   0.56836914  0.36614774  0.62370743
   0.61808629  0.44308027  0.52420150
   0.56253702  0.60579259  0.55992863
   0.58345719  0.50081536  0.65360721
   0.57561199  0.66046930  0.43833975
   0.59135400  0.39224607  0.40003605
   0.58567836  0.52695322  0.41974141
   0.47265153  0.45218266  0.39433214
   0.46250124  0.53380552  0.61030487
   0.47734534  0.59219993  0.36996993
   0.50371559  0.36305943  0.50130231
   0.47672214  0.72771490  0.37309304
   0.44708238  0.66663798  0.58006379
   0.44078164  0.39894077  0.61824633
   0.37478549  0.57579289  0.51283881
   0.35967952  0.52425040  0.38881453
   0.33648453  0.48647431  0.61601023
   0.36678916  0.66030560  0.41156555
   0.38659387  0.43805388  0.49795541
Direct configuration=    23
   0.69219914  0.36737802  0.67138568
   0.71098461  0.48435968  0.61626430
   0.66898411  0.61312680  0.64020133
   0.67994413  0.56663937  0.50974458
   0.56844131  0.36457253  0.62379475
   0.61681289  0.44282665  0.52428750
   0.56294398  0.60426793  0.55939663
   0.58350340  0.49948524  0.65394912
   0.57544754  0.66054602  0.43899687
   0.59104501  0.39251751  0.40010829
   0.58587188  0.52718448  0.42066671
   0.47269589  0.45226315  0.39473636
   0.46244870  0.53379005  0.60982522
   0.47761096  0.59217644  0.36981366
   0.50336470  0.36203771  0.50122107
   0.47690652  0.72805246  0.37451578
   0.44790402  0.66662051  0.57700451
   0.44108280  0.40002519  0.61798210
   0.37372192  0.57531415  0.51322998
   0.35984024  0.52417591  0.38885426
   0.33676664  0.48683790  0.61585741
   0.36738996  0.66049631  0.41178165
   0.38642022  0.43802023  0.49779228
Direct configuration=    24
   0.69348132  0.37410098  0.67102766
   0.71020559  0.48928287  0.61253104
   0.66691847  0.61436944  0.64240728
   0.68152924  0.56448819  0.51233787
   0.56865008  0.36001643  0.62404732
   0.61312977  0.44209309  0.52453625
   0.56412109  0.59985809  0.55785789
   0.58363707  0.49563805  0.65493806
   0.57497191  0.66076792  0.44089750
   0.59015128  0.39330264  0.40031722
   0.58643160  0.52785338  0.42334301
   0.47282419  0.45249595  0.39590549
   0.46229674  0.53374532  0.60843789
   0.47837923  0.59210852  0.36936169
   0.50234978  0.35908251  0.50098609
   0.47743984  0.72902880  0.37863085
   0.45028047  0.66656999  0.56815598
   0.44195386  0.40316174  0.61721787
   0.37064570  0.57392948  0.51436138
   0.36030511  0.52396045  0.38896918
   0.33758262  0.48788954  0.61541538
   0.36912769  0.66104794  0.41240669
   0.38591795  0.43792292  0.49732047
Direct configuration=    25
   0.69286564  0.37087274  0.67119958
   0.71057966  0.48691885  0.61432368
   0.66791035  0.61377275  0.64134802
   0.68076810  0.56552115  0.51109262
   0.56854983  0.36220418  0.62392604
   0.61489833  0.44244533  0.52441680
   0.56355586  0.60197561  0.55859677
   0.58357288  0.49748540  0.65446319
   0.57520030  0.66066137  0.43998485
   0.59058043  0.39292564  0.40021689
   0.58616283  0.52753219  0.42205790
   0.47276258  0.45238416  0.39534410
   0.46236971  0.53376680  0.60910406
   0.47801032  0.59214113  0.36957872
   0.50283713  0.36050154  0.50109892
   0.47718375  0.72855998  0.37665487
   0.44913934  0.66659425  0.57240488
   0.44153559  0.40165563  0.61758484
   0.37212284  0.57459437  0.51381810
   0.36008189  0.52406391  0.38891400
   0.33719080  0.48738456  0.61562763
   0.36829326  0.66078306  0.41210656
   0.38615913  0.43796965  0.49754703
Direct configuration=    26
   0.69237819  0.37225822  0.67123534
   0.71121741  0.48772427  0.61409751
   0.66790854  0.61350333  0.64197247
   0.68072952  0.56624815  0.51035741
   0.56856093  0.36135156  0.62419733
   0.61415851  0.44245165  0.52509232
   0.56386368  0.60024175  0.55840248
   0.58341968  0.49652787  0.65379840
   0.57516306  0.66066378  0.44038763
   0.59068451  0.39287903  0.40004059
   0.58619958  0.52734717  0.42251088
   0.47317613  0.45255029  0.39593507
   0.46182818  0.53392837  0.60933683
   0.47797988  0.59208738  0.36989250
   0.50226792  0.36080073  0.50076649
   0.47742563  0.72857729  0.37730037
   0.44965924  0.66665749  0.56995294
   0.44237166  0.40206967  0.61746553
   0.37137314  0.57398066  0.51416845
   0.36021358  0.52455976  0.38934777
   0.33688180  0.48760538  0.61572084
   0.36855829  0.66077284  0.41220981
   0.38631149  0.43792757  0.49722106
Direct configuration=    27
   0.69091584  0.37641468  0.67134263
   0.71313067  0.49014053  0.61341900
   0.66790312  0.61269509  0.64384580
   0.68061380  0.56842917  0.50815180
   0.56859424  0.35879370  0.62501120
   0.61193904  0.44247062  0.52711888
   0.56478714  0.59504017  0.55781963
   0.58296008  0.49365528  0.65180404
   0.57505135  0.66067102  0.44159597
   0.59099675  0.39273923  0.39951167
   0.58630981  0.52679213  0.42386982
   0.47441677  0.45304868  0.39770799
   0.46020360  0.53441310  0.61003516
   0.47788856  0.59192611  0.37083385
   0.50056029  0.36169830  0.49976919
   0.47815125  0.72862922  0.37923687
   0.45121894  0.66684722  0.56259711
   0.44487986  0.40331178  0.61710762
   0.36912404  0.57213952  0.51521950
   0.36060867  0.52604732  0.39064910
   0.33595478  0.48826785  0.61600046
   0.36935339  0.66074221  0.41251957
   0.38676858  0.43780134  0.49624318
Direct configuration=    28
   0.69030672  0.37814598  0.67138732
   0.71392760  0.49114698  0.61313637
   0.66790086  0.61235843  0.64462610
   0.68056560  0.56933763  0.50723309
   0.56860811  0.35772827  0.62535021
   0.61101457  0.44247851  0.52796300
   0.56517178  0.59287355  0.55757685
   0.58276864  0.49245876  0.65097332
   0.57500481  0.66067404  0.44209929
   0.59112681  0.39268099  0.39929136
   0.58635572  0.52656093  0.42443587
   0.47493354  0.45325627  0.39844646
   0.45952691  0.53461500  0.61032604
   0.47785053  0.59185894  0.37122596
   0.49984901  0.36207216  0.49935379
   0.47845350  0.72865085  0.38004348
   0.45186860  0.66692625  0.55953318
   0.44592461  0.40382916  0.61695854
   0.36818722  0.57137263  0.51565729
   0.36077324  0.52666694  0.39119114
   0.33556865  0.48854378  0.61611693
   0.36968457  0.66072945  0.41264860
   0.38695896  0.43774876  0.49583586
Direct configuration=    29
   0.68984843  0.37897567  0.67154700
   0.71433963  0.49176916  0.61284947
   0.66781688  0.61209991  0.64497812
   0.68096189  0.57004571  0.50667815
   0.56854836  0.35695414  0.62542986
   0.61074755  0.44250284  0.52822553
   0.56499480  0.59176023  0.55760529
   0.58268589  0.49177810  0.65071893
   0.57500519  0.66054676  0.44252558
   0.59136568  0.39259547  0.39931220
   0.58630688  0.52642212  0.42451937
   0.47507695  0.45352914  0.39859829
   0.45920662  0.53512842  0.61057874
   0.47800078  0.59183394  0.37150294
   0.49971021  0.36220961  0.49916708
   0.47858679  0.72868653  0.38039844
   0.45241714  0.66678319  0.55752788
   0.44633710  0.40411168  0.61689352
   0.36761204  0.57133278  0.51589364
   0.36083997  0.52685670  0.39127544
   0.33531992  0.48836277  0.61628180
   0.36979283  0.66073723  0.41297900
   0.38680904  0.43769216  0.49592378
Direct configuration=    30
   0.68847355  0.38146477  0.67202604
   0.71557573  0.49363570  0.61198876
   0.66756492  0.61132438  0.64603417
   0.68215076  0.57216994  0.50501334
   0.56836910  0.35463175  0.62566881
   0.60994650  0.44257583  0.52901312
   0.56446386  0.58842026  0.55769060
   0.58243766  0.48973610  0.64995574
   0.57500631  0.66016494  0.44380446
   0.59208231  0.39233891  0.39937473
   0.58616033  0.52600568  0.42476988
   0.47550718  0.45434774  0.39905376
   0.45824573  0.53666868  0.61133686
   0.47845153  0.59175894  0.37233390
   0.49929382  0.36262194  0.49860695
   0.47898666  0.72879358  0.38146334
   0.45406276  0.66635402  0.55151199
   0.44757457  0.40495925  0.61669846
   0.36588652  0.57121323  0.51660268
   0.36104017  0.52742597  0.39152831
   0.33457372  0.48781973  0.61677642
   0.37011761  0.66076057  0.41397019
   0.38635925  0.43752235  0.49618752
Direct configuration=    31
   0.68572380  0.38644296  0.67298412
   0.71804791  0.49736878  0.61026734
   0.66706101  0.60977331  0.64814629
   0.68452850  0.57641842  0.50168370
   0.56801060  0.34998696  0.62614671
   0.60834440  0.44272181  0.53058829
   0.56340198  0.58174034  0.55786122
   0.58194121  0.48565212  0.64842937
   0.57500855  0.65940129  0.44636222
   0.59351557  0.39182578  0.39949978
   0.58586723  0.52517279  0.42527091
   0.47636763  0.45598495  0.39996472
   0.45632395  0.53974919  0.61285309
   0.47935305  0.59160893  0.37399582
   0.49846102  0.36344659  0.49748670
   0.47978640  0.72900768  0.38359314
   0.45735401  0.66549568  0.53948021
   0.45004952  0.40665438  0.61630834
   0.36243546  0.57097413  0.51802077
   0.36144057  0.52856451  0.39203406
   0.33308133  0.48673366  0.61776565
   0.37076717  0.66080726  0.41595257
   0.38545968  0.43718274  0.49671502
Direct configuration=    32
   0.68507371  0.38759339  0.67321901
   0.71843822  0.49802476  0.60970202
   0.66666837  0.60954804  0.64846736
   0.68492000  0.57741651  0.50112749
   0.56787721  0.34879719  0.62606107
   0.60833311  0.44256493  0.53043977
   0.56359749  0.58055756  0.55767463
   0.58177877  0.48479220  0.64877415
   0.57504399  0.65914630  0.44717710
   0.59383725  0.39173427  0.39969310
   0.58609242  0.52506256  0.42533341
   0.47631985  0.45623642  0.39999271
   0.45562250  0.54052470  0.61333016
   0.47957846  0.59170986  0.37430667
   0.49851424  0.36348618  0.49730726
   0.47990570  0.72903529  0.38414807
   0.45824960  0.66518765  0.53643083
   0.45043710  0.40722637  0.61623491
   0.36163089  0.57112314  0.51840822
   0.36150971  0.52862010  0.39201837
   0.33290616  0.48626520  0.61803982
   0.37089482  0.66088536  0.41653226
   0.38510101  0.43717627  0.49699164
Direct configuration=    33
   0.68312342  0.39104466  0.67392368
   0.71960916  0.49999270  0.60800607
   0.66549044  0.60887220  0.64943058
   0.68609449  0.58041078  0.49945884
   0.56747704  0.34522789  0.62580413
   0.60829923  0.44209430  0.52999422
   0.56418400  0.57700922  0.55711486
   0.58129144  0.48221245  0.64980847
   0.57515031  0.65838133  0.44962171
   0.59480229  0.39145976  0.40027305
   0.58676801  0.52473186  0.42552089
   0.47617649  0.45699083  0.40007670
   0.45351816  0.54285124  0.61476136
   0.48025472  0.59201264  0.37523923
   0.49867389  0.36360494  0.49676893
   0.48026358  0.72911812  0.38581285
   0.46093638  0.66426357  0.52728271
   0.45159985  0.40894236  0.61601464
   0.35921717  0.57157017  0.51957059
   0.36171711  0.52878685  0.39197130
   0.33238063  0.48485983  0.61886236
   0.37127777  0.66111966  0.41827135
   0.38402499  0.43715687  0.49782152
Direct configuration=    34