       N       E                     dE             d eps       ncg     rms          rms(c)
DAV:   1     0.317606228867E+04    0.31761E+04   -0.66711E+04   944   0.591E+02
DAV:   2     0.715467349456E+03   -0.24606E+04   -0.22002E+04  1632   0.144E+02
DAV:   3    -0.227436566231E+02   -0.73821E+03   -0.67269E+03  1240   0.878E+01
DAV:   4    -0.638368290396E+02   -0.41093E+02   -0.40571E+02  1040   0.226E+01
DAV:   5    -0.644245553610E+02   -0.58773E+00   -0.58684E+00  1072   0.323E+00    0.333E+01
DAV:   6    -0.209392869367E+02    0.43485E+02   -0.13439E+02   972   0.168E+01    0.179E+01
DAV:   7    -0.105279654874E+02    0.10411E+02   -0.83436E+00  1004   0.561E+00    0.107E+01
DAV:   8    -0.128053448139E+02   -0.22774E+01   -0.26347E+00  1004   0.321E+00    0.582E+00
DAV:   9    -0.186098055240E+02   -0.58045E+01   -0.15322E+00  1016   0.183E+00    0.416E+00
DAV:  10    -0.213583689133E+02   -0.27486E+01   -0.45728E-01  1032   0.165E+00    0.359E+00
DAV:  11    -0.335156617791E+02   -0.12157E+02   -0.45784E+00   992   0.305E+00    0.255E+00
DAV:  12    -0.459924795984E+02   -0.12477E+02   -0.59372E+00   992   0.294E+00    0.236E+00
DAV:  13    -0.477564952210E+02   -0.17640E+01   -0.35787E-01  1064   0.109E+00    0.199E+00
DAV:  14    -0.528079297914E+02   -0.50514E+01   -0.15894E+00   956   0.174E+00    0.144E+00
DAV:  15    -0.579945297367E+02   -0.51866E+01   -0.16914E+00   968   0.159E+00    0.165E+00
DAV:  16    -0.585426238532E+02   -0.54809E+00   -0.70280E-02  1072   0.536E-01    0.135E+00
DAV:  17    -0.596930500141E+02   -0.11504E+01   -0.14175E-01   976   0.609E-01    0.101E+00
DAV:  18    -0.614737857798E+02   -0.17807E+01   -0.30450E-01   976   0.108E+00    0.442E-01
DAV:  19    -0.624506486580E+02   -0.97686E+00   -0.78224E-02  1000   0.500E-01    0.373E-01
DAV:  20    -0.629051537889E+02   -0.45451E+00   -0.11192E-02  1008   0.212E-01    0.265E-01
DAV:  21    -0.635494714026E+02   -0.64432E+00   -0.28590E-02   976   0.240E-01    0.117E-01
DAV:  22    -0.636824134044E+02   -0.13294E+00   -0.32208E-03  1040   0.757E-02    0.826E-02
DAV:  23    -0.637399588597E+02   -0.57545E-01   -0.10092E-03   736   0.475E-02    0.508E-02
DAV:  24    -0.637930929653E+02   -0.53134E-01   -0.20504E-03   840   0.524E-02    0.298E-02
DAV:  25    -0.637977804204E+02   -0.46875E-02   -0.18355E-04   696   0.226E-02    0.187E-02
DAV:  26    -0.638023442805E+02   -0.45639E-02   -0.15185E-04   688   0.172E-02    0.114E-02
DAV:  27    -0.638064575624E+02   -0.41133E-02   -0.11452E-04   680   0.121E-02    0.894E-03
DAV:  28    -0.638096474820E+02   -0.31899E-02   -0.57380E-05   672   0.861E-03    0.646E-03
DAV:  29    -0.638116294923E+02   -0.19820E-02   -0.27626E-05   656   0.754E-03    0.328E-03
DAV:  30    -0.638126182407E+02   -0.98875E-03   -0.11425E-05   656   0.459E-03    0.209E-03
DAV:  31    -0.638128989496E+02   -0.28071E-03   -0.36362E-06   640   0.275E-03    0.123E-03
DAV:  32    -0.638129791908E+02   -0.80241E-04   -0.21352E-06   656   0.196E-03
   1 F= -.63812979E+02 E0= -.63812979E+02  d E =-.638130E+02  mag=     1.0009
       N       E                     dE             d eps       ncg     rms          rms(c)
DAV:   1    -0.638942937083E+02   -0.81395E-01   -0.58509E+00   992   0.425E+00    0.203E-01
DAV:   2    -0.638970246889E+02   -0.27310E-02   -0.28376E-02   992   0.423E-01    0.153E-01
DAV:   3    -0.638969729040E+02    0.51785E-04   -0.59048E-04  1016   0.680E-02
   2 F= -.63896973E+02 E0= -.63896973E+02  d E =-.839937E-01  mag=     1.0006
       N       E                     dE             d eps       ncg     rms          rms(c)
DAV:   1    -0.640894256999E+02   -0.19240E+00   -0.52781E+01   944   0.128E+01    0.575E-01
DAV:   2    -0.641136976122E+02   -0.24272E-01   -0.25432E-01   980   0.126E+00    0.456E-01
DAV:   3    -0.641132826520E+02    0.41496E-03   -0.50240E-03  1012   0.194E-01    0.282E-01
DAV:   4    -0.641129184824E+02    0.36417E-03   -0.21049E-03  1004   0.101E-01    0.548E-02
DAV:   5    -0.641129078483E+02    0.10634E-04   -0.79220E-05   632   0.279E-02
   3 F= -.64112908E+02 E0= -.64112908E+02  d E =-.299929E+00  mag=     1.0003
       N       E                     dE             d eps       ncg     rms          rms(c)
DAV:   1    -0.643033604164E+02   -0.19044E+00   -0.21181E+02   944   0.256E+01    0.981E-01
DAV:   2    -0.644004549802E+02   -0.97095E-01   -0.10092E+00   984   0.253E+00    0.865E-01
DAV:   3    -0.643995136931E+02    0.94129E-03   -0.18395E-02   988   0.358E-01    0.592E-01
DAV:   4    -0.643975114574E+02    0.20022E-02   -0.84061E-03   988   0.194E-01    0.187E-01
DAV:   5    -0.643975847177E+02   -0.73260E-04   -0.63296E-04  1016   0.680E-02
   4 F= -.64397585E+02 E0= -.64397585E+02  d E =-.584606E+00  mag=     1.0001
       N       E                     dE             d eps       ncg     rms          rms(c)
DAV:   1    -0.640835871182E+02    0.31392E+00   -0.86223E+02   944   0.523E+01    0.162E+00
DAV:   2    -0.644887999989E+02   -0.40521E+00   -0.41358E+00   960   0.519E+00    0.164E+00
DAV:   3    -0.644897765024E+02   -0.97650E-03   -0.72029E-02  1016   0.676E-01    0.120E+00
DAV:   4    -0.644810112537E+02    0.87652E-02   -0.20136E-02   984   0.319E-01    0.676E-01
DAV:   5    -0.644809607145E+02    0.50539E-04   -0.98496E-03  1016   0.198E-01    0.194E-01
DAV:   6    -0.644807951165E+02    0.16560E-03   -0.66577E-04  1008   0.499E-02    0.979E-02
DAV:   7    -0.644808802152E+02   -0.85099E-04   -0.26026E-04   688   0.357E-02
   5 F= -.64480880E+02 E0= -.64480880E+02  d E =-.667901E+00  mag=     1.0000
       N       E                     dE             d eps       ncg     rms          rms(c)
DAV:   1    -0.644714869445E+02    0.93082E-02   -0.91711E+01   948   0.168E+01    0.614E-01
DAV:   2    -0.645159300381E+02   -0.44443E-01   -0.45562E-01  1000   0.168E+00    0.402E-01
DAV:   3    -0.645156180565E+02    0.31198E-03   -0.84708E-03  1040   0.240E-01    0.257E-01
DAV:   4    -0.645153106966E+02    0.30736E-03   -0.26038E-03  1008   0.110E-01    0.752E-02
DAV:   5    -0.645154381042E+02   -0.12741E-03   -0.16381E-04   664   0.334E-02    0.253E-02
DAV:   6    -0.645154575545E+02   -0.19450E-04   -0.53441E-05   632   0.139E-02
   6 F= -.64515458E+02 E0= -.64515458E+02  d E =-.702478E+00  mag=     1.0000
       N       E                     dE             d eps       ncg     rms          rms(c)
DAV:   1    -0.646313159762E+02   -0.11588E+00   -0.79478E+01   944   0.157E+01    0.524E-01
DAV:   2    -0.646677143576E+02   -0.36398E-01   -0.36025E-01   992   0.149E+00    0.411E-01
DAV:   3    -0.646670927881E+02    0.62157E-03   -0.58951E-03  1032   0.197E-01    0.284E-01
DAV:   4    -0.646663885393E+02    0.70425E-03   -0.35815E-03  1016   0.116E-01    0.618E-02
DAV:   5    -0.646664008891E+02   -0.12350E-04   -0.95938E-05   632   0.306E-02
   7 F= -.64666401E+02 E0= -.64666401E+02  d E =-.150943E+00  mag=     1.0000
       N       E                     dE             d eps       ncg     rms          rms(c)
DAV:   1    -0.644918869293E+02    0.17450E+00   -0.72632E+02   944   0.481E+01    0.139E+00
DAV:   2    -0.648282252356E+02   -0.33634E+00   -0.33299E+00   984   0.461E+00    0.122E+00
DAV:   3    -0.648259085714E+02    0.23167E-02   -0.52107E-02  1024   0.584E-01    0.897E-01
DAV:   4    -0.648180971979E+02    0.78114E-02   -0.19918E-02   996   0.274E-01    0.398E-01
DAV:   5    -0.648181864480E+02   -0.89250E-04   -0.50765E-03  1040   0.147E-01    0.119E-01
DAV:   6    -0.648180877762E+02    0.98672E-04   -0.39023E-04   840   0.378E-02
   8 F= -.64818088E+02 E0= -.64818088E+02  d E =-.302630E+00  mag=     1.0000
       N       E                     dE             d eps       ncg     rms          rms(c)
DAV:   1    -0.648779768887E+02   -0.59790E-01   -0.14405E+02   944   0.212E+01    0.481E-01
DAV:   2    -0.649453089213E+02   -0.67332E-01   -0.66744E-01   996   0.204E+00    0.439E-01
DAV:   3    -0.649447525920E+02    0.55633E-03   -0.10640E-02  1064   0.259E-01    0.321E-01
DAV:   4    -0.649431163716E+02    0.16362E-02   -0.29687E-03   984   0.107E-01    0.171E-01
DAV:   5    -0.649430757356E+02    0.40636E-04   -0.22423E-03  1024   0.890E-02    0.555E-02
DAV:   6    -0.649431056342E+02   -0.29899E-04   -0.65634E-05   616   0.157E-02
   9 F= -.64943106E+02 E0= -.64943106E+02  d E =-.125018E+00  mag=     1.0000
       N       E                     dE             d eps       ncg     rms          rms(c)
DAV:   1    -0.647224651034E+02    0.22061E+00   -0.70719E+02   944   0.474E+01    0.114E+00
DAV:   2    -0.650614239796E+02   -0.33896E+00   -0.33558E+00   988   0.463E+00    0.100E+00
DAV:   3    -0.650596286642E+02    0.17953E-02   -0.54484E-02  1040   0.596E-01    0.707E-01
DAV:   4    -0.650523917392E+02    0.72369E-02   -0.10351E-02  1000   0.203E-01    0.438E-01
DAV:   5    -0.650509870515E+02    0.14047E-02   -0.11307E-02   992   0.197E-01    0.128E-01
DAV:   6    -0.650510932283E+02   -0.10618E-03   -0.18761E-04   688   0.293E-02    0.681E-02
DAV:   7    -0.650511583347E+02   -0.65106E-04   -0.15050E-04   648   0.236E-02
  10 F= -.65051158E+02 E0= -.65051158E+02  d E =-.233071E+00  mag=     1.0000
       N       E                     dE             d eps       ncg     rms          rms(c)
DAV:   1    -0.650937433105E+02   -0.42650E-01   -0.17352E+02   944   0.232E+01    0.570E-01
DAV:   2    -0.651786955504E+02   -0.84952E-01   -0.83834E-01   996   0.227E+00    0.463E-01
DAV:   3    -0.651778949431E+02    0.80061E-03   -0.13510E-02  1048   0.285E-01    0.320E-01
DAV:   4    -0.651759463343E+02    0.19486E-02   -0.40852E-03  1012   0.125E-01    0.157E-01
DAV:   5    -0.651759521542E+02   -0.58199E-05   -0.19470E-03  1024   0.845E-02    0.521E-02
DAV:   6    -0.651759596164E+02   -0.74622E-05   -0.11692E-04   632   0.199E-02
  11 F= -.65175960E+02 E0= -.65175960E+02  d E =-.124801E+00  mag=     1.0000
       N       E                     dE             d eps       ncg     rms          rms(c)
DAV:   1    -0.649947312404E+02    0.18122E+00   -0.50715E+02   944   0.400E+01    0.119E+00
DAV:   2    -0.652497361651E+02   -0.25500E+00   -0.25113E+00   984   0.395E+00    0.843E-01
DAV:   3    -0.652466654616E+02    0.30707E-02   -0.41634E-02  1032   0.510E-01    0.544E-01
DAV:   4    -0.652414086718E+02    0.52568E-02   -0.12729E-02  1012   0.223E-01    0.245E-01
DAV:   5    -0.652414473887E+02   -0.38717E-04   -0.34138E-03  1024   0.118E-01    0.745E-02
DAV:   6    -0.652414374274E+02    0.99613E-05   -0.33893E-04   760   0.335E-02
  12 F= -.65241437E+02 E0= -.65241437E+02  d E =-.190279E+00  mag=     1.0000
       N       E                     dE             d eps       ncg     rms          rms(c)
DAV:   1    -0.651891651980E+02    0.52282E-01   -0.30456E+02   944   0.309E+01    0.857E-01
DAV:   2    -0.653400725568E+02   -0.15091E+00   -0.14784E+00   996   0.301E+00    0.580E-01
DAV:   3    -0.653378562507E+02    0.22163E-02   -0.23659E-02  1048   0.369E-01    0.401E-01
DAV:   4    -0.653347318321E+02    0.31244E-02   -0.92991E-03  1008   0.187E-01    0.136E-01
DAV:   5    -0.653349265666E+02   -0.19473E-03   -0.13192E-03  1040   0.751E-02    0.511E-02
DAV:   6    -0.653349443960E+02   -0.17829E-04   -0.16873E-04   680   0.247E-02
  13 F= -.65334944E+02 E0= -.65334944E+02  d E =-.935070E-01  mag=     1.0000
       N       E                     dE             d eps       ncg     rms          rms(c)
DAV:   1    -0.653146050518E+02    0.20322E-01   -0.66845E+01   944   0.144E+01    0.377E-01
DAV:   2    -0.653475172687E+02   -0.32912E-01   -0.31998E-01   988   0.140E+00    0.287E-01
DAV:   3    -0.653470926779E+02    0.42459E-03   -0.50628E-03  1064   0.170E-01    0.203E-01
DAV:   4    -0.653463927311E+02    0.69995E-03   -0.23288E-03  1008   0.932E-02    0.682E-02
DAV:   5    -0.653464874279E+02   -0.94697E-04   -0.29746E-04   712   0.378E-02
  14 F= -.65346487E+02 E0= -.65346487E+02  d E =-.105050E+00  mag=     1.0000
       N       E                     dE             d eps       ncg     rms          rms(c)
DAV:   1    -0.653582069435E+02   -0.11814E-01   -0.15333E+02   944   0.218E+01    0.534E-01
DAV:   2    -0.654339429936E+02   -0.75736E-01   -0.74176E-01   988   0.213E+00    0.476E-01
DAV:   3    -0.654335877344E+02    0.35526E-03   -0.11669E-02  1040   0.258E-01    0.340E-01
DAV:   4    -0.654318031585E+02    0.17846E-02   -0.40802E-03   996   0.127E-01    0.165E-01
DAV:   5    -0.654318473731E+02   -0.44215E-04   -0.16694E-03  1032   0.794E-02    0.583E-02
DAV:   6    -0.654318365993E+02    0.10774E-04   -0.11364E-04   656   0.197E-02
  15 F= -.65431837E+02 E0= -.65431837E+02  d E =-.853492E-01  mag=     1.0000
       N       E                     dE             d eps       ncg     rms          rms(c)
DAV:   1    -0.653501173592E+02    0.81730E-01   -0.21538E+02   944   0.258E+01    0.645E-01
DAV:   2    -0.654570570352E+02   -0.10694E+00   -0.10445E+00  1000   0.253E+00    0.558E-01
DAV:   3    -0.654562785489E+02    0.77849E-03   -0.16439E-02  1040   0.307E-01    0.395E-01
DAV:   4    -0.654537057657E+02    0.25728E-02   -0.57557E-03  1008   0.150E-01    0.189E-01
DAV:   5    -0.654537148575E+02   -0.90917E-05   -0.21654E-03  1024   0.909E-02    0.657E-02
DAV:   6    -0.654536965072E+02    0.18350E-04   -0.15712E-04   664   0.231E-02
  16 F= -.65453697E+02 E0= -.65453697E+02  d E =-.107209E+00  mag=     1.0000
       N       E                     dE             d eps       ncg     rms          rms(c)
DAV:   1    -0.654419803064E+02    0.11735E-01   -0.11355E+02   944   0.186E+01    0.449E-01
DAV:   2    -0.654984300866E+02   -0.56450E-01   -0.55423E-01  1000   0.183E+00    0.393E-01
DAV:   3    -0.654979717577E+02    0.45833E-03   -0.85648E-03  1040   0.219E-01    0.282E-01
DAV:   4    -0.654965396185E+02    0.14321E-02   -0.31215E-03  1008   0.110E-01    0.133E-01
DAV:   5    -0.654965580669E+02   -0.18448E-04   -0.12492E-03  1016   0.678E-02    0.480E-02
DAV:   6    -0.654965721352E+02   -0.14068E-04   -0.76693E-05   648   0.162E-02
  17 F= -.65496572E+02 E0= -.65496572E+02  d E =-.428756E-01  mag=     1.0000
       N       E                     dE             d eps       ncg     rms          rms(c)
DAV:   1    -0.654818912944E+02    0.14667E-01   -0.45362E+01   944   0.118E+01    0.283E-01
DAV:   2    -0.655042492326E+02   -0.22358E-01   -0.22029E-01  1000   0.115E+00    0.249E-01
DAV:   3    -0.655040413126E+02    0.20792E-03   -0.33859E-03  1032   0.137E-01    0.179E-01
DAV:   4    -0.655034675936E+02    0.57372E-03   -0.12999E-03  1000   0.711E-02    0.831E-02
DAV:   5    -0.655034996039E+02   -0.32010E-04   -0.48224E-04   960   0.428E-02
  18 F= -.65503500E+02 E0= -.65503500E+02  d E =-.498031E-01  mag=     1.0000
       N       E                     dE             d eps       ncg     rms          rms(c)
DAV:   1    -0.655214994370E+02   -0.18032E-01   -0.35431E+01   944   0.105E+01    0.309E-01
DAV:   2    -0.655384915075E+02   -0.16992E-01   -0.17075E-01   988   0.102E+00    0.244E-01
DAV:   3    -0.655382966740E+02    0.19483E-03   -0.28539E-03  1024   0.130E-01    0.161E-01
DAV:   4    -0.655379587652E+02    0.33791E-03   -0.10466E-03   992   0.676E-02    0.619E-02
DAV:   5    -0.655379998540E+02   -0.41089E-04   -0.14264E-04   656   0.290E-02
  19 F= -.65538000E+02 E0= -.65538000E+02  d E =-.345003E-01  mag=     1.0000
       N       E                     dE             d eps       ncg     rms          rms(c)
DAV:   1    -0.654707434629E+02    0.67215E-01   -0.15048E+02   944   0.216E+01    0.689E-01
DAV:   2    -0.655428426084E+02   -0.72099E-01   -0.72906E-01   988   0.211E+00    0.511E-01
DAV:   3    -0.655418531135E+02    0.98949E-03   -0.12383E-02  1024   0.271E-01    0.328E-01
DAV:   4    -0.655404256375E+02    0.14275E-02   -0.44770E-03  1004   0.140E-01    0.117E-01
DAV:   5    -0.655405018330E+02   -0.76195E-04   -0.50525E-04  1032   0.544E-02
  20 F= -.65540502E+02 E0= -.65540502E+02  d E =-.370022E-01  mag=     1.0000
       N       E                     dE             d eps       ncg     rms          rms(c)
DAV:   1    -0.655363277370E+02    0.40979E-02   -0.32094E+01   944   0.997E+00    0.289E-01
DAV:   2    -0.655515627609E+02   -0.15235E-01   -0.15165E-01  1004   0.966E-01    0.246E-01
DAV:   3    -0.655514695195E+02    0.93241E-04   -0.25114E-03  1056   0.121E-01    0.169E-01
DAV:   4    -0.655513127764E+02    0.15674E-03   -0.11413E-03  1004   0.685E-02    0.656E-02
DAV:   5    -0.655514426605E+02   -0.12988E-03   -0.14842E-04   664   0.291E-02    0.208E-02
DAV:   6    -0.655514824875E+02   -0.39827E-04   -0.23225E-05   632   0.100E-02
  21 F= -.65551482E+02 E0= -.65551482E+02  d E =-.479829E-01  mag=     1.0000
       N       E                     dE             d eps       ncg     rms          rms(c)
DAV:   1    -0.655552025331E+02   -0.37599E-02   -0.38859E+01   944   0.109E+01    0.258E-01
DAV:   2    -0.655738774893E+02   -0.18675E-01   -0.18370E-01   996   0.106E+00    0.220E-01
DAV:   3    -0.655736870269E+02    0.19046E-03   -0.29165E-03  1056   0.133E-01    0.158E-01
DAV:   4    -0.655732245094E+02    0.46252E-03   -0.99571E-04  1004   0.627E-02    0.742E-02
DAV:   5    -0.655732303682E+02   -0.58589E-05   -0.45405E-04  1024   0.414E-02
  22 F= -.65573230E+02 E0= -.65573230E+02  d E =-.217479E-01  mag=     1.0000
       N       E                     dE             d eps       ncg     rms          rms(c)
DAV:   1    -0.655607272324E+02    0.12497E-01   -0.40214E+01   944   0.111E+01    0.268E-01
DAV:   2    -0.655800365029E+02   -0.19309E-01   -0.19114E-01  1000   0.108E+00    0.222E-01
DAV:   3    -0.655798643960E+02    0.17211E-03   -0.30436E-03  1016   0.136E-01    0.157E-01
DAV:   4    -0.655794186778E+02    0.44572E-03   -0.97927E-04  1012   0.628E-02    0.731E-02
DAV:   5    -0.655794232459E+02   -0.45681E-05   -0.42079E-04   984   0.403E-02
  23 F= -.65579423E+02 E0= -.65579423E+02  d E =-.279408E-01  mag=     1.0000
       N       E                     dE             d eps       ncg     rms          rms(c)
DAV:   1    -0.655737910527E+02    0.56276E-02   -0.50624E+01   944   0.125E+01    0.251E-01
DAV:   2    -0.655984540828E+02   -0.24663E-01   -0.24075E-01   992   0.120E+00    0.231E-01
DAV:   3    -0.655982746428E+02    0.17944E-03   -0.35509E-03  1032   0.140E-01    0.177E-01
DAV:   4    -0.655976437646E+02    0.63088E-03   -0.10714E-03  1012   0.631E-02    0.911E-02
DAV:   5    -0.655976126234E+02    0.31141E-04   -0.79977E-04  1016   0.535E-02
  24 F= -.65597613E+02 E0= -.65597613E+02  d E =-.181894E-01  mag=     1.0000
       N       E                     dE             d eps       ncg     rms          rms(c)
DAV:   1    -0.655663261288E+02    0.31318E-01   -0.80177E+01   944   0.157E+01    0.321E-01
DAV:   2    -0.656054364385E+02   -0.39110E-01   -0.38249E-01   996   0.151E+00    0.290E-01
DAV:   3    -0.656051609856E+02    0.27545E-03   -0.56539E-03  1024   0.176E-01    0.219E-01
DAV:   4    -0.656041928980E+02    0.96809E-03   -0.16366E-03  1004   0.781E-02    0.113E-01
DAV:   5    -0.656041280931E+02    0.64805E-04   -0.11842E-03  1016   0.651E-02    0.398E-02
DAV:   6    -0.656041414703E+02   -0.13377E-04   -0.30887E-05   624   0.112E-02
  25 F= -.65604141E+02 E0= -.65604141E+02  d E =-.247182E-01  mag=     1.0000
       N       E                     dE             d eps       ncg     rms          rms(c)
DAV:   1    -0.656023607991E+02    0.17673E-02   -0.34583E+01   944   0.103E+01    0.199E-01
DAV:   2    -0.656191945479E+02   -0.16834E-01   -0.16428E-01   984   0.990E-01    0.190E-01
DAV:   3    -0.656190647990E+02    0.12975E-03   -0.23739E-03  1032   0.114E-01    0.149E-01
DAV:   4    -0.656185953160E+02    0.46948E-03   -0.72986E-04   996   0.518E-02    0.780E-02
DAV:   5    -0.656185502222E+02    0.45094E-04   -0.63573E-04  1024   0.470E-02
  26 F= -.65618550E+02 E0= -.65618550E+02  d E =-.144088E-01  mag=     1.0000
       N       E                     dE             d eps       ncg     rms          rms(c)
DAV:   1    -0.655469181319E+02    0.71677E-01   -0.17438E+02   944   0.231E+01    0.453E-01
DAV:   2    -0.656326533386E+02   -0.85735E-01   -0.83422E-01   984   0.224E+00    0.437E-01
DAV:   3    -0.656321513928E+02    0.50195E-03   -0.12164E-02  1024   0.259E-01    0.338E-01
DAV:   4    -0.656299339148E+02    0.22175E-02   -0.30383E-03  1016   0.107E-01    0.194E-01
DAV:   5    -0.656295365809E+02    0.39733E-03   -0.33060E-03  1016   0.106E-01    0.658E-02
DAV:   6    -0.656295610440E+02   -0.24463E-04   -0.55121E-05   656   0.162E-02
  27 F= -.65629561E+02 E0= -.65629561E+02  d E =-.254196E-01  mag=     1.0000
       N       E                     dE             d eps       ncg     rms          rms(c)
DAV:   1    -0.656280207493E+02    0.15158E-02   -0.35654E+01   944   0.105E+01    0.196E-01
DAV:   2    -0.656457281784E+02   -0.17707E-01   -0.17040E-01  1008   0.102E+00    0.185E-01
DAV:   3    -0.656456231979E+02    0.10498E-03   -0.25007E-03  1056   0.118E-01    0.144E-01
DAV:   4    -0.656451820901E+02    0.44111E-03   -0.64445E-04   988   0.498E-02    0.796E-02
DAV:   5    -0.656451548200E+02    0.27270E-04   -0.77116E-04  1024   0.513E-02
  28 F= -.65645155E+02 E0= -.65645155E+02  d E =-.155938E-01  mag=     1.0000
       N       E                     dE             d eps       ncg     rms          rms(c)
DAV:   1    -0.655127606750E+02    0.13242E+00   -0.32365E+02   944   0.317E+01    0.686E-01
DAV:   2    -0.656760554997E+02   -0.16329E+00   -0.15688E+00  1008   0.310E+00    0.571E-01
DAV:   3    -0.656746689767E+02    0.13865E-02   -0.23601E-02  1052   0.367E-01    0.423E-01
DAV:   4    -0.656707741367E+02    0.38948E-02   -0.56689E-03  1004   0.146E-01    0.229E-01
DAV:   5    -0.656701559973E+02    0.61814E-03   -0.51016E-03  1020   0.133E-01    0.675E-02
DAV:   6    -0.656702052879E+02   -0.49291E-04   -0.10985E-04   680   0.220E-02
  29 F= -.65670205E+02 E0= -.65670205E+02  d E =-.406442E-01  mag=     1.0000
       N       E                     dE             d eps       ncg     rms          rms(c)
DAV:   1    -0.656741695426E+02   -0.40135E-02   -0.22153E+01   944   0.822E+00    0.142E-01
DAV:   2    -0.656852910729E+02   -0.11122E-01   -0.10619E-01  1016   0.797E-01    0.140E-01
DAV:   3    -0.656852410737E+02    0.49999E-04   -0.15161E-03  1064   0.909E-02    0.113E-01
DAV:   4    -0.656849785350E+02    0.26254E-03   -0.35252E-04   864   0.363E-02    0.659E-02
DAV:   5    -0.656849731873E+02    0.53478E-05   -0.61077E-04  1000   0.460E-02
  30 F= -.65684973E+02 E0= -.65684973E+02  d E =-.147679E-01  mag=     1.0000
       N       E                     dE             d eps       ncg     rms          rms(c)
DAV:   1    -0.656234497688E+02    0.61529E-01   -0.20076E+02   944   0.248E+01    0.494E-01
DAV:   2    -0.657239293022E+02   -0.10048E+00   -0.97200E-01   996   0.242E+00    0.425E-01
DAV:   3    -0.657229333646E+02    0.99594E-03   -0.14160E-02  1048   0.281E-01    0.325E-01
DAV:   4    -0.657204212846E+02    0.25121E-02   -0.33314E-03  1016   0.109E-01    0.179E-01
DAV:   5    -0.657199148841E+02    0.50640E-03   -0.36578E-03  1016   0.111E-01    0.525E-02
DAV:   6    -0.657199655052E+02   -0.50621E-04   -0.60144E-05   624   0.170E-02
  31 F= -.65719966E+02 E0= -.65719966E+02  d E =-.497602E-01  mag=     1.0000
       N       E                     dE             d eps       ncg     rms          rms(c)
DAV:   1    -0.653412638912E+02    0.37865E+00   -0.81932E+02   944   0.507E+01    0.133E+00
DAV:   2    -0.657626588622E+02   -0.42139E+00   -0.41029E+00  1000   0.503E+00    0.922E-01
DAV:   3    -0.657577953545E+02    0.48635E-02   -0.62510E-02  1040   0.603E-01    0.640E-01
DAV:   4    -0.657491340830E+02    0.86613E-02   -0.11760E-02  1008   0.208E-01    0.373E-01
DAV:   5    -0.657470905088E+02    0.20436E-02   -0.10727E-02  1016   0.191E-01    0.946E-02
DAV:   6    -0.657472891019E+02   -0.19859E-03   -0.16662E-04   672   0.315E-02    0.555E-02
DAV:   7    -0.657475066222E+02   -0.21752E-03   -0.53834E-05   656   0.151E-02    0.227E-02
DAV:   8    -0.657476632916E+02   -0.15667E-03   -0.15383E-05   672   0.762E-03    0.877E-03
DAV:   9    -0.657478539896E+02   -0.19070E-03   -0.92795E-06   648   0.484E-03    0.320E-03
DAV:  10    -0.657479943618E+02   -0.14037E-03   -0.42259E-06   672   0.247E-03    0.201E-03
DAV:  11    -0.657480847746E+02   -0.90413E-04   -0.20663E-06   632   0.149E-03
  32 F= -.65748085E+02 E0= -.65748085E+02  d E =-.778795E-01  mag=     1.0000
       N       E                     dE             d eps       ncg     rms          rms(c)
DAV:   1    -0.657492993932E+02   -0.13050E-02   -0.38174E+01   944   0.108E+01    0.176E-01
DAV:   2    -0.657687765123E+02   -0.19477E-01   -0.18331E-01  1008   0.105E+00    0.181E-01
DAV:   3    -0.657687020637E+02    0.74449E-04   -0.26240E-03  1048   0.119E-01    0.149E-01
DAV:   4    -0.657682202036E+02    0.48186E-03   -0.49640E-04   988   0.429E-02    0.921E-02
DAV:   5    -0.657680675086E+02    0.15269E-03   -0.11687E-03  1028   0.618E-02    0.292E-02
DAV:   6    -0.657680893740E+02   -0.21865E-04   -0.11917E-05   600   0.790E-03
  33 F= -.65768089E+02 E0= -.65768089E+02  d E =-.200046E-01  mag=     1.0000
       N       E                     dE             d eps       ncg     rms          rms(c)
DAV:   1    -0.656554633263E+02    0.11260E+00   -0.34720E+02   944   0.327E+01    0.660E-01
DAV:   2    -0.658322469056E+02   -0.17678E+00   -0.16935E+00  1004   0.320E+00    0.568E-01
DAV:   3    -0.658307380520E+02    0.15089E-02   -0.24881E-02  1040   0.374E-01    0.429E-01
DAV:   4    -0.658266421056E+02    0.40959E-02   -0.47087E-03  1008   0.130E-01    0.258E-01
DAV:   5    -0.658253541221E+02    0.12880E-02   -0.66473E-03  1016   0.148E-01    0.695E-02
DAV:   6    -0.658254446111E+02   -0.90489E-04   -0.79031E-05   656   0.216E-02
  34 F= -.65825445E+02 E0= -.65825445E+02  d E =-.773598E-01  mag=     1.0000
       N       E                     dE             d eps       ncg     rms          rms(c)
DAV:   1    -0.651615245347E+02    0.66383E+00   -0.14385E+03   944   0.678E+01    0.202E+00
DAV:   2    -0.659217316196E+02   -0.76021E+00   -0.74061E+00  1016   0.682E+00    0.135E+00
DAV:   3    -0.659147951671E+02    0.69365E-02   -0.11648E-01  1024   0.835E-01    0.884E-01
DAV:   4    -0.659015835573E+02    0.13212E-01   -0.15332E-02  1032   0.242E-01    0.589E-01
DAV:   5    -0.658965731675E+02    0.50104E-02   -0.19318E-02  1000   0.256E-01    0.161E-01
DAV:   6    -0.658969095108E+02   -0.33634E-03   -0.39459E-04   848   0.471E-02    0.874E-02
DAV:   7    -0.658972560254E+02   -0.34651E-03   -0.79369E-05   648   0.215E-02    0.368E-02
DAV:   8    -0.658975118129E+02   -0.25579E-03   -0.27068E-05   680   0.972E-03    0.133E-02
DAV:   9    -0.658977577450E+02   -0.24593E-03   -0.12696E-05   656   0.584E-03    0.516E-03
DAV:  10    -0.658980077714E+02   -0.25003E-03   -0.82906E-06   648   0.323E-03    0.272E-03
DAV:  11    -0.658981302222E+02   -0.12245E-03   -0.28049E-06   648   0.192E-03    0.186E-03
DAV:  12    -0.658983387430E+02   -0.20852E-03   -0.58794E-06   644   0.198E-03    0.126E-03
DAV:  13    -0.658984769067E+02   -0.13816E-03   -0.46729E-06   672   0.161E-03    0.883E-04
DAV:  14    -0.658985349421E+02   -0.58035E-04   -0.11091E-06   632   0.899E-04
  35 F= -.65898535E+02 E0= -.65898535E+02  d E =-.150450E+00  mag=     1.0000
       N       E                     dE             d eps       ncg     rms          rms(c)
DAV:   1    -0.658565803284E+02    0.41897E-01   -0.25468E+02   944   0.280E+01    0.532E-01
DAV:   2    -0.659844902305E+02   -0.12791E+00   -0.12289E+00  1000   0.273E+00    0.510E-01
DAV:   3    -0.659836568026E+02    0.83343E-03   -0.18155E-02  1040   0.318E-01    0.393E-01
DAV:   4    -0.659804029334E+02    0.32539E-02   -0.37283E-03  1008   0.117E-01    0.240E-01
DAV:   5    -0.659794415273E+02    0.96141E-03   -0.56824E-03  1008   0.137E-01    0.740E-02
DAV:   6    -0.659794892983E+02   -0.47771E-04   -0.68759E-05   656   0.192E-02
  36 F= -.65979489E+02 E0= -.65979489E+02  d E =-.809544E-01  mag=     1.0000
       N       E                     dE             d eps       ncg     rms          rms(c)
DAV:   1    -0.647678537708E+02    0.12116E+01   -0.24414E+03   944   0.899E+01    0.315E+00
DAV:   2    -0.660999432850E+02   -0.13321E+01   -0.13043E+01  1016   0.922E+00    0.207E+00
DAV:   3    -0.660923869533E+02    0.75563E-02   -0.21439E-01  1024   0.116E+00    0.130E+00
DAV:   4    -0.660723993210E+02    0.19988E-01   -0.25517E-02  1016   0.318E-01    0.896E-01
DAV:   5    -0.660648756292E+02    0.75237E-02   -0.30919E-02  1008   0.328E-01    0.247E-01
DAV:   6    -0.660653679575E+02   -0.49233E-03   -0.66465E-04  1048   0.610E-02    0.130E-01
DAV:   7    -0.660657903487E+02   -0.42239E-03   -0.92954E-05   680   0.256E-02    0.528E-02
DAV:   8    -0.660660783839E+02   -0.28804E-03   -0.44604E-05   672   0.124E-02    0.192E-02
DAV:   9    -0.660663397026E+02   -0.26132E-03   -0.11639E-05   672   0.645E-03    0.825E-03
DAV:  10    -0.660665917801E+02   -0.25208E-03   -0.88165E-06   664   0.382E-03    0.284E-03
DAV:  11    -0.660667732031E+02   -0.18142E-03   -0.46730E-06   664   0.227E-03    0.229E-03
DAV:  12    -0.660670106552E+02   -0.23745E-03   -0.85317E-06   668   0.228E-03    0.159E-03
DAV:  13    -0.660671418648E+02   -0.13121E-03   -0.37051E-06   664   0.159E-03    0.115E-03
DAV:  14    -0.660672207861E+02   -0.78921E-04   -0.18179E-06   656   0.107E-03
  37 F= -.66067221E+02 E0= -.66067221E+02  d E =-.168686E+00  mag=     1.0000
       N       E                     dE             d eps       ncg     rms          rms(c)
DAV:   1    -0.660067918083E+02    0.60350E-01   -0.13780E+02   944   0.206E+01    0.405E-01
DAV:   2    -0.660754947067E+02   -0.68703E-01   -0.66171E-01  1024   0.199E+00    0.374E-01
DAV:   3    -0.660749962843E+02    0.49842E-03   -0.96308E-03  1040   0.228E-01    0.291E-01
DAV:   4    -0.660731687664E+02    0.18275E-02   -0.28025E-03  1016   0.101E-01    0.152E-01
DAV:   5    -0.660729536570E+02    0.21511E-03   -0.24765E-03  1032   0.922E-02    0.530E-02
DAV:   6    -0.660729518239E+02    0.18331E-05   -0.60791E-05   640   0.160E-02
  38 F= -.66072952E+02 E0= -.66072952E+02  d E =-.174417E+00  mag=     1.0000
       N       E                     dE             d eps       ncg     rms          rms(c)
DAV:   1    -0.660451615324E+02    0.27792E-01   -0.28182E+02   944   0.295E+01    0.568E-01
DAV:   2    -0.661853204901E+02   -0.14016E+00   -0.13557E+00   996   0.286E+00    0.523E-01
DAV:   3    -0.661843350384E+02    0.98545E-03   -0.19925E-02  1048   0.329E-01    0.402E-01
DAV:   4    -0.661809182054E+02    0.34168E-02   -0.42427E-03  1008   0.125E-01    0.236E-01
DAV:   5    -0.661800941683E+02    0.82404E-03   -0.55456E-03  1004   0.135E-01    0.715E-02
DAV:   6    -0.661801346189E+02   -0.40451E-04   -0.70724E-05   672   0.192E-02
  39 F= -.66180135E+02 E0= -.66180135E+02  d E =-.107183E+00  mag=     1.0000
       N       E                     dE             d eps       ncg     rms          rms(c)
DAV:   1    -0.648521313268E+02    0.13280E+01   -0.27136E+03   944   0.952E+01    0.347E+00
DAV:   2    -0.663366666114E+02   -0.14845E+01   -0.14607E+01  1016   0.972E+00    0.210E+00
DAV:   3    -0.663283325693E+02    0.83340E-02   -0.23782E-01  1040   0.120E+00    0.131E+00
DAV:   4    -0.663087980119E+02    0.19535E-01   -0.24387E-02  1024   0.315E-01    0.923E-01
DAV:   5    -0.663008987330E+02    0.78993E-02   -0.33139E-02  1016   0.337E-01    0.240E-01
DAV:   6    -0.663014194204E+02   -0.52069E-03   -0.72935E-04  1040   0.635E-02    0.124E-01
DAV:   7    -0.663017785389E+02   -0.35912E-03   -0.86193E-05   664   0.250E-02    0.510E-02
DAV:   8    -0.663019846234E+02   -0.20608E-03   -0.43028E-05   680   0.121E-02    0.178E-02
DAV:   9    -0.663021578112E+02   -0.17319E-03   -0.11478E-05   664   0.649E-03    0.761E-03
DAV:  10    -0.663023076675E+02   -0.14986E-03   -0.69838E-06   664   0.347E-03    0.266E-03
DAV:  11    -0.663024205376E+02   -0.11287E-03   -0.43818E-06   656   0.222E-03    0.204E-03
DAV:  12    -0.663025576554E+02   -0.13712E-03   -0.59493E-06   664   0.199E-03    0.151E-03
DAV:  13    -0.663026472617E+02   -0.89606E-04   -0.37229E-06   656   0.158E-03
  40 F= -.66302647E+02 E0= -.66302647E+02  d E =-.229695E+00  mag=     1.0000
       N       E                     dE             d eps       ncg     rms          rms(c)
DAV:   1    -0.661749371644E+02    0.12762E+00   -0.48580E+02   944   0.389E+01    0.899E-01
DAV:   2    -0.664174583438E+02   -0.24252E+00   -0.23531E+00  1008   0.378E+00    0.697E-01
DAV:   3    -0.664153643472E+02    0.20940E-02   -0.35464E-02  1048   0.444E-01    0.501E-01
DAV:   4    -0.664100438489E+02    0.53205E-02   -0.82720E-03  1016   0.174E-01    0.268E-01
DAV:   5    -0.664092581048E+02    0.78574E-03   -0.60369E-03  1032   0.144E-01    0.778E-02
DAV:   6    -0.664093035130E+02   -0.45408E-04   -0.13063E-04   688   0.247E-02
  41 F= -.66409304E+02 E0= -.66409304E+02  d E =-.106656E+00  mag=     1.0000
       N       E                     dE             d eps       ncg     rms          rms(c)
DAV:   1    -0.662437309062E+02    0.16553E+00   -0.39109E+02   944   0.349E+01    0.802E-01
DAV:   2    -0.664393121147E+02   -0.19558E+00   -0.18880E+00  1008   0.338E+00    0.620E-01
DAV:   3    -0.664378059005E+02    0.15062E-02   -0.28412E-02  1040   0.397E-01    0.446E-01
DAV:   4    -0.664334906166E+02    0.43153E-02   -0.71346E-03  1016   0.162E-01    0.230E-01
DAV:   5    -0.664330246073E+02    0.46601E-03   -0.45736E-03  1032   0.126E-01    0.693E-02
DAV:   6    -0.664331045820E+02   -0.79975E-04   -0.11679E-04   664   0.225E-02
  42 F= -.66433105E+02 E0= -.66433105E+02  d E =-.130457E+00  mag=     1.0000
       N       E                     dE             d eps       ncg     rms          rms(c)
DAV:   1    -0.664535002045E+02   -0.20476E-01   -0.25586E+02   944   0.282E+01    0.686E-01
DAV:   2    -0.665775667528E+02   -0.12407E+00   -0.12296E+00   992   0.273E+00    0.518E-01
DAV:   3    -0.665765586457E+02    0.10081E-02   -0.19035E-02  1048   0.326E-01    0.367E-01
DAV:   4    -0.665739815067E+02    0.25771E-02   -0.52331E-03   996   0.145E-01    0.167E-01
DAV:   5    -0.665739251726E+02    0.56334E-04   -0.21912E-03  1012   0.892E-02    0.540E-02
DAV:   6    -0.665739811367E+02   -0.55964E-04   -0.10615E-04   664   0.195E-02
  43 F= -.66573981E+02 E0= -.66573981E+02  d E =-.140877E+00  mag=     1.0000
       N       E                     dE             d eps       ncg     rms          rms(c)
DAV:   1    -0.662451219851E+02    0.32880E+00   -0.76478E+02   944   0.492E+01    0.147E+00
DAV:   2    -0.666264308605E+02   -0.38131E+00   -0.38057E+00  1000   0.484E+00    0.919E-01
DAV:   3    -0.666229077186E+02    0.35231E-02   -0.60401E-02  1024   0.588E-01    0.616E-01
DAV:   4    -0.666163753329E+02    0.65324E-02   -0.14122E-02   988   0.238E-01    0.279E-01
DAV:   5    -0.666162084190E+02    0.16691E-03   -0.46646E-03  1008   0.132E-01    0.771E-02
DAV:   6    -0.666163160225E+02   -0.10760E-03   -0.28151E-04   728   0.320E-02    0.445E-02
DAV:   7    -0.666165280318E+02   -0.21201E-03   -0.91610E-05   672   0.189E-02    0.161E-02
DAV:   8    -0.666167397092E+02   -0.21168E-03   -0.17728E-05   640   0.841E-03    0.547E-03
DAV:   9    -0.666169278229E+02   -0.18811E-03   -0.57360E-06   672   0.395E-03    0.301E-03
DAV:  10    -0.666170762781E+02   -0.14846E-03   -0.26992E-06   648   0.213E-03    0.207E-03
DAV:  11    -0.666173388341E+02   -0.26256E-03   -0.70125E-06   664   0.239E-03    0.140E-03
DAV:  12    -0.666174888116E+02   -0.14998E-03   -0.30935E-06   672   0.163E-03    0.986E-04
DAV:  13    -0.666175890224E+02   -0.10021E-03   -0.16595E-06   648   0.107E-03    0.648E-04
DAV:  14    -0.666176725430E+02   -0.83521E-04   -0.12863E-06   656   0.920E-04
  44 F= -.66617673E+02 E0= -.66617673E+02  d E =-.184568E+00  mag=     1.0000
       N       E                     dE             d eps       ncg     rms          rms(c)
DAV:   1    -0.665924613099E+02    0.25128E-01   -0.87231E+01   944   0.164E+01    0.366E-01
DAV:   2    -0.666342833963E+02   -0.41822E-01   -0.40940E-01   992   0.157E+00    0.326E-01
DAV:   3    -0.666340504645E+02    0.23293E-03   -0.62519E-03  1064   0.186E-01    0.242E-01
DAV:   4    -0.666330878495E+02    0.96262E-03   -0.19069E-03  1008   0.903E-02    0.118E-01
DAV:   5    -0.666330539478E+02    0.33902E-04   -0.10480E-03  1040   0.620E-02    0.408E-02
DAV:   6    -0.666330451501E+02    0.87977E-05   -0.40704E-05   624   0.124E-02
  45 F= -.66633045E+02 E0= -.66633045E+02  d E =-.199941E+00  mag=     1.0000
       N       E                     dE             d eps       ncg     rms          rms(c)
DAV:   1    -0.665766283981E+02    0.56426E-01   -0.33105E+02   944   0.321E+01    0.821E-01
DAV:   2    -0.667408765626E+02   -0.16425E+00   -0.16186E+00   996   0.312E+00    0.583E-01
DAV:   3    -0.667397101876E+02    0.11664E-02   -0.25041E-02  1040   0.369E-01    0.411E-01
DAV:   4    -0.667365654202E+02    0.31448E-02   -0.71463E-03  1000   0.169E-01    0.177E-01
DAV:   5    -0.667365147480E+02    0.50672E-04   -0.23218E-03  1024   0.950E-02    0.556E-02
DAV:   6    -0.667364979724E+02    0.16776E-04   -0.15452E-04   680   0.244E-02
  46 F= -.66736498E+02 E0= -.66736498E+02  d E =-.103453E+00  mag=     1.0000
       N       E                     dE             d eps       ncg     rms          rms(c)
DAV:   1    -0.667175895596E+02    0.18925E-01   -0.54262E+01   960   0.129E+01    0.305E-01
DAV:   2    -0.667437381953E+02   -0.26149E-01   -0.25801E-01   992   0.124E+00    0.239E-01
DAV:   3    -0.667435088112E+02    0.22938E-03   -0.39097E-03  1024   0.145E-01    0.172E-01
DAV:   4    -0.667429907825E+02    0.51803E-03   -0.13964E-03   992   0.750E-02    0.692E-02
DAV:   5    -0.667430463535E+02   -0.55571E-04   -0.38940E-04   928   0.403E-02
  47 F= -.66743046E+02 E0= -.66743046E+02  d E =-.110001E+00  mag=     1.0000
       N       E                     dE             d eps       ncg     rms          rms(c)
DAV:   1    -0.666552341353E+02    0.87757E-01   -0.31405E+02   944   0.311E+01    0.788E-01
DAV:   2    -0.668126444456E+02   -0.15741E+00   -0.15431E+00  1016   0.302E+00    0.601E-01
DAV:   3    -0.668114714656E+02    0.11730E-02   -0.23430E-02  1024   0.356E-01    0.427E-01
DAV:   4    -0.668083357070E+02    0.31358E-02   -0.70116E-03  1000   0.162E-01    0.195E-01
DAV:   5    -0.668083590913E+02   -0.23384E-04   -0.25113E-03   996   0.988E-02    0.620E-02
DAV:   6    -0.668083718794E+02   -0.12788E-04   -0.14261E-04   644   0.242E-02
  48 F= -.66808372E+02 E0= -.66808372E+02  d E =-.653255E-01  mag=     1.0000
       N       E                     dE             d eps       ncg     rms          rms(c)
DAV:   1    -0.668020601616E+02    0.62989E-02   -0.16842E+01   944   0.715E+00    0.163E-01
DAV:   2    -0.668102919707E+02   -0.82318E-02   -0.80205E-02  1012   0.687E-01    0.137E-01
DAV:   3    -0.668102482985E+02    0.43672E-04   -0.11853E-03  1032   0.795E-02    0.101E-01
DAV:   4    -0.668101033614E+02    0.14494E-03   -0.44369E-04   912   0.412E-02    0.441E-02
DAV:   5    -0.668101453832E+02   -0.42022E-04   -0.15250E-04   640   0.261E-02
  49 F= -.66810145E+02 E0= -.66810145E+02  d E =-.670990E-01  mag=     1.0000
       N       E                     dE             d eps       ncg     rms          rms(c)
DAV:   1    -0.668122728462E+02   -0.21695E-02   -0.87300E+01   944   0.165E+01    0.393E-01
DAV:   2    -0.668544551203E+02   -0.42182E-01   -0.41226E-01   992   0.158E+00    0.323E-01
DAV:   3    -0.668541327999E+02    0.32232E-03   -0.63219E-03  1048   0.188E-01    0.235E-01
DAV:   4    -0.668532099253E+02    0.92287E-03   -0.23936E-03  1004   0.945E-02    0.966E-02
DAV:   5    -0.668532448052E+02   -0.34880E-04   -0.66987E-04  1040   0.533E-02
  50 F= -.66853245E+02 E0= -.66853245E+02  d E =-.430994E-01  mag=     1.0000
       N       E                     dE             d eps       ncg     rms          rms(c)
DAV:   1    -0.668371206543E+02    0.16089E-01   -0.44926E+01   952   0.118E+01    0.281E-01
DAV:   2    -0.668587698597E+02   -0.21649E-01   -0.21308E-01  1008   0.113E+00    0.224E-01
DAV:   3    -0.668586069203E+02    0.16294E-03   -0.32619E-03  1024   0.135E-01    0.161E-01
DAV:   4    -0.668581701068E+02    0.43681E-03   -0.11530E-03  1024   0.660E-02    0.658E-02
DAV:   5    -0.668581880893E+02   -0.17982E-04   -0.30578E-04   792   0.372E-02
  51 F= -.66858188E+02 E0= -.66858188E+02  d E =-.480427E-01  mag=     1.0000
       N       E                     dE             d eps       ncg     rms          rms(c)
DAV:   1    -0.668449216158E+02    0.13248E-01   -0.83342E+01   944   0.161E+01    0.378E-01
DAV:   2    -0.668853934407E+02   -0.40472E-01   -0.39392E-01   988   0.154E+00    0.320E-01
DAV:   3    -0.668849825786E+02    0.41086E-03   -0.60255E-03  1056   0.185E-01    0.232E-01
DAV:   4    -0.668839651159E+02    0.10175E-02   -0.23331E-03  1008   0.941E-02    0.103E-01
DAV:   5    -0.668839763187E+02   -0.11203E-04   -0.81460E-04  1032   0.564E-02
  52 F= -.66883976E+02 E0= -.66883976E+02  d E =-.257882E-01  mag=     1.0000
       N       E                     dE             d eps       ncg     rms          rms(c)
DAV:   1    -0.668655158943E+02    0.18449E-01   -0.41389E+01   944   0.113E+01    0.272E-01
DAV:   2    -0.668853788185E+02   -0.19863E-01   -0.19571E-01  1016   0.109E+00    0.226E-01
DAV:   3    -0.668851665100E+02    0.21231E-03   -0.29916E-03  1056   0.130E-01    0.161E-01
DAV:   4    -0.668846909510E+02    0.47556E-03   -0.11580E-03  1016   0.666E-02    0.696E-02
DAV:   5    -0.668847145196E+02   -0.23569E-04   -0.34547E-04   880   0.381E-02
  53 F= -.66884715E+02 E0= -.66884715E+02  d E =-.265264E-01  mag=     1.0000
       N       E                     dE             d eps       ncg     rms          rms(c)
DAV:   1    -0.668760521987E+02    0.86388E-02   -0.54280E+01   944   0.130E+01    0.303E-01
DAV:   2    -0.669021573206E+02   -0.26105E-01   -0.25500E-01  1008   0.124E+00    0.258E-01
DAV:   3    -0.669018991726E+02    0.25815E-03   -0.38440E-03  1048   0.146E-01    0.188E-01
DAV:   4    -0.669012855373E+02    0.61364E-03   -0.16235E-03  1016   0.779E-02    0.792E-02
DAV:   5    -0.669013469325E+02   -0.61395E-04   -0.47618E-04  1040   0.445E-02
  54 F= -.66901347E+02 E0= -.66901347E+02  d E =-.166324E-01  mag=     1.0000
       N       E                     dE             d eps       ncg     rms          rms(c)
DAV:   1    -0.668991138570E+02    0.21717E-02   -0.68507E+00   960   0.461E+00    0.112E-01
DAV:   2    -0.669024128682E+02   -0.32990E-02   -0.32484E-02  1024   0.441E-01    0.893E-02
DAV:   3    -0.669023920807E+02    0.20787E-04   -0.48965E-04  1008   0.521E-02
  55 F= -.66902392E+02 E0= -.66902392E+02  d E =-.176776E-01  mag=     1.0000
       N       E                     dE             d eps       ncg     rms          rms(c)
DAV:   1    -0.669034116518E+02   -0.99878E-03   -0.24455E+01   944   0.872E+00    0.224E-01
DAV:   2    -0.669149107996E+02   -0.11499E-01   -0.11569E-01  1008   0.837E-01    0.190E-01
DAV:   3    -0.669147532860E+02    0.15751E-03   -0.18477E-03  1048   0.104E-01    0.135E-01
DAV:   4    -0.669144161739E+02    0.33711E-03   -0.81019E-04  1008   0.556E-02    0.552E-02
DAV:   5    -0.669144020168E+02    0.14157E-04   -0.16616E-04   664   0.282E-02
  56 F= -.66914402E+02 E0= -.66914402E+02  d E =-.120099E-01  mag=     1.0000
       N       E                     dE             d eps       ncg     rms          rms(c)
DAV:   1    -0.668929193014E+02    0.21497E-01   -0.39382E+01   952   0.111E+01    0.286E-01
DAV:   2    -0.669115327609E+02   -0.18613E-01   -0.18754E-01  1000   0.106E+00    0.236E-01
DAV:   3    -0.669112807242E+02    0.25204E-03   -0.29838E-03  1048   0.132E-01    0.165E-01
DAV:   4    -0.669107543695E+02    0.52635E-03   -0.11453E-03  1000   0.670E-02    0.691E-02
DAV:   5    -0.669107442990E+02    0.10071E-04   -0.26109E-04   704   0.351E-02
  57 F= -.66910744E+02 E0= -.66910744E+02  d E =-.835222E-02  mag=     1.0000
       N       E                     dE             d eps       ncg     rms          rms(c)
DAV:   1    -0.669086748781E+02    0.20795E-02   -0.14875E+01   960   0.680E+00    0.170E-01
DAV:   2    -0.669157495249E+02   -0.70746E-02   -0.70047E-02  1008   0.652E-01    0.147E-01
DAV:   3    -0.669157009386E+02    0.48586E-04   -0.11200E-03  1048   0.805E-02    0.106E-01
DAV:   4    -0.669156092533E+02    0.91685E-04   -0.52515E-04   988   0.442E-02
  58 F= -.66915609E+02 E0= -.66915609E+02  d E =-.132172E-01  mag=     1.0000
       N       E                     dE             d eps       ncg     rms          rms(c)
DAV:   1    -0.669130782655E+02    0.26227E-02   -0.25382E+01   976   0.888E+00    0.181E-01
DAV:   2    -0.669251696845E+02   -0.12091E-01   -0.11822E-01   972   0.849E-01    0.166E-01
DAV:   3    -0.669250078161E+02    0.16187E-03   -0.17858E-03  1064   0.102E-01    0.127E-01
DAV:   4    -0.669246181177E+02    0.38970E-03   -0.65460E-04   992   0.479E-02    0.610E-02
DAV:   5    -0.669245755397E+02    0.42578E-04   -0.41028E-04   960   0.385E-02
  59 F= -.66924576E+02 E0= -.66924576E+02  d E =-.896629E-02  mag=     1.0000
       N       E                     dE             d eps       ncg     rms          rms(c)
DAV:   1    -0.669191721462E+02    0.54460E-02   -0.14103E+01   952   0.662E+00    0.139E-01
DAV:   2    -0.669258921674E+02   -0.67200E-02   -0.66376E-02  1000   0.634E-01    0.120E-01
DAV:   3    -0.669258209566E+02    0.71211E-04   -0.10063E-03  1048   0.765E-02    0.892E-02
DAV:   4    -0.669256453649E+02    0.17559E-03   -0.29452E-04   744   0.338E-02    0.447E-02
DAV:   5    -0.669256436662E+02    0.16987E-05   -0.23950E-04   608   0.322E-02
  60 F= -.66925644E+02 E0= -.66925644E+02  d E =-.100344E-01  mag=     1.0000
       N       E                     dE             d eps       ncg     rms          rms(c)
DAV:   1    -0.669182395139E+02    0.74059E-02   -0.29955E+01   944   0.965E+00    0.200E-01
DAV:   2    -0.669323337982E+02   -0.14094E-01   -0.13876E-01   984   0.919E-01    0.178E-01
DAV:   3    -0.669321549355E+02    0.17886E-03   -0.20886E-03  1040   0.110E-01    0.134E-01
DAV:   4    -0.669317190727E+02    0.43586E-03   -0.71016E-04  1000   0.510E-02    0.658E-02
DAV:   5    -0.669316802603E+02    0.38812E-04   -0.46411E-04  1008   0.405E-02
  61 F= -.66931680E+02 E0= -.66931680E+02  d E =-.603659E-02  mag=     1.0000
       N       E                     dE             d eps       ncg     rms          rms(c)
DAV:   1    -0.669302731959E+02    0.14459E-02   -0.37168E+00   976   0.340E+00    0.745E-02
DAV:   2    -0.669320596456E+02   -0.17864E-02   -0.17481E-02  1016   0.325E-01    0.612E-02
DAV:   3    -0.669320472032E+02    0.12442E-04   -0.24095E-04   648   0.392E-02
  62 F= -.66932047E+02 E0= -.66932047E+02  d E =-.640354E-02  mag=     1.0000
       N       E                     dE             d eps       ncg     rms          rms(c)
DAV:   1    -0.669310441023E+02    0.10155E-02   -0.11296E+01   944   0.593E+00    0.179E-01
DAV:   2    -0.669361986222E+02   -0.51545E-02   -0.52510E-02   988   0.563E-01    0.142E-01
DAV:   3    -0.669361502278E+02    0.48394E-04   -0.89856E-04  1048   0.712E-02
  63 F= -.66936150E+02 E0= -.66936150E+02  d E =-.410302E-02  mag=     1.0000
       N       E                     dE             d eps       ncg     rms          rms(c)
DAV:   1    -0.669360768576E+02    0.12176E-03   -0.19534E-01   992   0.778E-01    0.244E-02
DAV:   2    -0.669361882691E+02   -0.11141E-03   -0.94450E-04  1008   0.793E-02    0.101E-02
DAV:   3    -0.669361987013E+02   -0.10432E-04   -0.18828E-05   592   0.122E-02
  64 F= -.66936199E+02 E0= -.66936199E+02  d E =-.415150E-02  mag=     1.0000
       N       E                     dE             d eps       ncg     rms          rms(c)
DAV:   1    -0.669360348420E+02    0.15343E-03   -0.79349E+00   952   0.498E+00    0.103E-01
DAV:   2    -0.669398888874E+02   -0.38540E-02   -0.36861E-02  1000   0.477E-01    0.957E-02
DAV:   3    -0.669398642176E+02    0.24670E-04   -0.56570E-04  1024   0.578E-02
  65 F= -.66939864E+02 E0= -.66939864E+02  d E =-.366552E-02  mag=     1.0000
       N       E                     dE             d eps       ncg     rms          rms(c)
DAV:   1    -0.669381653074E+02    0.17236E-02   -0.58547E+00   944   0.428E+00    0.106E-01
DAV:   2    -0.669408082459E+02   -0.26429E-02   -0.26221E-02  1000   0.403E-01    0.100E-01
DAV:   3    -0.669407546681E+02    0.53578E-04   -0.38063E-04   880   0.470E-02
  66 F= -.66940755E+02 E0= -.66940755E+02  d E =-.455597E-02  mag=     1.0000
       N       E                     dE             d eps       ncg     rms          rms(c)
DAV:   1    -0.669408147949E+02   -0.65490E-05   -0.53403E+00   964   0.407E+00    0.807E-02
DAV:   2    -0.669433721647E+02   -0.25574E-02   -0.24813E-02   992   0.388E-01    0.789E-02
DAV:   3    -0.669433521188E+02    0.20046E-04   -0.34773E-04   840   0.443E-02
  67 F= -.66943352E+02 E0= -.66943352E+02  d E =-.259745E-02  mag=     1.0000
       N       E                     dE             d eps       ncg     rms          rms(c)
DAV:   1    -0.669362459864E+02    0.71262E-02   -0.21641E+01   944   0.818E+00    0.159E-01
DAV:   2    -0.669466821052E+02   -0.10436E-01   -0.10070E-01  1000   0.783E-01    0.158E-01
DAV:   3    -0.669465864365E+02    0.95669E-04   -0.14733E-03  1032   0.897E-02    0.126E-01
DAV:   4    -0.669462197392E+02    0.36670E-03   -0.58247E-04  1008   0.467E-02    0.634E-02
DAV:   5    -0.669461788558E+02    0.40883E-04   -0.46186E-04   968   0.405E-02
  68 F= -.66946179E+02 E0= -.66946179E+02  d E =-.542419E-02  mag=     1.0000
       N       E                     dE             d eps       ncg     rms          rms(c)
DAV:   1    -0.669480880008E+02   -0.18683E-02   -0.67687E+00   944   0.460E+00    0.132E-01
DAV:   2    -0.669512617504E+02   -0.31737E-02   -0.32076E-02   980   0.441E-01    0.105E-01
DAV:   3    -0.669512165763E+02    0.45174E-04   -0.53635E-04  1048   0.553E-02
  69 F= -.66951217E+02 E0= -.66951217E+02  d E =-.503772E-02  mag=     1.0000
       N       E                     dE             d eps       ncg     rms          rms(c)
DAV:   1    -0.669510839985E+02    0.17775E-03   -0.15603E+00   984   0.221E+00    0.817E-02
DAV:   2    -0.669517881044E+02   -0.70411E-03   -0.72944E-03  1016   0.209E-01    0.606E-02
DAV:   3    -0.669517674627E+02    0.20642E-04   -0.11634E-04   616   0.260E-02
  70 F= -.66951767E+02 E0= -.66951767E+02  d E =-.558861E-02  mag=     1.0000
       N       E                     dE             d eps       ncg     rms          rms(c)
DAV:   1    -0.669531910964E+02   -0.14030E-02   -0.48130E+00   952   0.385E+00    0.809E-02
DAV:   2    -0.669555104955E+02   -0.23194E-02   -0.22688E-02  1000   0.370E-01    0.712E-02
DAV:   3    -0.669554880143E+02    0.22481E-04   -0.32044E-04   800   0.434E-02
  71 F= -.66955488E+02 E0= -.66955488E+02  d E =-.372055E-02  mag=     1.0000
       N       E                     dE             d eps       ncg     rms          rms(c)
DAV:   1    -0.669561807485E+02   -0.67025E-03   -0.66795E-01   964   0.144E+00    0.435E-02
DAV:   2    -0.669564841357E+02   -0.30339E-03   -0.29888E-03  1016   0.135E-01    0.373E-02
DAV:   3    -0.669564798460E+02    0.42896E-05   -0.41607E-05   592   0.152E-02
  72 F= -.66956480E+02 E0= -.66956480E+02  d E =-.471238E-02  mag=     1.0000
       N       E                     dE             d eps       ncg     rms          rms(c)
DAV:   1    -0.669575560456E+02   -0.10719E-02   -0.10816E+00   956   0.184E+00    0.518E-02
DAV:   2    -0.669580777088E+02   -0.52166E-03   -0.50705E-03  1016   0.175E-01    0.417E-02
DAV:   3    -0.669580844043E+02   -0.66955E-05   -0.73977E-05   600   0.216E-02
  73 F= -.66958084E+02 E0= -.66958084E+02  d E =-.160456E-02  mag=     1.0000
       N       E                     dE             d eps       ncg     rms          rms(c)
DAV:   1    -0.669584865171E+02   -0.40881E-03   -0.79943E-01   968   0.158E+00    0.500E-02
DAV:   2    -0.669588671942E+02   -0.38068E-03   -0.37151E-03  1008   0.149E-01    0.391E-02
DAV:   3    -0.669588715946E+02   -0.44004E-05   -0.54751E-05   608   0.183E-02
  74 F= -.66958872E+02 E0= -.66958872E+02  d E =-.239175E-02  mag=     1.0000
       N       E                     dE             d eps       ncg     rms          rms(c)
DAV:   1    -0.669599598486E+02   -0.10927E-02   -0.94233E-01   960   0.170E+00    0.280E-02
DAV:   2    -0.669604120742E+02   -0.45223E-03   -0.43335E-03  1024   0.162E-01    0.293E-02
DAV:   3    -0.669604099424E+02    0.21317E-05   -0.55181E-05   584   0.187E-02
  75 F= -.66960410E+02 E0= -.66960410E+02  d E =-.153835E-02  mag=     1.0000
       N       E                     dE             d eps       ncg     rms          rms(c)
DAV:   1    -0.669607770231E+02   -0.36495E-03   -0.84737E+00   944   0.509E+00    0.882E-02
DAV:   2    -0.669647187105E+02   -0.39417E-02   -0.38687E-02  1000   0.484E-01    0.934E-02
DAV:   3    -0.669646659081E+02    0.52802E-04   -0.55409E-04  1016   0.554E-02
  76 F= -.66964666E+02 E0= -.66964666E+02  d E =-.579431E-02  mag=     1.0000
       N       E                     dE             d eps       ncg     rms          rms(c)
DAV:   1    -0.669562161163E+02    0.85026E-02   -0.33905E+01   944   0.102E+01    0.187E-01
DAV:   2    -0.669717913656E+02   -0.15575E-01   -0.15394E-01  1000   0.966E-01    0.196E-01
DAV:   3    -0.669715330359E+02    0.25833E-03   -0.22041E-03  1048   0.110E-01    0.163E-01
DAV:   4    -0.669708008082E+02    0.73223E-03   -0.91374E-04  1008   0.561E-02    0.846E-02
DAV:   5    -0.669706436306E+02    0.15718E-03   -0.97701E-04  1008   0.573E-02    0.328E-02
DAV:   6    -0.669706738159E+02   -0.30185E-04   -0.14832E-05   632   0.836E-03
  77 F= -.66970674E+02 E0= -.66970674E+02  d E =-.118022E-01  mag=     1.0000
       N       E                     dE             d eps       ncg     rms          rms(c)
DAV:   1    -0.669147165263E+02    0.55927E-01   -0.13606E+02   944   0.205E+01    0.385E-01
DAV:   2    -0.669792102115E+02   -0.64494E-01   -0.63288E-01   992   0.196E+00    0.354E-01
DAV:   3    -0.669783119328E+02    0.89828E-03   -0.91962E-03  1048   0.228E-01    0.277E-01
DAV:   4    -0.669763243293E+02    0.19876E-02   -0.22551E-03  1008   0.897E-02    0.155E-01
DAV:   5    -0.669757720592E+02    0.55227E-03   -0.28398E-03  1000   0.973E-02    0.457E-02
DAV:   6    -0.669758464262E+02   -0.74367E-04   -0.32621E-05   648   0.133E-02
  78 F= -.66975846E+02 E0= -.66975846E+02  d E =-.169748E-01  mag=     1.0000
       N       E                     dE             d eps       ncg     rms          rms(c)
DAV:   1    -0.669814186969E+02   -0.56466E-02   -0.43426E+00   964   0.367E+00    0.131E-01
DAV:   2    -0.669834473229E+02   -0.20286E-02   -0.20145E-02  1008   0.342E-01    0.942E-02
DAV:   3    -0.669834802761E+02   -0.32953E-04   -0.34370E-04   816   0.419E-02
  79 F= -.66983480E+02 E0= -.66983480E+02  d E =-.763385E-02  mag=     1.0000
       N       E                     dE             d eps       ncg     rms          rms(c)
DAV:   1    -0.669844329179E+02   -0.98560E-03   -0.36585E-01   992   0.107E+00    0.471E-02
DAV:   2    -0.669846355498E+02   -0.20263E-03   -0.17491E-03  1040   0.987E-02    0.292E-02
DAV:   3    -0.669846773128E+02   -0.41763E-04   -0.27297E-05   616   0.119E-02
  80 F= -.66984677E+02 E0= -.66984677E+02  d E =-.883089E-02  mag=     1.0000
       N       E                     dE             d eps       ncg     rms          rms(c)
DAV:   1    -0.669858806635E+02   -0.12451E-02   -0.58181E-01  1000   0.135E+00    0.298E-02
DAV:   2    -0.669861741091E+02   -0.29345E-03   -0.26490E-03  1024   0.128E-01    0.262E-02
DAV:   3    -0.669861813643E+02   -0.72552E-05   -0.36302E-05   608   0.155E-02
  81 F= -.66986181E+02 E0= -.66986181E+02  d E =-.150405E-02  mag=     1.0000
       N       E                     dE             d eps       ncg     rms          rms(c)
DAV:   1    -0.669868681057E+02   -0.69400E-03   -0.52393E+00   944   0.405E+00    0.914E-02
DAV:   2    -0.669893011008E+02   -0.24330E-02   -0.23713E-02  1008   0.382E-01    0.820E-02
DAV:   3    -0.669892720268E+02    0.29074E-04   -0.34980E-04   840   0.460E-02
  82 F= -.66989272E+02 E0= -.66989272E+02  d E =-.459471E-02  mag=     1.0000
       N       E                     dE             d eps       ncg     rms          rms(c)
DAV:   1    -0.669903385259E+02   -0.10374E-02   -0.11623E+00   984   0.190E+00    0.549E-02
DAV:   2    -0.669908613275E+02   -0.52280E-03   -0.52853E-03  1016   0.178E-01    0.443E-02
DAV:   3    -0.669908562781E+02    0.50494E-05   -0.79300E-05   608   0.213E-02
  83 F= -.66990856E+02 E0= -.66990856E+02  d E =-.158425E-02  mag=     1.0000
       N       E                     dE             d eps       ncg     rms          rms(c)
DAV:   1    -0.669911400524E+02   -0.27872E-03   -0.34508E-01  1000   0.104E+00    0.360E-02
DAV:   2    -0.669913013431E+02   -0.16129E-03   -0.15909E-03  1016   0.967E-02    0.255E-02
DAV:   3    -0.669913056583E+02   -0.43152E-05   -0.23988E-05   600   0.117E-02
  84 F= -.66991306E+02 E0= -.66991306E+02  d E =-.203363E-02  mag=     1.0000
       N       E                     dE             d eps       ncg     rms          rms(c)
DAV:   1    -0.669924594818E+02   -0.11581E-02   -0.86443E-01   976   0.164E+00    0.273E-02
DAV:   2    -0.669928685416E+02   -0.40906E-03   -0.38788E-03  1016   0.155E-01    0.297E-02
DAV:   3    -0.669928669505E+02    0.15910E-05   -0.51269E-05   600   0.185E-02
  85 F= -.66992867E+02 E0= -.66992867E+02  d E =-.156129E-02  mag=     1.0000
       N       E                     dE             d eps       ncg     rms          rms(c)
DAV:   1    -0.669941999704E+02   -0.13314E-02   -0.77796E+00   944   0.492E+00    0.834E-02
DAV:   2    -0.669977364269E+02   -0.35365E-02   -0.34384E-02   996   0.463E-01    0.952E-02
DAV:   3    -0.669976978263E+02    0.38601E-04   -0.50693E-04  1008   0.539E-02
  86 F= -.66997698E+02 E0= -.66997698E+02  d E =-.639217E-02  mag=     1.0000
       N       E                     dE             d eps       ncg     rms          rms(c)
DAV:   1    -0.669939257402E+02    0.38107E-02   -0.31127E+01   944   0.984E+00    0.177E-01
DAV:   2    -0.670077637425E+02   -0.13838E-01   -0.13624E-01  1016   0.922E-01    0.201E-01
DAV:   3    -0.670075666187E+02    0.19712E-03   -0.19963E-03  1048   0.105E-01    0.169E-01
DAV:   4    -0.670068756772E+02    0.69094E-03   -0.72792E-04  1008   0.505E-02    0.102E-01
DAV:   5    -0.670066777608E+02    0.19792E-03   -0.13570E-03  1008   0.675E-02    0.401E-02
DAV:   6    -0.670066922372E+02   -0.14476E-04   -0.17120E-05   600   0.898E-03
  87 F= -.67006692E+02 E0= -.67006692E+02  d E =-.153866E-01  mag=     1.0000
       N       E                     dE             d eps       ncg     rms          rms(c)
DAV:   1    -0.669677568803E+02    0.38921E-01   -0.12491E+02   944   0.198E+01    0.353E-01
DAV:   2    -0.670250118738E+02   -0.57255E-01   -0.56030E-01  1000   0.186E+00    0.358E-01
DAV:   3    -0.670242325819E+02    0.77929E-03   -0.83252E-03  1028   0.220E-01    0.280E-01
DAV:   4    -0.670223378273E+02    0.18948E-02   -0.19230E-03  1000   0.834E-02    0.172E-01
DAV:   5    -0.670216867762E+02    0.65105E-03   -0.33166E-03   996   0.106E-01    0.526E-02
DAV:   6    -0.670217304261E+02   -0.43650E-04   -0.35198E-05   624   0.138E-02
  88 F= -.67021730E+02 E0= -.67021730E+02  d E =-.304248E-01  mag=     1.0000
       N       E                     dE             d eps       ncg     rms          rms(c)
DAV:   1    -0.668087780427E+02    0.21291E+00   -0.50819E+02   944   0.401E+01    0.882E-01
DAV:   2    -0.670464321625E+02   -0.23765E+00   -0.23383E+00  1004   0.383E+00    0.741E-01
DAV:   3    -0.670424893735E+02    0.39428E-02   -0.35530E-02  1020   0.458E-01    0.540E-01
DAV:   4    -0.670355620835E+02    0.69273E-02   -0.85178E-03  1008   0.177E-01    0.314E-01
DAV:   5    -0.670337625835E+02    0.17995E-02   -0.78173E-03   996   0.165E-01    0.898E-02
DAV:   6    -0.670338976448E+02   -0.13506E-03   -0.11073E-04   672   0.253E-02    0.521E-02
DAV:   7    -0.670340223515E+02   -0.12471E-03   -0.37238E-05   664   0.132E-02    0.203E-02
DAV:   8    -0.670341049930E+02   -0.82641E-04   -0.15006E-05   656   0.751E-03
  89 F= -.67034105E+02 E0= -.67034105E+02  d E =-.427993E-01  mag=     1.0000
       N       E                     dE             d eps       ncg     rms          rms(c)
DAV:   1    -0.670349609207E+02   -0.93857E-03   -0.92755E-01   984   0.170E+00    0.279E-02
DAV:   2    -0.670354143487E+02   -0.45343E-03   -0.40924E-03  1024   0.160E-01    0.322E-02
DAV:   3    -0.670354198445E+02   -0.54958E-05   -0.52658E-05   600   0.186E-02
  90 F= -.67035420E+02 E0= -.67035420E+02  d E =-.131485E-02  mag=     1.0000
       N       E                     dE             d eps       ncg     rms          rms(c)
DAV:   1    -0.670355465100E+02   -0.13216E-03   -0.63475E+00   944   0.444E+00    0.769E-02
DAV:   2    -0.670384046958E+02   -0.28582E-02   -0.27752E-02  1016   0.415E-01    0.875E-02
DAV:   3    -0.670383776868E+02    0.27009E-04   -0.39947E-04   960   0.477E-02
  91 F= -.67038378E+02 E0= -.67038378E+02  d E =-.427269E-02  mag=     1.0000
       N       E                     dE             d eps       ncg     rms          rms(c)
DAV:   1    -0.670321112814E+02    0.62934E-02   -0.25387E+01   944   0.889E+00    0.163E-01
DAV:   2    -0.670433769535E+02   -0.11266E-01   -0.11057E-01   988   0.830E-01    0.183E-01
DAV:   3    -0.670432307845E+02    0.14617E-03   -0.16130E-03  1056   0.946E-02    0.153E-01
DAV:   4    -0.670426756413E+02    0.55514E-03   -0.65758E-04   988   0.478E-02    0.903E-02
DAV:   5    -0.670425729972E+02    0.10264E-03   -0.10128E-03   992   0.587E-02    0.369E-02
DAV:   6    -0.670425929711E+02   -0.19974E-04   -0.13590E-05   592   0.800E-03
  92 F= -.67042593E+02 E0= -.67042593E+02  d E =-.848798E-02  mag=     1.0000
       N       E                     dE             d eps       ncg     rms          rms(c)
DAV:   1    -0.670021398866E+02    0.40433E-01   -0.10175E+02   944   0.178E+01    0.320E-01
DAV:   2    -0.670492024706E+02   -0.47063E-01   -0.45527E-01   980   0.168E+00    0.328E-01
DAV:   3    -0.670486693929E+02    0.53308E-03   -0.67417E-03  1032   0.198E-01    0.256E-01
DAV:   4    -0.670470918891E+02    0.15775E-02   -0.17267E-03  1000   0.786E-02    0.155E-01
DAV:   5    -0.670466427088E+02    0.44918E-03   -0.26943E-03   980   0.957E-02    0.511E-02
DAV:   6    -0.670466764321E+02   -0.33723E-04   -0.29810E-05   600   0.126E-02
  93 F= -.67046676E+02 E0= -.67046676E+02  d E =-.125714E-01  mag=     1.0000
       N       E                     dE             d eps       ncg     rms          rms(c)
DAV:   1    -0.670503709627E+02   -0.37283E-02   -0.11926E+00   996   0.192E+00    0.416E-02
DAV:   2    -0.670509552165E+02   -0.58425E-03   -0.55037E-03  1016   0.183E-01    0.366E-02
DAV:   3    -0.670509582944E+02   -0.30779E-05   -0.73167E-05   600   0.217E-02
  94 F= -.67050958E+02 E0= -.67050958E+02  d E =-.428186E-02  mag=     1.0000
       N       E                     dE             d eps       ncg     rms          rms(c)
DAV:   1    -0.670568725090E+02   -0.59173E-02   -0.10779E+01   944   0.578E+00    0.124E-01
DAV:   2    -0.670619341694E+02   -0.50617E-02   -0.48947E-02   984   0.547E-01    0.116E-01
DAV:   3    -0.670618747981E+02    0.59371E-04   -0.73121E-04  1024   0.643E-02
  95 F= -.67061875E+02 E0= -.67061875E+02  d E =-.151984E-01  mag=     1.0000
       N       E                     dE             d eps       ncg     rms          rms(c)
DAV:   1    -0.670549660481E+02    0.69681E-02   -0.43135E+01   944   0.116E+01    0.260E-01
DAV:   2    -0.670749178913E+02   -0.19952E-01   -0.19523E-01   980   0.109E+00    0.242E-01
DAV:   3    -0.670746068035E+02    0.31109E-03   -0.29408E-03  1032   0.128E-01    0.184E-01
DAV:   4    -0.670738733262E+02    0.73348E-03   -0.15899E-03   988   0.746E-02    0.791E-02
DAV:   5    -0.670738814173E+02   -0.80911E-05   -0.53130E-04  1016   0.455E-02
  96 F= -.67073881E+02 E0= -.67073881E+02  d E =-.272050E-01  mag=     1.0000
       N       E                     dE             d eps       ncg     rms          rms(c)
DAV:   1    -0.669808763772E+02    0.92997E-01   -0.17310E+02   944   0.232E+01    0.528E-01
DAV:   2    -0.670630116017E+02   -0.82135E-01   -0.80156E-01   980   0.222E+00    0.451E-01
DAV:   3    -0.670619749497E+02    0.10367E-02   -0.12281E-02  1016   0.268E-01    0.328E-01
DAV:   4    -0.670595923950E+02    0.23826E-02   -0.43315E-03   996   0.125E-01    0.158E-01
DAV:   5    -0.670594461833E+02    0.14621E-03   -0.20374E-03  1008   0.875E-02    0.549E-02
DAV:   6    -0.670594754957E+02   -0.29312E-04   -0.74804E-05   632   0.174E-02
  97 F= -.67059475E+02 E0= -.67059475E+02  d E =-.127991E-01  mag=     1.0000
       N       E                     dE             d eps       ncg     rms          rms(c)
DAV:   1    -0.670316813122E+02    0.27765E-01   -0.97233E+01   944   0.174E+01    0.366E-01
DAV:   2    -0.670773073085E+02   -0.45626E-01   -0.44572E-01  1000   0.165E+00    0.339E-01
DAV:   3    -0.670768009431E+02    0.50637E-03   -0.67706E-03  1056   0.197E-01    0.258E-01
DAV:   4    -0.670754341010E+02    0.13668E-02   -0.24741E-03   988   0.941E-02    0.128E-01
DAV:   5    -0.670753945419E+02    0.39559E-04   -0.15538E-03  1024   0.750E-02    0.469E-02
DAV:   6    -0.670754002689E+02   -0.57269E-05   -0.50779E-05   624   0.144E-02
  98 F= -.67075400E+02 E0= -.67075400E+02  d E =-.287238E-01  mag=     1.0000
       N       E                     dE             d eps       ncg     rms          rms(c)
DAV:   1    -0.670797633280E+02   -0.43688E-02   -0.53194E+00   956   0.403E+00    0.775E-02
DAV:   2    -0.670823199384E+02   -0.25566E-02   -0.24664E-02  1016   0.387E-01    0.787E-02
DAV:   3    -0.670823029767E+02    0.16962E-04   -0.35978E-04   896   0.461E-02
  99 F= -.67082303E+02 E0= -.67082303E+02  d E =-.690271E-02  mag=     1.0000
       N       E                     dE             d eps       ncg     rms          rms(c)
DAV:   1    -0.670748603680E+02    0.74596E-02   -0.47955E+01   944   0.121E+01    0.250E-01
DAV:   2    -0.670975577028E+02   -0.22697E-01   -0.22116E-01  1008   0.116E+00    0.250E-01
DAV:   3    -0.670972944790E+02    0.26322E-03   -0.32892E-03  1040   0.136E-01    0.195E-01
DAV:   4    -0.670964394171E+02    0.85506E-03   -0.13220E-03  1000   0.698E-02    0.105E-01
DAV:   5    -0.670963242469E+02    0.11517E-03   -0.10174E-03  1016   0.601E-02    0.401E-02
DAV:   6    -0.670963413508E+02   -0.17104E-04   -0.25757E-05   624   0.102E-02
 100 F= -.67096341E+02 E0= -.67096341E+02  d E =-.209411E-01  mag=     1.0000
       N       E                     dE             d eps       ncg     rms          rms(c)
DAV:   1    -0.670063851611E+02    0.89939E-01   -0.19289E+02   944   0.244E+01    0.519E-01
DAV:   2    -0.670986077101E+02   -0.92223E-01   -0.90522E-01   980   0.235E+00    0.473E-01
DAV:   3    -0.670975864520E+02    0.10213E-02   -0.13709E-02  1024   0.280E-01    0.352E-01
DAV:   4    -0.670948727093E+02    0.27137E-02   -0.38725E-03  1008   0.121E-01    0.198E-01
DAV:   5    -0.670944115026E+02    0.46121E-03   -0.32252E-03  1008   0.106E-01    0.656E-02
DAV:   6    -0.670945027988E+02   -0.91296E-04   -0.62467E-05   656   0.165E-02
 101 F= -.67094503E+02 E0= -.67094503E+02  d E =-.191025E-01  mag=     1.0000
       N       E                     dE             d eps       ncg     rms          rms(c)
DAV:   1    -0.670792302445E+02    0.15181E-01   -0.46442E+01   944   0.119E+01    0.235E-01
DAV:   2    -0.671015346083E+02   -0.22304E-01   -0.21693E-01  1032   0.115E+00    0.229E-01
DAV:   3    -0.671013896043E+02    0.14500E-03   -0.32719E-03  1048   0.137E-01    0.177E-01
DAV:   4    -0.671008429767E+02    0.54663E-03   -0.94312E-04  1008   0.592E-02    0.991E-02
DAV:   5    -0.671008428417E+02    0.13505E-06   -0.10304E-03  1008   0.597E-02    0.353E-02
DAV:   6    -0.671008748487E+02   -0.32007E-04   -0.24695E-05   640   0.100E-02
 102 F= -.67100875E+02 E0= -.67100875E+02  d E =-.254746E-01  mag=     1.0000
       N       E                     dE             d eps       ncg     rms          rms(c)
DAV:   1    -0.671027631197E+02   -0.19203E-02   -0.21714E+01   944   0.816E+00    0.170E-01
DAV:   2    -0.671131012106E+02   -0.10338E-01   -0.10077E-01   988   0.781E-01    0.153E-01
DAV:   3    -0.671130014362E+02    0.99774E-04   -0.15080E-03  1056   0.921E-02    0.116E-01
DAV:   4    -0.671127061883E+02    0.29525E-03   -0.53205E-04  1000   0.435E-02    0.558E-02
DAV:   5    -0.671126864501E+02    0.19738E-04   -0.29893E-04   848   0.334E-02
 103 F= -.67112686E+02 E0= -.67112686E+02  d E =-.118116E-01  mag=     1.0000
       N       E                     dE             d eps       ncg     rms          rms(c)
DAV:   1    -0.670327341022E+02    0.79972E-01   -0.19663E+02   944   0.246E+01    0.568E-01
DAV:   2    -0.671278736623E+02   -0.95140E-01   -0.92764E-01   992   0.238E+00    0.466E-01
DAV:   3    -0.671268650739E+02    0.10086E-02   -0.14059E-02  1024   0.283E-01    0.337E-01
DAV:   4    -0.671244412145E+02    0.24239E-02   -0.44276E-03  1000   0.126E-01    0.162E-01
DAV:   5    -0.671242965862E+02    0.14463E-03   -0.21304E-03  1016   0.881E-02    0.533E-02
DAV:   6    -0.671243260244E+02   -0.29438E-04   -0.68977E-05   632   0.174E-02
 104 F= -.67124326E+02 E0= -.67124326E+02  d E =-.234512E-01  mag=     1.0000
       N       E                     dE             d eps       ncg     rms          rms(c)
DAV:   1    -0.671229186425E+02    0.13779E-02   -0.26134E+01   952   0.893E+00    0.178E-01
DAV:   2    -0.671354269628E+02   -0.12508E-01   -0.12154E-01   988   0.859E-01    0.158E-01
DAV:   3    -0.671353094028E+02    0.11756E-03   -0.18129E-03  1028   0.102E-01    0.120E-01
DAV:   4    -0.671349718416E+02    0.33756E-03   -0.50327E-04   972   0.426E-02    0.621E-02
DAV:   5    -0.671349508927E+02    0.20949E-04   -0.46044E-04  1012   0.399E-02
 105 F= -.67134951E+02 E0= -.67134951E+02  d E =-.106249E-01  mag=     1.0000
       N       E                     dE             d eps       ncg     rms          rms(c)
DAV:   1    -0.670401968070E+02    0.94775E-01   -0.23734E+02   944   0.270E+01    0.623E-01
DAV:   2    -0.671555925461E+02   -0.11540E+00   -0.11265E+00   980   0.263E+00    0.487E-01
DAV:   3    -0.671541499367E+02    0.14426E-02   -0.17341E-02  1044   0.322E-01    0.350E-01
DAV:   4    -0.671512342051E+02    0.29157E-02   -0.43992E-03  1000   0.125E-01    0.178E-01
DAV:   5    -0.671508287920E+02    0.40541E-03   -0.29945E-03  1004   0.102E-01    0.518E-02
DAV:   6    -0.671509194201E+02   -0.90628E-04   -0.57902E-05   664   0.173E-02
 106 F= -.67150919E+02 E0= -.67150919E+02  d E =-.265934E-01  mag=     1.0000
       N       E                     dE             d eps       ncg     rms          rms(c)
DAV:   1    -0.671380805299E+02    0.12748E-01   -0.29004E+01   948   0.942E+00    0.193E-01
DAV:   2    -0.671519409108E+02   -0.13860E-01   -0.13466E-01   980   0.905E-01    0.169E-01
DAV:   3    -0.671518012963E+02    0.13961E-03   -0.20296E-03  1024   0.109E-01    0.127E-01
DAV:   4    -0.671514612153E+02    0.34008E-03   -0.57764E-04   980   0.455E-02    0.648E-02
DAV:   5    -0.671514961216E+02   -0.34906E-04   -0.47679E-04   992   0.407E-02
 107 F= -.67151496E+02 E0= -.67151496E+02  d E =-.271701E-01  mag=     1.0000
       N       E                     dE             d eps       ncg     rms          rms(c)
DAV:   1    -0.671385623738E+02    0.12899E-01   -0.71492E+01   944   0.149E+01    0.305E-01
DAV:   2    -0.671726018463E+02   -0.34039E-01   -0.33120E-01   996   0.142E+00    0.276E-01
DAV:   3    -0.671722003560E+02    0.40149E-03   -0.49695E-03  1028   0.169E-01    0.208E-01
DAV:   4    -0.671711749912E+02    0.10254E-02   -0.15702E-03   984   0.758E-02    0.106E-01
DAV:   5    -0.671710953797E+02    0.79611E-04   -0.11815E-03  1008   0.643E-02    0.376E-02
DAV:   6    -0.671711522040E+02   -0.56824E-04   -0.27129E-05   624   0.111E-02
 108 F= -.67171152E+02 E0= -.67171152E+02  d E =-.196561E-01  mag=     1.0000
       N       E                     dE             d eps       ncg     rms          rms(c)
DAV:   1    -0.671313165352E+02    0.39779E-01   -0.10426E+02   944   0.180E+01    0.378E-01
DAV:   2    -0.671806178174E+02   -0.49301E-01   -0.48297E-01   996   0.172E+00    0.337E-01
DAV:   3    -0.671799520346E+02    0.66578E-03   -0.72975E-03  1020   0.206E-01    0.251E-01
DAV:   4    -0.671784032557E+02    0.15488E-02   -0.23568E-03   992   0.924E-02    0.126E-01
DAV:   5    -0.671782444018E+02    0.15885E-03   -0.16136E-03  1008   0.754E-02    0.436E-02
DAV:   6    -0.671783066883E+02   -0.62286E-04   -0.35101E-05   608   0.127E-02
 109 F= -.67178307E+02 E0= -.67178307E+02  d E =-.268106E-01  mag=     1.0000
       N       E                     dE             d eps       ncg     rms          rms(c)
DAV:   1    -0.671585315431E+02    0.19713E-01   -0.90609E+01   944   0.168E+01    0.332E-01
DAV:   2    -0.672014317579E+02   -0.42900E-01   -0.41554E-01   988   0.160E+00    0.314E-01
DAV:   3    -0.672009412388E+02    0.49052E-03   -0.62165E-03  1028   0.190E-01    0.241E-01
DAV:   4    -0.671995491855E+02    0.13921E-02   -0.18453E-03  1000   0.826E-02    0.132E-01
DAV:   5    -0.671993169942E+02    0.23219E-03   -0.18758E-03  1000   0.804E-02    0.457E-02
DAV:   6    -0.671993888167E+02   -0.71823E-04   -0.30688E-05   624   0.119E-02
 110 F= -.67199389E+02 E0= -.67199389E+02  d E =-.210821E-01  mag=     1.0000
       N       E                     dE             d eps       ncg     rms          rms(c)
DAV:   1    -0.671291617713E+02    0.70155E-01   -0.17662E+02   944   0.235E+01    0.487E-01
DAV:   2    -0.672134905537E+02   -0.84329E-01   -0.81348E-01   984   0.224E+00    0.441E-01
DAV:   3    -0.672124283672E+02    0.10622E-02   -0.12211E-02  1028   0.267E-01    0.331E-01
DAV:   4    -0.672097841801E+02    0.26442E-02   -0.36839E-03   988   0.116E-01    0.177E-01
DAV:   5    -0.672093656673E+02    0.41851E-03   -0.30784E-03  1008   0.103E-01    0.586E-02
DAV:   6    -0.672094826370E+02   -0.11697E-03   -0.55232E-05   632   0.160E-02    0.369E-02
DAV:   7    -0.672096694087E+02   -0.18677E-03   -0.51178E-05   648   0.134E-02    0.130E-02
DAV:   8    -0.672098455930E+02   -0.17618E-03   -0.14590E-05   664   0.786E-03    0.380E-03
DAV:   9    -0.672100407152E+02   -0.19512E-03   -0.49661E-06   640   0.398E-03    0.241E-03
DAV:  10    -0.672101775662E+02   -0.13685E-03   -0.19518E-06   656   0.183E-03    0.166E-03
DAV:  11    -0.672103613220E+02   -0.18376E-03   -0.27402E-06   632   0.151E-03    0.120E-03
DAV:  12    -0.672105516340E+02   -0.19031E-03   -0.37541E-06   648   0.135E-03    0.704E-04
DAV:  13    -0.672106397789E+02   -0.88145E-04   -0.13885E-06   632   0.840E-04
 111 F= -.67210640E+02 E0= -.67210640E+02  d E =-.323331E-01  mag=     1.0000
       N       E                     dE             d eps       ncg     rms          rms(c)
DAV:   1    -0.671833903072E+02    0.27161E-01   -0.11771E+02   944   0.191E+01    0.346E-01
DAV:   2    -0.672398544619E+02   -0.56464E-01   -0.54384E-01   992   0.182E+00    0.332E-01
DAV:   3    -0.672392955899E+02    0.55887E-03   -0.79911E-03  1028   0.213E-01    0.260E-01
DAV:   4    -0.672376754705E+02    0.16201E-02   -0.17890E-03   992   0.811E-02    0.153E-01
DAV:   5    -0.672371606311E+02    0.51484E-03   -0.27460E-03   996   0.954E-02    0.471E-02
DAV:   6    -0.672371906477E+02   -0.30017E-04   -0.28305E-05   632   0.124E-02
 112 F= -.67237191E+02 E0= -.67237191E+02  d E =-.265509E-01  mag=     1.0000
       N       E                     dE             d eps       ncg     rms          rms(c)
DAV:   1    -0.667453375244E+02    0.49182E+00   -0.10897E+03   944   0.591E+01    0.156E+00
DAV:   2    -0.672805767241E+02   -0.53524E+00   -0.52651E+00  1004   0.576E+00    0.111E+00
DAV:   3    -0.672739144616E+02    0.66623E-02   -0.81015E-02  1004   0.697E-01    0.763E-01
DAV:   4    -0.672625013427E+02    0.11413E-01   -0.14368E-02  1000   0.233E-01    0.467E-01
DAV:   5    -0.672593132770E+02    0.31881E-02   -0.13916E-02  1008   0.217E-01    0.129E-01
DAV:   6    -0.672596341601E+02   -0.32088E-03   -0.19548E-04   720   0.347E-02    0.772E-02
DAV:   7    -0.672600190160E+02   -0.38486E-03   -0.65823E-05   648   0.178E-02    0.320E-02
DAV:   8    -0.672603243681E+02   -0.30535E-03   -0.22303E-05   672   0.945E-03    0.109E-02
DAV:   9    -0.672606489579E+02   -0.32459E-03   -0.12294E-05   648   0.607E-03    0.437E-03
DAV:  10    -0.672608859097E+02   -0.23695E-03   -0.43836E-06   664   0.281E-03    0.268E-03
DAV:  11    -0.672610531247E+02   -0.16721E-03   -0.25981E-06   616   0.181E-03    0.180E-03
DAV:  12    -0.672613114661E+02   -0.25834E-03   -0.42941E-06   656   0.172E-03    0.121E-03
DAV:  13    -0.672615207598E+02   -0.20929E-03   -0.44634E-06   648   0.152E-03    0.884E-04
DAV:  14    -0.672616245978E+02   -0.10384E-03   -0.14019E-06   656   0.971E-04    0.511E-04
DAV:  15    -0.672616922827E+02   -0.67685E-04   -0.83472E-07   624   0.774E-04
 113 F= -.67261692E+02 E0= -.67261692E+02  d E =-.510525E-01  mag=     1.0000
       N       E                     dE             d eps       ncg     rms          rms(c)
DAV:   1    -0.672402602232E+02    0.21364E-01   -0.52968E+01   944   0.128E+01    0.225E-01
DAV:   2    -0.672653123491E+02   -0.25052E-01   -0.24346E-01   988   0.122E+00    0.220E-01
DAV:   3    -0.672650881006E+02    0.22425E-03   -0.35563E-03  1032   0.141E-01    0.175E-01
DAV:   4    -0.672643773802E+02    0.71072E-03   -0.79777E-04   980   0.543E-02    0.102E-01
DAV:   5    -0.672641587780E+02    0.21860E-03   -0.13284E-03  1000   0.665E-02    0.329E-02
DAV:   6    -0.672641728826E+02   -0.14105E-04   -0.14464E-05   656   0.858E-03
 114 F= -.67264173E+02 E0= -.67264173E+02  d E =-.535331E-01  mag=     1.0000
       N       E                     dE             d eps       ncg     rms          rms(c)
DAV:   1    -0.672368312370E+02    0.27328E-01   -0.13083E+02   944   0.201E+01    0.400E-01
DAV:   2    -0.672995149651E+02   -0.62684E-01   -0.61037E-01   976   0.192E+00    0.358E-01
DAV:   3    -0.672990025700E+02    0.51240E-03   -0.90558E-03  1040   0.224E-01    0.272E-01
DAV:   4    -0.672973211628E+02    0.16814E-02   -0.25521E-03   992   0.958E-02    0.140E-01
DAV:   5    -0.672970834095E+02    0.23775E-03   -0.21079E-03  1000   0.846E-02    0.461E-02
DAV:   6    -0.672970980478E+02   -0.14638E-04   -0.29200E-05   624   0.122E-02
 115 F= -.67297098E+02 E0= -.67297098E+02  d E =-.329252E-01  mag=     1.0000
       N       E                     dE             d eps       ncg     rms          rms(c)
DAV:   1    -0.667460524174E+02    0.55103E+00   -0.12216E+03   944   0.625E+01    0.187E+00
DAV:   2    -0.673685338007E+02   -0.62248E+00   -0.61060E+00   984   0.620E+00    0.123E+00
DAV:   3    -0.673627466133E+02    0.57872E-02   -0.95712E-02  1028   0.750E-01    0.816E-01
DAV:   4    -0.673511755816E+02    0.11571E-01   -0.16500E-02   992   0.250E-01    0.480E-01
DAV:   5    -0.673487054646E+02    0.24701E-02   -0.12966E-02  1024   0.212E-01    0.129E-01
DAV:   6    -0.673489677542E+02   -0.26229E-03   -0.18865E-04   704   0.353E-02    0.778E-02
DAV:   7    -0.673492334957E+02   -0.26574E-03   -0.65985E-05   672   0.169E-02    0.306E-02
DAV:   8    -0.673494261558E+02   -0.19266E-03   -0.25940E-05   672   0.106E-02    0.972E-03
DAV:   9    -0.673496039996E+02   -0.17784E-03   -0.93470E-06   656   0.566E-03    0.406E-03
DAV:  10    -0.673497305916E+02   -0.12659E-03   -0.31153E-06   656   0.258E-03    0.221E-03
DAV:  11    -0.673498233579E+02   -0.92766E-04   -0.18242E-06   632   0.160E-03
 116 F= -.67349823E+02 E0= -.67349823E+02  d E =-.856505E-01  mag=     1.0000
[...]
DAV:   5    -0.683473491923E+02    0.14470E-03   -0.21381E-03   988   0.863E-02    0.489E-02
DAV:   6    -0.683473649359E+02   -0.15744E-04   -0.67029E-05   624   0.159E-02
 153 F= -.68347365E+02 E0= -.68347365E+02  d E =-.499584E-01  mag=     1.0000
       N       E                     dE             d eps       ncg     rms          rms(c)
DAV:   1    -0.683007632277E+02    0.46586E-01   -0.12257E+02   944   0.195E+01    0.433E-01
DAV:   2    -0.683587977720E+02   -0.58035E-01   -0.57403E-01   988   0.187E+00    0.366E-01
DAV:   3    -0.683581263549E+02    0.67142E-03   -0.90348E-03  1004   0.230E-01    0.265E-01
DAV:   4    -0.683566094869E+02    0.15169E-02   -0.26222E-03   996   0.990E-02    0.134E-01
DAV:   5    -0.683565073750E+02    0.10211E-03   -0.17126E-03   988   0.777E-02    0.450E-02
DAV:   6    -0.683565226065E+02   -0.15231E-04   -0.61398E-05   620   0.150E-02
 154 F= -.68356523E+02 E0= -.68356523E+02  d E =-.591160E-01  mag=     1.0000
       N       E                     dE             d eps       ncg     rms          rms(c)
DAV:   1    -0.683286876284E+02    0.27820E-01   -0.14704E+02   944   0.212E+01    0.488E-01
DAV:   2    -0.683998199037E+02   -0.71132E-01   -0.70308E-01   968   0.206E+00    0.399E-01
DAV:   3    -0.683990962196E+02    0.72368E-03   -0.11084E-02  1028   0.252E-01    0.285E-01
DAV:   4    -0.683974187265E+02    0.16775E-02   -0.29902E-03   968   0.107E-01    0.144E-01
DAV:   5    -0.683973273032E+02    0.91423E-04   -0.18805E-03  1008   0.810E-02    0.461E-02
DAV:   6    -0.683973420351E+02   -0.14732E-04   -0.76780E-05   616   0.166E-02
 155 F= -.68397342E+02 E0= -.68397342E+02  d E =-.408194E-01  mag=     1.0000
       N       E                     dE             d eps       ncg     rms          rms(c)
DAV:   1    -0.683839855959E+02    0.13342E-01   -0.39268E+01   944   0.109E+01    0.242E-01
DAV:   2    -0.684029291369E+02   -0.18944E-01   -0.18568E-01   968   0.106E+00    0.208E-01
DAV:   3    -0.684027876097E+02    0.14153E-03   -0.28972E-03  1012   0.128E-01    0.151E-01
DAV:   4    -0.684023530841E+02    0.43453E-03   -0.86137E-04   952   0.578E-02    0.757E-02
DAV:   5    -0.684023718868E+02   -0.18803E-04   -0.54190E-04   984   0.437E-02
 156 F= -.68402372E+02 E0= -.68402372E+02  d E =-.458493E-01  mag=     1.0000
       N       E                     dE             d eps       ncg     rms          rms(c)
DAV:   1    -0.683992152903E+02    0.31378E-02   -0.76752E+01   944   0.154E+01    0.348E-01
DAV:   2    -0.684363433296E+02   -0.37128E-01   -0.36062E-01   972   0.146E+00    0.291E-01
DAV:   3    -0.684360007528E+02    0.34258E-03   -0.54614E-03  1024   0.170E-01    0.218E-01
DAV:   4    -0.684350731572E+02    0.92760E-03   -0.21255E-03   972   0.876E-02    0.874E-02
DAV:   5    -0.684350799466E+02   -0.67895E-05   -0.63556E-04  1012   0.498E-02
 157 F= -.68435080E+02 E0= -.68435080E+02  d E =-.327081E-01  mag=     1.0000
       N       E                     dE             d eps       ncg     rms          rms(c)
DAV:   1    -0.683796756508E+02    0.55398E-01   -0.11624E+02   944   0.189E+01    0.442E-01
DAV:   2    -0.684369640207E+02   -0.57288E-01   -0.55030E-01   980   0.181E+00    0.357E-01
DAV:   3    -0.684364137708E+02    0.55025E-03   -0.83533E-03  1016   0.210E-01    0.263E-01
DAV:   4    -0.684350750777E+02    0.13387E-02   -0.30459E-03   996   0.105E-01    0.106E-01
DAV:   5    -0.684350781808E+02   -0.31031E-05   -0.87597E-04  1000   0.588E-02
 158 F= -.68435078E+02 E0= -.68435078E+02  d E =-.327063E-01  mag=     1.0000
       N       E                     dE             d eps       ncg     rms          rms(c)
DAV:   1    -0.684284157197E+02    0.66594E-02   -0.27027E+01   944   0.909E+00    0.204E-01
DAV:   2    -0.684413290939E+02   -0.12913E-01   -0.12483E-01   992   0.860E-01    0.172E-01
DAV:   3    -0.684411898473E+02    0.13925E-03   -0.18844E-03  1048   0.995E-02    0.131E-01
DAV:   4    -0.684409280835E+02    0.26176E-03   -0.94477E-04   996   0.570E-02    0.449E-02
DAV:   5    -0.684410035480E+02   -0.75464E-04   -0.16328E-04   672   0.272E-02
 159 F= -.68441004E+02 E0= -.68441004E+02  d E =-.386317E-01  mag=     1.0000
       N       E                     dE             d eps       ncg     rms          rms(c)
DAV:   1    -0.684442675852E+02   -0.33395E-02   -0.42234E+01   944   0.112E+01    0.216E-01
DAV:   2    -0.684649540676E+02   -0.20686E-01   -0.20023E-01   988   0.108E+00    0.200E-01
DAV:   3    -0.684647816117E+02    0.17246E-03   -0.29813E-03  1044   0.126E-01    0.156E-01
DAV:   4    -0.684642333637E+02    0.54825E-03   -0.75571E-04   984   0.522E-02    0.846E-02
DAV:   5    -0.684641345004E+02    0.98863E-04   -0.81349E-04  1000   0.519E-02
 160 F= -.68464135E+02 E0= -.68464135E+02  d E =-.231310E-01  mag=     1.0000
       N       E                     dE             d eps       ncg     rms          rms(c)
DAV:   1    -0.683212344774E+02    0.14300E+00   -0.31490E+02   944   0.308E+01    0.758E-01
DAV:   2    -0.684793124683E+02   -0.15808E+00   -0.15635E+00   980   0.302E+00    0.555E-01
DAV:   3    -0.684776821520E+02    0.16303E-02   -0.24173E-02  1028   0.362E-01    0.397E-01
DAV:   4    -0.684744566146E+02    0.32255E-02   -0.48876E-03   988   0.133E-01    0.212E-01
DAV:   5    -0.684738926976E+02    0.56392E-03   -0.34271E-03  1008   0.109E-01    0.561E-02
DAV:   6    -0.684739355984E+02   -0.42901E-04   -0.77057E-05   664   0.201E-02
 161 F= -.68473936E+02 E0= -.68473936E+02  d E =-.329321E-01  mag=     1.0000
       N       E                     dE             d eps       ncg     rms          rms(c)
DAV:   1    -0.684631512717E+02    0.10741E-01   -0.35954E+01   944   0.104E+01    0.198E-01
DAV:   2    -0.684803783015E+02   -0.17227E-01   -0.16907E-01  1004   0.988E-01    0.186E-01
DAV:   3    -0.684802672577E+02    0.11104E-03   -0.24882E-03  1048   0.115E-01    0.147E-01
DAV:   4    -0.684799053831E+02    0.36187E-03   -0.65391E-04   996   0.491E-02    0.782E-02
DAV:   5    -0.684799534537E+02   -0.48071E-04   -0.68366E-04  1008   0.482E-02
 162 F= -.68479953E+02 E0= -.68479953E+02  d E =-.389499E-01  mag=     1.0000
       N       E                     dE             d eps       ncg     rms          rms(c)
DAV:   1    -0.684812126219E+02   -0.13072E-02   -0.41801E+01   944   0.111E+01    0.236E-01
DAV:   2    -0.685013257662E+02   -0.20113E-01   -0.19974E-01   992   0.107E+00    0.208E-01
DAV:   3    -0.685010850876E+02    0.24068E-03   -0.28943E-03  1048   0.122E-01    0.158E-01
DAV:   4    -0.685005464319E+02    0.53866E-03   -0.96507E-04   984   0.588E-02    0.741E-02
DAV:   5    -0.685005207856E+02    0.25646E-04   -0.51892E-04   968   0.432E-02
 163 F= -.68500521E+02 E0= -.68500521E+02  d E =-.205673E-01  mag=     1.0000
       N       E                     dE             d eps       ncg     rms          rms(c)
DAV:   1    -0.684553959591E+02    0.45150E-01   -0.11044E+02   944   0.180E+01    0.426E-01
DAV:   2    -0.685100031704E+02   -0.54607E-01   -0.54250E-01   996   0.176E+00    0.335E-01
DAV:   3    -0.685094392751E+02    0.56390E-03   -0.80296E-03  1024   0.204E-01    0.244E-01
DAV:   4    -0.685082515612E+02    0.11877E-02   -0.22498E-03   980   0.909E-02    0.113E-01
DAV:   5    -0.685081869123E+02    0.64649E-04   -0.10272E-03  1016   0.617E-02    0.369E-02
DAV:   6    -0.685081920537E+02   -0.51415E-05   -0.47395E-05   608   0.137E-02
 164 F= -.68508192E+02 E0= -.68508192E+02  d E =-.282386E-01  mag=     1.0000
       N       E                     dE             d eps       ncg     rms          rms(c)
DAV:   1    -0.685064137318E+02    0.17732E-02   -0.63090E+00   952   0.432E+00    0.898E-02
DAV:   2    -0.685094838153E+02   -0.30701E-02   -0.29886E-02  1024   0.413E-01    0.804E-02
DAV:   3    -0.685094628218E+02    0.20993E-04   -0.42587E-04   976   0.468E-02
 165 F= -.68509463E+02 E0= -.68509463E+02  d E =-.295094E-01  mag=     1.0000
       N       E                     dE             d eps       ncg     rms          rms(c)
DAV:   1    -0.685081081040E+02    0.13757E-02   -0.34317E+01   944   0.102E+01    0.241E-01
DAV:   2    -0.685248615942E+02   -0.16753E-01   -0.16359E-01   968   0.978E-01    0.193E-01
DAV:   3    -0.685246847044E+02    0.17689E-03   -0.24554E-03  1048   0.113E-01    0.142E-01
DAV:   4    -0.685243179505E+02    0.36675E-03   -0.99596E-04   972   0.596E-02    0.522E-02
DAV:   5    -0.685243452818E+02   -0.27331E-04   -0.18288E-04   640   0.297E-02
 166 F= -.68524345E+02 E0= -.68524345E+02  d E =-.148825E-01  mag=     1.0000
       N       E                     dE             d eps       ncg     rms          rms(c)
DAV:   1    -0.685142308329E+02    0.10087E-01   -0.28964E+01   944   0.938E+00    0.225E-01
DAV:   2    -0.685284804249E+02   -0.14250E-01   -0.13816E-01   968   0.899E-01    0.179E-01
DAV:   3    -0.685283703403E+02    0.11008E-03   -0.20690E-03  1020   0.103E-01    0.131E-01
DAV:   4    -0.685280856947E+02    0.28465E-03   -0.88692E-04   968   0.565E-02    0.455E-02
DAV:   5    -0.685281162633E+02   -0.30569E-04   -0.13781E-04   624   0.263E-02
 167 F= -.68528116E+02 E0= -.68528116E+02  d E =-.186534E-01  mag=     1.0000
       N       E                     dE             d eps       ncg     rms          rms(c)
DAV:   1    -0.685204505784E+02    0.76351E-02   -0.36178E+01   944   0.105E+01    0.208E-01
DAV:   2    -0.685381576838E+02   -0.17707E-01   -0.17142E-01   968   0.101E+00    0.192E-01
DAV:   3    -0.685380498598E+02    0.10782E-03   -0.25636E-03  1028   0.118E-01    0.147E-01
DAV:   4    -0.685376187072E+02    0.43115E-03   -0.69769E-04   976   0.516E-02    0.774E-02
DAV:   5    -0.685375990043E+02    0.19703E-04   -0.63242E-04  1004   0.471E-02
 168 F= -.68537599E+02 E0= -.68537599E+02  d E =-.948274E-02  mag=     1.0000
       N       E                     dE             d eps       ncg     rms          rms(c)
DAV:   1    -0.685333340936E+02    0.42846E-02   -0.10954E+01   944   0.580E+00    0.118E-01
DAV:   2    -0.685388199361E+02   -0.54858E-02   -0.52525E-02   984   0.560E-01    0.104E-01
DAV:   3    -0.685388072837E+02    0.12652E-04   -0.78574E-04  1004   0.654E-02
 169 F= -.68538807E+02 E0= -.68538807E+02  d E =-.106910E-01  mag=     1.0000
       N       E                     dE             d eps       ncg     rms          rms(c)
DAV:   1    -0.685337381313E+02    0.50818E-02   -0.27611E+01   944   0.922E+00    0.179E-01
DAV:   2    -0.685468244693E+02   -0.13086E-01   -0.12788E-01   980   0.877E-01    0.178E-01
DAV:   3    -0.685466924124E+02    0.13206E-03   -0.18820E-03  1040   0.101E-01    0.142E-01
DAV:   4    -0.685462356706E+02    0.45674E-03   -0.73852E-04   980   0.516E-02    0.710E-02
DAV:   5    -0.685462012751E+02    0.34395E-04   -0.58903E-04  1016   0.452E-02
 170 F= -.68546201E+02 E0= -.68546201E+02  d E =-.739399E-02  mag=     1.0000
       N       E                     dE             d eps       ncg     rms          rms(c)
DAV:   1    -0.685348855954E+02    0.11350E-01   -0.27888E+01   944   0.926E+00    0.180E-01
DAV:   2    -0.685483641483E+02   -0.13479E-01   -0.13150E-01   980   0.887E-01    0.163E-01
DAV:   3    -0.685482568438E+02    0.10730E-03   -0.19532E-03  1032   0.104E-01    0.125E-01
DAV:   4    -0.685479045709E+02    0.35227E-03   -0.53489E-04   984   0.445E-02    0.645E-02
DAV:   5    -0.685478694384E+02    0.35132E-04   -0.48039E-04  1008   0.408E-02
 171 F= -.68547869E+02 E0= -.68547869E+02  d E =-.906215E-02  mag=     1.0000
       N       E                     dE             d eps       ncg     rms          rms(c)
DAV:   1    -0.685422518926E+02    0.56527E-02   -0.26130E+01   944   0.900E+00    0.162E-01
DAV:   2    -0.685546747003E+02   -0.12423E-01   -0.12154E-01   976   0.858E-01    0.158E-01
DAV:   3    -0.685545739684E+02    0.10073E-03   -0.18158E-03  1036   0.102E-01    0.123E-01
DAV:   4    -0.685542449562E+02    0.32901E-03   -0.38486E-04   900   0.384E-02    0.730E-02
DAV:   5    -0.685541792074E+02    0.65749E-04   -0.67173E-04   980   0.483E-02
 172 F= -.68554179E+02 E0= -.68554179E+02  d E =-.630977E-02  mag=     1.0000
       N       E                     dE             d eps       ncg     rms          rms(c)
DAV:   1    -0.685438699262E+02    0.10375E-01   -0.25462E+01   944   0.888E+00    0.162E-01
DAV:   2    -0.685559765388E+02   -0.12107E-01   -0.11861E-01   984   0.847E-01    0.154E-01
DAV:   3    -0.685558808495E+02    0.95689E-04   -0.17719E-03  1024   0.101E-01    0.120E-01
DAV:   4    -0.685555664620E+02    0.31439E-03   -0.37285E-04   856   0.380E-02    0.705E-02
DAV:   5    -0.685555058138E+02    0.60648E-04   -0.63729E-04   992   0.475E-02
 173 F= -.68555506E+02 E0= -.68555506E+02  d E =-.763638E-02  mag=     1.0000
       N       E                     dE             d eps       ncg     rms          rms(c)
DAV:   1    -0.685504281922E+02    0.51383E-02   -0.22611E+01   944   0.840E+00    0.165E-01
DAV:   2    -0.685611581382E+02   -0.10730E-01   -0.10429E-01   968   0.802E-01    0.162E-01
DAV:   3    -0.685611001339E+02    0.58004E-04   -0.16183E-03  1032   0.976E-02    0.121E-01
DAV:   4    -0.685608180758E+02    0.28206E-03   -0.43114E-04   972   0.408E-02    0.713E-02
DAV:   5    -0.685608014383E+02    0.16638E-04   -0.49916E-04  1000   0.418E-02
 174 F= -.68560801E+02 E0= -.68560801E+02  d E =-.529562E-02  mag=     1.0000
       N       E                     dE             d eps       ncg     rms          rms(c)
DAV:   1    -0.685572323973E+02    0.35857E-02   -0.91462E+00   944   0.534E+00    0.108E-01
DAV:   2    -0.685616388466E+02   -0.44064E-02   -0.42522E-02  1008   0.512E-01    0.103E-01
DAV:   3    -0.685616171900E+02    0.21657E-04   -0.65739E-04  1016   0.621E-02
 175 F= -.68561617E+02 E0= -.68561617E+02  d E =-.611138E-02  mag=     1.0000
       N       E                     dE             d eps       ncg     rms          rms(c)
DAV:   1    -0.685573874527E+02    0.42514E-02   -0.18790E+01   944   0.765E+00    0.160E-01
DAV:   2    -0.685661108241E+02   -0.87234E-02   -0.85055E-02   980   0.724E-01    0.160E-01
DAV:   3    -0.685660153070E+02    0.95517E-04   -0.12936E-03  1024   0.859E-02    0.124E-01
DAV:   4    -0.685656868931E+02    0.32841E-03   -0.57641E-04   972   0.455E-02    0.639E-02
DAV:   5    -0.685656629750E+02    0.23918E-04   -0.39265E-04   968   0.377E-02
 176 F= -.68565663E+02 E0= -.68565663E+02  d E =-.404579E-02  mag=     1.0000
       N       E                     dE             d eps       ncg     rms          rms(c)
DAV:   1    -0.685624475498E+02    0.32393E-02   -0.78693E+00   948   0.495E+00    0.106E-01
DAV:   2    -0.685661865925E+02   -0.37390E-02   -0.36465E-02   996   0.473E-01    0.947E-02
DAV:   3    -0.685661618514E+02    0.24741E-04   -0.56298E-04  1008   0.578E-02
 177 F= -.68566162E+02 E0= -.68566162E+02  d E =-.454466E-02  mag=     1.0000
       N       E                     dE             d eps       ncg     rms          rms(c)
DAV:   1    -0.685599893981E+02    0.61972E-02   -0.20538E+01   944   0.800E+00    0.154E-01
DAV:   2    -0.685694976906E+02   -0.95083E-02   -0.92676E-02   972   0.753E-01    0.152E-01
DAV:   3    -0.685693942657E+02    0.10342E-03   -0.13904E-03  1024   0.882E-02    0.120E-01
DAV:   4    -0.685690740589E+02    0.32021E-03   -0.51870E-04   972   0.433E-02    0.618E-02
DAV:   5    -0.685690577653E+02    0.16294E-04   -0.45241E-04  1024   0.396E-02
 178 F= -.68569058E+02 E0= -.68569058E+02  d E =-.289591E-02  mag=     1.0000
       N       E                     dE             d eps       ncg     rms          rms(c)
DAV:   1    -0.685683051753E+02    0.76888E-03   -0.16128E+00   960   0.224E+00    0.486E-02
DAV:   2    -0.685690891508E+02   -0.78398E-03   -0.75338E-03   988   0.214E-01    0.395E-02
DAV:   3    -0.685690925599E+02   -0.34091E-05   -0.10139E-04   584   0.258E-02
 179 F= -.68569093E+02 E0= -.68569093E+02  d E =-.293071E-02  mag=     1.0000
       N       E                     dE             d eps       ncg     rms          rms(c)
DAV:   1    -0.685678597312E+02    0.12294E-02   -0.69010E+00   944   0.464E+00    0.123E-01
DAV:   2    -0.685709991841E+02   -0.31395E-02   -0.31406E-02   972   0.436E-01    0.988E-02
DAV:   3    -0.685709712485E+02    0.27936E-04   -0.52415E-04  1032   0.559E-02
 180 F= -.68570971E+02 E0= -.68570971E+02  d E =-.187869E-02  mag=     1.0000
       N       E                     dE             d eps       ncg     rms          rms(c)
DAV:   1    -0.685709038432E+02    0.95341E-04   -0.26504E-01   972   0.907E-01    0.234E-02
DAV:   2    -0.685710400520E+02   -0.13621E-03   -0.12661E-03   992   0.890E-02    0.108E-02
DAV:   3    -0.685710445918E+02   -0.45398E-05   -0.20973E-05   584   0.131E-02
 181 F= -.68571045E+02 E0= -.68571045E+02  d E =-.195203E-02  mag=     1.0000
       N       E                     dE             d eps       ncg     rms          rms(c)
DAV:   1    -0.685701532975E+02    0.88675E-03   -0.59332E+00   944   0.430E+00    0.976E-02
DAV:   2    -0.685729392199E+02   -0.27859E-02   -0.27414E-02   972   0.411E-01    0.893E-02
DAV:   3    -0.685729198878E+02    0.19332E-04   -0.43168E-04   976   0.511E-02
 182 F= -.68572920E+02 E0= -.68572920E+02  d E =-.187530E-02  mag=     1.0000
       N       E                     dE             d eps       ncg     rms          rms(c)
DAV:   1    -0.685727888848E+02    0.15034E-03   -0.48167E-01   980   0.123E+00    0.506E-02
DAV:   2    -0.685729912355E+02   -0.20235E-03   -0.20602E-03  1024   0.113E-01    0.406E-02
DAV:   3    -0.685729796473E+02    0.11588E-04   -0.42080E-05   592   0.144E-02
 183 F= -.68572980E+02 E0= -.68572980E+02  d E =-.193506E-02  mag=     1.0000
       N       E                     dE             d eps       ncg     rms          rms(c)
DAV:   1    -0.685717145974E+02    0.12766E-02   -0.57534E+00   976   0.424E+00    0.827E-02
DAV:   2    -0.685743457541E+02   -0.26312E-02   -0.25912E-02  1000   0.397E-01    0.773E-02
DAV:   3    -0.685743162733E+02    0.29481E-04   -0.37490E-04   896   0.463E-02
 184 F= -.68574316E+02 E0= -.68574316E+02  d E =-.133663E-02  mag=     1.0000
       N       E                     dE             d eps       ncg     rms          rms(c)
DAV:   1    -0.685742576813E+02    0.88073E-04   -0.36846E-02   988   0.341E-01    0.311E-02
DAV:   2    -0.685742620310E+02   -0.43496E-05   -0.11662E-04   592   0.296E-02
 185 F= -.68574262E+02 E0= -.68574262E+02  d E =-.128238E-02  mag=     1.0000
       N       E                     dE             d eps       ncg     rms          rms(c)
DAV:   1    -0.685733163383E+02    0.94134E-03   -0.48560E+00   944   0.389E+00    0.719E-02
DAV:   2    -0.685755446397E+02   -0.22283E-02   -0.21732E-02   976   0.363E-01    0.692E-02
DAV:   3    -0.685755162836E+02    0.28356E-04   -0.28195E-04   664   0.411E-02
 186 F= -.68575516E+02 E0= -.68575516E+02  d E =-.125425E-02  mag=     1.0000
       N       E                     dE             d eps       ncg     rms          rms(c)
DAV:   1    -0.685753738390E+02    0.17080E-03   -0.27131E-02   968   0.288E-01    0.200E-02
DAV:   2    -0.685753914007E+02   -0.17562E-04   -0.15253E-04   592   0.324E-02
 187 F= -.68575391E+02 E0= -.68575391E+02  d E =-.112937E-02  mag=     1.0000
       N       E                     dE             d eps       ncg     rms          rms(c)
DAV:   1    -0.685755054691E+02   -0.13163E-03   -0.10919E+00   976   0.185E+00    0.433E-02
DAV:   2    -0.685760113458E+02   -0.50588E-03   -0.50185E-03  1000   0.175E-01    0.390E-02
DAV:   3    -0.685760053007E+02    0.60451E-05   -0.68787E-05   592   0.210E-02
 188 F= -.68576005E+02 E0= -.68576005E+02  d E =-.613900E-03  mag=     1.0000
       N       E                     dE             d eps       ncg     rms          rms(c)
DAV:   1    -0.685760084552E+02    0.28906E-05   -0.23594E-03   984   0.873E-02    0.116E-02
DAV:   2    -0.685760105126E+02   -0.20574E-05   -0.82043E-06   592   0.768E-03
 189 F= -.68576011E+02 E0= -.68576011E+02  d E =-.619112E-03  mag=     1.0000
