11
Energy = -10.05001168 eV
Na 15.916132543544869 13.972545332371688 13.529730355000272
Na 15.579119737577598 11.811529277958265 10.853971698100706
Na 12.796760980575977 14.162129704375243 11.700011391939887
Na 13.3305444485672 11.438812114178722 13.682231810242042
Na 13.028015919507352 9.118775670221353 10.995135307699977
Na 12.381668746738752 11.820919272912628 9.087015786233025
Na 10.29376611886152 9.921309110884168 12.88766529777686
Na 9.326652763209896 9.667969461820457 9.610844929822298
Na 10.134179933238238 13.125177458127348 13.97421080146515
Na 9.614954109203296 13.026812398015153 10.61579075912727
Na 7.1023943795372375 11.12945175374648 12.1178193938329
