13
Energy = -11.65104665 eV
Na 11.308732026786279 15.193400705884255 10.44449637293551
Na 14.514456316369335 14.529985611467517 11.616338072235603
Na 9.248105153437 12.591777903400459 9.422193540653224
Na 17.701680805977407 13.346968622179407 12.550140315664192
Na 12.48491489136535 11.815305032871441 10.08951900504918
Na 8.68344519878503 13.863093236496688 12.559015093389236
Na 14.800728847808328 12.1542656928524 14.15056124602363
Na 11.84385014555792 13.393884448187892 13.444796610478681
Na 10.08708775482193 10.593690940451154 12.197122262771792
Na 9.072575838260235 12.03164333445967 15.334043962546978
Na 15.761228793219848 11.202602304696427 10.779056994298296
Na 13.39460806953861 9.362704377970795 12.375550058546152
Na 11.900953224729964 10.23859740484265 15.27080992696952
