16
Energy = -15.47489982 eV
Na 16.44050137896997 11.552594469503122 10.535962296410823
Na 16.50491878018264 14.042785565824426 13.227432111147959
Na 14.219164448038129 12.625401580712996 7.814408713075407
Na 10.905079776323939 12.931816311258292 9.109113966913803
Na 13.944415267186544 14.164664215065578 10.89507931491681
Na 14.686125098653887 10.992346060991284 13.496349886640001
Na 13.282951112842563 10.137455832187456 10.17871857614758
Na 13.20078433276268 14.35130644863152 14.542732354496088
Na 11.322480086187129 12.07552895118956 12.550150287304959
Na 8.031045126238853 12.98037902674961 11.652490408980883
Na 10.68190735448001 15.370643862338381 11.932487393595764
Na 9.48876042030184 9.814755723951912 10.568415026770483
Na 11.764163876079131 11.224185516312906 15.955830691400616
Na 11.837971594449527 8.795982365562226 13.218794222388297
Na 8.674791289324498 10.285610573424286 14.143178980042332
Na 9.41710039208829 13.834726017049666 14.929075570452662
