17
Energy = -16.59817627 eV
Na 11.13787736083398 13.172341865027246 8.338219842659186
Na 11.649969139435886 9.460382186932312 8.28738579484381
Na 14.322597307060168 11.669119917370491 13.39521782382076
Na 7.79825214878089 14.2595435236197 7.941748575766541
Na 8.827466123863912 7.502482316420139 8.103277704743935
Na 11.10051952210383 13.119330622129278 14.133846668358387
Na 8.385852028634032 10.924826840028146 8.909244122147802
Na 11.884759848083764 6.055731735601962 9.425523949268232
Na 6.5692667448949305 8.412113821768726 10.735654197371886
Na 9.117555601594013 14.100762983354288 11.153316637154177
Na 13.626942739129804 8.457742827130106 11.457446705117961
Na 12.776748995675762 14.563499551416495 11.28073325076556
Na 14.382139254185812 11.73550197443722 9.797817450561357
Na 9.899212368200358 7.798226935987145 11.598766318535542
Na 8.284804962510279 10.83767834682881 12.680149417878114
Na 11.376861187002044 11.245628761218127 11.285546345096028
Na 11.694540052691488 9.520451175410617 14.311470580590605
