11
Energy = -9.67224262 eV
Na 13.431904702918944 14.08811922102999 12.976839686610656
Na 12.865869645551879 13.840609864495045 8.97545264056973
Na 13.417642540826083 10.793024212580827 14.402294524673527
Na 11.631134222165997 11.851058796775988 11.318770188725162
Na 12.91634065448388 8.747518357723315 11.31892113500793
Na 9.587763784639282 12.547536816842948 8.293473790845393
Na 12.496680373900428 10.40693067115889 8.000368067082851
Na 10.503284716638422 12.931304890951985 14.696540016721952
Na 8.313834365611063 12.123763533659746 11.778087097599602
Na 9.659676075457845 9.372382537770575 9.785040222585751
Na 10.213401394149345 9.60088500889487 13.621308371902654
