17
Energy = -16.21110953 eV
Na 12.514866766938004 7.596814854132839 11.772506631017375
Na 7.631764106413688 12.428256039297485 8.82987551963172
Na 12.091279339963062 10.918617002515438 5.8681483528701035
Na 12.670948848494588 11.276105424248442 11.823525395956409
Na 9.3921665 6.296720426406987 5.835937202215575
Na 6.113384151505412 11.276105424248442 11.823525395956409
Na 9.3921665 9.392876044124579 10.882235278237193
Na 11.170715345527922 6.370687301595432 8.800746900560219
Na 6.269466233061999 7.596814854132839 11.772506631017375
Na 9.3921665 5.65759290068349 11.812176391859728
Na 9.3921665 9.392809207971654 7.488175241128589
Na 9.3921665 12.965271360578663 11.796400744713434
Na 6.693053660036937 10.918617002515438 5.8681483528701035
Na 7.613617654472079 6.370687301595432 8.800746900560219
Na 5.81634482914144 9.390299532866546 8.831149769963977
Na 12.967988170858554 9.390299532866546 8.831149769963977
Na 11.152568893586318 12.428256039297485 8.82987551963172
