12
Energy = -10.47441477 eV
Na 10.944489345577258 6.081099425212972 8.103360686321624
Na 9.607654371998716 11.50115872689903 9.371163696958149
Na 4.708371259810603 7.3377627297571 7.53915562423936
Na 8.62777773601786 8.142819275878704 9.25600472683075
Na 10.89814998652004 9.479492052604208 6.773689887748375
Na 6.949026679484734 5.138192591708287 9.012586908451834
Na 8.489369320363092 10.04641747914787 4.43697178053405
Na 6.636800241039813 10.225221241543796 7.552710163590721
Na 7.9308169771745085 7.006741311681908 6.055891247876195
Na 11.967520605388527 8.919575912718512 10.198723382279109
Na 5.6357804899116255 8.188957205926421 10.812052035464694
Na 9.055285034841809 9.366811841138013 12.347314379136979
