20
Energy = -20.41433583 eV
Na 10.292016944564146 8.956167893381188 6.4395879309895605
Na 9.95202544547607 12.736244438305125 6.3083100738968145
Na 9.380209749532966 10.840238554663868 9.188086766467704
Na 11.892063484183254 7.928784429074146 9.411049247140426
Na 12.795701917075153 11.168321592583355 7.872952629175987
Na 7.549967012023117 13.763885902698641 9.058488765322368
Na 14.594012550586134 13.181933713293914 10.366145636075862
Na 8.29700064436225 7.600999702959063 9.380869578729335
Na 11.153263543278829 14.061117199639819 9.441342944681589
Na 14.911937067665454 9.51129687679955 10.42353710963416
Na 11.898637108356585 11.115833369490984 11.323335024042928
Na 6.526970287189249 10.719507599347557 11.074838153446645
Na 9.210470812758338 8.944990244021195 12.477659505187933
Na 12.227417608150633 14.212467696514402 12.987057997529442
Na 10.43060366486528 5.668745957376517 11.59845857329519
Na 14.517270423747135 11.381107821875364 13.570348060151415
Na 12.663450832964866 8.182082176980657 13.005960583819903
Na 8.915410907063773 13.126625800529379 12.25329411072786
Na 7.300595977938711 11.1397353857383 14.603283469396063
Na 10.933790718445909 11.202730344954668 14.65821054051666
