24
Energy = -24.57773747 eV
Na 12.405896425142414 11.832251906980096 6.948290011689792
Na 9.083393250472083 13.084401325142407 8.20894181696561
Na 12.424423883535278 14.406646485894194 9.592804016273806
Na 9.25622906417951 9.402753351558543 7.596628925953487
Na 14.859049124050745 11.685478952424107 9.720830209744767
Na 13.095492779326445 8.607411134116678 8.477801402516299
Na 6.151253578219227 11.148339161183008 7.446840252197396
Na 11.266260881526803 11.029660633689739 10.120948441945698
Na 6.221969841157327 13.754062377882025 10.109563599815282
Na 7.791458420326894 10.58096313805389 10.609905380764696
Na 9.518598256450623 13.820331643652217 11.698890001591007
Na 7.223400302256544 12.357667381420379 13.72621736444924
Na 13.754566228183311 9.082970873656523 11.949962916521354
Na 15.408327330100356 14.713573105892946 11.804578439165734
Na 12.8719971795381 12.552521034575685 12.657411761961535
Na 10.473586677227779 7.7942246132500514 10.968016139194132
Na 16.192765716167813 11.390411626386907 13.493036243465054
Na 14.57746399225088 13.996704253972561 15.352734950011016
Na 12.002029469918469 7.289855238729689 14.327237675656056
Na 10.612840604418066 13.310478541304853 15.15760914016633
Na 12.147143077958946 15.898942750377989 13.025218546558142
Na 10.101207857017183 10.228133130096667 13.52422205530997
Na 13.26428306273637 10.516614533824042 15.412589090656219
Na 15.810183490636001 8.029423298731325 14.583542110224876
