28
Energy = -28.89967181 eV
Na 11.492816051505129 13.56277314004353 7.287109616139786
Na 14.837562412368618 13.992804619666845 8.299337189883923
Na 14.262371246275078 10.824969122339526 6.652788168186538
Na 12.904182618447871 16.936583369844257 7.948091646424179
Na 12.516969115722437 11.211141221374874 9.591257224063783
Na 11.57406419300391 14.986207272740458 10.545574101934827
Na 14.001929622851373 8.121464285578774 9.103881747862244
Na 14.542129327383062 13.195280152270767 11.719695141846062
Na 9.22200380480168 12.35677589296299 10.30031227101066
Na 16.3136482811392 10.853783880809745 9.578281044249389
Na 17.640680850007527 14.191181655845476 10.527110540120956
Na 14.849772965521568 16.595016582853155 10.96354116916182
Na 14.243571766184909 9.644396106407822 12.376143073433754
Na 10.758532232280512 8.830059046755586 11.720341420700231
Na 8.378225683733449 11.057834902439785 13.974006502976193
Na 11.546600029949996 12.143275712750805 12.82089755407668
Na 17.266636312822143 11.543106360899131 13.090862866310426
Na 8.848355969957012 7.5405424392206575 14.8262763768093
Na 9.160406056534537 14.59422869908931 13.340245651727875
Na 16.351159285671812 14.98044584122614 13.988314603963643
Na 12.646078045579177 15.501876184503658 13.958984114842146
Na 9.8649615084629 16.383822588255114 16.35159013427346
Na 11.577591367815055 9.536838585805965 15.23689899339184
Na 14.23728858415456 12.158684480730631 15.210003435906449
Na 7.5196161820644205 13.469861902137836 16.61338799576737
Na 8.67620591508114 10.142008530850271 17.33790079923047
Na 10.81118996751671 13.005721549194297 16.213628742946156
Na 12.022883275420787 10.706748545658977 18.490970545015518
