22
Energy = -22.02140496 eV
Na 14.032164023795847 9.164292028247063 10.527906255239813
Na 15.108857571688874 12.537530997020372 16.958307280890946
Na 17.430738167948032 15.164124612470728 15.911879631953546
Na 11.358113904715399 10.726562965742318 15.430658592508628
Na 15.962221257157177 15.582841053903612 12.568275485108439
Na 12.50125879500641 15.278037693053633 11.424112591084096
Na 10.643638217177118 15.912997523173852 14.321761245702925
Na 12.796133890832685 11.98330267950986 8.490893297053509
Na 8.748983799586163 13.12358983226708 15.200662419322507
Na 15.16196576871038 12.510497483019137 10.966230557431752
Na 9.327077154004447 11.336286199800076 9.299590780251275
Na 11.646331218197675 8.12104960613334 12.970625727358353
Na 14.56485349092328 9.876246101535447 13.977699659190849
Na 11.747617756575972 11.56792773422108 11.839426609453943
Na 10.670816343802073 14.69754944163157 8.533031774471548
Na 9.104535001570024 13.99218297956047 11.771729579799805
Na 17.104326737560427 12.347002579152335 13.910929071380616
Na 14.456009810751178 15.214589094361619 8.665825917578239
Na 11.67012638120217 13.901525385665774 17.0896681472815
Na 13.486990420487034 13.324788962234576 14.087637084678645
Na 14.088329643627786 16.223186836842938 15.684026191318127
Na 8.617826223419694 10.423021245880577 12.788586814446383
