24
Energy = -23.41395864 eV
Na 17.59285110857375 9.682593034160249 13.345764735221554
Na 14.55326478722427 7.4257566915520625 12.416306267379943
Na 17.949668723447207 12.679637255327767 11.565030666548958
Na 16.29104638799048 12.55108313757463 14.786925584845592
Na 14.929096986963502 10.825710771947517 11.653497916433848
Na 14.714446154809691 9.484748593061587 15.259613539960053
Na 16.40190045276439 15.515629204735326 12.85529819156442
Na 15.052295104892869 13.781969527567965 9.918042626856014
Na 11.896305240869758 10.097771413435026 13.324112048065608
Na 13.146750916178805 12.185781408191755 16.493946079051323
Na 14.701157894235688 15.205709081864812 15.929727510312915
Na 13.236772186706414 13.50203587698055 13.183076584628505
Na 13.197722219146472 16.588882418227854 11.243375289558802
Na 12.099372078009317 11.812713229685924 10.264428047957074
Na 13.922238922577511 14.794171703180478 19.30640442189817
Na 14.490254384337765 18.123688952737584 14.100315100373894
Na 9.177876383224156 12.927521051102573 8.797546575711905
Na 11.959952486856078 14.859698452059167 8.571176439534682
Na 11.031996843326754 14.778107813651886 17.316008988183345
Na 10.009479223404334 13.020117394544505 14.610432343244474
Na 8.947580705463839 11.312263863083869 11.84799731268628
Na 12.851841934304284 17.776150781556357 17.096496375282598
Na 11.372026714713513 16.29505654042649 14.240659314430028
Na 10.180449378516768 14.690944145584444 11.590438370629181
