35
Energy = -36.94802024 eV
Na 11.201589419366922 11.23247036460836 6.5521076533994895
Na 9.261188745555305 13.599139000036937 8.794731474741956
Na 13.0555243067802 14.401745079713159 7.741911988720809
Na 14.786323477910013 11.19522686347999 7.650771999016785
Na 16.666655767077316 14.380611748754491 7.753751954649002
Na 14.552046722164299 16.92142976382573 10.16827740772332
Na 8.953040087623831 9.950108327576494 9.052819462745235
Na 11.70939217855368 15.03568906399253 11.081423869176616
Na 11.96974927521058 11.746037455135873 9.808963190051065
Na 17.70943689938075 11.353788620281636 9.744006111771702
Na 12.148731626477113 8.383380535526165 8.784834708175795
Na 6.362402795084755 9.810529654801961 11.367373545707744
Na 15.146750093899286 13.516499522388925 10.645470726432368
Na 15.774262609139642 7.878969304980553 8.990042203704531
Na 8.797449697376791 6.988848596213491 11.354825058126892
Na 14.775129159163873 9.908828464900008 11.352256342636966
Na 11.077816580946525 9.368211617993492 12.188840756575086
Na 13.170695546445561 6.657117138677333 11.773532027065867
Na 9.107363374262087 12.248971472916342 12.147257058887911
Na 12.961249614099598 12.180055277238605 13.090915663427074
Na 16.39678299809415 12.247108919789762 13.791780370123451
Na 8.598661130270504 15.813169762354546 12.638738110096124
Na 14.606170172887776 15.486119104463725 13.586479762716552
Na 7.945076748307171 9.285240665691209 14.265787265724148
Na 11.85481300449009 17.72980248368544 13.444048688626062
Na 13.912666753624524 9.240616847845306 14.708519733093867
Na 10.64445739010035 6.926666206584082 14.49938231307852
Na 11.115181526356986 14.378925462076019 14.578223848831364
Na 16.473196144822598 14.949362094534923 16.47670360837149
Na 10.777905619983779 10.813246065062897 15.672203644315038
Na 7.873939362043372 13.138643713695885 15.348703334134111
Na 13.838923099684765 12.665380302206165 16.455710419546
Na 9.383506108543012 16.731127480408528 16.109396975298477
Na 13.093633853624576 16.363079903442316 16.76486279098315
Na 10.592892749656908 13.768457754125295 17.90995057133412
