32
Energy = -33.75578456 eV
Na 13.198396810627214 12.467175147656352 6.544104563957801
Na 12.690732463025576 15.819323263785932 7.880467601887922
Na 9.846947451346855 13.485937761521614 7.586908402934212
Na 15.815362939505636 13.931806469041074 8.903104514778343
Na 11.118527149707752 9.897857383968883 8.325352162883954
Na 14.74238613765401 10.178974140055724 8.953347070986135
Na 12.443467354960154 12.86723136040152 9.726634128931627
Na 17.817895961127682 11.381154873715433 10.564505997284341
Na 13.120295256115893 7.10286082563197 9.71996475828091
Na 13.943978541937506 15.88040895629854 11.40653012768329
Na 10.292256802065271 15.58355999174454 10.83852215811942
Na 14.863035792859746 12.112055699147486 11.977220952828075
Na 9.248913227706153 11.875672888328872 10.9929424268021
Na 11.977896980968318 9.672056345261563 11.824444515622865
Na 17.281538245531525 14.666739243197325 12.30453579511454
Na 15.494534824315165 8.74297159626771 12.108930674804007
Na 11.782733072513762 13.237512575364493 13.005587964299158
Na 11.784085583639744 16.888274477228645 14.276445124802251
Na 8.908983751112153 14.622856257949495 14.429567218174979
Na 14.58708695242722 14.324120810969978 14.66079485511657
Na 15.317848253356276 17.692125595137025 14.602403868503297
Na 9.896465272003427 10.897752364731407 14.790565128118944
Na 13.576910525682058 10.467340554293607 15.03914176807523
Na 11.757916099538344 13.553937466345193 16.320498600172336
Na 16.94369166157186 11.645830072436098 14.867172033949586
Na 10.048580611680775 16.41242984900592 17.438007135420943
Na 13.767030151239247 16.27351004100217 17.483795085739715
Na 8.784441819824835 12.902404882227868 17.862572961695133
Na 17.17449266613203 15.075475212726037 16.623208079287455
Na 14.882010516627238 12.46318293308 17.815959623303506
Na 11.70741294116101 10.568645953152192 18.171885544902306
Na 11.813732135333717 13.938402961624409 19.584467108838478
