47
Energy = -50.74543432 eV
Na 12.498800250999267 12.729797741120617 11.492975029970246
Na 20.091610740952678 17.520907128913368 12.838695356900642
Na 15.054944464927575 14.703070734851172 13.611022951672936
Na 12.477956626075402 9.232423785531909 13.28643396243033
Na 18.12108150787957 12.132601441962379 9.494352496655571
Na 10.558776417461289 17.044548603237867 16.53274748992381
Na 16.834974822779504 17.37329111056127 11.973624882385302
Na 8.361177036561827 10.426287492635506 17.482519700495335
Na 15.265195927646733 9.20176910532497 15.785676998636058
Na 12.745845407138335 6.505554514199905 15.634488791023756
Na 15.753786113110719 14.369357608518357 10.288208744819553
Na 12.209264704283994 18.882860206703864 9.164638961575443
Na 17.538373591006874 16.478852498747813 15.379554893724054
Na 18.987362379463217 15.96776845580712 9.548921399706561
Na 17.50750524111156 19.917943977345033 14.068783636940099
Na 13.632351359326782 7.861977876750121 19.00565494034047
Na 9.492941400848116 9.922500156806409 11.476477397281439
Na 11.03337166881129 10.215564366476833 20.089058637976862
Na 14.402687479548204 11.865077312213451 8.194777899086894
Na 10.104859003593313 11.57060080911261 14.476785351645557
Na 13.870481374807426 15.138120345614762 17.020009098169457
Na 12.738873358700262 9.330500696559572 9.7719638288379
Na 8.036827937307251 13.955732259538879 15.791207015672741
Na 11.345086398818951 15.045747118247458 14.021456438148158
Na 10.943607323286734 13.236705158249773 17.748968745916294
Na 15.298182368799324 7.558189195682572 12.511244421964246
Na 14.164628601608673 18.03630234534925 14.721142726108287
Na 10.533982605998514 12.408881897345804 8.750755101571832
Na 16.699255897149616 12.75979971463317 15.887251966057338
Na 13.413613777687418 16.66050174279527 11.397691576404124
Na 13.391293424012652 12.156808029133089 15.09227988482758
Na 16.706478571752275 14.71518031849996 7.010520684255189
Na 10.06318523737774 7.10693946804327 18.241732697574943
Na 10.136583197911675 15.894364254992285 10.391754871211546
Na 15.664121504331998 17.770159968457268 8.676398096028688
Na 18.473091497114794 14.09865561793791 12.684662203933229
Na 11.753501101334464 9.650084405351732 16.814444115615938
Na 15.891905596972423 11.169250502986774 12.357622516570121
Na 12.996352135426632 15.274457240982459 8.129791438153564
Na 14.570011692315404 20.047422669519133 11.6640085290277
Na 6.904101092065255 10.485402440539207 14.158554515314014
Na 8.218387115804008 16.70427307980212 13.487970400773897
Na 8.465767572654505 13.361272049190022 11.95164986929476
Na 16.233903563372138 9.051367084489677 9.36683329670107
Na 9.347714797538984 7.923892453692374 14.743022257242886
Na 14.133222280709571 11.633118656998063 18.56907322142932
Na 11.108499582388628 18.679642109324167 12.988116710779341
