41
Energy = -43.61037291 eV
Na 15.269314042294877 8.16238846661089 17.7942877477851
Na 17.215297585486603 9.918777563364461 15.130647369485018
Na 13.648384781814174 9.801351469633385 15.168952674318566
Na 15.004857474341788 11.293153058624135 12.125683516102455
Na 11.48105595193456 10.966787504397622 12.404602332777591
Na 18.37694075728574 12.58124348469292 12.842043215214773
Na 16.444465779233223 11.399872871391619 18.235186086296448
Na 12.490922575035722 12.760457069380376 9.490074300870468
Na 18.970220844735938 13.447753149059887 16.44746690503378
Na 16.084216130931274 13.77698115027792 9.746536999128042
Na 12.75583179376138 10.971894335086189 18.455974619028982
Na 15.597336797558723 13.121638718975717 15.200396676748934
Na 14.18887135471993 15.443297553805436 7.204650007717623
Na 12.044503096202442 12.949918527531663 15.22430154562482
Na 19.4931499401305 14.974180230984821 10.430690276675008
Na 19.75772614186997 17.1477857226054 17.748022266146204
Na 20.11194154891377 15.914686078976619 13.98489786778948
Na 17.4754376280205 16.577348492799143 7.895901592327691
Na 13.487508750930619 14.518128391769853 12.283834424149777
Na 10.109221592590506 14.284122659513605 12.407343227953454
Na 10.147396294584558 13.699756755836894 17.962599030977593
Na 11.572140738255305 16.1978107751336 9.62773430163235
Na 17.32379384157524 14.740099740021838 19.35508568838052
Na 11.666725140256133 13.678772062478652 21.107797714153264
Na 16.713499515067767 15.603946978294267 12.698297721089983
Na 18.45427015638756 18.277318321479584 11.32260658016698
Na 14.89314427602692 17.417413570406875 10.25387221620628
Na 13.938343416804791 14.212810717773541 18.258921381554806
Na 14.954799638874483 12.502955733037869 21.291952047698732
Na 10.525143535033424 16.287181719498584 15.484541020456877
Na 19.268044077950204 19.229280368210205 14.729217822728437
Na 11.770531513386908 16.997755219832953 18.86892084338897
Na 13.894763320315779 16.235802277523554 15.3571426496893
Na 17.177951910486147 16.473098259046388 15.946837575481139
Na 12.223097435496504 17.950398414658675 12.710809451866396
Na 15.665384085628235 18.92656371994191 13.635882845133622
Na 14.293436668821743 15.994070931145341 21.51486300776465
Na 16.589054017545212 20.152009486337107 16.968122247303473
Na 15.377156673110695 17.515951271088817 18.58375340083624
Na 13.558174264679087 20.20236531147325 19.602675587816215
Na 12.933776697964928 19.396465414428704 16.20352271190647
