47
Energy = -50.53536663 eV
Na 17.745557447261607 10.09205365745726 10.298897592155257
Na 9.391095830881008 16.250564636236767 11.22029647308444
Na 17.883919259025433 13.999142317895206 10.462384664220245
Na 16.976882871332734 14.451236766713452 15.878440283060076
Na 11.6015713550397 10.435048519851579 10.491426296039473
Na 8.004693607854223 13.721095924695673 17.993242065003418
Na 9.872310520032572 14.022058505948866 5.797110074109151
Na 16.968133304178302 11.926303088967625 13.306731425502228
Na 8.256833014168427 15.285637977141658 14.599931700007005
Na 14.5324748055071 9.387235081965388 8.270342012765976
Na 10.60877061604954 9.51955767332701 14.10077239305931
Na 14.160469169494926 17.18946546838649 15.560673796196246
Na 11.04684071854935 18.522766289646512 14.207246103250819
Na 14.760059640001028 19.949709792790944 13.575212601928149
Na 14.990498101345894 15.496463891168622 8.984433256751592
Na 10.896022072270672 16.03202546253473 17.22894646464894
Na 11.421627754833828 16.273071481812334 8.095299954567732
Na 20.063336590194773 15.711364826943795 16.99603288112344
Na 6.522326548230097 13.667153226986958 11.671938077863949
Na 7.754092533216855 10.330838080126217 11.26739095192533
Na 19.650656980900575 12.203741631390018 15.623735425325831
Na 14.718986642524138 8.834406886616666 11.810554004825516
Na 9.045225756202607 13.162218220126672 9.040794729981112
Na 11.827724923062451 15.206459817099702 13.88549409027371
Na 14.38746643304091 8.398273675320088 15.185420522950809
Na 12.227089828424589 14.154037662583184 10.68877385257278
Na 13.038453180632306 17.620846194903528 11.253951717242371
Na 17.84146713258889 8.73424129563462 14.049944324696122
Na 14.857875458353623 12.097314112967283 10.4412981315133
Na 17.55195080858265 18.005076676204116 15.36887621109692
Na 13.76954213554296 13.768393192612344 16.648698824402608
Na 10.502693124890186 12.657475044868253 15.886468920826422
Na 13.356138299089269 11.761941049518 13.71389039816689
Na 12.765920588352058 10.377577806656246 17.540900546967354
Na 9.102162674481486 10.167654942364567 17.729836313160344
Na 14.939048553862621 12.53524338078018 19.708279699666885
Na 12.706427245256211 12.716769531101937 7.540340534070441
Na 9.749597862585537 12.714718116527175 12.509371962142152
Na 7.253778463079704 11.576858369461117 14.68746161123241
Na 19.18584974970608 15.353424815463082 13.473377204994843
Na 16.65138365638034 12.269805354498803 7.5476468629713045
Na 16.35586958312952 10.981367380115467 16.717293757427548
Na 16.80751968439537 17.61201008639625 11.681808032658166
Na 15.168761016687219 14.89916448639918 12.832267791675394
Na 11.315262351427469 13.041905606730367 19.29533789202476
Na 15.823039207900045 16.021161168335574 18.635795503596977
Na 18.38858655922524 13.31111448450101 18.941625726045032
