50
Energy = -54.2625707 eV
Na 14.38422786419931 13.919736497306179 6.901309894927187
Na 14.221883178438306 17.38371339020488 7.985597753610942
Na 19.133471437323443 10.029889868718563 8.94076845925777
Na 17.90870918316923 13.655798494592506 8.807960336250506
Na 15.445235738744335 10.7544918712293 8.359532828686277
Na 8.864213903026704 12.841938869823533 10.58060193000458
Na 11.19249067281142 15.110779414070558 8.78712262570875
Na 15.1859007925203 19.47619970472799 11.438739116133416
Na 19.510974673061856 8.913788658201351 12.372966260800707
Na 12.253724112828522 11.844530473795306 9.741540416969821
Na 8.922546852758451 16.155034601928993 11.885037994193198
Na 17.113841218346312 17.023335533498006 9.868680133107976
Na 14.661880099586048 14.395806839921395 10.204422226667402
Na 20.295652343208253 15.9232519935612 11.178253461912213
Na 16.684449711192396 7.7730848340279755 10.38844390368613
Na 20.35312585241267 12.443669953280391 11.55776102219496
Na 12.212895151450423 17.68488280964713 10.843406384680115
Na 16.993398919489643 11.128393771332837 11.336455334087937
Na 7.4296114624682055 13.248677234205148 14.142407743091635
Na 10.687896348713188 11.23537818477334 13.191127265870016
Na 11.794009389171629 14.384529239190968 12.283337114878506
Na 13.605967618378722 9.25310437685501 11.64527285603171
Na 17.426708018779564 14.437572447009703 12.338442577417034
Na 11.32274586371685 18.02102841837304 14.294148875188174
Na 14.473081574978522 16.299110678431877 13.228910126964786
Na 14.506366265302692 12.255785573828884 13.195172638944047
Na 16.268775943886588 8.881525182527636 14.0867766971603
Na 14.969998424825949 19.165149140502407 15.097518147742145
Na 7.467260943985261 16.99942090100088 15.225178702375196
Na 18.399351204992463 11.726856571770634 14.672683829763713
Na 17.878700454166975 17.929024334199006 13.556660102826914
Na 10.15478589438525 14.91251376267245 15.255616554074503
Na 12.814737238391928 9.527792600853763 15.529357713254681
Na 19.688294106892887 15.127412451593782 14.886906664464576
Na 16.14579350384656 14.412442155038967 15.582411662773513
Na 12.880097503907415 13.005334403156636 15.942798044566254
Na 9.570478429831518 11.494258936631832 16.65748290706811
Na 13.380503752463493 16.46967456799323 16.74345151313079
Na 15.76359140822445 11.087044098625494 17.07165021979628
Na 7.564023465220031 14.385722798912509 17.72665525502689
Na 9.968057535321822 17.594192639543568 17.781170084222126
Na 18.400653798093998 13.620654666939272 18.03303203184699
Na 11.122214579748732 14.279295099358809 18.573952079115415
Na 17.251008661407333 17.128881881214603 17.28403458755871
Na 12.417146092277774 10.978429414288915 18.97343245849547
Na 14.864756921474688 14.129476846427014 19.08888902178723
Na 9.131676294735835 12.134961625819225 20.36373913800849
Na 12.651489522401596 16.878125966782438 20.34497012851767
Na 9.237327780783975 15.697761627538092 20.97111300968076
Na 12.137635388373202 13.553901689787503 21.76646726119241
