53
Energy = -56.00462847 eV
Na 19.629321546744276 9.398101655144009 16.279972473591446
Na 17.02888835549893 10.781190329655885 18.667040294207787
Na 16.509100219798864 7.860991481542208 16.54426424082123
Na 19.462138496047196 12.773103386777674 16.984692237548956
Na 17.632186197477402 14.030243529725077 20.086694268424104
Na 19.04917989338767 17.118355436087477 20.77501701432792
Na 18.059045492442166 8.607339861805903 13.241329086992288
Na 19.67556950885445 11.751668591724712 13.509619764931347
Na 19.851803804909324 16.138854556961647 17.59735665261388
Na 16.68956754442234 11.163204731541418 15.100908098430562
Na 18.720202436364403 19.68182531834095 18.382785418357276
Na 13.832217023580581 10.04038338816063 16.87685116933993
Na 14.219145592978295 12.63799490985161 19.765303907566295
Na 18.239817914053713 15.075216507862322 14.482402361743256
Na 14.269424818463257 15.95835533009312 20.845764536216137
Na 19.17549430899992 18.401122026135894 15.075627536754032
Na 16.09276924848602 18.675020396413277 21.51463420203664
Na 14.572618825747247 8.341514257023803 13.743204302816668
Na 16.056176091102913 13.871734761912895 17.006388620183294
Na 16.44628972151033 11.313394291033955 11.414191405549758
Na 18.91969877437035 13.956443226931336 11.131779507654882
Na 16.453486039988878 17.05472132252342 18.325538500666532
Na 19.34040846133208 17.384501736582973 11.808108353385823
Na 11.220617654227683 11.13574600538058 18.93617038984475
Na 11.348400409896088 15.017183894892128 19.42438526079577
Na 19.449467487633306 16.06662026773438 8.4763139833718
Na 12.727344850880394 13.45959912343985 16.497477672103006
Na 13.13717922601408 9.484045479495926 10.901956567947163
Na 15.616869210217052 21.038603425381694 19.195412638215437
Na 13.712167098462468 11.765441670459218 13.576143888694908
Na 16.01148366171505 19.700921017369094 16.049165632099356
Na 9.21627838820378 13.452059471222793 17.304084130128278
Na 16.195270741239312 18.35431807752446 12.965863338828735
Na 16.61017806217774 17.69584766154394 9.625563268177554
Na 13.150511975554831 18.23458297408388 18.127059115185595
Na 15.554995559995355 14.685269438972577 12.355966786436754
Na 14.546138516109147 16.340045563904283 15.366857244924129
Na 12.176994176957805 14.71985331190241 13.119595695105033
Na 10.932983931733377 16.37906813725335 16.06218109381986
Na 16.30890483671836 14.260143992973573 8.775979486502594
Na 8.817295134967221 14.095707961049962 13.901980425558316
Na 13.23188203704993 21.782559204966528 16.99496606429949
Na 13.370036558456897 12.7528848337196 10.022189486510852
Na 10.691034292746663 10.692324618619017 15.348427407368025
Na 13.88670937897992 21.088427998093405 13.656678304636033
Na 14.05677982033564 19.846078407168367 10.358074388992002
Na 13.50807852737282 16.180631482466 9.890875827133732
Na 10.88062900952189 19.79546717069889 15.42638556136676
Na 9.208442783551506 17.38892360946614 13.15291551716344
Na 10.279455880781292 14.64973581600655 10.291782767339877
Na 10.497738139994398 11.618563638467732 11.908055035800055
Na 12.590439747265776 18.07936431833566 12.987568888012744
Na 10.681498669918662 18.127120576451897 10.010698191682012
