52
Energy = -56.60077659 eV
Na 11.550071510046338 12.978561559165414 7.235039109850686
Na 14.420895539948614 14.869796127878283 7.448759600450795
Na 10.800477247883222 16.594029844552487 7.671498511962601
Na 8.342904418838955 13.073622122206869 8.363154037331569
Na 10.561763876297077 9.967466183599331 8.712696473007256
Na 7.371830176073984 10.07558663376764 10.23959536429113
Na 13.744957890464843 11.799244631666552 9.872942989597862
Na 14.15926666213781 17.908641439523702 9.199444212484712
Na 16.17968061094298 14.730655497678889 10.724384554803315
Na 8.595611121605693 15.765944304965746 10.593850873007229
Na 16.742631616533956 9.793903427856044 10.017502939420721
Na 12.28635313120086 15.038625762195233 10.187139973828307
Na 17.305774040569123 18.10264829812706 11.029754527447095
Na 6.271050744652635 13.215120979517131 11.33356366397612
Na 19.135539494861234 12.574786493958653 10.680797384444576
Na 9.916297164267391 8.441654260482762 11.973774855160405
Na 16.552814196336254 11.66613440812549 12.883348714439574
Na 19.319971117018024 9.428633123158974 12.593749177675281
Na 10.116547917535737 12.260181138387996 11.587740748215026
Na 11.131693558322302 18.417155661174284 11.136408104972766
Na 13.260477629409472 8.201835516662854 10.36349821561318
Na 14.344922319349612 17.289697190155877 12.836635999161144
Na 19.591629792948023 15.656621292713758 12.426703884331967
Na 13.709252851995215 13.655129074729418 13.01637104012139
Na 15.977572578271824 8.0360787107567 13.101397859042322
Na 7.622145113328615 10.697960889606232 13.872342736360434
Na 13.025398725959665 10.221044515022362 13.25258982629307
Na 12.525030929644743 6.7402732607689995 13.656310624539033
Na 19.82423974787196 12.572068827385136 14.364382018668758
Na 11.62771367392385 18.638832075126256 15.076534285496436
Na 10.949265976258891 15.689646989203352 13.37735896764068
Na 18.132655413200208 18.236463325805587 14.518021151819969
Na 16.823122131770642 14.96658991026198 14.60561709204653
Na 8.4990794622117 12.208722888012783 17.233798661323984
Na 8.28145028223201 17.8561799389339 13.595165200566012
Na 17.76869660749036 9.89230080095595 15.800945416826908
Na 20.049684293679814 15.70754377408891 16.100404346807228
Na 11.121691918819707 12.686561030335525 15.256487094249158
Na 10.395765246241819 9.180782927569673 15.483117322642087
Na 14.839936423367304 12.086056765716265 16.04302529670839
Na 14.333873597029047 8.512938844667554 16.260126491326385
Na 15.064112395933426 18.792946544791004 16.062218358379596
Na 13.480356959328974 15.498503741700222 16.06031418303442
Na 7.84390210863337 14.222068122308437 14.224414239565359
Na 9.694428392596352 16.046743764078744 16.70220291885571
Na 18.1601722404923 13.076643755441967 17.68507905078231
Na 16.984749697777758 16.59480713985809 17.8925693595197
Na 12.31839908460957 10.845624615879329 18.17170105461529
Na 16.022125116409267 10.397622353001678 18.932484139083417
Na 11.364972993327504 14.082277788494467 18.912294643792315
Na 14.918232104753127 13.99556673699434 19.08362276768126
Na 13.234365927808625 17.307028763195717 18.84267370895049
