5
Energy = -3.72819541 eV
Na 13.423941852982017 12.467694241497089 9.72749604478705
Na 12.45588370234459 10.175643241123149 12.043665082486479
Na 9.258277839520975 8.733987735176331 11.786378026702595
Na 10.257598418232098 11.219046886709366 9.501492249579035
Na 7.100041858097574 9.899338338704133 9.413733256125573
