52
Energy = -56.0918637 eV
Na 16.388147113101923 12.95142448991132 21.327503167128643
Na 15.065948287324556 16.28372929130236 21.812672245681615
Na 12.731177651471402 13.973395100968954 20.31997463182691
Na 13.089053773656037 17.292824663238566 18.765047781874294
Na 16.36847289376479 18.811848083637035 19.481272791560777
Na 18.52554461798959 16.018657554962925 20.678805708178338
Na 11.249755030655502 18.267062426564088 15.621134037731743
Na 14.444708735195066 19.795479878042947 16.364068315590764
Na 13.689760469804266 10.515245760401974 19.76879053031035
Na 17.63553208701656 21.104881068580315 17.01666330830901
Na 10.72579121234626 14.946509751179516 17.096833974134846
Na 10.374603185906153 11.792122035141995 18.671737125880494
Na 15.848970960732299 15.000591703037696 18.60780622448997
Na 16.290723873614503 21.586006750956432 13.534057674572209
Na 19.826650102936696 18.560314602082443 18.333768224753296
Na 12.626722970953702 20.795604532318407 13.309529266982974
Na 9.30958538773419 19.071071479626468 12.772749987206993
Na 17.272626340393604 17.289585872408512 16.386240248448583
Na 13.923324606076424 16.029688155787966 15.54519409304933
Na 19.379633975912938 13.83429166074965 17.967701561912193
Na 9.53075520089905 15.536386871082986 13.69538868757733
Na 15.294218851099135 8.32043491607397 17.331733358315915
Na 16.67754625218688 11.422844654998611 18.2141714550593
Na 13.538038162146544 12.721215820154827 17.014220286330346
Na 9.415862856409893 12.085013916360278 15.16514189560981
Na 19.254991769285315 19.40066137954905 14.37888600142947
Na 18.08167337571072 19.353536599845086 11.024868023245087
Na 15.703919931857213 18.20969896241853 13.279701635474181
Na 9.78108888756607 12.805925059211201 11.407475570278143
Na 20.57918421080892 16.280911556195036 15.55100563596054
Na 12.289220288038164 13.296799060668201 13.759873160200767
Na 17.15174001750142 13.80052006371146 15.31318225654006
Na 15.351475350140953 10.757828151849786 14.536185904337309
Na 14.582877093737856 20.1348175122306 10.408230641666279
Na 12.091588858202755 9.594425511047094 16.364972780318066
Na 9.647407943101468 16.460055753458494 10.118358769371138
Na 12.459410544671503 17.253586457971732 12.157237250966805
Na 17.59480521712123 7.650987632071824 14.779511241025766
Na 19.064922697743395 10.565415366161728 15.980592965914767
Na 15.826285034467842 16.691824044545797 9.923555913456381
Na 11.423642031416714 9.869530618113577 12.928950555626432
Na 18.548485341075363 16.050025737198492 12.641057391959121
Na 20.491757338880397 13.090324202397927 14.059454945357766
Na 10.996796553244971 20.207648267321566 10.012779586901818
Na 12.652749774146955 14.410067871901434 9.980101032264276
Na 15.18697168880157 14.596939966576366 12.525447622395745
Na 14.085247671800715 11.39530810109816 11.16332155357234
Na 13.99425374866784 7.5674918998540575 13.90339078436457
Na 12.637813349172529 17.625931053048337 8.434950589273845
Na 16.571370360629047 8.872385297003309 11.67454845792579
Na 17.73799671787246 12.328505907389042 11.858842475742582
Na 19.952976348511527 9.69253891576315 12.735328660683576
