5
Energy = -3.72826054 eV
Na 8.717110414755739 13.512892523712553 11.163595297060716
Na 11.677433191726967 8.478135112792586 7.622809997779997
Na 9.47333859002214 10.60923944494022 12.732547735175087
Na 10.174893312574387 11.044164061672106 9.31089470124106
Na 11.035760456414517 8.034844835735022 10.92208809001681
