6
Energy = -4.68192633 eV
Na 10.875415777667714 8.978717 9.480639577853411
Na 8.978717 6.137951210885908 10.339518850349632
Na 8.978717 7.174330174535571 7.1159925717969505
Na 7.082018222332293 8.978717 9.480639577853411
Na 8.978717 10.78310382546443 7.1159925717969505
Na 8.978717 11.819482789114092 10.339518850349632
