9
Energy = -7.68594373 eV
Na 13.040960896644473 14.389334942496747 10.144839325092319
Na 10.910111804694324 14.879360176915464 12.767977303410072
Na 14.183406924698744 12.48771988934152 12.665219750180501
Na 12.683389164735805 13.812699806930052 15.388581911163762
Na 9.83816682456395 12.898468971679995 10.337528407579777
Na 11.054919671665978 11.346187330296807 13.089294803668816
Na 12.915443477878863 10.885426986833886 10.062561256741013
Na 9.67826633858046 9.556598228368518 10.153405922799019
Na 12.255943308152021 7.4781041558290475 10.02353244947181
