 running on   64 total cores
 distrk:  each k-point on   64 cores,    1 groups
 distr:  one band on   16 cores,    4 groups
 using from now: INCAR     
 vasp.5.3.5 31Mar14 (build Feb 01 2018 12:10:03) gamma-only                     
  
 POSCAR found type information on POSCAR  Ag
 POSCAR found :  1 types and      36 ions
 scaLAPACK will be used

 ----------------------------------------------------------------------------- 
|                                                                             |
|  ADVICE TO THIS USER RUNNING 'VASP/VAMP'   (HEAR YOUR MASTER'S VOICE ...):  |
|                                                                             |
|      You have a (more or less) 'large supercell' and for larger cells       |
|      it might be more efficient to use real space projection opertators     |
|      So try LREAL= Auto  in the INCAR   file.                               |
|      Mind: At the moment your POTCAR file does not contain real space       |
|       projectors, and has to be modified,  BUT if you                       |
|      want to do an extremely  accurate calculation you might also keep the  |
|      reciprocal projection scheme          (i.e. LREAL=.FALSE.)             |
|                                                                             |
 ----------------------------------------------------------------------------- 

 LDA part: xc-table for Pade appr. of Perdew
 POSCAR, INCAR and KPOINTS ok, starting setup
 WARNING: small aliasing (wrap around) errors must be expected
 FFT: planning ...
 WAVECAR not read
 entering main loop
       N       E                     dE             d eps       ncg     rms          rms(c)
DAV:   1     0.334660530427E+04    0.33466E+04   -0.78924E+04  1056   0.613E+02
DAV:   2     0.619970054838E+03   -0.27266E+04   -0.24536E+04  1696   0.158E+02
DAV:   3    -0.464674569222E+02   -0.66644E+03   -0.60548E+03  1296   0.847E+01
DAV:   4    -0.765829364459E+02   -0.30115E+02   -0.29860E+02  1112   0.194E+01
DAV:   5    -0.770217067848E+02   -0.43877E+00   -0.43822E+00  1160   0.276E+00    0.351E+01
DAV:   6    -0.281324137275E+02    0.48889E+02   -0.15228E+02  1048   0.168E+01    0.184E+01
DAV:   7    -0.249159252392E+02    0.32165E+01   -0.79645E+00  1064   0.545E+00    0.115E+01
DAV:   8    -0.204098951353E+02    0.45060E+01   -0.28227E+00  1096   0.425E+00    0.617E+00
DAV:   9    -0.261920823946E+02   -0.57822E+01   -0.13854E+00  1080   0.218E+00    0.401E+00
DAV:  10    -0.383402578764E+02   -0.12148E+02   -0.38906E+00  1080   0.281E+00    0.366E+00
DAV:  11    -0.445622151670E+02   -0.62220E+01   -0.20651E+00  1088   0.217E+00    0.274E+00
DAV:  12    -0.558970097897E+02   -0.11335E+02   -0.53196E+00  1040   0.263E+00    0.241E+00
DAV:  13    -0.596751848331E+02   -0.37782E+01   -0.10178E+00  1088   0.154E+00    0.179E+00
DAV:  14    -0.658198775912E+02   -0.61447E+01   -0.19518E+00  1040   0.159E+00    0.196E+00
DAV:  15    -0.671924493531E+02   -0.13726E+01   -0.18644E-01  1104   0.738E-01    0.150E+00
DAV:  16    -0.703834844766E+02   -0.31910E+01   -0.67863E-01  1032   0.105E+00    0.937E-01
DAV:  17    -0.729207592682E+02   -0.25373E+01   -0.45194E-01  1040   0.698E-01    0.536E-01
DAV:  18    -0.742906067712E+02   -0.13698E+01   -0.12485E-01  1072   0.394E-01    0.369E-01
DAV:  19    -0.754533531266E+02   -0.11627E+01   -0.79354E-02  1072   0.299E-01    0.200E-01
DAV:  20    -0.758278581096E+02   -0.37450E+00   -0.14884E-02  1088   0.129E-01    0.116E-01
DAV:  21    -0.759689344480E+02   -0.14108E+00   -0.41632E-03  1088   0.749E-02    0.601E-02
DAV:  22    -0.760352663291E+02   -0.66332E-01   -0.21625E-03   880   0.571E-02    0.422E-02
DAV:  23    -0.760423390933E+02   -0.70728E-02   -0.10005E-03   760   0.375E-02    0.250E-02
DAV:  24    -0.760512869272E+02   -0.89478E-02   -0.30566E-04   720   0.209E-02    0.163E-02
DAV:  25    -0.760562458342E+02   -0.49589E-02   -0.18026E-04   728   0.151E-02    0.114E-02
DAV:  26    -0.760599232374E+02   -0.36774E-02   -0.75584E-05   728   0.123E-02    0.851E-03
DAV:  27    -0.760623639050E+02   -0.24407E-02   -0.41547E-05   736   0.744E-03    0.489E-03
DAV:  28    -0.760630134901E+02   -0.64959E-03   -0.10949E-05   688   0.515E-03    0.266E-03
DAV:  29    -0.760631998495E+02   -0.18636E-03   -0.51909E-06   696   0.331E-03    0.168E-03
DAV:  30    -0.760631922891E+02    0.75604E-05   -0.33810E-06   688   0.248E-03
   1 F= -.76063192E+02 E0= -.76063192E+02  d E =-.760632E+02  mag=    -0.0000
 curvature:   0.00 expect dE= 0.000E+00 dE for cont linesearch  0.000E+00
 trial: gam= 0.00000 g(F)=  0.410E-01 g(S)=  0.000E+00 ort = 0.000E+00 (trialstep = 0.100E+01)
 search vector abs. value=  0.410E-01
 bond charge predicted
       N       E                     dE             d eps       ncg     rms          rms(c)
DAV:   1    -0.761017678231E+02   -0.38568E-01   -0.27527E+00  1072   0.282E+00    0.117E-01
DAV:   2    -0.761030498115E+02   -0.12820E-02   -0.12601E-02  1080   0.266E-01    0.838E-02
DAV:   3    -0.761030422170E+02    0.75945E-05   -0.20425E-04   672   0.351E-02
   2 F= -.76103042E+02 E0= -.76103042E+02  d E =-.398499E-01  mag=    -0.0000
 ZBRENT: can't locate minimum, use default step
 trial-energy change:   -0.039850  1 .order   -0.039319   -0.040982   -0.037656
 step:   4.0000(harm= 12.3223)  dis= 0.02002  next Energy=   -76.315690 (dE=-0.252E+00)
 bond charge predicted
       N       E                     dE             d eps       ncg     rms          rms(c)
DAV:   1    -0.761964667702E+02   -0.93417E-01   -0.24829E+01  1032   0.849E+00    0.346E-01
DAV:   2    -0.762075541315E+02   -0.11087E-01   -0.11352E-01  1088   0.797E-01    0.247E-01
DAV:   3    -0.762072938119E+02    0.26032E-03   -0.19987E-03  1112   0.105E-01    0.155E-01
DAV:   4    -0.762071696366E+02    0.12418E-03   -0.96770E-04  1088   0.604E-02    0.253E-02
DAV:   5    -0.762071613092E+02    0.83274E-05   -0.28568E-05   624   0.175E-02
   3 F= -.76207161E+02 E0= -.76207161E+02  d E =-.143969E+00  mag=    -0.0000
 curvature:  -2.83 expect dE=-0.691E-01 dE for cont linesearch -0.669E-01
 ZBRENT: increasing intervall
 opt :  10.0000  next Energy=   -76.354695 (dE=-0.292E+00)
 bond charge predicted
       N       E                     dE             d eps       ncg     rms          rms(c)
DAV:   1    -0.763067819792E+02   -0.99612E-01   -0.99276E+01  1024   0.170E+01    0.650E-01
DAV:   2    -0.763513610623E+02   -0.44579E-01   -0.45363E-01  1080   0.160E+00    0.477E-01
DAV:   3    -0.763503366203E+02    0.10244E-02   -0.75345E-03  1080   0.204E-01    0.312E-01
DAV:   4    -0.763496985035E+02    0.63812E-03   -0.42038E-03  1080   0.123E-01    0.555E-02
DAV:   5    -0.763496712269E+02    0.27277E-04   -0.10488E-04   664   0.355E-02
   4 F= -.76349671E+02 E0= -.76349671E+02  d E =-.286479E+00  mag=    -0.0000
 curvature:  -6.24 expect dE=-0.716E-01 dE for cont linesearch -0.438E-01
 ZBRENT: increasing intervall
 opt :  22.0000  next Energy=   -76.383212 (dE=-0.320E+00)
 bond charge predicted
       N       E                     dE             d eps       ncg     rms          rms(c)
DAV:   1    -0.762103302222E+02    0.13937E+00   -0.39959E+02  1024   0.342E+01    0.126E+00
DAV:   2    -0.763917875403E+02   -0.18146E+00   -0.18459E+00  1088   0.324E+00    0.911E-01
DAV:   3    -0.763881984248E+02    0.35891E-02   -0.29247E-02  1072   0.404E-01    0.620E-01
DAV:   4    -0.763851982117E+02    0.30002E-02   -0.15969E-02  1088   0.238E-01    0.128E-01
DAV:   5    -0.763851986306E+02   -0.41886E-06   -0.41436E-04   928   0.683E-02
   5 F= -.76385199E+02 E0= -.76385199E+02  d E =-.322006E+00  mag=    -0.0000
 curvature:  -4.78 expect dE=-0.111E+00 dE for cont linesearch -0.119E-01
 ZBRENT: bracketing found
 ZBRENT: interpolating
 opt :  17.5258  next Energy=   -76.407754 (dE=-0.345E+00)
 bond charge predicted
       N       E                     dE             d eps       ncg     rms          rms(c)
DAV:   1    -0.763857770343E+02   -0.57882E-03   -0.55262E+01  1024   0.127E+01    0.459E-01
DAV:   2    -0.764107744132E+02   -0.24997E-01   -0.25448E-01  1072   0.119E+00    0.329E-01
DAV:   3    -0.764101480053E+02    0.62641E-03   -0.42427E-03  1088   0.149E-01    0.212E-01
DAV:   4    -0.764098033688E+02    0.34464E-03   -0.23214E-03  1072   0.906E-02    0.428E-02
DAV:   5    -0.764098065256E+02   -0.31568E-05   -0.50929E-05   688   0.261E-02
   6 F= -.76409807E+02 E0= -.76409807E+02  d E =-.346614E+00  mag=    -0.0000
 curvature:  -9.09 expect dE=-0.119E+00 dE for cont linesearch -0.125E-03
 trial: gam= 0.33823 g(F)=  0.131E-01 g(S)=  0.000E+00 ort =-0.751E-03 (trialstep = 0.431E+01)
 search vector abs. value=  0.173E-01
 bond charge predicted
       N       E                     dE             d eps       ncg     rms          rms(c)
DAV:   1    -0.764495254694E+02   -0.39722E-01   -0.21561E+01  1024   0.789E+00    0.246E-01
DAV:   2    -0.764594224728E+02   -0.98970E-02   -0.10046E-01  1072   0.752E-01    0.205E-01
DAV:   3    -0.764592133375E+02    0.20914E-03   -0.15696E-03  1088   0.918E-02    0.145E-01
DAV:   4    -0.764589568879E+02    0.25645E-03   -0.10226E-03  1072   0.588E-02    0.389E-02
DAV:   5    -0.764589652596E+02   -0.83717E-05   -0.42013E-05   624   0.183E-02
   7 F= -.76458965E+02 E0= -.76458965E+02  d E =-.491587E-01  mag=    -0.0000
 ZBRENT: can't locate minimum, use default step
 trial-energy change:   -0.049159  1 .order   -0.049292   -0.055351   -0.043234
 step:  17.2206(harm= 19.6662)  dis= 0.04503  next Energy=   -76.536230 (dE=-0.126E+00)
 bond charge predicted
       N       E                     dE             d eps       ncg     rms          rms(c)
DAV:   1    -0.764473626073E+02    0.11594E-01   -0.19475E+02  1024   0.238E+01    0.662E-01
DAV:   2    -0.765370466375E+02   -0.89684E-01   -0.90579E-01  1088   0.227E+00    0.606E-01
DAV:   3    -0.765358830972E+02    0.11635E-02   -0.13631E-02  1104   0.268E-01    0.454E-01
DAV:   4    -0.765332938387E+02    0.25893E-02   -0.72160E-03  1088   0.157E-01    0.175E-01
DAV:   5    -0.765334149182E+02   -0.12108E-03   -0.12359E-03  1104   0.737E-02    0.669E-02
DAV:   6    -0.765333248234E+02    0.90095E-04   -0.18041E-04   688   0.247E-02
   8 F= -.76533325E+02 E0= -.76533325E+02  d E =-.123518E+00  mag=    -0.0000
 curvature: -12.89 expect dE=-0.402E-01 dE for cont linesearch -0.211E-02
 ZBRENT: extrapolating
 opt :  19.8186  next Energy=   -76.535509 (dE=-0.126E+00)
 bond charge predicted
       N       E                     dE             d eps       ncg     rms          rms(c)
DAV:   1    -0.765323005877E+02    0.11143E-02   -0.78377E+00  1024   0.475E+00    0.136E-01
DAV:   2    -0.765359224428E+02   -0.36219E-02   -0.36847E-02  1088   0.455E-01    0.112E-01
DAV:   3    -0.765358604249E+02    0.62018E-04   -0.56453E-04  1088   0.547E-02
   9 F= -.76535860E+02 E0= -.76535860E+02  d E =-.126054E+00  mag=    -0.0000
 curvature: -13.36 expect dE=-0.503E-01 dE for cont linesearch -0.166E-04
 trial: gam= 0.27863 g(F)=  0.377E-02 g(S)=  0.000E+00 ort = 0.147E-03 (trialstep = 0.741E+01)
 search vector abs. value=  0.519E-02
 bond charge predicted
       N       E                     dE             d eps       ncg     rms          rms(c)
DAV:   1    -0.765513530890E+02   -0.15431E-01   -0.19101E+01  1024   0.743E+00    0.167E-01
DAV:   2    -0.765600537413E+02   -0.87007E-02   -0.87942E-02  1056   0.711E-01    0.164E-01
DAV:   3    -0.765599791872E+02    0.74554E-04   -0.14533E-03  1120   0.901E-02    0.122E-01
DAV:   4    -0.765597305638E+02    0.24862E-03   -0.43586E-04  1056   0.386E-02    0.671E-02
DAV:   5    -0.765597264768E+02    0.40870E-05   -0.36329E-04   896   0.355E-02
  10 F= -.76559726E+02 E0= -.76559726E+02  d E =-.238661E-01  mag=    -0.0000
 trial-energy change:   -0.023866  1 .order   -0.024340   -0.028208   -0.020473
 step:  27.0123(harm= 27.0123)  dis= 0.04257  next Energy=   -76.587291 (dE=-0.514E-01)
 bond charge predicted
       N       E                     dE             d eps       ncg     rms          rms(c)
DAV:   1    -0.765240848358E+02    0.35646E-01   -0.13398E+02  1024   0.197E+01    0.442E-01
DAV:   2    -0.765862042785E+02   -0.62119E-01   -0.62435E-01  1072   0.190E+00    0.422E-01
DAV:   3    -0.765855925610E+02    0.61172E-03   -0.97138E-03  1088   0.237E-01    0.307E-01
DAV:   4    -0.765839096308E+02    0.16829E-02   -0.27249E-03  1104   0.966E-02    0.173E-01
DAV:   5    -0.765837709163E+02    0.13871E-03   -0.23819E-03  1056   0.884E-02    0.590E-02
DAV:   6    -0.765837425847E+02    0.28332E-04   -0.95614E-05   656   0.186E-02
  11 F= -.76583743E+02 E0= -.76583743E+02  d E =-.478822E-01  mag=    -0.0000
 curvature: -18.41 expect dE=-0.460E-01 dE for cont linesearch -0.854E-04
 trial: gam= 0.72361 g(F)=  0.250E-02 g(S)=  0.000E+00 ort =-0.155E-03 (trialstep = 0.113E+02)
 search vector abs. value=  0.499E-02
 bond charge predicted
       N       E                     dE             d eps       ncg     rms          rms(c)
DAV:   1    -0.765856222814E+02   -0.18514E-02   -0.42865E+01  1024   0.111E+01    0.256E-01
DAV:   2    -0.766055024228E+02   -0.19880E-01   -0.19829E-01  1056   0.107E+00    0.221E-01
DAV:   3    -0.766052272537E+02    0.27517E-03   -0.31881E-03  1120   0.136E-01    0.163E-01
DAV:   4    -0.766046715609E+02    0.55569E-03   -0.10442E-03  1088   0.583E-02    0.786E-02
DAV:   5    -0.766046658661E+02    0.56948E-05   -0.62512E-04  1072   0.457E-02
  12 F= -.76604666E+02 E0= -.76604666E+02  d E =-.209233E-01  mag=    -0.0000
 trial-energy change:   -0.020923  1 .order   -0.021438   -0.027037   -0.015839
 step:  27.3531(harm= 27.3531)  dis= 0.04432  next Energy=   -76.616383 (dE=-0.326E-01)
 bond charge predicted
       N       E                     dE             d eps       ncg     rms          rms(c)
DAV:   1    -0.765754190961E+02    0.29252E-01   -0.85836E+01  1024   0.158E+01    0.385E-01
DAV:   2    -0.766153926926E+02   -0.39974E-01   -0.39951E-01  1056   0.151E+00    0.313E-01
DAV:   3    -0.766147710017E+02    0.62169E-03   -0.64898E-03  1120   0.196E-01    0.226E-01
DAV:   4    -0.766136802065E+02    0.10908E-02   -0.22127E-03  1088   0.848E-02    0.102E-01
DAV:   5    -0.766136753769E+02    0.48296E-05   -0.97759E-04  1056   0.578E-02
  13 F= -.76613675E+02 E0= -.76613675E+02  d E =-.299328E-01  mag=    -0.0000
 curvature: -28.61 expect dE=-0.357E-01 dE for cont linesearch -0.109E-03
 trial: gam= 0.44944 g(F)=  0.125E-02 g(S)=  0.000E+00 ort =-0.138E-03 (trialstep = 0.145E+02)
 search vector abs. value=  0.213E-02
 bond charge predicted
       N       E                     dE             d eps       ncg     rms          rms(c)
DAV:   1    -0.766130860721E+02    0.59413E-03   -0.30094E+01  1024   0.935E+00    0.204E-01
DAV:   2    -0.766266354209E+02   -0.13549E-01   -0.13500E-01  1056   0.875E-01    0.182E-01
DAV:   3    -0.766264285551E+02    0.20687E-03   -0.21059E-03  1120   0.106E-01    0.137E-01
DAV:   4    -0.766260119768E+02    0.41658E-03   -0.81359E-04  1072   0.516E-02    0.625E-02
DAV:   5    -0.766260209175E+02   -0.89408E-05   -0.40395E-04  1024   0.374E-02
  14 F= -.76626021E+02 E0= -.76626021E+02  d E =-.123455E-01  mag=    -0.0000
 trial-energy change:   -0.012346  1 .order   -0.012866   -0.017254   -0.008477
 step:  28.5692(harm= 28.5692)  dis= 0.03641  next Energy=   -76.630634 (dE=-0.170E-01)
 bond charge predicted
       N       E                     dE             d eps       ncg     rms          rms(c)
DAV:   1    -0.766173275425E+02    0.86844E-02   -0.28067E+01  1024   0.903E+00    0.201E-01
DAV:   2    -0.766299304797E+02   -0.12603E-01   -0.12592E-01  1056   0.845E-01    0.176E-01
DAV:   3    -0.766297324199E+02    0.19806E-03   -0.19669E-03  1120   0.102E-01    0.132E-01
DAV:   4    -0.766293501845E+02    0.38224E-03   -0.79191E-04  1072   0.509E-02    0.582E-02
DAV:   5    -0.766293597930E+02   -0.96085E-05   -0.31565E-04   800   0.343E-02
  15 F= -.76629360E+02 E0= -.76629360E+02  d E =-.156844E-01  mag=    -0.0000
 curvature: -25.67 expect dE=-0.277E-01 dE for cont linesearch -0.640E-06
 trial: gam= 0.75727 g(F)=  0.108E-02 g(S)=  0.000E+00 ort =-0.729E-05 (trialstep = 0.162E+02)
 search vector abs. value=  0.229E-02
 bond charge predicted
       N       E                     dE             d eps       ncg     rms          rms(c)
DAV:   1    -0.766244392155E+02    0.49110E-02   -0.39929E+01  1024   0.108E+01    0.212E-01
DAV:   2    -0.766423324822E+02   -0.17893E-01   -0.17852E-01  1088   0.101E+00    0.214E-01
DAV:   3    -0.766421121760E+02    0.22031E-03   -0.27463E-03  1136   0.119E-01    0.167E-01
DAV:   4    -0.766414918499E+02    0.62033E-03   -0.90674E-04  1056   0.547E-02    0.923E-02
DAV:   5    -0.766414290939E+02    0.62756E-04   -0.89103E-04  1088   0.542E-02
  16 F= -.76641429E+02 E0= -.76641429E+02  d E =-.120693E-01  mag=    -0.0000
 trial-energy change:   -0.012069  1 .order   -0.013002   -0.017321   -0.008683
 step:  32.3988(harm= 32.3988)  dis= 0.05590  next Energy=   -76.646726 (dE=-0.174E-01)
 bond charge predicted
       N       E                     dE             d eps       ncg     rms          rms(c)
DAV:   1    -0.766271947894E+02    0.14297E-01   -0.40350E+01  1024   0.108E+01    0.217E-01
DAV:   2    -0.766453488864E+02   -0.18154E-01   -0.18123E-01  1088   0.101E+00    0.214E-01
DAV:   3    -0.766451361426E+02    0.21274E-03   -0.28011E-03  1136   0.120E-01    0.164E-01
DAV:   4    -0.766445435785E+02    0.59256E-03   -0.91025E-04  1072   0.549E-02    0.896E-02
DAV:   5    -0.766444954938E+02    0.48085E-04   -0.81793E-04  1072   0.521E-02
  17 F= -.76644495E+02 E0= -.76644495E+02  d E =-.151357E-01  mag=    -0.0000
 curvature: -34.61 expect dE=-0.335E-01 dE for cont linesearch -0.156E-04
 trial: gam= 0.89719 g(F)=  0.967E-03 g(S)=  0.000E+00 ort =-0.321E-04 (trialstep = 0.161E+02)
 search vector abs. value=  0.275E-02
 bond charge predicted
       N       E                     dE             d eps       ncg     rms          rms(c)
DAV:   1    -0.766332009677E+02    0.11343E-01   -0.47921E+01  1024   0.118E+01    0.223E-01
DAV:   2    -0.766547923792E+02   -0.21591E-01   -0.21534E-01  1072   0.111E+00    0.231E-01
DAV:   3    -0.766545413560E+02    0.25102E-03   -0.33120E-03  1168   0.132E-01    0.182E-01
DAV:   4    -0.766538149360E+02    0.72642E-03   -0.90444E-04  1056   0.540E-02    0.106E-01
DAV:   5    -0.766536837273E+02    0.13121E-03   -0.12665E-03  1072   0.641E-02    0.391E-02
DAV:   6    -0.766536908518E+02   -0.71245E-05   -0.21594E-05   608   0.989E-03
  18 F= -.76653691E+02 E0= -.76653691E+02  d E =-.919536E-02  mag=    -0.0000
 trial-energy change:   -0.009195  1 .order   -0.009973   -0.015148   -0.004797
 step:  23.6228(harm= 23.6228)  dis= 0.04481  next Energy=   -76.655580 (dE=-0.111E-01)
 bond charge predicted
       N       E                     dE             d eps       ncg     rms          rms(c)
DAV:   1    -0.766501960280E+02    0.34877E-02   -0.10275E+01  1024   0.546E+00    0.102E-01
DAV:   2    -0.766548003597E+02   -0.46043E-02   -0.45987E-02  1088   0.512E-01    0.107E-01
DAV:   3    -0.766547425158E+02    0.57844E-04   -0.70201E-04  1072   0.610E-02
  19 F= -.76654743E+02 E0= -.76654743E+02  d E =-.102470E-01  mag=    -0.0000
 curvature: -34.65 expect dE=-0.176E-01 dE for cont linesearch -0.442E-05
 trial: gam= 0.38095 g(F)=  0.509E-03 g(S)=  0.000E+00 ort = 0.187E-04 (trialstep = 0.176E+02)
 search vector abs. value=  0.923E-03
 bond charge predicted
       N       E                     dE             d eps       ncg     rms          rms(c)
DAV:   1    -0.766524890230E+02    0.23113E-02   -0.19237E+01  1024   0.746E+00    0.170E-01
DAV:   2    -0.766609748663E+02   -0.84858E-02   -0.86614E-02  1088   0.708E-01    0.175E-01
DAV:   3    -0.766608199104E+02    0.15496E-03   -0.13845E-03  1152   0.868E-02    0.136E-01
DAV:   4    -0.766604357375E+02    0.38417E-03   -0.71095E-04  1056   0.478E-02    0.695E-02
DAV:   5    -0.766604331810E+02    0.25565E-05   -0.42231E-04  1024   0.379E-02
  20 F= -.76660433E+02 E0= -.76660433E+02  d E =-.569067E-02  mag=    -0.0000
 trial-energy change:   -0.005691  1 .order   -0.006325   -0.009106   -0.003544
 step:  28.8754(harm= 28.8754)  dis= 0.02665  next Energy=   -76.662196 (dE=-0.745E-02)
 bond charge predicted
       N       E                     dE             d eps       ncg     rms          rms(c)
DAV:   1    -0.766578388534E+02    0.25969E-02   -0.77897E+00  1024   0.475E+00    0.111E-01
DAV:   2    -0.766614245210E+02   -0.35857E-02   -0.36065E-02  1072   0.456E-01    0.104E-01
DAV:   3    -0.766613891959E+02    0.35325E-04   -0.58719E-04  1088   0.580E-02
  21 F= -.76661389E+02 E0= -.76661389E+02  d E =-.664668E-02  mag=    -0.0000
 curvature: -25.81 expect dE=-0.892E-02 dE for cont linesearch -0.112E-04
 trial: gam= 0.73653 g(F)=  0.346E-03 g(S)=  0.000E+00 ort =-0.200E-04 (trialstep = 0.199E+02)
 search vector abs. value=  0.817E-03
 bond charge predicted
       N       E                     dE             d eps       ncg     rms          rms(c)
DAV:   1    -0.766561215133E+02    0.53030E-02   -0.21613E+01  1024   0.792E+00    0.161E-01
DAV:   2    -0.766657517739E+02   -0.96303E-02   -0.96861E-02  1072   0.747E-01    0.170E-01
DAV:   3    -0.766656202032E+02    0.13157E-03   -0.15141E-03  1136   0.901E-02    0.135E-01
DAV:   4    -0.766652413225E+02    0.37888E-03   -0.55814E-04  1072   0.426E-02    0.764E-02
DAV:   5    -0.766652105575E+02    0.30765E-04   -0.62751E-04  1040   0.452E-02
  22 F= -.76665211E+02 E0= -.76665211E+02  d E =-.382136E-02  mag=    -0.0000
 trial-energy change:   -0.003821  1 .order   -0.004289   -0.006582   -0.001996
 step:  28.5406(harm= 28.5406)  dis= 0.01950  next Energy=   -76.666112 (dE=-0.472E-02)
 bond charge predicted
       N       E                     dE             d eps       ncg     rms          rms(c)
DAV:   1    -0.766635099925E+02    0.17313E-02   -0.40812E+00  1024   0.344E+00    0.732E-02
DAV:   2    -0.766653888852E+02   -0.18789E-02   -0.18805E-02  1072   0.328E-01    0.687E-02
DAV:   3    -0.766653729809E+02    0.15904E-04   -0.27063E-04   672   0.411E-02
  23 F= -.76665373E+02 E0= -.76665373E+02  d E =-.398379E-02  mag=    -0.0000
 curvature: -35.22 expect dE=-0.832E-02 dE for cont linesearch -0.109E-02
 ZBRENT: interpolating
 opt :  23.2312  next Energy=   -76.665378 (dE=-0.399E-02)
 bond charge predicted
       N       E                     dE             d eps       ncg     rms          rms(c)
DAV:   1    -0.766646643896E+02    0.72450E-03   -0.15272E+00  1024   0.210E+00    0.409E-02
DAV:   2    -0.766654024925E+02   -0.73810E-03   -0.72525E-03  1088   0.204E-01    0.325E-02
DAV:   3    -0.766653980658E+02    0.44268E-05   -0.10803E-04   640   0.271E-02
  24 F= -.76665398E+02 E0= -.76665398E+02  d E =-.400887E-02  mag=    -0.0000
 curvature:  -5.41 expect dE=-0.819E-03 dE for cont linesearch -0.831E-04
 trial: gam= 0.18688 g(F)=  0.152E-03 g(S)=  0.000E+00 ort = 0.112E-03 (trialstep = 0.206E+02)
 search vector abs. value=  0.222E-03
 bond charge predicted
       N       E                     dE             d eps       ncg     rms          rms(c)
DAV:   1    -0.766646826699E+02    0.71982E-03   -0.62494E+00  1024   0.426E+00    0.952E-02
DAV:   2    -0.766674652535E+02   -0.27826E-02   -0.27798E-02  1072   0.397E-01    0.815E-02
DAV:   3    -0.766674317631E+02    0.33490E-04   -0.43016E-04   992   0.489E-02
  25 F= -.76667432E+02 E0= -.76667432E+02  d E =-.203370E-02  mag=     0.0000
 trial-energy change:   -0.002034  1 .order   -0.002115   -0.003545   -0.000684
 step:  25.4691(harm= 25.4691)  dis= 0.01465  next Energy=   -76.667594 (dE=-0.220E-02)
 bond charge predicted
       N       E                     dE             d eps       ncg     rms          rms(c)
DAV:   1    -0.766674016122E+02    0.63641E-04   -0.36150E-01  1040   0.103E+00    0.416E-02
DAV:   2    -0.766675402829E+02   -0.13867E-03   -0.14630E-03  1104   0.917E-02    0.332E-02
DAV:   3    -0.766675310743E+02    0.92086E-05   -0.30773E-05   608   0.119E-02
  26 F= -.76667531E+02 E0= -.76667531E+02  d E =-.213301E-02  mag=     0.0000
 curvature: -16.39 expect dE=-0.132E-02 dE for cont linesearch -0.292E-05
 trial: gam= 0.49898 g(F)=  0.803E-04 g(S)=  0.000E+00 ort = 0.629E-05 (trialstep = 0.215E+02)
 search vector abs. value=  0.142E-03
 bond charge predicted
       N       E                     dE             d eps       ncg     rms          rms(c)
DAV:   1    -0.766669682812E+02    0.57200E-03   -0.43937E+00  1024   0.357E+00    0.767E-02
DAV:   2    -0.766689014377E+02   -0.19332E-02   -0.19404E-02  1072   0.332E-01    0.711E-02
DAV:   3    -0.766688738347E+02    0.27603E-04   -0.27760E-04   704   0.401E-02
  27 F= -.76668874E+02 E0= -.76668874E+02  d E =-.134276E-02  mag=     0.0000
 trial-energy change:   -0.001343  1 .order   -0.000727   -0.001797    0.000343
 step:  20.2202(harm= 18.0860)  dis= 0.00768  next Energy=   -76.668884 (dE=-0.135E-02)
 bond charge predicted
       N       E                     dE             d eps       ncg     rms          rms(c)
DAV:   1    -0.766687666614E+02    0.13478E-03   -0.15388E-02  1056   0.209E-01    0.187E-02
DAV:   2    -0.766687768269E+02   -0.10165E-04   -0.88333E-05   640   0.240E-02
  28 F= -.76668777E+02 E0= -.76668777E+02  d E =-.124575E-02  mag=     0.0000
 curvature:  -9.49 expect dE=-0.349E-03 dE for cont linesearch -0.133E-03
 trial: gam= 0.00000 g(F)=  0.368E-04 g(S)=  0.000E+00 ort = 0.445E-04 (trialstep = 0.213E+02)
 search vector abs. value=  0.368E-04
 reached required accuracy - stopping structural energy minimisation
Application 91009106 resources: utime ~44732s, stime ~300s, Rss ~66028, inblocks ~648249, outblocks ~557528
