   36   36 1000    2
  0.2993244E+03  0.2208758E-08  0.2208758E-08  0.2208758E-08  0.1000000E-15
  1.000000000000000E-004
  CAR 
 unknown system                          
    396      1    256
 
  0.0000000E+00  0.0000000E+00  0.0000000E+00  0.1000000E+01
    1       -9.566393     -9.566393
    2       -9.049298     -9.049298
    3       -9.020843     -9.020843
    4       -8.982088     -8.982088
    5       -8.948665     -8.948665
    6       -8.936533     -8.936533
    7       -8.896266     -8.896266
    8       -8.875626     -8.875626
    9       -8.859896     -8.859896
   10       -8.846556     -8.846556
   11       -8.823028     -8.823028
   12       -8.790878     -8.790878
   13       -8.777439     -8.777439
   14       -8.759910     -8.759910
   15       -8.714739     -8.714739
   16       -8.707397     -8.707397
   17       -8.694210     -8.694210
   18       -8.683267     -8.683267
   19       -8.648663     -8.648663
   20       -8.639987     -8.639987
   21       -8.619164     -8.619164
   22       -8.614529     -8.614529
   23       -8.577456     -8.577456
   24       -8.557177     -8.557177
   25       -8.533946     -8.533946
   26       -8.511786     -8.511786
   27       -8.504832     -8.504832
   28       -8.491507     -8.491507
   29       -8.475348     -8.475348
   30       -8.467848     -8.467848
   31       -8.443617     -8.443617
   32       -8.425592     -8.425592
   33       -8.404289     -8.404289
   34       -8.377869     -8.377869
   35       -8.358805     -8.358805
   36       -8.354016     -8.354016
   37       -8.327111     -8.327111
   38       -8.304154     -8.304154
   39       -8.272353     -8.272353
   40       -8.264189     -8.264189
   41       -8.242972     -8.242972
   42       -8.235687     -8.235687
   43       -8.230219     -8.230219
   44       -8.201646     -8.201646
   45       -8.181359     -8.181359
   46       -8.168767     -8.168767
   47       -8.141374     -8.141374
   48       -8.115270     -8.115270
   49       -8.111327     -8.111327
   50       -8.093064     -8.093064
   51       -8.072909     -8.072909
   52       -8.067960     -8.067960
   53       -8.036129     -8.036129
   54       -8.033595     -8.033595
   55       -8.018176     -8.018176
   56       -7.991683     -7.991683
   57       -7.943625     -7.943625
   58       -7.936445     -7.936445
   59       -7.933799     -7.933799
   60       -7.916343     -7.916343
   61       -7.909261     -7.909261
   62       -7.876263     -7.876263
   63       -7.872489     -7.872489
   64       -7.840016     -7.840016
   65       -7.833973     -7.833973
   66       -7.792620     -7.792620
   67       -7.772273     -7.772273
   68       -7.766022     -7.766022
   69       -7.749105     -7.749105
   70       -7.733218     -7.733218
   71       -7.704284     -7.704284
   72       -7.698666     -7.698666
   73       -7.676876     -7.676876
   74       -7.671250     -7.671250
   75       -7.648993     -7.648993
   76       -7.625438     -7.625438
   77       -7.611787     -7.611787
   78       -7.603888     -7.603888
   79       -7.590457     -7.590457
   80       -7.579898     -7.579898
   81       -7.558965     -7.558965
   82       -7.538436     -7.538436
   83       -7.507509     -7.507509
   84       -7.496732     -7.496732
   85       -7.490040     -7.490040
   86       -7.466076     -7.466076
   87       -7.448139     -7.448139
   88       -7.430190     -7.430190
   89       -7.412295     -7.412295
   90       -7.387699     -7.387699
   91       -7.360304     -7.360304
   92       -7.351671     -7.351671
   93       -7.344413     -7.344413
   94       -7.332661     -7.332661
   95       -7.300795     -7.300795
   96       -7.293444     -7.293444
   97       -7.271883     -7.271883
   98       -7.249806     -7.249806
   99       -7.238050     -7.238050
  100       -7.224113     -7.224113
  101       -7.192062     -7.192062
  102       -7.181336     -7.181336
  103       -7.151885     -7.151885
  104       -7.143792     -7.143792
  105       -7.122386     -7.122386
  106       -7.116370     -7.116370
  107       -7.107615     -7.107615
  108       -7.097302     -7.097302
  109       -7.064671     -7.064671
  110       -7.062594     -7.062594
  111       -7.024068     -7.024068
  112       -7.019324     -7.019324
  113       -7.005113     -7.005113
  114       -6.997423     -6.997423
  115       -6.989257     -6.989257
  116       -6.973490     -6.973490
  117       -6.955144     -6.955144
  118       -6.949018     -6.949018
  119       -6.942507     -6.942507
  120       -6.926554     -6.926554
  121       -6.903890     -6.903890
  122       -6.903350     -6.903350
  123       -6.895937     -6.895937
  124       -6.885641     -6.885641
  125       -6.877566     -6.877566
  126       -6.859359     -6.859359
  127       -6.857471     -6.857471
  128       -6.850570     -6.850570
  129       -6.814755     -6.814755
  130       -6.809173     -6.809173
  131       -6.800760     -6.800760
  132       -6.793968     -6.793967
  133       -6.779450     -6.779450
  134       -6.764309     -6.764309
  135       -6.758093     -6.758093
  136       -6.752064     -6.752064
  137       -6.736263     -6.736263
  138       -6.729782     -6.729782
  139       -6.727203     -6.727203
  140       -6.717271     -6.717271
  141       -6.685565     -6.685565
  142       -6.673219     -6.673219
  143       -6.669752     -6.669752
  144       -6.663436     -6.663436
  145       -6.651391     -6.651391
  146       -6.645901     -6.645901
  147       -6.627892     -6.627892
  148       -6.624062     -6.624062
  149       -6.610765     -6.610765
  150       -6.592714     -6.592714
  151       -6.579000     -6.579000
  152       -6.561523     -6.561523
  153       -6.554594     -6.554594
  154       -6.544072     -6.544072
  155       -6.541729     -6.541729
  156       -6.525483     -6.525483
  157       -6.490900     -6.490900
  158       -6.483523     -6.483523
  159       -6.471085     -6.471085
  160       -6.460918     -6.460918
  161       -6.448880     -6.448880
  162       -6.444811     -6.444811
  163       -6.431802     -6.431802
  164       -6.417551     -6.417551
  165       -6.407329     -6.407329
  166       -6.400075     -6.400075
  167       -6.388517     -6.388517
  168       -6.381436     -6.381436
  169       -6.361956     -6.361956
  170       -6.341522     -6.341522
  171       -6.336223     -6.336223
  172       -6.325771     -6.325771
  173       -6.315251     -6.315251
  174       -6.292544     -6.292544
  175       -6.283525     -6.283525
  176       -6.269050     -6.269050
  177       -6.248288     -6.248288
  178       -6.222771     -6.222771
  179       -6.214561     -6.214561
  180       -6.203634     -6.203634
  181       -6.172629     -6.172629
  182       -6.135769     -6.135769
  183       -6.123981     -6.123981
  184       -6.094924     -6.094924
  185       -5.919996     -5.919996
  186       -5.786225     -5.786225
  187       -5.709165     -5.709165
  188       -5.675634     -5.675634
  189       -5.361409     -5.361409
  190       -4.906767     -4.906767
  191       -4.588666     -4.588666
  192       -4.376717     -4.376717
  193       -4.258515     -4.258515
  194       -4.079931     -4.079931
  195       -4.050558     -4.050558
  196       -4.000941     -4.000941
  197       -3.725926     -3.725926
  198       -3.613811     -3.613811
  199       -3.152946     -3.152946
  200       -2.998474     -2.998474
  201       -2.834117     -2.834117
  202       -2.631407     -2.631407
  203       -2.551535     -2.551535
  204       -2.392945     -2.392945
  205       -2.356166     -2.356166
  206       -2.293371     -2.293371
  207       -2.179469     -2.179469
  208       -2.160271     -2.160271
  209       -2.108191     -2.108192
  210       -1.943928     -1.943928
  211       -1.743063     -1.743063
  212       -1.611367     -1.611367
  213       -1.573019     -1.573019
  214       -1.276656     -1.276656
  215       -1.066781     -1.066781
  216       -0.973313     -0.973313
  217       -0.876930     -0.876930
  218       -0.817853     -0.817852
  219       -0.756111     -0.756111
  220       -0.701391     -0.701391
  221       -0.568571     -0.568571
  222       -0.496726     -0.496726
  223       -0.480130     -0.480129
  224       -0.388408     -0.388408
  225       -0.272776     -0.272776
  226       -0.202483     -0.202484
  227       -0.109204     -0.109204
  228       -0.078755     -0.078756
  229       -0.025473     -0.025473
  230        0.090836      0.090836
  231        0.124496      0.124496
  232        0.364446      0.364445
  233        0.417399      0.417399
  234        0.499440      0.499441
  235        0.551991      0.551986
  236        0.732833      0.732829
  237        0.740326      0.740323
  238        0.785726      0.785724
  239        0.828244      0.828242
  240        0.851196      0.851193
  241        0.924116      0.924115
  242        0.958173      0.958171
  243        0.969170      0.969170
  244        1.031391      1.031392
  245        1.051770      1.051765
  246        1.072250      1.072248
  247        1.083695      1.083695
  248        1.091907      1.091905
  249        1.125782      1.125781
  250        1.136965      1.136962
  251        1.152049      1.152044
  252        1.179350      1.179348
  253        1.195185      1.195183
  254        1.216335      1.216331
  255        1.267074      1.267071
  256        1.284364      1.284364
