 vasp.5.3.5 31Mar14 (build Feb 01 2018 12:10:03) gamma-only                     
  
 executed on             LinuxIFC date 2019.04.21  02:05:50
 running on   32 total cores
 distrk:  each k-point on   32 cores,    1 groups
 distr:  one band on NCORES_PER_BAND=   8 cores,    4 groups


--------------------------------------------------------------------------------------------------------


 INCAR:
 POTCAR:    PAW_PBE Ni 02Aug2007                  
 POTCAR:    PAW_PBE Ni 02Aug2007                  
   VRHFIN =Ni:                                                                  
   LEXCH  = PE                                                                  
   EATOM  =  1077.6739 eV,   79.2068 Ry                                         
                                                                                
   TITEL  = PAW_PBE Ni 02Aug2007                                                
   LULTRA =        F    use ultrasoft PP ?                                      
   IUNSCR =        1    unscreen: 0-lin 1-nonlin 2-no                           
   RPACOR =    2.000    partial core radius                                     
   POMASS =   58.690; ZVAL   =   10.000    mass and valenz                      
   RCORE  =    2.300    outmost cutoff radius                                   
   RWIGS  =    2.430; RWIGS  =    1.286    wigner-seitz radius (au A)           
   ENMAX  =  269.532; ENMIN  =  202.149 eV                                      
   RCLOC  =    1.201    cutoff for local pot                                    
   LCOR   =        T    correct aug charges                                     
   LPAW   =        T    paw PP                                                  
   EAUG   =  544.565                                                            
   DEXC   =    0.000                                                            
   RMAX   =    2.357    core radius for proj-oper                               
   RAUG   =    1.300    factor for augmentation sphere                          
   RDEP   =    2.390    radius for radial grids                                 
   RDEPT  =    1.838    core radius for aug-charge                              
                                                                                
   Atomic configuration                                                         
    9 entries                                                                   
     n  l   j            E        occ.                                          
     1  0  0.50     -8206.4253   2.0000                                         
     2  0  0.50      -976.1748   2.0000                                         
     2  1  1.50      -839.0571   6.0000                                         
     3  0  0.50      -105.9991   2.0000                                         
     3  1  1.50       -66.4603   6.0000                                         
     3  2  2.50        -4.6458   9.0000                                         
     4  0  0.50        -4.4926   1.0000                                         
     4  1  1.50        -4.0817   0.0000                                         
     4  3  2.50        -1.3606   0.0000                                         
   Description                                                                  
     l       E           TYP  RCUT    TYP  RCUT                                 
     2     -4.6457903     23  2.300                                             
     2     -6.0063729     23  2.300                                             
     0     -4.4925590     23  2.300                                             
     0      5.0102601     23  2.300                                             
     1     -2.7211652     23  2.300                                             
     1     16.5183231     23  2.300                                             
  local pseudopotential read in
  partial core-charges read in
  partial kinetic energy density read in
  atomic valenz-charges read in
  non local Contribution for L=           2  read in
    real space projection operators read in
  non local Contribution for L=           2  read in
    real space projection operators read in
  non local Contribution for L=           0  read in
    real space projection operators read in
  non local Contribution for L=           0  read in
    real space projection operators read in
  non local Contribution for L=           1  read in
    real space projection operators read in
  non local Contribution for L=           1  read in
    real space projection operators read in
    PAW grid and wavefunctions read in
 
   number of l-projection  operators is LMAX  =           6
   number of lm-projection operators is LMMAX =          18
 
  PAW_PBE Ni 02Aug2007                  :
 energy of atom  1       EATOM=-1077.6739
 kinetic energy error for atom=    0.0382 (will be added to EATOM!!)
 
 
 POSCAR: Ag13, -882.0 <s> Ni </s>                
  positions in direct lattice
  velocities in cartesian coordinates
 exchange correlation table for  LEXCH =        8
   RHO(1)=    0.500       N(1)  =     2000
   RHO(2)=  100.500       N(2)  =     4000
 


--------------------------------------------------------------------------------------------------------


 ion  position               nearest neighbor table
   1  0.398  0.593  0.517-   9 2.62  12 2.75   3 2.83   5 3.01
   2  0.500  0.427  0.431-   3 2.89   6 2.89   7 2.96   4 3.01  11 3.01
   3  0.392  0.500  0.430-  12 2.77  11 2.83   1 2.83   2 2.89   5 2.89
   4  0.602  0.407  0.517-  10 2.62  13 2.75   6 2.83   2 3.01
   5  0.500  0.573  0.431-   3 2.89   6 2.89   7 2.96   1 3.01   8 3.01
   6  0.608  0.500  0.430-  13 2.77   8 2.83   4 2.83   2 2.89   5 2.89
   7  0.500  0.500  0.542-   2 2.96   5 2.96  10 3.06   9 3.06
   8  0.602  0.593  0.517-   9 2.62  13 2.75   6 2.83   5 3.01
   9  0.500  0.637  0.555-   1 2.62   8 2.62   7 3.06
  10  0.500  0.363  0.555-   4 2.62  11 2.62   7 3.06
  11  0.398  0.407  0.517-  10 2.62  12 2.75   3 2.83   2 3.01
  12  0.317  0.500  0.529-   1 2.75  11 2.75   3 2.77
  13  0.683  0.500  0.529-   4 2.75   8 2.75   6 2.77
 
  LATTYP: Found a simple cubic cell.
 ALAT       =    22.2923500000
  
  Lattice vectors:
  
 A1 = (  22.2923500000,   0.0000000000,   0.0000000000)
 A2 = (   0.0000000000,  22.2923500000,   0.0000000000)
 A3 = (   0.0000000000,   0.0000000000,  22.2923500000)


Analysis of symmetry for initial positions (statically):
=====================================================================
 Subroutine PRICEL returns:
 Original cell was already a primitive cell.
 

 Routine SETGRP: Setting up the symmetry group for a 
 simple cubic supercell.


 Subroutine GETGRP returns: Found  4 space group operations
 (whereof  4 operations were pure point group operations)
 out of a pool of 48 trial point group operations.


The static configuration has the point symmetry C_2v.


Analysis of symmetry for dynamics (positions and initial velocities):
=====================================================================
 Subroutine PRICEL returns:
 Original cell was already a primitive cell.
 

 Routine SETGRP: Setting up the symmetry group for a 
 simple cubic supercell.


 Subroutine GETGRP returns: Found  4 space group operations
 (whereof  4 operations were pure point group operations)
 out of a pool of 48 trial point group operations.


The dynamic configuration has the point symmetry C_2v.


Analysis of magnetic symmetry:
=====================================================================
 Subroutine PRICEL returns:
 Original cell was already a primitive cell.
 

 Subroutine MAGSYM returns: Found  4 space group operations
 (whereof  4 operations were pure point group operations)
 out of a pool of  4 trial space group operations
 (whereof  4 operations were pure point group operations)
 and found also     1 'primitive' translations


The magnetic configuration has the point symmetry C_2v.
 
 
 KPOINTS: Gamma-point only                        
  k-points in reciprocal lattice
Space group operators:
 irot       det(A)        alpha          n_x          n_y          n_z        tau_x        tau_y        tau_z
    1     1.000000     0.000000     1.000000     0.000000     0.000000     0.000000     0.000000     0.000000
    2     1.000000   180.000000     0.000000     0.000000     1.000000     0.000000     0.000000     0.000000
    3    -1.000000   180.000000     1.000000     0.000000     0.000000     0.000000     0.000000     0.000000
    4    -1.000000   180.000000     0.000000     1.000000     0.000000     0.000000     0.000000     0.000000


--------------------------------------------------------------------------------------------------------




 Dimension of arrays:
   k-points           NKPTS =      1   k-points in BZ     NKDIM =      1   number of bands    NBANDS=     88
   number of dos      NEDOS =    301   number of ions     NIONS =     13
   non local maximal  LDIM  =      6   non local SUM 2l+1 LMDIM =     18
   total plane-waves  NPLWV = 729000
   max r-space proj   IRMAX =      1   max aug-charges    IRDMAX=   2332
   dimension x,y,z NGX =    90 NGY =   90 NGZ =   90
   dimension x,y,z NGXF=   180 NGYF=  180 NGZF=  180
   support grid    NGXF=   180 NGYF=  180 NGZF=  180
   ions per type =              13
 NGX,Y,Z   is equivalent  to a cutoff of   6.71,  6.71,  6.71 a.u.
 NGXF,Y,Z  is equivalent  to a cutoff of  13.42, 13.42, 13.42 a.u.


 I would recommend the setting:
   dimension x,y,z NGX =    90 NGY =   90 NGZ =   90
 SYSTEM =  unknown system                          
 POSCAR =  Ag13, -882.0 <s> Ni </s>                

 Startparameter for this run:
   NWRITE =      2    write-flag & timer
   PREC   = normal    normal or accurate (medium, high low for compatibility)
   ISTART =      0    job   : 0-new  1-cont  2-samecut
   ICHARG =      2    charge: 1-file 2-atom 10-const
   ISPIN  =      2    spin polarized calculation?
   LNONCOLLINEAR =      F non collinear calculations
   LSORBIT =      F    spin-orbit coupling
   INIWAV =      1    electr: 0-lowe 1-rand  2-diag
   LASPH  =      F    aspherical Exc in radial PAW
   METAGGA=      F    non-selfconsistent MetaGGA calc.

 Electronic Relaxation 1
   ENCUT  =  269.5 eV  19.81 Ry    4.45 a.u.  29.84 29.84 29.84*2*pi/ulx,y,z
   ENINI  =  269.5     initial cutoff
   ENAUG  =  544.6 eV  augmentation charge cutoff
   NELM   =     60;   NELMIN=  2; NELMDL=  0     # of ELM steps 
   EDIFF  = 0.1E-03   stopping-criterion for ELM
   LREAL  =      F    real-space projection
   NLSPLINE    = F    spline interpolate recip. space projectors
   LCOMPAT=      F    compatible to vasp.4.4
   GGA_COMPAT  = T    GGA compatible to vasp.4.4-vasp.4.6
   LMAXPAW     = -100 max onsite density
   LMAXMIX     =    2 max onsite mixed and CHGCAR
   VOSKOWN=      0    Vosko Wilk Nusair interpolation
   ROPT   =    0.00000
 Ionic relaxation
   EDIFFG = 0.1E-02   stopping-criterion for IOM
   NSW    =   1000    number of steps for IOM
   NBLOCK =      1;   KBLOCK =   1000    inner block; outer block 
   IBRION =      2    ionic relax: 0-MD 1-quasi-New 2-CG
   NFREE  =      1    steps in history (QN), initial steepest desc. (CG)
   ISIF   =      2    stress and relaxation
   IWAVPR =     11    prediction:  0-non 1-charg 2-wave 3-comb
   ISYM   =      2    0-nonsym 1-usesym 2-fastsym
   LCORR  =      T    Harris-Foulkes like correction to forces

   POTIM  = 0.1000    time-step for ionic-motion
   TEIN   =    0.0    initial temperature
   TEBEG  =    0.0;   TEEND  =   0.0 temperature during run
   SMASS  =  -3.00    Nose mass-parameter (am)
   estimated Nose-frequenzy (Omega)   =  0.10E-29 period in steps =****** mass=  -0.114E-25a.u.
   SCALEE = 1.0000    scale energy and forces
   NPACO  =    256;   APACO  = 16.0  distance and # of slots for P.C.
   PSTRESS=    0.0 pullay stress

  Mass of Ions in am
   POMASS =  58.69
  Ionic Valenz
   ZVAL   =  10.00
  Atomic Wigner-Seitz radii
   RWIGS  =  -1.00
  virtual crystal weights 
   VCA    =   1.00
   NELECT =     130.0000    total number of electrons
   NUPDOWN=      -1.0000    fix difference up-down

 DOS related values:
   EMIN   =  10.00;   EMAX   =-10.00  energy-range for DOS
   EFERMI =   0.00
   ISMEAR =     0;   SIGMA  =   0.00  broadening in eV -4-tet -1-fermi 0-gaus

 Electronic relaxation 2 (details)
   IALGO  =     38    algorithm
   LDIAG  =      T    sub-space diagonalisation (order eigenvalues)
   LSUBROT=      F    optimize rotation matrix (better conditioning)
   TURBO    =      0    0=normal 1=particle mesh
   IRESTART =      0    0=no restart 2=restart with 2 vectors
   NREBOOT  =      0    no. of reboots
   NMIN     =      0    reboot dimension
   EREF     =   0.00    reference energy to select bands
   IMIX   =      4    mixing-type and parameters
     AMIX     =   0.40;   BMIX     =  1.00
     AMIX_MAG =   1.60;   BMIX_MAG =  1.00
     AMIN     =   0.10
     WC   =   100.;   INIMIX=   1;  MIXPRE=   1;  MAXMIX= -45

 Intra band minimization:
   WEIMIN = 0.0010     energy-eigenvalue tresh-hold
   EBREAK =  0.28E-06  absolut break condition
   DEPER  =   0.30     relativ break condition  

   TIME   =   0.40     timestep for ELM

  volume/ion in A,a.u.               =     852.17      5750.70
  Fermi-wavevector in a.u.,A,eV,Ry     =   0.372020  0.703017  1.883035  0.138399
  Thomas-Fermi vector in A             =   1.300581
 
 Write flags
   LWAVE  =      F    write WAVECAR
   LCHARG =      F    write CHGCAR
   LVTOT  =      F    write LOCPOT, total local potential
   LVHAR  =      F    write LOCPOT, Hartree potential only
   LELF   =      F    write electronic localiz. function (ELF)
   LORBIT =      0    0 simple, 1 ext, 2 COOP (PROOUT)


 Dipole corrections
   LMONO  =      F    monopole corrections only (constant potential shift)
   LDIPOL =      F    correct potential (dipole corrections)
   IDIPOL =      0    1-x, 2-y, 3-z, 4-all directions 
   EPSILON=  1.0000000 bulk dielectric constant

 Exchange correlation treatment:
   GGA     =    PE    GGA type
   LEXCH   =     8    internal setting for exchange type
   VOSKOWN=      0    Vosko Wilk Nusair interpolation
   LHFCALC =     F    Hartree Fock is set to
   LHFONE  =     F    Hartree Fock one center treatment
   AEXX    =    0.0000 exact exchange contribution

 Linear response parameters
   LEPSILON=     F    determine dielectric tensor
   LRPA    =     F    only Hartree local field effects (RPA)
   LNABLA  =     F    use nabla operator in PAW spheres
   LVEL    =     F    velocity operator in full k-point grid
   LINTERFAST=   F  fast interpolation
   KINTER  =     0    interpolate to denser k-point grid
   CSHIFT  =0.1000    complex shift for real part using Kramers Kronig
   OMEGAMAX=  -1.0    maximum frequency
   DEG_THRESHOLD= 0.2000000E-02 threshold for treating states as degnerate
   RTIME   =    0.100 relaxation time in fs

 Orbital magnetization related:
   ORBITALMAG=     F  switch on orbital magnetization
   LCHIMAG   =     F  perturbation theory with respect to B field
   DQ        =  0.001000  dq finite difference perturbation B field



--------------------------------------------------------------------------------------------------------


 conjugate gradient relaxation of ions
 charge density and potential will be updated during run
 spin polarized calculation
 Variant of blocked Davidson
 Davidson routine will perform the subspace rotation
 perform sub-space diagonalisation
    after iterative eigenvector-optimisation
 modified Broyden-mixing scheme, WC =      100.0
 initial mixing is a Kerker type mixing with AMIX =  0.4000 and BMIX =      1.0000
 Hartree-type preconditioning will be used
 using additional bands           23
 reciprocal scheme for non local part
 use partial core corrections
 calculate Harris-corrections to forces 
   (improved forces if not selfconsistent)
 use gradient corrections 
 use of overlap-Matrix (Vanderbilt PP)
 Gauss-broadening in eV      SIGMA  =   0.00


--------------------------------------------------------------------------------------------------------


  energy-cutoff  :      269.53
  volume of cell :    11078.16
      direct lattice vectors                 reciprocal lattice vectors
    22.292350000  0.000000000  0.000000000     0.044858438  0.000000000  0.000000000
     0.000000000 22.292350000  0.000000000     0.000000000  0.044858438  0.000000000
     0.000000000  0.000000000 22.292350000     0.000000000  0.000000000  0.044858438

  length of vectors
    22.292350000 22.292350000 22.292350000     0.044858438  0.044858438  0.044858438


 
 k-points in units of 2pi/SCALE and weight: Gamma-point only                        
   0.00000000  0.00000000  0.00000000       1.000
 
 k-points in reciprocal lattice and weights: Gamma-point only                        
   0.00000000  0.00000000  0.00000000       1.000
 
 position of ions in fractional coordinates (direct lattice) 
   0.39766987  0.59275396  0.51693127
   0.50000000  0.42727865  0.43091945
   0.39247919  0.50000000  0.43019895
   0.60233013  0.40724604  0.51693127
   0.50000000  0.57272135  0.43091945
   0.60752081  0.50000000  0.43019895
   0.50000000  0.50000000  0.54204062
   0.60233013  0.59275396  0.51693127
   0.50000000  0.63676407  0.55487269
   0.50000000  0.36323593  0.55487269
   0.39766987  0.40724604  0.51693127
   0.31741258  0.50000000  0.52912607
   0.68258742  0.50000000  0.52912607
 
 position of ions in cartesian coordinates  (Angst):
   8.86499597 13.21387877 11.52361273
  11.14617500  9.52504525  9.60620712
   8.74928358 11.14617500  9.59014549
  13.42735403  9.07847123 11.52361273
  11.14617500 12.76730475  9.60620712
  13.54306642 11.14617500  9.59014549
  11.14617500 11.14617500 12.08335931
  13.42735403 13.21387877 11.52361273
  11.14617500 14.19496747 12.36941630
  11.14617500  8.09738253 12.36941630
   8.86499597  9.07847123 11.52361273
   7.07587237 11.14617500 11.79546348
  15.21647763 11.14617500 11.79546348
 


--------------------------------------------------------------------------------------------------------


 use parallel FFT for wavefunctions z direction half grid
 k-point  1 :   0.0000 0.0000 0.0000  plane waves:   55662

 maximum and minimum number of plane-waves per node :      6965     6953

 maximum number of plane-waves:     55662
 maximum index in each direction: 
   IXMAX=   29   IYMAX=   29   IZMAX=   29
   IXMIN=  -29   IYMIN=  -29   IZMIN=    0

 WARNING: aliasing errors must be expected set NGX to 118 to avoid them
 WARNING: aliasing errors must be expected set NGY to 118 to avoid them
 WARNING: aliasing errors must be expected set NGZ to 118 to avoid them
 aliasing errors are usually negligible using standard VASP settings
 and one can safely disregard these warnings

 parallel 3D FFT for wavefunctions:
    minimum data exchange during FFTs selected (reduces bandwidth)
 parallel 3D FFT for charge:
    minimum data exchange during FFTs selected (reduces bandwidth)


 total amount of memory used by VASP on root node    67917. kBytes
========================================================================

   base      :      30000. kBytes
   nonl-proj :       2452. kBytes
   fftplans  :       8588. kBytes
   grid      :      21928. kBytes
   one-center:         31. kBytes
   wavefun   :       4918. kBytes
 
     INWAV:  cpu time    0.00: real time    0.00
 Broyden mixing: mesh for mixing (old mesh)
   NGX = 59   NGY = 59   NGZ = 59
  (NGX  =180   NGY  =180   NGZ  =180)
  gives a total of 205379 points

 initial charge density was supplied:
 charge density of overlapping atoms calculated
 number of electron     130.0000000 magnetization      13.0000000
 keeping initial charge density in first step


--------------------------------------------------------------------------------------------------------


 Maximum index for augmentation-charges          112 (set IRDMAX)


--------------------------------------------------------------------------------------------------------


 First call to EWALD:  gamma=   0.080
 Maximum number of real-space cells 3x 3x 3
 Maximum number of reciprocal cells 3x 3x 3

 FEWALD executed in parallel
    FEWALD:  cpu time    0.00: real time    0.00


----------------------------------------- Iteration    1(   1)  ---------------------------------------


    POTLOK:  cpu time    0.37: real time    0.37
    SETDIJ:  cpu time    0.01: real time    0.01
     EDDAV:  cpu time    1.44: real time    1.44
       DOS:  cpu time    0.00: real time    0.00
    --------------------------------------------
      LOOP:  cpu time    1.82: real time    2.27

 eigenvalue-minimisations  :   352
 total energy-change (2. order) : 0.7280825E+03  (-0.1888807E+04)
 number of electron     130.0000000 magnetization      13.0000000
 augmentation part      130.0000000 magnetization      13.0000000

 Free energy of the ion-electron system (eV)
  ---------------------------------------------------
  alpha Z        PSCENC =         7.78008283
  Ewald energy   TEWEN  =     13998.07300954
  -Hartree energ DENC   =    -26904.21799415
  -exchange      EXHF   =         0.00000000
  -V(xc)+E(xc)   XCENC  =       389.28689051
  PAW double counting   =     12516.83125684   -13385.71925957
  entropy T*S    EENTRO =        -0.00000000
  eigenvalues    EBANDS =        96.78503601
  atomic energy  EATOM  =     14009.26346605
  ---------------------------------------------------
  free energy    TOTEN  =       728.08248806 eV

  energy without entropy =      728.08248806  energy(sigma->0) =      728.08248806


--------------------------------------------------------------------------------------------------------




----------------------------------------- Iteration    1(   2)  ---------------------------------------


     EDDAV:  cpu time    2.19: real time    2.19
       DOS:  cpu time    0.00: real time    0.00
    --------------------------------------------
      LOOP:  cpu time    2.19: real time    2.19

 eigenvalue-minimisations  :   600
 total energy-change (2. order) :-0.6001497E+03  (-0.5367505E+03)
 number of electron     130.0000000 magnetization      13.0000000
 augmentation part      130.0000000 magnetization      13.0000000

 Free energy of the ion-electron system (eV)
  ---------------------------------------------------
  alpha Z        PSCENC =         7.78008283
  Ewald energy   TEWEN  =     13998.07300954
  -Hartree energ DENC   =    -26904.21799415
  -exchange      EXHF   =         0.00000000
  -V(xc)+E(xc)   XCENC  =       389.28689051
  PAW double counting   =     12516.83125684   -13385.71925957
  entropy T*S    EENTRO =         0.00000000
  eigenvalues    EBANDS =      -503.36470853
  atomic energy  EATOM  =     14009.26346605
  ---------------------------------------------------
  free energy    TOTEN  =       127.93274351 eV

  energy without entropy =      127.93274351  energy(sigma->0) =      127.93274351


--------------------------------------------------------------------------------------------------------




----------------------------------------- Iteration    1(   3)  ---------------------------------------


     EDDAV:  cpu time    1.66: real time    1.66
       DOS:  cpu time    0.00: real time    0.00
    --------------------------------------------
      LOOP:  cpu time    1.66: real time    3.02

 eigenvalue-minimisations  :   424
 total energy-change (2. order) :-0.1544353E+03  (-0.1422090E+03)
 number of electron     130.0000000 magnetization      13.0000000
 augmentation part      130.0000000 magnetization      13.0000000

 Free energy of the ion-electron system (eV)
  ---------------------------------------------------
  alpha Z        PSCENC =         7.78008283
  Ewald energy   TEWEN  =     13998.07300954
  -Hartree energ DENC   =    -26904.21799415
  -exchange      EXHF   =         0.00000000
  -V(xc)+E(xc)   XCENC  =       389.28689051
  PAW double counting   =     12516.83125684   -13385.71925957
  entropy T*S    EENTRO =         0.00000000
  eigenvalues    EBANDS =      -657.80004522
  atomic energy  EATOM  =     14009.26346605
  ---------------------------------------------------
  free energy    TOTEN  =       -26.50259317 eV

  energy without entropy =      -26.50259317  energy(sigma->0) =      -26.50259317


--------------------------------------------------------------------------------------------------------




----------------------------------------- Iteration    1(   4)  ---------------------------------------


     EDDAV:  cpu time    1.56: real time    1.56
       DOS:  cpu time    0.00: real time    0.00
    --------------------------------------------
      LOOP:  cpu time    1.56: real time    1.62

 eigenvalue-minimisations  :   392
 total energy-change (2. order) :-0.1491076E+02  (-0.1344123E+02)
 number of electron     130.0000000 magnetization      13.0000000
 augmentation part      130.0000000 magnetization      13.0000000

 Free energy of the ion-electron system (eV)
  ---------------------------------------------------
  alpha Z        PSCENC =         7.78008283
  Ewald energy   TEWEN  =     13998.07300954
  -Hartree energ DENC   =    -26904.21799415
  -exchange      EXHF   =         0.00000000
  -V(xc)+E(xc)   XCENC  =       389.28689051
  PAW double counting   =     12516.83125684   -13385.71925957
  entropy T*S    EENTRO =         0.00000000
  eigenvalues    EBANDS =      -672.71080617
  atomic energy  EATOM  =     14009.26346605
  ---------------------------------------------------
  free energy    TOTEN  =       -41.41335412 eV

  energy without entropy =      -41.41335412  energy(sigma->0) =      -41.41335412


--------------------------------------------------------------------------------------------------------




----------------------------------------- Iteration    1(   5)  ---------------------------------------


     EDDAV:  cpu time    1.66: real time    1.65
       DOS:  cpu time    0.00: real time    0.00
    CHARGE:  cpu time    0.22: real time    0.22
    MIXING:  cpu time    0.01: real time    0.01
    --------------------------------------------
      LOOP:  cpu time    1.89: real time    1.89

 eigenvalue-minimisations  :   424
 total energy-change (2. order) :-0.2982725E+00  (-0.2903323E+00)
 number of electron     129.9999044 magnetization      12.8822466
 augmentation part       78.2390910 magnetization      10.5046405

 Broyden mixing:
  rms(total) = 0.16706E+01    rms(broyden)= 0.16585E+01
  rms(prec ) = 0.17782E+01
  weight for this iteration     100.00

 Free energy of the ion-electron system (eV)
  ---------------------------------------------------
  alpha Z        PSCENC =         7.78008283
  Ewald energy   TEWEN  =     13998.07300954
  -Hartree energ DENC   =    -26904.21799415
  -exchange      EXHF   =         0.00000000
  -V(xc)+E(xc)   XCENC  =       389.28689051
  PAW double counting   =     12516.83125684   -13385.71925957
  entropy T*S    EENTRO =        -0.00000000
  eigenvalues    EBANDS =      -673.00907862
  atomic energy  EATOM  =     14009.26346605
  ---------------------------------------------------
  free energy    TOTEN  =       -41.71162658 eV

  energy without entropy =      -41.71162658  energy(sigma->0) =      -41.71162658


--------------------------------------------------------------------------------------------------------




----------------------------------------- Iteration    1(   6)  ---------------------------------------


    POTLOK:  cpu time    0.36: real time    0.36
    SETDIJ:  cpu time    0.01: real time    0.01
     EDDAV:  cpu time    1.54: real time    1.54
       DOS:  cpu time    0.00: real time    0.00
    CHARGE:  cpu time    0.23: real time    0.23
    MIXING:  cpu time    0.01: real time    0.01
    --------------------------------------------
      LOOP:  cpu time    2.15: real time    2.15

 eigenvalue-minimisations  :   384
 total energy-change (2. order) :-0.1596946E+01  (-0.6113109E+01)
 number of electron     129.9998929 magnetization      12.8011912
 augmentation part       85.9208722 magnetization      10.8923789

 Broyden mixing:
  rms(total) = 0.39220E+01    rms(broyden)= 0.39182E+01
  rms(prec ) = 0.41560E+01
  weight for this iteration     100.00

 eigenvalues of (default mixing * dielectric matrix)
  average eigenvalue GAMMA=   0.2021
  0.2021

 Free energy of the ion-electron system (eV)
  ---------------------------------------------------
  alpha Z        PSCENC =         7.78008283
  Ewald energy   TEWEN  =     13998.07300954
  -Hartree energ DENC   =    -26743.27710161
  -exchange      EXHF   =         0.00000000
  -V(xc)+E(xc)   XCENC  =       381.54040530
  PAW double counting   =     12411.56109706   -13245.09753927
  entropy T*S    EENTRO =         0.00000000
  eigenvalues    EBANDS =      -863.15199225
  atomic energy  EATOM  =     14009.26346605
  ---------------------------------------------------
  free energy    TOTEN  =       -43.30857234 eV

  energy without entropy =      -43.30857234  energy(sigma->0) =      -43.30857234


--------------------------------------------------------------------------------------------------------




----------------------------------------- Iteration    1(   7)  ---------------------------------------


    POTLOK:  cpu time    0.36: real time    0.36
    SETDIJ:  cpu time    0.01: real time    0.01
     EDDAV:  cpu time    1.54: real time    1.54
       DOS:  cpu time    0.00: real time    0.00
    CHARGE:  cpu time    0.23: real time    0.23
    MIXING:  cpu time    0.01: real time    0.01
    --------------------------------------------
      LOOP:  cpu time    2.15: real time    2.15

 eigenvalue-minimisations  :   384
 total energy-change (2. order) : 0.2556317E-01  (-0.3715774E+01)
 number of electron     129.9998948 magnetization      12.7527759
 augmentation part       83.8272648 magnetization      10.1498361

 Broyden mixing:
  rms(total) = 0.32967E+01    rms(broyden)= 0.32904E+01
  rms(prec ) = 0.34976E+01
  weight for this iteration     100.00

 eigenvalues of (default mixing * dielectric matrix)
  average eigenvalue GAMMA=   0.2606
  0.1382  0.3829

 Free energy of the ion-electron system (eV)
  ---------------------------------------------------
  alpha Z        PSCENC =         7.78008283
  Ewald energy   TEWEN  =     13998.07300954
  -Hartree energ DENC   =    -26792.89533583
  -exchange      EXHF   =         0.00000000
  -V(xc)+E(xc)   XCENC  =       383.30388851
  PAW double counting   =     12510.14028504   -13355.99968626
  entropy T*S    EENTRO =        -0.00000000
  eigenvalues    EBANDS =      -802.94871906
  atomic energy  EATOM  =     14009.26346605
  ---------------------------------------------------
  free energy    TOTEN  =       -43.28300917 eV

  energy without entropy =      -43.28300917  energy(sigma->0) =      -43.28300917


--------------------------------------------------------------------------------------------------------




----------------------------------------- Iteration    1(   8)  ---------------------------------------


    POTLOK:  cpu time    0.37: real time    0.37
    SETDIJ:  cpu time    0.01: real time    0.01
     EDDAV:  cpu time    1.78: real time    1.78
       DOS:  cpu time    0.00: real time    0.00
    CHARGE:  cpu time    0.23: real time    0.23
    MIXING:  cpu time    0.01: real time    0.01
    --------------------------------------------
      LOOP:  cpu time    2.39: real time    3.77

 eigenvalue-minimisations  :   464
 total energy-change (2. order) : 0.3283349E+01  (-0.9364521E+00)
 number of electron     129.9999059 magnetization      12.7314042
 augmentation part       82.8210604 magnetization      10.2779292

 Broyden mixing:
  rms(total) = 0.44096E+01    rms(broyden)= 0.44031E+01
  rms(prec ) = 0.47033E+01
  weight for this iteration     100.00

 eigenvalues of (default mixing * dielectric matrix)
  average eigenvalue GAMMA=   0.2214
  0.4627  0.1008  0.1008

 Free energy of the ion-electron system (eV)
  ---------------------------------------------------
  alpha Z        PSCENC =         7.78008283
  Ewald energy   TEWEN  =     13998.07300954
  -Hartree energ DENC   =    -26836.59905527
  -exchange      EXHF   =         0.00000000
  -V(xc)+E(xc)   XCENC  =       384.51292893
  PAW double counting   =     12598.74721564   -13455.74839693
  entropy T*S    EENTRO =         0.00000000
  eigenvalues    EBANDS =      -746.02891129
  atomic energy  EATOM  =     14009.26346605
  ---------------------------------------------------
  free energy    TOTEN  =       -39.99966049 eV

  energy without entropy =      -39.99966049  energy(sigma->0) =      -39.99966049


--------------------------------------------------------------------------------------------------------




----------------------------------------- Iteration    1(   9)  ---------------------------------------


    POTLOK:  cpu time    0.36: real time    0.37
    SETDIJ:  cpu time    0.01: real time    0.01
     EDDAV:  cpu time    1.78: real time    1.78
       DOS:  cpu time    0.00: real time    0.00
    CHARGE:  cpu time    0.22: real time    0.23
    MIXING:  cpu time    0.01: real time    0.01
    --------------------------------------------
      LOOP:  cpu time    2.40: real time    4.87

 eigenvalue-minimisations  :   464
 total energy-change (2. order) : 0.1730249E+01  (-0.7509274E+00)
 number of electron     129.9999002 magnetization      12.7264973
 augmentation part       82.6850400 magnetization      10.0428364

 Broyden mixing:
  rms(total) = 0.42563E+01    rms(broyden)= 0.42505E+01
  rms(prec ) = 0.45517E+01
  weight for this iteration     100.00

 eigenvalues of (default mixing * dielectric matrix)
  average eigenvalue GAMMA=   0.1791
  0.4589  0.1113  0.1113  0.0346

 Free energy of the ion-electron system (eV)
  ---------------------------------------------------
  alpha Z        PSCENC =         7.78008283
  Ewald energy   TEWEN  =     13998.07300954
  -Hartree energ DENC   =    -26848.33710040
  -exchange      EXHF   =         0.00000000
  -V(xc)+E(xc)   XCENC  =       385.22151980
  PAW double counting   =     12627.76915406   -13488.17647784
  entropy T*S    EENTRO =         0.00000000
  eigenvalues    EBANDS =      -729.86306518
  atomic energy  EATOM  =     14009.26346605
  ---------------------------------------------------
  free energy    TOTEN  =       -38.26941113 eV

  energy without entropy =      -38.26941113  energy(sigma->0) =      -38.26941113


--------------------------------------------------------------------------------------------------------




----------------------------------------- Iteration    1(  10)  ---------------------------------------


    POTLOK:  cpu time    0.37: real time    0.37
    SETDIJ:  cpu time    0.01: real time    0.01
     EDDAV:  cpu time    1.61: real time    1.61
       DOS:  cpu time    0.00: real time    0.00
    CHARGE:  cpu time    0.23: real time    0.23
    MIXING:  cpu time    0.01: real time    0.01
    --------------------------------------------
      LOOP:  cpu time    2.22: real time    2.24

 eigenvalue-minimisations  :   408
 total energy-change (2. order) : 0.6118450E+00  (-0.7280794E+00)
 number of electron     129.9998978 magnetization      12.6763918
 augmentation part       82.4511421 magnetization      10.0845685

 Broyden mixing:
  rms(total) = 0.23404E+01    rms(broyden)= 0.23317E+01
  rms(prec ) = 0.24696E+01
  weight for this iteration     100.00

 eigenvalues of (default mixing * dielectric matrix)
  average eigenvalue GAMMA=   0.2283
  0.4421  0.4421  0.1603  0.0590  0.0382

 Free energy of the ion-electron system (eV)
  ---------------------------------------------------
  alpha Z        PSCENC =         7.78008283
  Ewald energy   TEWEN  =     13998.07300954
  -Hartree energ DENC   =    -26850.87717887
  -exchange      EXHF   =         0.00000000
  -V(xc)+E(xc)   XCENC  =       385.14025799
  PAW double counting   =     12632.62107530   -13493.49605949
  entropy T*S    EENTRO =         0.00000000
  eigenvalues    EBANDS =      -726.16221951
  atomic energy  EATOM  =     14009.26346605
  ---------------------------------------------------
  free energy    TOTEN  =       -37.65756615 eV

  energy without entropy =      -37.65756615  energy(sigma->0) =      -37.65756615


--------------------------------------------------------------------------------------------------------




----------------------------------------- Iteration    1(  11)  ---------------------------------------


    POTLOK:  cpu time    0.37: real time    0.37
    SETDIJ:  cpu time    0.01: real time    0.01
     EDDAV:  cpu time    1.66: real time    1.66
       DOS:  cpu time    0.00: real time    0.00
    CHARGE:  cpu time    0.23: real time    0.23
    MIXING:  cpu time    0.01: real time    0.01
    --------------------------------------------
      LOOP:  cpu time    2.28: real time    3.50

 eigenvalue-minimisations  :   424
 total energy-change (2. order) :-0.2188352E+01  (-0.2439392E+00)
 number of electron     129.9998908 magnetization      12.6458335
 augmentation part       82.1494876 magnetization      10.1806778

 Broyden mixing:
  rms(total) = 0.49235E+01    rms(broyden)= 0.49200E+01
  rms(prec ) = 0.52588E+01
  weight for this iteration     100.00

 eigenvalues of (default mixing * dielectric matrix)
  average eigenvalue GAMMA=   0.2420
  0.5762  0.5762  0.1294  0.0379  0.0749  0.0577

 Free energy of the ion-electron system (eV)
  ---------------------------------------------------
  alpha Z        PSCENC =         7.78008283
  Ewald energy   TEWEN  =     13998.07300954
  -Hartree energ DENC   =    -26863.27301779
  -exchange      EXHF   =         0.00000000
  -V(xc)+E(xc)   XCENC  =       385.26111311
  PAW double counting   =     12670.32430821   -13534.34229120
  entropy T*S    EENTRO =         0.00000000
  eigenvalues    EBANDS =      -712.93258899
  atomic energy  EATOM  =     14009.26346605
  ---------------------------------------------------
  free energy    TOTEN  =       -39.84591824 eV

  energy without entropy =      -39.84591824  energy(sigma->0) =      -39.84591824


--------------------------------------------------------------------------------------------------------




----------------------------------------- Iteration    1(  12)  ---------------------------------------


    POTLOK:  cpu time    0.36: real time    0.37
    SETDIJ:  cpu time    0.01: real time    0.01
     EDDAV:  cpu time    1.59: real time    1.59
       DOS:  cpu time    0.00: real time    0.00
    CHARGE:  cpu time    0.23: real time    0.23
    MIXING:  cpu time    0.01: real time    0.01
    --------------------------------------------
      LOOP:  cpu time    2.21: real time    2.21

 eigenvalue-minimisations  :   400
 total energy-change (2. order) : 0.2358545E+01  (-0.3489721E+00)
 number of electron     129.9998975 magnetization      12.6396421
 augmentation part       82.0483970 magnetization      10.2487549

 Broyden mixing:
  rms(total) = 0.30754E+01    rms(broyden)= 0.30698E+01
  rms(prec ) = 0.32982E+01
  weight for this iteration     100.00

 eigenvalues of (default mixing * dielectric matrix)
  average eigenvalue GAMMA=   0.2456
  0.6066  0.6066  0.1779  0.1779  0.0378  0.0602  0.0522

 Free energy of the ion-electron system (eV)
  ---------------------------------------------------
  alpha Z        PSCENC =         7.78008283
  Ewald energy   TEWEN  =     13998.07300954
  -Hartree energ DENC   =    -26872.44152916
  -exchange      EXHF   =         0.00000000
  -V(xc)+E(xc)   XCENC  =       385.76913328
  PAW double counting   =     12700.00697491   -13566.80746905
  entropy T*S    EENTRO =         0.00000000
  eigenvalues    EBANDS =      -699.13104141
  atomic energy  EATOM  =     14009.26346605
  ---------------------------------------------------
  free energy    TOTEN  =       -37.48737300 eV

  energy without entropy =      -37.48737300  energy(sigma->0) =      -37.48737300


--------------------------------------------------------------------------------------------------------




----------------------------------------- Iteration    1(  13)  ---------------------------------------


    POTLOK:  cpu time    0.37: real time    0.37
    SETDIJ:  cpu time    0.01: real time    0.01
     EDDAV:  cpu time    1.61: real time    1.62
       DOS:  cpu time    0.00: real time    0.00
    CHARGE:  cpu time    0.22: real time    0.23
    MIXING:  cpu time    0.02: real time    0.01
    --------------------------------------------
      LOOP:  cpu time    2.23: real time    2.23

 eigenvalue-minimisations  :   408
 total energy-change (2. order) : 0.6326104E+00  (-0.1578893E+00)
 number of electron     129.9998994 magnetization      12.6091795
 augmentation part       82.0280688 magnetization      10.2900152

 Broyden mixing:
  rms(total) = 0.10606E+01    rms(broyden)= 0.10473E+01
  rms(prec ) = 0.11127E+01
  weight for this iteration     100.00

 eigenvalues of (default mixing * dielectric matrix)
  average eigenvalue GAMMA=   0.2717
  0.7002  0.5099  0.5099  0.1532  0.1532  0.0373  0.0549  0.0549

 Free energy of the ion-electron system (eV)
  ---------------------------------------------------
  alpha Z        PSCENC =         7.78008283
  Ewald energy   TEWEN  =     13998.07300954
  -Hartree energ DENC   =    -26873.33342934
  -exchange      EXHF   =         0.00000000
  -V(xc)+E(xc)   XCENC  =       385.61655388
  PAW double counting   =     12709.96791922   -13577.86148105
  entropy T*S    EENTRO =        -0.00000000
  eigenvalues    EBANDS =      -696.36088373
  atomic energy  EATOM  =     14009.26346605
  ---------------------------------------------------
  free energy    TOTEN  =       -36.85476261 eV

  energy without entropy =      -36.85476261  energy(sigma->0) =      -36.85476261


--------------------------------------------------------------------------------------------------------




----------------------------------------- Iteration    1(  14)  ---------------------------------------


    POTLOK:  cpu time    0.36: real time    0.37
    SETDIJ:  cpu time    0.01: real time    0.01
     EDDAV:  cpu time    1.72: real time    1.71
       DOS:  cpu time    0.00: real time    0.00
    CHARGE:  cpu time    0.23: real time    0.23
    MIXING:  cpu time    0.01: real time    0.01
    --------------------------------------------
      LOOP:  cpu time    2.33: real time    2.35

 eigenvalue-minimisations  :   440
 total energy-change (2. order) :-0.6550658E+00  (-0.1001202E+00)
 number of electron     129.9998993 magnetization      12.5638253
 augmentation part       81.8508585 magnetization      10.3871359

 Broyden mixing:
  rms(total) = 0.22737E+01    rms(broyden)= 0.22691E+01
  rms(prec ) = 0.24129E+01
  weight for this iteration     100.00

 eigenvalues of (default mixing * dielectric matrix)
  average eigenvalue GAMMA=   0.3011
  1.1258  0.5259  0.5259  0.1645  0.1645  0.0373  0.0532  0.0532  0.0593

 Free energy of the ion-electron system (eV)
  ---------------------------------------------------
  alpha Z        PSCENC =         7.78008283
  Ewald energy   TEWEN  =     13998.07300954
  -Hartree energ DENC   =    -26877.99444388
  -exchange      EXHF   =         0.00000000
  -V(xc)+E(xc)   XCENC  =       385.42177825
  PAW double counting   =     12722.85684417   -13591.91840144
  entropy T*S    EENTRO =         0.00000000
  eigenvalues    EBANDS =      -690.99216391
  atomic energy  EATOM  =     14009.26346605
  ---------------------------------------------------
  free energy    TOTEN  =       -37.50982840 eV

  energy without entropy =      -37.50982840  energy(sigma->0) =      -37.50982840


--------------------------------------------------------------------------------------------------------




----------------------------------------- Iteration    1(  15)  ---------------------------------------


    POTLOK:  cpu time    0.37: real time    0.37
    SETDIJ:  cpu time    0.01: real time    0.01
     EDDAV:  cpu time    1.62: real time    1.62
       DOS:  cpu time    0.00: real time    0.00
    CHARGE:  cpu time    0.23: real time    0.23
    MIXING:  cpu time    0.01: real time    0.01
    --------------------------------------------
      LOOP:  cpu time    2.24: real time    3.24

 eigenvalue-minimisations  :   408
 total energy-change (2. order) : 0.4989879E+00  (-0.4028374E+00)
 number of electron     129.9999016 magnetization      12.5317832
 augmentation part       81.9054516 magnetization      10.2855220

 Broyden mixing:
  rms(total) = 0.81612E+00    rms(broyden)= 0.80088E+00
  rms(prec ) = 0.84679E+00
  weight for this iteration     100.00

 eigenvalues of (default mixing * dielectric matrix)
  average eigenvalue GAMMA=   0.3175
  1.2712  0.5243  0.5243  0.3197  0.1689  0.1689  0.0373  0.0580  0.0511  0.0511

 Free energy of the ion-electron system (eV)
  ---------------------------------------------------
  alpha Z        PSCENC =         7.78008283
  Ewald energy   TEWEN  =     13998.07300954
  -Hartree energ DENC   =    -26882.76975502
  -exchange      EXHF   =         0.00000000
  -V(xc)+E(xc)   XCENC  =       385.63814627
  PAW double counting   =     12738.74494183   -13609.08910894
  entropy T*S    EENTRO =        -0.00000000
  eigenvalues    EBANDS =      -684.65162302
  atomic energy  EATOM  =     14009.26346605
  ---------------------------------------------------
  free energy    TOTEN  =       -37.01084046 eV

  energy without entropy =      -37.01084046  energy(sigma->0) =      -37.01084046


--------------------------------------------------------------------------------------------------------




----------------------------------------- Iteration    1(  16)  ---------------------------------------


    POTLOK:  cpu time    0.36: real time    0.37
    SETDIJ:  cpu time    0.01: real time    0.01
     EDDAV:  cpu time    1.69: real time    1.69
       DOS:  cpu time    0.00: real time    0.00
    CHARGE:  cpu time    0.23: real time    0.23
    MIXING:  cpu time    0.02: real time    0.01
    --------------------------------------------
      LOOP:  cpu time    2.31: real time    2.33

 eigenvalue-minimisations  :   432
 total energy-change (2. order) :-0.2790007E+00  (-0.1531502E-01)
 number of electron     129.9999017 magnetization      12.4784149
 augmentation part       81.8840683 magnetization      10.2614598

 Broyden mixing:
  rms(total) = 0.69937E+00    rms(broyden)= 0.69761E+00
  rms(prec ) = 0.73978E+00
  weight for this iteration     100.00

 eigenvalues of (default mixing * dielectric matrix)
  average eigenvalue GAMMA=   0.4004
  1.4973  0.7056  0.7056  0.4816  0.4816  0.1672  0.1672  0.0373  0.0582  0.0514
  0.0514

 Free energy of the ion-electron system (eV)
  ---------------------------------------------------
  alpha Z        PSCENC =         7.78008283
  Ewald energy   TEWEN  =     13998.07300954
  -Hartree energ DENC   =    -26885.09932880
  -exchange      EXHF   =         0.00000000
  -V(xc)+E(xc)   XCENC  =       385.47764393
  PAW double counting   =     12745.31296284   -13616.20331288
  entropy T*S    EENTRO =         0.00000000
  eigenvalues    EBANDS =      -681.89436465
  atomic energy  EATOM  =     14009.26346605
  ---------------------------------------------------
  free energy    TOTEN  =       -37.28984113 eV

  energy without entropy =      -37.28984113  energy(sigma->0) =      -37.28984113


--------------------------------------------------------------------------------------------------------




----------------------------------------- Iteration    1(  17)  ---------------------------------------


    POTLOK:  cpu time    0.36: real time    0.37
    SETDIJ:  cpu time    0.01: real time    0.01
     EDDAV:  cpu time    1.98: real time    1.98
       DOS:  cpu time    0.00: real time    0.00
    CHARGE:  cpu time    0.23: real time    0.23
    MIXING:  cpu time    0.02: real time    0.01
    --------------------------------------------
      LOOP:  cpu time    2.60: real time    2.62

 eigenvalue-minimisations  :   528
 total energy-change (2. order) :-0.4069087E-01  (-0.1393724E-01)
 number of electron     129.9999011 magnetization      12.4548093
 augmentation part       81.9367389 magnetization      10.2779935

 Broyden mixing:
  rms(total) = 0.52599E+00    rms(broyden)= 0.52345E+00
  rms(prec ) = 0.55401E+00
  weight for this iteration     100.00

 eigenvalues of (default mixing * dielectric matrix)
  average eigenvalue GAMMA=   0.4106
  1.4893  0.7561  0.7561  0.5086  0.5086  0.3760  0.1673  0.1673  0.0373  0.0582
  0.0514  0.0514

 Free energy of the ion-electron system (eV)
  ---------------------------------------------------
  alpha Z        PSCENC =         7.78008283
  Ewald energy   TEWEN  =     13998.07300954
  -Hartree energ DENC   =    -26886.80410320
  -exchange      EXHF   =         0.00000000
  -V(xc)+E(xc)   XCENC  =       385.39802245
  PAW double counting   =     12747.26661896   -13618.19656834
  entropy T*S    EENTRO =         0.00000000
  eigenvalues    EBANDS =      -680.11106028
  atomic energy  EATOM  =     14009.26346605
  ---------------------------------------------------
  free energy    TOTEN  =       -37.33053200 eV

  energy without entropy =      -37.33053200  energy(sigma->0) =      -37.33053200


--------------------------------------------------------------------------------------------------------




----------------------------------------- Iteration    1(  18)  ---------------------------------------


    POTLOK:  cpu time    0.37: real time    0.37
    SETDIJ:  cpu time    0.01: real time    0.01
     EDDAV:  cpu time    1.74: real time    1.74
       DOS:  cpu time    0.00: real time    0.00
    CHARGE:  cpu time    0.23: real time    0.23
    MIXING:  cpu time    0.02: real time    0.02
    --------------------------------------------
      LOOP:  cpu time    2.36: real time    2.40

 eigenvalue-minimisations  :   448
 total energy-change (2. order) :-0.2734939E-01  (-0.2961359E-02)
 number of electron     129.9999017 magnetization      12.3964980
 augmentation part       81.9393592 magnetization      10.2430264

 Broyden mixing:
  rms(total) = 0.43816E+00    rms(broyden)= 0.43738E+00
  rms(prec ) = 0.46355E+00
  weight for this iteration     100.00

 eigenvalues of (default mixing * dielectric matrix)
  average eigenvalue GAMMA=   0.4805
  1.5209  1.0258  1.0258  0.6145  0.6145  0.4559  0.4559  0.1673  0.1673  0.0373
  0.0582  0.0514  0.0514

 Free energy of the ion-electron system (eV)
  ---------------------------------------------------
  alpha Z        PSCENC =         7.78008283
  Ewald energy   TEWEN  =     13998.07300954
  -Hartree energ DENC   =    -26888.18687838
  -exchange      EXHF   =         0.00000000
  -V(xc)+E(xc)   XCENC  =       385.39796986
  PAW double counting   =     12746.67560714   -13617.62569105
  entropy T*S    EENTRO =         0.00000000
  eigenvalues    EBANDS =      -678.73544739
  atomic energy  EATOM  =     14009.26346605
  ---------------------------------------------------
  free energy    TOTEN  =       -37.35788140 eV

  energy without entropy =      -37.35788140  energy(sigma->0) =      -37.35788140


--------------------------------------------------------------------------------------------------------




----------------------------------------- Iteration    1(  19)  ---------------------------------------


    POTLOK:  cpu time    0.37: real time    0.37
    SETDIJ:  cpu time    0.01: real time    0.01
     EDDAV:  cpu time    1.79: real time    1.79
       DOS:  cpu time    0.00: real time    0.00
    CHARGE:  cpu time    0.23: real time    0.23
    MIXING:  cpu time    0.02: real time    0.02
    --------------------------------------------
      LOOP:  cpu time    2.41: real time    2.96

 eigenvalue-minimisations  :   464
 total energy-change (2. order) :-0.1072448E+00  (-0.4386606E-02)
 number of electron     129.9999019 magnetization      12.3184984
 augmentation part       81.9782524 magnetization      10.1935342

 Broyden mixing:
  rms(total) = 0.30102E+00    rms(broyden)= 0.29934E+00
  rms(prec ) = 0.31740E+00
  weight for this iteration     100.00

 eigenvalues of (default mixing * dielectric matrix)
  average eigenvalue GAMMA=   0.5377
  1.3951  1.2241  1.2241  0.7742  0.7742  0.5368  0.5368  0.5296  0.1673  0.1673
  0.0373  0.0582  0.0514  0.0514

 Free energy of the ion-electron system (eV)
  ---------------------------------------------------
  alpha Z        PSCENC =         7.78008283
  Ewald energy   TEWEN  =     13998.07300954
  -Hartree energ DENC   =    -26890.95916275
  -exchange      EXHF   =         0.00000000
  -V(xc)+E(xc)   XCENC  =       385.34492683
  PAW double counting   =     12744.83523174   -13615.80393447
  entropy T*S    EENTRO =        -0.00000000
  eigenvalues    EBANDS =      -675.99874593
  atomic energy  EATOM  =     14009.26346605
  ---------------------------------------------------
  free energy    TOTEN  =       -37.46512616 eV

  energy without entropy =      -37.46512616  energy(sigma->0) =      -37.46512616


--------------------------------------------------------------------------------------------------------




----------------------------------------- Iteration    1(  20)  ---------------------------------------


    POTLOK:  cpu time    0.37: real time    0.37
    SETDIJ:  cpu time    0.01: real time    0.01
     EDDAV:  cpu time    1.72: real time    1.72
       DOS:  cpu time    0.00: real time    0.00
    CHARGE:  cpu time    0.23: real time    0.23
    MIXING:  cpu time    0.02: real time    0.02
    --------------------------------------------
      LOOP:  cpu time    2.34: real time    2.77

 eigenvalue-minimisations  :   440
 total energy-change (2. order) :-0.1342773E+00  (-0.4171691E-02)
 number of electron     129.9999015 magnetization      12.2708674
 augmentation part       82.0132494 magnetization      10.1698338

 Broyden mixing:
  rms(total) = 0.15541E+00    rms(broyden)= 0.15241E+00
  rms(prec ) = 0.16243E+00
  weight for this iteration     100.00

 eigenvalues of (default mixing * dielectric matrix)
  average eigenvalue GAMMA=   0.5858
  1.5461  1.5461  1.2360  0.8351  0.8351  0.6385  0.6385  0.4895  0.4895  0.1673
  0.1673  0.0373  0.0582  0.0514  0.0514

 Free energy of the ion-electron system (eV)
  ---------------------------------------------------
  alpha Z        PSCENC =         7.78008283
  Ewald energy   TEWEN  =     13998.07300954
  -Hartree energ DENC   =    -26895.56399078
  -exchange      EXHF   =         0.00000000
  -V(xc)+E(xc)   XCENC  =       385.31785560
  PAW double counting   =     12740.87928260   -13611.87497394
  entropy T*S    EENTRO =         0.00000000
  eigenvalues    EBANDS =      -671.47413534
  atomic energy  EATOM  =     14009.26346605
  ---------------------------------------------------
  free energy    TOTEN  =       -37.59940344 eV

  energy without entropy =      -37.59940344  energy(sigma->0) =      -37.59940344


--------------------------------------------------------------------------------------------------------




----------------------------------------- Iteration    1(  21)  ---------------------------------------


    POTLOK:  cpu time    0.37: real time    0.37
    SETDIJ:  cpu time    0.01: real time    0.01
     EDDAV:  cpu time    1.55: real time    1.55
       DOS:  cpu time    0.00: real time    0.00
    CHARGE:  cpu time    0.23: real time    0.23
    MIXING:  cpu time    0.02: real time    0.02
    --------------------------------------------
      LOOP:  cpu time    2.17: real time    2.24

 eigenvalue-minimisations  :   384
 total energy-change (2. order) :-0.6726438E-01  (-0.1705227E-02)
 number of electron     129.9999018 magnetization      12.2436323
 augmentation part       82.0141310 magnetization      10.1459933

 Broyden mixing:
  rms(total) = 0.14212E+00    rms(broyden)= 0.13997E+00
  rms(prec ) = 0.14848E+00
  weight for this iteration     100.00

 eigenvalues of (default mixing * dielectric matrix)
  average eigenvalue GAMMA=   0.6062
  1.7396  1.3960  1.3960  0.9185  0.9185  0.6611  0.6611  0.5067  0.4845  0.4845
  0.1673  0.1673  0.0373  0.0582  0.0514  0.0514

 Free energy of the ion-electron system (eV)
  ---------------------------------------------------
  alpha Z        PSCENC =         7.78008283
  Ewald energy   TEWEN  =     13998.07300954
  -Hartree energ DENC   =    -26899.36441488
  -exchange      EXHF   =         0.00000000
  -V(xc)+E(xc)   XCENC  =       385.32935167
  PAW double counting   =     12739.73554595   -13610.84583749
  entropy T*S    EENTRO =        -0.00000000
  eigenvalues    EBANDS =      -667.63787149
  atomic energy  EATOM  =     14009.26346605
  ---------------------------------------------------
  free energy    TOTEN  =       -37.66666782 eV

  energy without entropy =      -37.66666782  energy(sigma->0) =      -37.66666782


--------------------------------------------------------------------------------------------------------




----------------------------------------- Iteration    1(  22)  ---------------------------------------


    POTLOK:  cpu time    0.36: real time    0.37
    SETDIJ:  cpu time    0.01: real time    0.01
     EDDAV:  cpu time    1.65: real time    1.65
       DOS:  cpu time    0.00: real time    0.00
    CHARGE:  cpu time    0.22: real time    0.23
    MIXING:  cpu time    0.02: real time    0.02
    --------------------------------------------
      LOOP:  cpu time    2.27: real time    2.27

 eigenvalue-minimisations  :   416
 total energy-change (2. order) :-0.1781409E-01  (-0.7376806E-03)
 number of electron     129.9999021 magnetization      12.2091945
 augmentation part       82.0090423 magnetization      10.1296538

 Broyden mixing:
  rms(total) = 0.12021E+00    rms(broyden)= 0.11979E+00
  rms(prec ) = 0.12706E+00
  weight for this iteration     100.00

 eigenvalues of (default mixing * dielectric matrix)
  average eigenvalue GAMMA=   0.6558
  2.4633  1.2937  1.2937  0.9498  0.9498  0.6984  0.6984  0.6819  0.5794  0.5035
  0.5035  0.1673  0.1673  0.0373  0.0582  0.0514  0.0514

 Free energy of the ion-electron system (eV)
  ---------------------------------------------------
  alpha Z        PSCENC =         7.78008283
  Ewald energy   TEWEN  =     13998.07300954
  -Hartree energ DENC   =    -26901.20196698
  -exchange      EXHF   =         0.00000000
  -V(xc)+E(xc)   XCENC  =       385.34142466
  PAW double counting   =     12739.06514918   -13610.21433005
  entropy T*S    EENTRO =         0.00000000
  eigenvalues    EBANDS =      -665.79131715
  atomic energy  EATOM  =     14009.26346605
  ---------------------------------------------------
  free energy    TOTEN  =       -37.68448190 eV

  energy without entropy =      -37.68448190  energy(sigma->0) =      -37.68448190


--------------------------------------------------------------------------------------------------------




----------------------------------------- Iteration    1(  23)  ---------------------------------------


    POTLOK:  cpu time    0.36: real time    0.37
    SETDIJ:  cpu time    0.01: real time    0.01
     EDDAV:  cpu time    1.74: real time    1.74
       DOS:  cpu time    0.00: real time    0.00
    CHARGE:  cpu time    0.22: real time    0.23
    MIXING:  cpu time    0.02: real time    0.02
    --------------------------------------------
      LOOP:  cpu time    2.37: real time    2.39

 eigenvalue-minimisations  :   448
 total energy-change (2. order) :-0.2449209E-01  (-0.6600338E-03)
 number of electron     129.9999024 magnetization      12.1807739
 augmentation part       82.0097638 magnetization      10.1188552

 Broyden mixing:
  rms(total) = 0.89032E-01    rms(broyden)= 0.88346E-01
  rms(prec ) = 0.94176E-01
  weight for this iteration     100.00

 eigenvalues of (default mixing * dielectric matrix)
  average eigenvalue GAMMA=   0.6854
  2.6930  1.1996  1.1996  0.9837  0.9837  1.0175  0.7315  0.7315  0.7466  0.5002
  0.5002  0.5163  0.1673  0.1673  0.0373  0.0582  0.0514  0.0514

 Free energy of the ion-electron system (eV)
  ---------------------------------------------------
  alpha Z        PSCENC =         7.78008283
  Ewald energy   TEWEN  =     13998.07300954
  -Hartree energ DENC   =    -26903.06848781
  -exchange      EXHF   =         0.00000000
  -V(xc)+E(xc)   XCENC  =       385.32656549
  PAW double counting   =     12737.23824224   -13608.35578323
  entropy T*S    EENTRO =         0.00000000
  eigenvalues    EBANDS =      -663.96606911
  atomic energy  EATOM  =     14009.26346605
  ---------------------------------------------------
  free energy    TOTEN  =       -37.70897400 eV

  energy without entropy =      -37.70897400  energy(sigma->0) =      -37.70897400


--------------------------------------------------------------------------------------------------------




----------------------------------------- Iteration    1(  24)  ---------------------------------------


    POTLOK:  cpu time    0.37: real time    0.37
    SETDIJ:  cpu time    0.01: real time    0.01
     EDDAV:  cpu time    1.55: real time    1.55
       DOS:  cpu time    0.00: real time    0.00
    CHARGE:  cpu time    0.23: real time    0.23
    MIXING:  cpu time    0.02: real time    0.02
    --------------------------------------------
      LOOP:  cpu time    2.18: real time    2.19

 eigenvalue-minimisations  :   384
 total energy-change (2. order) :-0.1936329E-01  (-0.3491945E-03)
 number of electron     129.9999026 magnetization      12.1657206
 augmentation part       82.0108294 magnetization      10.1186583

 Broyden mixing:
  rms(total) = 0.54684E-01    rms(broyden)= 0.54070E-01
  rms(prec ) = 0.57679E-01
  weight for this iteration     100.00

 eigenvalues of (default mixing * dielectric matrix)
  average eigenvalue GAMMA=   0.7011
  2.8607  1.0833  1.0833  1.0508  1.0508  0.9952  0.9952  0.7464  0.7464  0.6285
  0.5428  0.5018  0.5018  0.1673  0.1673  0.0373  0.0582  0.0514  0.0514

 Free energy of the ion-electron system (eV)
  ---------------------------------------------------
  alpha Z        PSCENC =         7.78008283
  Ewald energy   TEWEN  =     13998.07300954
  -Hartree energ DENC   =    -26904.48981659
  -exchange      EXHF   =         0.00000000
  -V(xc)+E(xc)   XCENC  =       385.32129408
  PAW double counting   =     12735.22583323   -13606.34747320
  entropy T*S    EENTRO =         0.00000000
  eigenvalues    EBANDS =      -662.55473324
  atomic energy  EATOM  =     14009.26346605
  ---------------------------------------------------
  free energy    TOTEN  =       -37.72833729 eV

  energy without entropy =      -37.72833729  energy(sigma->0) =      -37.72833729


--------------------------------------------------------------------------------------------------------




----------------------------------------- Iteration    1(  25)  ---------------------------------------


    POTLOK:  cpu time    0.37: real time    0.37
    SETDIJ:  cpu time    0.01: real time    0.01
     EDDAV:  cpu time    1.67: real time    1.67
       DOS:  cpu time    0.00: real time    0.00
    CHARGE:  cpu time    0.23: real time    0.23
    MIXING:  cpu time    0.02: real time    0.02
    --------------------------------------------
      LOOP:  cpu time    2.30: real time    2.99

 eigenvalue-minimisations  :   424
 total energy-change (2. order) :-0.1021200E-01  (-0.1494059E-03)
 number of electron     129.9999026 magnetization      12.1516131
 augmentation part       82.0110271 magnetization      10.1091615

 Broyden mixing:
  rms(total) = 0.50847E-01    rms(broyden)= 0.50549E-01
  rms(prec ) = 0.54148E-01
  weight for this iteration     100.00

 eigenvalues of (default mixing * dielectric matrix)
  average eigenvalue GAMMA=   0.7381
  2.9365  1.3796  1.3796  1.1114  1.1114  0.9987  0.9987  0.7409  0.7409  0.6590
  0.6590  0.5196  0.4969  0.4969  0.1673  0.1673  0.0373  0.0582  0.0514  0.0514

 Free energy of the ion-electron system (eV)
  ---------------------------------------------------
  alpha Z        PSCENC =         7.78008283
  Ewald energy   TEWEN  =     13998.07300954
  -Hartree energ DENC   =    -26905.28227023
  -exchange      EXHF   =         0.00000000
  -V(xc)+E(xc)   XCENC  =       385.32004845
  PAW double counting   =     12734.67706286   -13605.85778505
  entropy T*S    EENTRO =         0.00000000
  eigenvalues    EBANDS =      -661.71216374
  atomic energy  EATOM  =     14009.26346605
  ---------------------------------------------------
  free energy    TOTEN  =       -37.73854929 eV

  energy without entropy =      -37.73854929  energy(sigma->0) =      -37.73854929


--------------------------------------------------------------------------------------------------------




----------------------------------------- Iteration    1(  26)  ---------------------------------------


    POTLOK:  cpu time    0.36: real time    0.37
    SETDIJ:  cpu time    0.01: real time    0.01
     EDDAV:  cpu time    1.55: real time    1.55
       DOS:  cpu time    0.00: real time    0.00
    CHARGE:  cpu time    0.23: real time    0.23
    MIXING:  cpu time    0.03: real time    0.03
    --------------------------------------------
      LOOP:  cpu time    2.18: real time    2.20

 eigenvalue-minimisations  :   384
 total energy-change (2. order) :-0.9065084E-02  (-0.4952962E-04)
 number of electron     129.9999026 magnetization      12.1298160
 augmentation part       82.0070607 magnetization      10.0933762

 Broyden mixing:
  rms(total) = 0.36665E-01    rms(broyden)= 0.36526E-01
  rms(prec ) = 0.39133E-01
  weight for this iteration     100.00

 eigenvalues of (default mixing * dielectric matrix)
  average eigenvalue GAMMA=   0.7682
  3.0855  1.5647  1.5647  1.1847  1.1847  0.9778  0.9778  0.7813  0.7813  0.7042
  0.7042  0.5020  0.5020  0.5552  0.5290  0.1673  0.1673  0.0373  0.0582  0.0514
  0.0514

 Free energy of the ion-electron system (eV)
  ---------------------------------------------------
  alpha Z        PSCENC =         7.78008283
  Ewald energy   TEWEN  =     13998.07300954
  -Hartree energ DENC   =    -26906.00399370
  -exchange      EXHF   =         0.00000000
  -V(xc)+E(xc)   XCENC  =       385.31757936
  PAW double counting   =     12734.15687056   -13605.38313934
  entropy T*S    EENTRO =        -0.00000000
  eigenvalues    EBANDS =      -660.95148969
  atomic energy  EATOM  =     14009.26346605
  ---------------------------------------------------
  free energy    TOTEN  =       -37.74761438 eV

  energy without entropy =      -37.74761438  energy(sigma->0) =      -37.74761438


--------------------------------------------------------------------------------------------------------




----------------------------------------- Iteration    1(  27)  ---------------------------------------


    POTLOK:  cpu time    0.37: real time    0.37
    SETDIJ:  cpu time    0.01: real time    0.01
     EDDAV:  cpu time    1.55: real time    1.55
       DOS:  cpu time    0.00: real time    0.00
    CHARGE:  cpu time    0.23: real time    0.23
    MIXING:  cpu time    0.03: real time    0.03
    --------------------------------------------
      LOOP:  cpu time    2.18: real time    2.20

 eigenvalue-minimisations  :   384
 total energy-change (2. order) :-0.1195670E-01  (-0.4455773E-04)
 number of electron     129.9999025 magnetization      12.1122376
 augmentation part       82.0040677 magnetization      10.0838658

 Broyden mixing:
  rms(total) = 0.20290E-01    rms(broyden)= 0.20034E-01
  rms(prec ) = 0.21629E-01
  weight for this iteration     100.00

 eigenvalues of (default mixing * dielectric matrix)
  average eigenvalue GAMMA=   0.7914
  3.1553  1.7115  1.7115  1.2692  1.2692  0.9483  0.9483  0.8406  0.8406  0.7218
  0.7218  0.6148  0.6148  0.4989  0.4989  0.5115  0.1673  0.1673  0.0373  0.0582
  0.0514  0.0514

 Free energy of the ion-electron system (eV)
  ---------------------------------------------------
  alpha Z        PSCENC =         7.78008283
  Ewald energy   TEWEN  =     13998.07300954
  -Hartree energ DENC   =    -26906.98976339
  -exchange      EXHF   =         0.00000000
  -V(xc)+E(xc)   XCENC  =       385.31110633
  PAW double counting   =     12733.19160866   -13604.45242029
  entropy T*S    EENTRO =         0.00000000
  eigenvalues    EBANDS =      -659.93666080
  atomic energy  EATOM  =     14009.26346605
  ---------------------------------------------------
  free energy    TOTEN  =       -37.75957107 eV

  energy without entropy =      -37.75957107  energy(sigma->0) =      -37.75957107


--------------------------------------------------------------------------------------------------------




----------------------------------------- Iteration    1(  28)  ---------------------------------------


    POTLOK:  cpu time    0.36: real time    0.37
    SETDIJ:  cpu time    0.01: real time    0.01
     EDDAV:  cpu time    1.39: real time    1.39
       DOS:  cpu time    0.00: real time    0.00
    CHARGE:  cpu time    0.23: real time    0.23
    MIXING:  cpu time    0.03: real time    0.03
    --------------------------------------------
      LOOP:  cpu time    2.02: real time    2.02

 eigenvalue-minimisations  :   328
 total energy-change (2. order) :-0.9199313E-02  (-0.3254785E-04)
 number of electron     129.9999025 magnetization      12.0958654
 augmentation part       82.0059504 magnetization      10.0711018

 Broyden mixing:
  rms(total) = 0.10260E-01    rms(broyden)= 0.10038E-01
  rms(prec ) = 0.11147E-01
  weight for this iteration     100.00

 eigenvalues of (default mixing * dielectric matrix)
  average eigenvalue GAMMA=   0.8139
  3.2169  1.7811  1.7811  1.3700  1.3700  0.9723  0.9723  0.8964  0.8964  0.7552
  0.7552  0.6645  0.6645  0.5730  0.4997  0.4997  0.5195  0.1673  0.1673  0.0373
  0.0582  0.0514  0.0514

 Free energy of the ion-electron system (eV)
  ---------------------------------------------------
  alpha Z        PSCENC =         7.78008283
  Ewald energy   TEWEN  =     13998.07300954
  -Hartree energ DENC   =    -26907.69933397
  -exchange      EXHF   =         0.00000000
  -V(xc)+E(xc)   XCENC  =       385.30405188
  PAW double counting   =     12732.36417859   -13603.63704956
  entropy T*S    EENTRO =        -0.00000000
  eigenvalues    EBANDS =      -659.21717576
  atomic energy  EATOM  =     14009.26346605
  ---------------------------------------------------
  free energy    TOTEN  =       -37.76877039 eV

  energy without entropy =      -37.76877039  energy(sigma->0) =      -37.76877039


--------------------------------------------------------------------------------------------------------




----------------------------------------- Iteration    1(  29)  ---------------------------------------


    POTLOK:  cpu time    0.36: real time    0.37
    SETDIJ:  cpu time    0.01: real time    0.01
     EDDAV:  cpu time    1.32: real time    1.31
       DOS:  cpu time    0.00: real time    0.00
    CHARGE:  cpu time    0.23: real time    0.23
    MIXING:  cpu time    0.03: real time    0.03
    --------------------------------------------
      LOOP:  cpu time    1.95: real time    2.88

 eigenvalue-minimisations  :   304
 total energy-change (2. order) :-0.7814924E-02  (-0.2299335E-04)
 number of electron     129.9999025 magnetization      12.0754162
 augmentation part       82.0049869 magnetization      10.0541939

 Broyden mixing:
  rms(total) = 0.10819E-01    rms(broyden)= 0.10781E-01
  rms(prec ) = 0.11925E-01
  weight for this iteration     100.00

 eigenvalues of (default mixing * dielectric matrix)
  average eigenvalue GAMMA=   0.8419
  3.4102  2.0177  2.0177  1.3984  1.3984  0.9849  0.9849  0.9183  0.9183  0.7749
  0.7749  0.6843  0.6843  0.5999  0.5999  0.4988  0.4988  0.5096  0.1673  0.1673
  0.0373  0.0582  0.0514  0.0514

 Free energy of the ion-electron system (eV)
  ---------------------------------------------------
  alpha Z        PSCENC =         7.78008283
  Ewald energy   TEWEN  =     13998.07300954
  -Hartree energ DENC   =    -26908.45329503
  -exchange      EXHF   =         0.00000000
  -V(xc)+E(xc)   XCENC  =       385.30190889
  PAW double counting   =     12731.68941188   -13602.97324313
  entropy T*S    EENTRO =         0.00000000
  eigenvalues    EBANDS =      -658.45792634
  atomic energy  EATOM  =     14009.26346605
  ---------------------------------------------------
  free energy    TOTEN  =       -37.77658531 eV

  energy without entropy =      -37.77658531  energy(sigma->0) =      -37.77658531


--------------------------------------------------------------------------------------------------------




----------------------------------------- Iteration    1(  30)  ---------------------------------------


    POTLOK:  cpu time    0.36: real time    0.37
    SETDIJ:  cpu time    0.01: real time    0.01
     EDDAV:  cpu time    1.34: real time    1.34
       DOS:  cpu time    0.00: real time    0.00
    CHARGE:  cpu time    0.23: real time    0.23
    MIXING:  cpu time    0.03: real time    0.03
    --------------------------------------------
      LOOP:  cpu time    1.97: real time    3.27

 eigenvalue-minimisations  :   312
 total energy-change (2. order) :-0.9091604E-02  (-0.2543143E-04)
 number of electron     129.9999024 magnetization      12.0645988
 augmentation part       82.0038486 magnetization      10.0483703

 Broyden mixing:
  rms(total) = 0.10049E-01    rms(broyden)= 0.99304E-02
  rms(prec ) = 0.10792E-01
  weight for this iteration     100.00

 eigenvalues of (default mixing * dielectric matrix)
  average eigenvalue GAMMA=   0.8450
  3.4101  2.0917  2.0917  1.3996  1.3996  0.9977  0.9977  0.9524  0.9524  0.8030
  0.8030  0.7121  0.7121  0.6145  0.6145  0.4993  0.4993  0.5266  0.5145  0.1673
  0.1673  0.0373  0.0582  0.0514  0.0514

 Free energy of the ion-electron system (eV)
  ---------------------------------------------------
  alpha Z        PSCENC =         7.78008283
  Ewald energy   TEWEN  =     13998.07300954
  -Hartree energ DENC   =    -26909.30636295
  -exchange      EXHF   =         0.00000000
  -V(xc)+E(xc)   XCENC  =       385.29704715
  PAW double counting   =     12730.99480368   -13602.29427344
  entropy T*S    EENTRO =         0.00000000
  eigenvalues    EBANDS =      -657.59344977
  atomic energy  EATOM  =     14009.26346605
  ---------------------------------------------------
  free energy    TOTEN  =       -37.78567691 eV

  energy without entropy =      -37.78567691  energy(sigma->0) =      -37.78567691


--------------------------------------------------------------------------------------------------------




----------------------------------------- Iteration    1(  31)  ---------------------------------------


    POTLOK:  cpu time    0.36: real time    0.37
    SETDIJ:  cpu time    0.01: real time    0.01
     EDDAV:  cpu time    1.22: real time    1.22
       DOS:  cpu time    0.00: real time    0.00
    CHARGE:  cpu time    0.23: real time    0.23
    MIXING:  cpu time    0.04: real time    0.04
    --------------------------------------------
      LOOP:  cpu time    1.86: real time    1.95

 eigenvalue-minimisations  :   272
 total energy-change (2. order) :-0.4599380E-02  (-0.1460638E-04)
 number of electron     129.9999025 magnetization      12.0529726
 augmentation part       82.0046818 magnetization      10.0384698

 Broyden mixing:
  rms(total) = 0.63026E-02    rms(broyden)= 0.62095E-02
  rms(prec ) = 0.67622E-02
  weight for this iteration     100.00

 eigenvalues of (default mixing * dielectric matrix)
  average eigenvalue GAMMA=   0.8543
  3.5790  2.1940  2.1940  1.3677  1.3677  1.0439  1.0439  0.9494  0.9494  0.8078
  0.8078  0.7436  0.7436  0.6474  0.6474  0.5475  0.5475  0.4995  0.4995  0.4979
  0.1673  0.1673  0.0373  0.0582  0.0514  0.0514

 Free energy of the ion-electron system (eV)
  ---------------------------------------------------
  alpha Z        PSCENC =         7.78008283
  Ewald energy   TEWEN  =     13998.07300954
  -Hartree energ DENC   =    -26909.71637292
  -exchange      EXHF   =         0.00000000
  -V(xc)+E(xc)   XCENC  =       385.29315999
  PAW double counting   =     12730.66263283   -13601.95776963
  entropy T*S    EENTRO =         0.00000000
  eigenvalues    EBANDS =      -657.18848498
  atomic energy  EATOM  =     14009.26346605
  ---------------------------------------------------
  free energy    TOTEN  =       -37.79027629 eV

  energy without entropy =      -37.79027629  energy(sigma->0) =      -37.79027629


--------------------------------------------------------------------------------------------------------




----------------------------------------- Iteration    1(  32)  ---------------------------------------


    POTLOK:  cpu time    0.37: real time    0.37
    SETDIJ:  cpu time    0.01: real time    0.01
     EDDAV:  cpu time    1.17: real time    1.17
       DOS:  cpu time    0.00: real time    0.00
    CHARGE:  cpu time    0.23: real time    0.23
    MIXING:  cpu time    0.04: real time    0.04
    --------------------------------------------
      LOOP:  cpu time    1.82: real time    1.82

 eigenvalue-minimisations  :   256
 total energy-change (2. order) :-0.4630144E-02  (-0.1153831E-04)
 number of electron     129.9999025 magnetization      12.0433666
 augmentation part       82.0041860 magnetization      10.0317275

 Broyden mixing:
  rms(total) = 0.78734E-02    rms(broyden)= 0.77773E-02
  rms(prec ) = 0.84052E-02
  weight for this iteration     100.00

 eigenvalues of (default mixing * dielectric matrix)
  average eigenvalue GAMMA=   0.8857
  3.7161  2.3419  2.3419  1.3948  1.3948  1.1417  1.1417  0.9389  0.9389  0.8990
  0.8990  0.7933  0.7933  0.7117  0.7117  0.5987  0.5987  0.4990  0.4990  0.5295
  0.4964  0.1673  0.1673  0.0373  0.0514  0.0514  0.0582

 Free energy of the ion-electron system (eV)
  ---------------------------------------------------
  alpha Z        PSCENC =         7.78008283
  Ewald energy   TEWEN  =     13998.07300954
  -Hartree energ DENC   =    -26910.17121282
  -exchange      EXHF   =         0.00000000
  -V(xc)+E(xc)   XCENC  =       385.29098526
  PAW double counting   =     12730.37952489   -13601.68406113
  entropy T*S    EENTRO =         0.00000000
  eigenvalues    EBANDS =      -656.72670106
  atomic energy  EATOM  =     14009.26346605
  ---------------------------------------------------
  free energy    TOTEN  =       -37.79490644 eV

  energy without entropy =      -37.79490644  energy(sigma->0) =      -37.79490644


--------------------------------------------------------------------------------------------------------




----------------------------------------- Iteration    1(  33)  ---------------------------------------


    POTLOK:  cpu time    0.37: real time    0.37
    SETDIJ:  cpu time    0.01: real time    0.01
     EDDAV:  cpu time    1.20: real time    1.20
       DOS:  cpu time    0.00: real time    0.00
    CHARGE:  cpu time    0.23: real time    0.23
    MIXING:  cpu time    0.04: real time    0.04
    --------------------------------------------
      LOOP:  cpu time    1.85: real time    1.85

 eigenvalue-minimisations  :   264
 total energy-change (2. order) :-0.3806943E-02  (-0.9723632E-05)
 number of electron     129.9999025 magnetization      12.0332685
 augmentation part       82.0046726 magnetization      10.0230514

 Broyden mixing:
  rms(total) = 0.56937E-02    rms(broyden)= 0.55861E-02
  rms(prec ) = 0.60527E-02
  weight for this iteration     100.00

 eigenvalues of (default mixing * dielectric matrix)
  average eigenvalue GAMMA=   0.9040
  3.8530  2.3998  2.3998  1.4618  1.4618  1.2059  1.2059  0.9603  0.9603  0.9287
  0.9287  0.8154  0.8154  0.7538  0.7538  0.1673  0.1673  0.0373  0.0582  0.0514
  0.0514  0.6651  0.6651  0.4993  0.4993  0.5750  0.5202  0.4518

 Free energy of the ion-electron system (eV)
  ---------------------------------------------------
  alpha Z        PSCENC =         7.78008283
  Ewald energy   TEWEN  =     13998.07300954
  -Hartree energ DENC   =    -26910.51616692
[...]
     55      -4.9396      1.00000
     56      -4.9230      1.00000
     57      -4.8750      1.00000
     58      -4.8270      1.00000
     59      -4.8071      1.00000
     60      -4.7965      1.00000
     61      -4.7913      1.00000
     62      -4.7647      1.00000
     63      -4.7492      1.00000
     64      -4.7203      1.00000
     65      -4.7081      1.00000
     66      -4.6699      1.00000
     67      -4.5853      1.00000
     68      -4.5792      1.00000
     69      -4.5421      1.00000
     70      -4.4592      1.00000
     71      -3.5181      0.00000
     72      -3.3063      0.00000
     73      -3.1922      0.00000
     74      -3.0744      0.00000
     75      -2.6504      0.00000
     76      -2.1186      0.00000
     77      -1.6254      0.00000
     78      -1.5111      0.00000
     79      -1.3259      0.00000
     80      -1.2861      0.00000
     81      -0.9332      0.00000
     82      -0.5877      0.00000
     83      -0.2789      0.00000
     84      -0.1761      0.00000
     85      -0.0118      0.00000
     86      -0.0111      0.00000
     87       0.0881      0.00000
     88       0.2111      0.00000

 spin component 2

 k-point     1 :       0.0000    0.0000    0.0000
  band No.  band energies     occupation 
      1     -10.3233      1.00000
      2      -8.8128      1.00000
      3      -8.1770      1.00000
      4      -7.8165      1.00000
      5      -7.6605      1.00000
      6      -7.2546      1.00000
      7      -7.2282      1.00000
      8      -7.0562      1.00000
      9      -6.9272      1.00000
     10      -6.6208      1.00000
     11      -6.5120      1.00000
     12      -6.4855      1.00000
     13      -6.4347      1.00000
     14      -6.3241      1.00000
     15      -6.2872      1.00000
     16      -6.1243      1.00000
     17      -6.0214      1.00000
     18      -5.9792      1.00000
     19      -5.9766      1.00000
     20      -5.8823      1.00000
     21      -5.8689      1.00000
     22      -5.7615      1.00000
     23      -5.6823      1.00000
     24      -5.6761      1.00000
     25      -5.4943      1.00000
     26      -5.4630      1.00000
     27      -5.4310      1.00000
     28      -5.4074      1.00000
     29      -5.3318      1.00000
     30      -5.2970      1.00000
     31      -5.1761      1.00000
     32      -5.1564      1.00000
     33      -5.1428      1.00000
     34      -5.1330      1.00000
     35      -5.0042      1.00000
     36      -4.8637      1.00000
     37      -4.8417      1.00000
     38      -4.7133      1.00000
     39      -4.7005      1.00000
     40      -4.6957      1.00000
     41      -4.6745      1.00000
     42      -4.6387      1.00000
     43      -4.6192      1.00000
     44      -4.5506      1.00000
     45      -4.5176      1.00000
     46      -4.4854      1.00000
     47      -4.4485      1.00000
     48      -4.3709      1.00000
     49      -4.3633      1.00000
     50      -4.3527      1.00000
     51      -4.3271      1.00000
     52      -4.2958      1.00000
     53      -4.2806      1.00000
     54      -4.2710      1.00000
     55      -4.2162      1.00000
     56      -4.1750      1.00000
     57      -4.1343      1.00000
     58      -4.0555      1.00000
     59      -3.9493      1.00000
     60      -3.9180      1.00000
     61      -3.9089      0.00000
     62      -3.8382      0.00000
     63      -3.8205      0.00000
     64      -3.8087      0.00000
     65      -3.7999      0.00000
     66      -3.7290      0.00000
     67      -3.7193      0.00000
     68      -3.6687      0.00000
     69      -3.6517      0.00000
     70      -3.6410      0.00000
     71      -3.2250      0.00000
     72      -3.0127      0.00000
     73      -2.8541      0.00000
     74      -2.8224      0.00000
     75      -2.4549      0.00000
     76      -1.9976      0.00000
     77      -1.4737      0.00000
     78      -1.3733      0.00000
     79      -1.2425      0.00000
     80      -1.0701      0.00000
     81      -0.8055      0.00000
     82      -0.5123      0.00000
     83      -0.1958      0.00000
     84      -0.1244      0.00000
     85       0.0532      0.00000
     86       0.0974      0.00000
     87       0.1264      0.00000
     88       0.3373      0.00000


--------------------------------------------------------------------------------------------------------


 soft charge-density along one line, spin component           1
         0         1         2         3         4         5         6         7         8         9
 total charge-density along one line
 
 soft charge-density along one line, spin component           2
         0         1         2         3         4         5         6         7         8         9
 total charge-density along one line
 
 pseudopotential strength for first ion, spin component:           1
-10.031  -0.075   0.140  -0.023  -0.067 -10.312  -0.072   0.133
 -0.075  -9.984  -0.135  -0.073   0.014  -0.072 -10.268  -0.129
  0.140  -0.135 -10.080   0.031   0.033   0.133  -0.129 -10.359
 -0.023  -0.073   0.031 -10.065  -0.060  -0.022  -0.069   0.030
 -0.067   0.014   0.033  -0.060 -10.026  -0.064   0.014   0.031
-10.312  -0.072   0.133  -0.022  -0.064 -10.539  -0.069   0.127
 -0.072 -10.268  -0.129  -0.069   0.014  -0.069 -10.496  -0.123
  0.133  -0.129 -10.359   0.030   0.031   0.127  -0.123 -10.584
 -0.022  -0.069   0.030 -10.345  -0.057  -0.021  -0.066   0.029
 -0.064   0.014   0.031  -0.057 -10.308  -0.061   0.013   0.029
  0.031   0.013   0.002   0.015   0.011   0.030   0.013   0.001
  0.054   0.022   0.002   0.027   0.020   0.052   0.022   0.002
 -0.003   0.005  -0.007  -0.001  -0.012  -0.003   0.005  -0.007
 -0.001   0.010  -0.001  -0.003  -0.001  -0.001   0.009  -0.001
  0.011  -0.001   0.005   0.003  -0.008   0.010  -0.001   0.005
 -0.002   0.005  -0.007  -0.001  -0.011  -0.002   0.004  -0.007
 -0.001   0.009  -0.003  -0.001  -0.002  -0.001   0.008  -0.003
  0.010  -0.001   0.005   0.001  -0.008   0.009  -0.001   0.005
 pseudopotential strength for first ion, spin component:           2
 -9.316  -0.023   0.055  -0.038   0.034  -9.631  -0.022   0.052
 -0.023  -9.312   0.033  -0.070   0.048  -0.022  -9.627   0.032
  0.055   0.033  -9.307  -0.040   0.023   0.052   0.032  -9.622
 -0.038  -0.070  -0.040  -9.339  -0.022  -0.037  -0.067  -0.038
  0.034   0.048   0.023  -0.022  -9.317   0.033   0.046   0.023
 -9.631  -0.022   0.052  -0.037   0.033  -9.890  -0.021   0.050
 -0.022  -9.627   0.032  -0.067   0.046  -0.021  -9.886   0.031
  0.052   0.032  -9.622  -0.038   0.023   0.050   0.031  -9.880
 -0.037  -0.067  -0.038  -9.653  -0.021  -0.035  -0.064  -0.037
  0.033   0.046   0.023  -0.021  -9.632   0.032   0.045   0.022
  0.014   0.006   0.000   0.007   0.004   0.013   0.006  -0.000
  0.023   0.010   0.001   0.012   0.007   0.022   0.010  -0.000
 -0.007   0.006  -0.008  -0.000  -0.015  -0.007   0.005  -0.008
 -0.000   0.015   0.006  -0.008  -0.000  -0.000   0.014   0.006
  0.015  -0.000   0.004   0.006  -0.007   0.014  -0.000   0.004
 -0.008   0.006  -0.008  -0.000  -0.016  -0.007   0.005  -0.008
 -0.000   0.017   0.007  -0.008  -0.000  -0.000   0.015   0.006
  0.016  -0.000   0.004   0.006  -0.007   0.015  -0.000   0.004
 total augmentation occupancy for first ion, spin component:           1
  2.863  -0.143   0.236   0.230  -0.143  -1.232  -0.009  -0.021  -0.238   0.010  -0.425  -0.012  -0.045   0.016   0.160  -0.009
 -0.143   2.805  -0.266  -0.071  -0.106  -0.016  -0.945   0.008  -0.012   0.118  -0.381   0.056   0.136   0.165   0.040  -0.009
  0.236  -0.266   2.517   0.135   0.044  -0.019   0.004  -0.848  -0.009   0.030   0.336  -0.028  -0.084   0.082   0.101   0.001
  0.230  -0.071   0.135   2.664  -0.067  -0.236  -0.015  -0.014  -0.990   0.002  -0.229  -0.011   0.014  -0.080   0.094  -0.004
 -0.143  -0.106   0.044  -0.067   2.866   0.013   0.123   0.033   0.004  -1.212  -0.266  -0.002  -0.205  -0.030  -0.210   0.002
 -1.232  -0.016  -0.019  -0.236   0.013   1.378   0.123  -0.118   0.257   0.055   0.447  -0.013   0.093  -0.027  -0.194  -0.005
 -0.009  -0.945   0.004  -0.015   0.123   0.123   0.905   0.128   0.080  -0.148   0.372  -0.060  -0.123  -0.210  -0.045   0.017
 -0.021   0.008  -0.848  -0.014   0.033  -0.118   0.128   0.910  -0.059  -0.089  -0.365   0.044   0.099  -0.151  -0.091  -0.012
 -0.238  -0.012  -0.009  -0.990   0.004   0.257   0.080  -0.059   1.077   0.032   0.238  -0.002  -0.027   0.134  -0.112   0.004
  0.010   0.118   0.030   0.002  -1.212   0.055  -0.148  -0.089   0.032   1.335   0.275  -0.013   0.231   0.013   0.202  -0.021
 -0.425  -0.381   0.336  -0.229  -0.266   0.447   0.372  -0.365   0.238   0.275   2.010  -0.217  -0.226  -0.132   0.164   0.040
 -0.012   0.056  -0.028  -0.011  -0.002  -0.013  -0.060   0.044  -0.002  -0.013  -0.217   0.031   0.038   0.023  -0.029  -0.006
 -0.045   0.136  -0.084   0.014  -0.205   0.093  -0.123   0.099  -0.027   0.231  -0.226   0.038   0.190   0.032   0.055  -0.020
  0.016   0.165   0.082  -0.080  -0.030  -0.027  -0.210  -0.151   0.134   0.013  -0.132   0.023   0.032   0.158   0.027  -0.004
  0.160   0.040   0.101   0.094  -0.210  -0.194  -0.045  -0.091  -0.112   0.202   0.164  -0.029   0.055   0.027   0.263  -0.002
 -0.009  -0.009   0.001  -0.004   0.002  -0.005   0.017  -0.012   0.004  -0.021   0.040  -0.006  -0.020  -0.004  -0.002   0.003
 -0.004  -0.001   0.004  -0.004   0.003   0.004   0.021   0.011  -0.011  -0.002   0.023  -0.003  -0.004  -0.015  -0.001   0.001
  0.003  -0.002  -0.007   0.000   0.015   0.016   0.003   0.012   0.010  -0.025  -0.030   0.004  -0.002  -0.001  -0.024  -0.000
 total augmentation occupancy for first ion, spin component:           2
  0.934   0.155  -0.342   0.006   0.291  -0.442  -0.079   0.177  -0.013  -0.141  -0.060  -0.021  -0.019  -0.010   0.017  -0.005
  0.155   0.743   0.430   0.085   0.027  -0.072  -0.341  -0.192  -0.053   0.000   0.003  -0.004  -0.008   0.013   0.007   0.001
 -0.342   0.430   1.038  -0.170  -0.120   0.175  -0.185  -0.473   0.068   0.072   0.064   0.023   0.027   0.031  -0.021  -0.001
  0.006   0.085  -0.170   0.969   0.139  -0.014  -0.050   0.076  -0.450  -0.071  -0.034  -0.012  -0.001  -0.019   0.018   0.000
  0.291   0.027  -0.120   0.139   0.880  -0.144  -0.008   0.069  -0.073  -0.409  -0.040  -0.013  -0.007  -0.008   0.012  -0.006
 -0.442  -0.072   0.175  -0.014  -0.144   0.116   0.028  -0.075   0.012   0.063   0.026   0.015   0.002   0.008  -0.003   0.003
 -0.079  -0.341  -0.185  -0.050  -0.008   0.028   0.079   0.068   0.023  -0.002  -0.002   0.005   0.002   0.004  -0.003  -0.001
  0.177  -0.192  -0.473   0.076   0.069  -0.075   0.068   0.126  -0.025  -0.036  -0.032  -0.013  -0.019  -0.002   0.010   0.001
 -0.013  -0.053   0.068  -0.450  -0.073   0.012   0.023  -0.025   0.118   0.031   0.014   0.008   0.003  -0.001  -0.006  -0.000
 -0.141   0.000   0.072  -0.071  -0.409   0.063  -0.002  -0.036   0.031   0.097   0.019   0.009  -0.003   0.008  -0.005   0.004
 -0.060   0.003   0.064  -0.034  -0.040   0.026  -0.002  -0.032   0.014   0.019  -0.152   0.044   0.013   0.013  -0.014  -0.002
 -0.021  -0.004   0.023  -0.012  -0.013   0.015   0.005  -0.013   0.008   0.009   0.044  -0.007  -0.004  -0.002   0.003   0.001
 -0.019  -0.008   0.027  -0.001  -0.007   0.002   0.002  -0.019   0.003  -0.003   0.013  -0.004  -0.014   0.002  -0.004   0.002
 -0.010   0.013   0.031  -0.019  -0.008   0.008   0.004  -0.002  -0.001   0.008   0.013  -0.002   0.002  -0.013  -0.004   0.000
  0.017   0.007  -0.021   0.018   0.012  -0.003  -0.003   0.010  -0.006  -0.005  -0.014   0.003  -0.004  -0.004  -0.015   0.001
 -0.005   0.001  -0.001   0.000  -0.006   0.003  -0.001   0.001  -0.000   0.004  -0.002   0.001   0.002   0.000   0.001  -0.000
  0.000   0.006   0.006  -0.005   0.000  -0.000  -0.004  -0.003   0.003   0.000  -0.001   0.001   0.000   0.002   0.000  -0.000
  0.004   0.001   0.001   0.003  -0.002  -0.003  -0.001  -0.001  -0.002   0.002   0.002  -0.001   0.001   0.000   0.002  -0.000


------------------------ aborting loop because EDIFF is reached ----------------------------------------


    CHARGE:  cpu time    0.22: real time    0.22
    FORLOC:  cpu time    0.01: real time    0.01
    FORNL :  cpu time    0.63: real time    0.63
    STRESS:  cpu time    0.91: real time    0.91
    FORCOR:  cpu time    0.36: real time    0.37
    FORHAR:  cpu time    0.05: real time    0.05
    MIXING:  cpu time    0.08: real time    0.08
    OFIELD:  cpu time    0.00: real time    0.00

  FORCE on cell =-STRESS in cart. coord.  units (eV):
  Direction    XX          YY          ZZ          XY          YZ          ZX
  --------------------------------------------------------------------------------------
  Alpha Z     7.78008     7.78008     7.78008
  Ewald   12434.87506  5660.51737  2631.41708    -0.00000     0.00000    -0.00000
  Hartree 16034.74747 10060.70229  7461.89085    -0.00000    -0.00000    -0.00000
  E(xc)    -711.07701  -712.87296  -713.41819    -0.00000    -0.00000    -0.00000
  Local  -30913.27690-18195.53745-12576.93675     0.00000    -0.00000     0.00000
  n-local  -126.87829  -133.63830  -134.85377     0.00000    -0.00000     0.00000
  augment  2273.91710  2297.08515  2302.20808     0.00000     0.00000     0.00000
  Kinetic   997.96546  1014.42236  1021.06339    -0.00000    -0.00000    -0.00000
  Fock        0.00000     0.00000     0.00000     0.00000     0.00000     0.00000
  -------------------------------------------------------------------------------------
  Total      -1.94703    -1.54146    -0.84922     0.00000     0.00000     0.00000
  in kB      -0.28159    -0.22293    -0.12282     0.00000     0.00000     0.00000
  external pressure =       -0.21 kB  Pullay stress =        0.00 kB


 VOLUME and BASIS-vectors are now :
 -----------------------------------------------------------------------------
  energy-cutoff  :      269.53
  volume of cell :    11078.16
      direct lattice vectors                 reciprocal lattice vectors
    22.292350000  0.000000000  0.000000000     0.044858438  0.000000000  0.000000000
     0.000000000 22.292350000  0.000000000     0.000000000  0.044858438  0.000000000
     0.000000000  0.000000000 22.292350000     0.000000000  0.000000000  0.044858438

  length of vectors
    22.292350000 22.292350000 22.292350000     0.044858438  0.044858438  0.044858438


 FORCES acting on ions
    electron-ion (+dipol)            ewald-force                    non-local-force                 convergence-correction
 -----------------------------------------------------------------------------------------------
   0.758E+03 -.749E+03 -.377E+03   -.757E+03 0.745E+03 0.376E+03   -.154E+01 0.274E+01 0.139E+01   0.824E+00 0.758E+00 -.191E+00
   -.112E-10 0.792E+03 0.792E+03   0.142E-13 -.789E+03 -.791E+03   0.675E-26 -.217E+01 -.603E+00   0.310E-11 -.341E+00 -.497E+00
   0.621E+03 0.392E-12 0.103E+04   -.620E+03 0.284E-12 -.102E+04   -.179E+01 -.105E-25 -.508E+01   0.708E+00 0.210E-11 -.970E+00
   -.758E+03 0.749E+03 -.377E+03   0.757E+03 -.745E+03 0.376E+03   0.154E+01 -.274E+01 0.139E+01   -.824E+00 -.758E+00 -.191E+00
   -.111E-10 -.792E+03 0.792E+03   0.142E-13 0.789E+03 -.791E+03   0.191E-25 0.217E+01 -.603E+00   0.156E-11 0.341E+00 -.497E+00
   -.621E+03 0.428E-11 0.103E+04   0.620E+03 0.323E-12 -.102E+04   0.179E+01 0.261E-25 -.508E+01   -.708E+00 -.370E-11 -.970E+00
   -.708E-12 -.590E-10 -.101E+04   0.711E-13 0.710E-10 0.101E+04   -.272E-25 0.364E-26 0.154E+00   0.402E-11 -.192E-11 -.103E+00
   -.758E+03 -.749E+03 -.377E+03   0.757E+03 0.745E+03 0.376E+03   0.154E+01 0.274E+01 0.139E+01   -.824E+00 0.758E+00 -.191E+00
   0.262E-12 -.112E+04 -.568E+03   -.568E-13 0.111E+04 0.564E+03   -.641E-26 0.722E+01 0.340E+01   0.984E-12 0.104E+01 0.166E+00
   0.467E-12 0.112E+04 -.568E+03   -.284E-13 -.111E+04 0.564E+03   0.450E-27 -.722E+01 0.340E+01   0.541E-11 -.104E+01 0.166E+00
   0.758E+03 0.749E+03 -.377E+03   -.757E+03 -.745E+03 0.376E+03   -.154E+01 -.274E+01 0.139E+01   0.824E+00 -.758E+00 -.191E+00
   0.115E+04 -.115E-10 0.570E+01   -.114E+04 -.881E-12 -.553E+01   -.946E+01 -.717E-28 0.238E+00   -.605E+00 0.395E-11 -.452E+00
   -.115E+04 0.367E-11 0.570E+01   0.114E+04 -.888E-12 -.553E+01   0.946E+01 -.173E-27 0.238E+00   0.605E+00 -.387E-11 -.452E+00
 -----------------------------------------------------------------------------------------------
   -.261E-10 0.144E-10 0.280E+01   0.227E-12 -.640E-13 0.489E-12   0.000E+00 -.444E-15 0.164E+01   0.109E-10 -.144E-10 -.437E+01
 
 
 POSITION                                       TOTAL-FORCE (eV/Angst)
 -----------------------------------------------------------------------------------
      9.21043     12.35214     11.62588         0.034663     -0.040087     -0.004607
     11.14617      9.96543     10.19844         0.000000      0.052424     -0.059050
      9.18466     11.14617      9.61076         0.055484      0.000000      0.038988
     13.08192      9.94021     11.62588        -0.034663      0.040087     -0.004607
     11.14617     12.32692     10.19844         0.000000     -0.052424     -0.059050
     13.10769     11.14617      9.61076        -0.055484      0.000000      0.038988
     11.14617     11.14617     12.33106        -0.000000     -0.000000      0.006318
     13.08192     12.35214     11.62588        -0.034663     -0.040087     -0.004607
     11.14617     13.48359     12.20079        -0.000000      0.092604      0.073789
     11.14617      8.80876     12.20079         0.000000     -0.092604      0.073789
      9.21043      9.94021     11.62588         0.034663      0.040087     -0.004607
      7.36838     11.14617     11.02285        -0.170167      0.000000     -0.047672
     14.92397     11.14617     11.02285         0.170167     -0.000000     -0.047672
 -----------------------------------------------------------------------------------
    total drift:                               -0.000000     -0.000000      0.075175


--------------------------------------------------------------------------------------------------------



  FREE ENERGIE OF THE ION-ELECTRON SYSTEM (eV)
  ---------------------------------------------------
  free  energy   TOTEN  =       -49.65841766 eV

  energy  without entropy=      -49.65841766  energy(sigma->0) =      -49.65841766
 
 d Force = 0.2782965E-03[ 0.211E-03, 0.346E-03]  d Energy = 0.4859167E-01-0.483E-01
 d Force = 0.4411401E+00[ 0.441E+00, 0.441E+00]  d Ewald  = 0.4411401E+00-0.503E-08


--------------------------------------------------------------------------------------------------------


    POTLOK:  cpu time    0.38: real time    0.38


--------------------------------------------------------------------------------------------------------




--------------------------------------------------------------------------------------------------------


  
 reached required accuracy - stopping structural energy minimisation
     LOOP+:  cpu time  126.41: real time  148.73
    4ORBIT:  cpu time    0.00: real time    0.00

 total amount of memory used by VASP on root node    67917. kBytes
========================================================================

   base      :      30000. kBytes
   nonl-proj :       2452. kBytes
   fftplans  :       8588. kBytes
   grid      :      21928. kBytes
   one-center:         31. kBytes
   wavefun   :       4918. kBytes
 
  
  
 General timing and accounting informations for this job:
 ========================================================
  
                  Total CPU time used (sec):     1970.043
                            User time (sec):     1915.412
                          System time (sec):       54.631
                         Elapsed time (sec):     2188.117
  
                   Maximum memory used (kb):       93960.
                   Average memory used (kb):           0.
  
                          Minor page faults:     11369426
                          Major page faults:            0
                 Voluntary context switches:        19664
