unknown system                          
           1
    23.046494    0.000000    0.000000
     0.000000   23.046494    0.000000
     0.000000    0.000000   23.046494
   Ag
  46
Direct configuration=     1
   0.67138030  0.34330717  0.47019417
   0.57367685  0.32878583  0.40738056
   0.65200337  0.41942349  0.37845628
   0.57802086  0.30973668  0.52765552
   0.47765899  0.35546677  0.48385346
   0.70839668  0.44790785  0.50156631
   0.65140559  0.38736820  0.58033657
   0.55911985  0.39517738  0.31417353
   0.58431494  0.42134915  0.48503608
   0.46234262  0.37487171  0.37623760
   0.41992264  0.36328268  0.58259480
   0.64366524  0.52587608  0.42091425
   0.45281503  0.46466517  0.52248031
   0.53218350  0.40348898  0.59091617
   0.70850335  0.50649883  0.61538878
   0.36311727  0.39331618  0.49031298
   0.61552743  0.50844554  0.56705823
   0.71580560  0.55796807  0.50770865
   0.46827448  0.45910433  0.29781345
   0.58292130  0.50976297  0.30304572
   0.52909645  0.48017367  0.39888645
   0.56933394  0.46859639  0.67703683
   0.67448418  0.61838745  0.58922970
   0.64035157  0.64377766  0.47911824
   0.59270010  0.57973261  0.67081731
   0.46886269  0.56147821  0.32878409
   0.40706594  0.48029512  0.40926775
   0.44586730  0.44760324  0.66653870
   0.55122572  0.56583050  0.49444165
   0.49942983  0.53886509  0.60621344
   0.56737619  0.60409803  0.38243078
   0.34656936  0.45535966  0.59462528
   0.52964760  0.68096921  0.46886882
   0.48843458  0.54408123  0.72103235
   0.29339570  0.48899512  0.48861159
   0.56949558  0.65965465  0.57996123
   0.45434664  0.59422499  0.43418967
   0.37815692  0.56091247  0.52227532
   0.34057860  0.57563593  0.40734963
   0.38945265  0.55945483  0.65066640
   0.48173601  0.64111208  0.66549888
   0.45524220  0.64888826  0.55239562
   0.28259778  0.55161646  0.59245519
   0.27246609  0.60807922  0.49664598
   0.36895943  0.67001651  0.47163787
   0.33855061  0.65352617  0.58598005
Direct configuration=     2
   0.67189627  0.34301179  0.47002597
   0.57356362  0.32852602  0.40733392
   0.65222574  0.41935611  0.37847086
   0.57783928  0.30939218  0.52784392
   0.47785151  0.35524313  0.48399420
   0.70859469  0.44780734  0.50134853
   0.65146364  0.38741354  0.58076328
   0.55935667  0.39490282  0.31385471
   0.58426438  0.42173098  0.48495565
   0.46209253  0.37478164  0.37611373
   0.41992651  0.36303706  0.58310200
   0.64378186  0.52586236  0.42103094
   0.45298447  0.46502763  0.52236490
   0.53217706  0.40334799  0.59096546
   0.70932477  0.50625512  0.61589691
   0.36288728  0.39329864  0.48990443
   0.61485134  0.50826118  0.56688362
   0.71625288  0.55805620  0.50734327
   0.46789112  0.45874798  0.29728472
   0.58312134  0.50993682  0.30284051
   0.52901500  0.48016384  0.39927466
   0.56956115  0.46826737  0.67724201
   0.67461828  0.61869346  0.58975152
   0.64046921  0.64388784  0.47890570
   0.59291164  0.57999022  0.67081461
   0.46869068  0.56206636  0.32859504
   0.40699257  0.48016161  0.40925224
   0.44581244  0.44749943  0.66652590
   0.55095208  0.56558765  0.49454518
   0.49946925  0.53887316  0.60569892
   0.56738965  0.60433380  0.38222240
   0.34651810  0.45525277  0.59469483
   0.52956277  0.68128253  0.46870271
   0.48838750  0.54385875  0.72162446
   0.29322731  0.48888265  0.48847253
   0.56936758  0.65975168  0.58002372
   0.45426376  0.59434444  0.43440742
   0.37853543  0.56072934  0.52238963
   0.34042134  0.57558971  0.40694514
   0.38936582  0.55953153  0.65072865
   0.48164103  0.64156066  0.66549574
   0.45511903  0.64885747  0.55240664
   0.28220496  0.55141548  0.59289169
   0.27196319  0.60834022  0.49634736
   0.36904764  0.67042662  0.47151788
   0.33862518  0.65382273  0.58628415
Direct configuration=     3
   0.67344418  0.34212564  0.46952134
   0.57322391  0.32774660  0.40719401
   0.65289286  0.41915396  0.37851459
   0.57729454  0.30835868  0.52840911
   0.47842906  0.35457222  0.48441641
   0.70918873  0.44750580  0.50069519
   0.65163777  0.38754957  0.58204341
   0.56006714  0.39407914  0.31289826
   0.58411269  0.42287647  0.48471437
   0.46134228  0.37451142  0.37574212
   0.41993813  0.36230020  0.58462361
   0.64413172  0.52582119  0.42138099
   0.45349279  0.46611502  0.52201867
   0.53215774  0.40292502  0.59111333
   0.71178903  0.50552398  0.61742129
   0.36219731  0.39324600  0.48867879
   0.61282309  0.50770810  0.56635979
   0.71759473  0.55832057  0.50624715
   0.46674102  0.45767892  0.29569852
   0.58372145  0.51045835  0.30222490
   0.52877065  0.48013433  0.40043928
   0.57024279  0.46728031  0.67785757
   0.67502056  0.61961150  0.59131699
   0.64082214  0.64421840  0.47826807
   0.59354627  0.58076303  0.67080654
   0.46817463  0.56383080  0.32802787
   0.40677247  0.47976110  0.40920570
   0.44564786  0.44718799  0.66648751
   0.55013117  0.56485911  0.49485574
   0.49958752  0.53889736  0.60415535
   0.56743000  0.60504112  0.38159727
   0.34636430  0.45493210  0.59490346
   0.52930828  0.68222249  0.46820438
   0.48824628  0.54319130  0.72340078
   0.29272215  0.48854525  0.48805534
   0.56898357  0.66004279  0.58021116
   0.45401512  0.59470281  0.43506069
   0.37967096  0.56017996  0.52273254
   0.33994957  0.57545107  0.40573167
   0.38910535  0.55976160  0.65091540
   0.48135608  0.64290640  0.66548634
   0.45474951  0.64876507  0.55243970
   0.28102651  0.55081254  0.59420122
   0.27045447  0.60912324  0.49545148
   0.36931228  0.67165692  0.47115790
   0.33884889  0.65471243  0.58719647
Direct configuration=     4
   0.67654000  0.34035334  0.46851210
   0.57254450  0.32618775  0.40691417
   0.65422710  0.41874967  0.37860207
   0.57620506  0.30629169  0.52953948
   0.47958417  0.35323039  0.48526084
   0.71037681  0.44690272  0.49938852
   0.65198604  0.38782163  0.58460369
   0.56148808  0.39243178  0.31098535
   0.58380932  0.42516745  0.48423179
   0.45984176  0.37397099  0.37499890
   0.41996137  0.36082649  0.58766684
   0.64483145  0.52573885  0.42208109
   0.45450944  0.46828980  0.52132622
   0.53211910  0.40207907  0.59140907
   0.71671756  0.50406170  0.62047005
   0.36081736  0.39314072  0.48622750
   0.60876660  0.50660195  0.56531213
   0.72027843  0.55884932  0.50405491
   0.46444082  0.45554081  0.29252612
   0.58492166  0.51150142  0.30099366
   0.52828196  0.48007532  0.40276853
   0.57160606  0.46530617  0.67908870
   0.67582511  0.62144757  0.59444791
   0.64152798  0.64487951  0.47699281
   0.59481553  0.58230865  0.67079039
   0.46714255  0.56735968  0.32689352
   0.40633225  0.47896007  0.40911262
   0.44531870  0.44656511  0.66641071
   0.54848934  0.56340204  0.49547688
   0.49982406  0.53894577  0.60106820
   0.56751070  0.60645575  0.38034701
   0.34605670  0.45429075  0.59532074
   0.52879930  0.68410242  0.46720772
   0.48796382  0.54185641  0.72695343
   0.29171183  0.48787043  0.48722097
   0.56821555  0.66062501  0.58058605
   0.45351784  0.59541953  0.43636722
   0.38194202  0.55908119  0.52341836
   0.33900603  0.57517377  0.40330473
   0.38858441  0.56022175  0.65128889
   0.48078617  0.64559786  0.66546754
   0.45401047  0.64858028  0.55250582
   0.27866960  0.54960665  0.59682026
   0.26743705  0.61068927  0.49365973
   0.36984156  0.67411752  0.47043796
   0.33929631  0.65649182  0.58902110
Direct configuration=     5
   0.67623817  0.34052614  0.46861049
   0.57261074  0.32633973  0.40694145
   0.65409702  0.41878908  0.37859354
   0.57631128  0.30649322  0.52942927
   0.47947156  0.35336121  0.48517851
   0.71026097  0.44696152  0.49951591
   0.65195209  0.38779510  0.58435407
   0.56134954  0.39259239  0.31117185
   0.58383889  0.42494409  0.48427884
   0.45998806  0.37402368  0.37507136
   0.41995910  0.36097017  0.58737014
   0.64476323  0.52574688  0.42201284
   0.45441032  0.46807777  0.52139374
   0.53212286  0.40216155  0.59138023
   0.71623704  0.50420426  0.62017281
   0.36095190  0.39315099  0.48646649
   0.60916209  0.50670979  0.56541427
   0.72001678  0.55879777  0.50426864
   0.46466508  0.45574927  0.29283541
   0.58480465  0.51139972  0.30111370
   0.52832960  0.48008107  0.40254143
   0.57147315  0.46549864  0.67896867
   0.67574667  0.62126856  0.59414266
   0.64145916  0.64481505  0.47711714
   0.59469178  0.58215796  0.67079197
   0.46724317  0.56701563  0.32700412
   0.40637517  0.47903817  0.40912169
   0.44535079  0.44662584  0.66641820
   0.54864941  0.56354410  0.49541632
   0.49980100  0.53894105  0.60136919
   0.56750283  0.60631783  0.38046890
   0.34608669  0.45435328  0.59528006
   0.52884892  0.68391913  0.46730489
   0.48799136  0.54198656  0.72660706
   0.29181033  0.48793622  0.48730232
   0.56829043  0.66056824  0.58054950
   0.45356633  0.59534965  0.43623984
   0.38172060  0.55918831  0.52335149
   0.33909802  0.57520081  0.40354134
   0.38863520  0.56017689  0.65125248
   0.48084174  0.64533546  0.66546937
   0.45408253  0.64859830  0.55249937
   0.27889939  0.54972422  0.59656491
   0.26773124  0.61053659  0.49383442
   0.36978996  0.67387762  0.47050815
   0.33925269  0.65631834  0.58884321
Direct configuration=     6
   0.67670397  0.34000074  0.46857853
   0.57253946  0.32593732  0.40702840
   0.65442794  0.41849183  0.37868668
   0.57654084  0.30606162  0.52974665
   0.47944025  0.35313368  0.48551345
   0.71049435  0.44675829  0.49929120
   0.65205679  0.38804817  0.58482901
   0.56159824  0.39239969  0.31074380
   0.58428323  0.42477741  0.48436255
   0.45959241  0.37388932  0.37499095
   0.41983076  0.36058045  0.58774182
   0.64478759  0.52582428  0.42219125
   0.45476065  0.46796626  0.52080884
   0.53205137  0.40176471  0.59145063
   0.71645447  0.50384196  0.62001852
   0.36108244  0.39294578  0.48611181
   0.61033315  0.50600300  0.56663322
   0.72073998  0.55923036  0.50432867
   0.46433302  0.45588250  0.29220251
   0.58485300  0.51148654  0.30116399
   0.52782650  0.48034401  0.40212282
   0.57191419  0.46530420  0.67938130
   0.67634922  0.62131904  0.59448985
   0.64154371  0.64483485  0.47697548
   0.59465534  0.58217866  0.67086950
   0.46688389  0.56721135  0.32650937
   0.40619119  0.47889823  0.40891446
   0.44543859  0.44675045  0.66644514
   0.54783243  0.56383107  0.49474356
   0.49963715  0.53935411  0.60169529
   0.56753354  0.60678902  0.38016626
   0.34599830  0.45413886  0.59521589
   0.52876826  0.68444138  0.46704532
   0.48805734  0.54185076  0.72697123
   0.29155020  0.48824114  0.48720899
   0.56818671  0.66073465  0.58044032
   0.45328568  0.59559620  0.43628838
   0.38130661  0.55915673  0.52364312
   0.33879994  0.57532115  0.40299425
   0.38869873  0.56033825  0.65144626
   0.48061734  0.64555214  0.66574451
   0.45388456  0.64865197  0.55243116
   0.27834515  0.54975330  0.59676794
   0.26741653  0.61068300  0.49366807
   0.36961617  0.67444163  0.47037350
   0.33923834  0.65642780  0.58910783
Direct configuration=     7
   0.67805878  0.33847262  0.46848557
   0.57233214  0.32476688  0.40728129
   0.65539045  0.41762726  0.37895758
   0.57720852  0.30480630  0.53066975
   0.47934920  0.35247190  0.48648764
   0.71117311  0.44616717  0.49863763
   0.65236132  0.38878421  0.58621037
   0.56232160  0.39183920  0.30949879
   0.58557560  0.42429261  0.48460601
   0.45844167  0.37349852  0.37475709
   0.41945746  0.35944694  0.58882288
   0.64485846  0.52604941  0.42271019
   0.45577959  0.46764193  0.51910767
   0.53184342  0.40061049  0.59165537
   0.71708686  0.50278821  0.61956975
   0.36146213  0.39234894  0.48508022
   0.61373923  0.50394727  0.57017858
   0.72284343  0.56048857  0.50450328
   0.46336723  0.45627001  0.29036168
   0.58499362  0.51173906  0.30131025
   0.52636320  0.48110876  0.40090525
   0.57319698  0.46473864  0.68058146
   0.67810175  0.62146585  0.59549968
   0.64178961  0.64489245  0.47656347
   0.59454935  0.58223886  0.67109502
   0.46583890  0.56778060  0.32507038
   0.40565607  0.47849120  0.40831171
   0.44569396  0.44711287  0.66652349
   0.54545623  0.56466574  0.49278682
   0.49916059  0.54055551  0.60264377
   0.56762284  0.60815950  0.37928603
   0.34574121  0.45351522  0.59502925
   0.52853364  0.68596036  0.46629035
   0.48824923  0.54145581  0.72803044
   0.29079360  0.48912801  0.48693753
   0.56788505  0.66121865  0.58012276
   0.45246942  0.59631329  0.43642956
   0.38010251  0.55906488  0.52449131
   0.33793296  0.57567118  0.40140301
   0.38888349  0.56080758  0.65200988
   0.47996469  0.64618237  0.66654475
   0.45330875  0.64880806  0.55223276
   0.27673313  0.54983787  0.59735843
   0.26650121  0.61110882  0.49318424
   0.36911073  0.67608207  0.46998187
   0.33919662  0.65674620  0.58987748
Direct configuration=     8
   0.67837954  0.33811083  0.46846356
   0.57228305  0.32448978  0.40734117
   0.65561832  0.41742256  0.37902171
   0.57736660  0.30450909  0.53088830
   0.47932765  0.35231521  0.48671828
   0.71133381  0.44602722  0.49848289
   0.65243342  0.38895848  0.58653741
   0.56249285  0.39170650  0.30920402
   0.58588157  0.42417783  0.48466365
   0.45816922  0.37340600  0.37470173
   0.41936908  0.35917858  0.58907883
   0.64487524  0.52610271  0.42283305
   0.45602083  0.46756515  0.51870490
   0.53179419  0.40033722  0.59170384
   0.71723659  0.50253873  0.61946350
   0.36155202  0.39220763  0.48483598
   0.61454564  0.50346056  0.57101796
   0.72334143  0.56078645  0.50454462
   0.46313858  0.45636176  0.28992585
   0.58502691  0.51179885  0.30134488
   0.52601676  0.48128982  0.40061699
   0.57350068  0.46460474  0.68086561
   0.67851668  0.62150061  0.59573876
   0.64184783  0.64490608  0.47646592
   0.59452425  0.58225312  0.67114841
   0.46559149  0.56791538  0.32472969
   0.40552938  0.47839484  0.40816901
   0.44575442  0.44719867  0.66654204
   0.54489364  0.56486335  0.49232355
   0.49904776  0.54083995  0.60286833
   0.56764399  0.60848397  0.37907763
   0.34568034  0.45336757  0.59498506
   0.52847809  0.68631998  0.46611160
   0.48829466  0.54136230  0.72828122
   0.29061447  0.48933799  0.48687326
   0.56781363  0.66133324  0.58004757
   0.45227617  0.59648307  0.43646299
   0.37981743  0.55904313  0.52469212
   0.33772769  0.57575405  0.40102628
   0.38892723  0.56091870  0.65214332
   0.47981017  0.64633159  0.66673421
   0.45317243  0.64884502  0.55218579
   0.27635147  0.54985789  0.59749824
   0.26628450  0.61120963  0.49306969
   0.36899106  0.67647045  0.46988915
   0.33918675  0.65682158  0.59005970
Direct configuration=     9
   0.67857114  0.33736301  0.46865251
   0.57220222  0.32428772  0.40749651
   0.65579037  0.41694977  0.37925884
   0.57801931  0.30417276  0.53116899
   0.47934121  0.35195532  0.48691086
   0.71151946  0.44619239  0.49828817
   0.65268707  0.38907909  0.58692749
   0.56248870  0.39177597  0.30913903
   0.58645969  0.42396434  0.48453175
   0.45801346  0.37340085  0.37471662
   0.41916180  0.35881002  0.58924646
   0.64471907  0.52620762  0.42320625
   0.45659323  0.46756603  0.51800271
   0.53175085  0.39995501  0.59198833
   0.71800588  0.50205882  0.61909575
   0.36199957  0.39213031  0.48468202
   0.61455379  0.50377778  0.57134268
   0.72405309  0.56101785  0.50482062
   0.46318188  0.45657531  0.28953229
   0.58489452  0.51176043  0.30165587
   0.52553946  0.48137317  0.39995923
   0.57391646  0.46441941  0.68130281
   0.67898949  0.62139481  0.59592480
   0.64175679  0.64467322  0.47658794
   0.59423453  0.58214748  0.67113582
   0.46509302  0.56782253  0.32443514
   0.40499648  0.47857509  0.40769720
   0.44599773  0.44751323  0.66645717
   0.54551406  0.56406308  0.49316840
   0.49923150  0.54130016  0.60321643
   0.56762700  0.60898386  0.37869155
   0.34554072  0.45336750  0.59466497
   0.52835845  0.68686723  0.46589587
   0.48852656  0.54133193  0.72842140
   0.29045416  0.48979563  0.48685724
   0.56810562  0.66123481  0.57978995
   0.45102861  0.59697780  0.43567801
   0.37891659  0.55908142  0.52498678
   0.33742205  0.57609429  0.40066285
   0.38887840  0.56105584  0.65240322
   0.47951791  0.64628179  0.66711043
   0.45301630  0.64901559  0.55200534
   0.27595769  0.55004177  0.59734750
   0.26635950  0.61125632  0.49307034
   0.36850856  0.67686971  0.46981575
   0.33898557  0.65662978  0.59013238
Direct configuration=    10
   0.67896673  0.33581908  0.46904261
   0.57203533  0.32387055  0.40781723
   0.65614557  0.41597364  0.37974841
   0.57936689  0.30347838  0.53174847
   0.47936922  0.35121230  0.48730845
   0.71190273  0.44653338  0.49788615
   0.65321074  0.38932811  0.58773285
   0.56248012  0.39191941  0.30900483
   0.58765326  0.42352359  0.48425943
   0.45769188  0.37339021  0.37474736
   0.41873383  0.35804910  0.58959255
   0.64439666  0.52642423  0.42397674
   0.45777499  0.46756785  0.51655299
   0.53166138  0.39916591  0.59257567
   0.71959414  0.50106803  0.61833650
   0.36292358  0.39197068  0.48436416
   0.61457062  0.50443270  0.57201307
   0.72552235  0.56149559  0.50539044
   0.46327129  0.45701620  0.28871976
   0.58462117  0.51168112  0.30229795
   0.52455405  0.48154524  0.39860125
   0.57477487  0.46403679  0.68220545
   0.67996565  0.62117639  0.59630889
   0.64156884  0.64419246  0.47683986
   0.59363636  0.58192940  0.67110983
   0.46406391  0.56763084  0.32382702
   0.40389625  0.47894724  0.40672311
   0.44650006  0.44816264  0.66628195
   0.54679495  0.56241087  0.49491267
   0.49961084  0.54225029  0.60393510
   0.56759193  0.61001592  0.37789445
   0.34525245  0.45336734  0.59400412
   0.52811143  0.68799707  0.46545048
   0.48900532  0.54126922  0.72871080
   0.29012319  0.49074046  0.48682416
   0.56870847  0.66103158  0.57925808
   0.44845294  0.59799922  0.43405736
   0.37705673  0.55916047  0.52559511
   0.33679104  0.57679675  0.39991253
   0.38877759  0.56133899  0.65293980
   0.47891453  0.64617897  0.66788716
   0.45269396  0.64936774  0.55163279
   0.27514471  0.55042140  0.59703630
   0.26651435  0.61135270  0.49307168
   0.36751240  0.67769400  0.46966421
   0.33857024  0.65623380  0.59028245
Direct configuration=    11
   0.67904807  0.33550160  0.46912283
   0.57200102  0.32378477  0.40788318
   0.65621861  0.41577293  0.37984908
   0.57964398  0.30333559  0.53186763
   0.47937498  0.35105951  0.48739020
   0.71198154  0.44660350  0.49780349
   0.65331843  0.38937932  0.58789845
   0.56247835  0.39194890  0.30897724
   0.58789869  0.42343296  0.48420343
   0.45762576  0.37338802  0.37475368
   0.41864583  0.35789263  0.58966372
   0.64433036  0.52646877  0.42413518
   0.45801799  0.46756823  0.51625489
   0.53164298  0.39900365  0.59269645
   0.71992074  0.50086430  0.61818038
   0.36311358  0.39193785  0.48429880
   0.61457408  0.50456737  0.57215092
   0.72582447  0.56159382  0.50550761
   0.46328968  0.45710686  0.28855268
   0.58456497  0.51166481  0.30242998
   0.52435142  0.48158063  0.39832201
   0.57495138  0.46395811  0.68239106
   0.68016637  0.62113148  0.59638787
   0.64153020  0.64409360  0.47689167
   0.59351336  0.58188456  0.67110448
   0.46385229  0.56759142  0.32370198
   0.40367001  0.47902376  0.40652280
   0.44660335  0.44829618  0.66624592
   0.54705834  0.56207112  0.49527134
   0.49968884  0.54244567  0.60408288
   0.56758472  0.61022815  0.37773055
   0.34519317  0.45336731  0.59386824
   0.52806064  0.68822940  0.46535890
   0.48910377  0.54125633  0.72877031
   0.29005514  0.49093474  0.48681736
   0.56883244  0.66098979  0.57914871
   0.44792331  0.59820925  0.43372411
   0.37667430  0.55917672  0.52572020
   0.33666128  0.57694120  0.39975824
   0.38875686  0.56139722  0.65305014
   0.47879045  0.64615783  0.66804687
   0.45262768  0.64944016  0.55155619
   0.27497754  0.55049946  0.59697231
   0.26654619  0.61137252  0.49307196
   0.36730756  0.67786350  0.46963306
   0.33848484  0.65615238  0.59031330
Direct configuration=    12
   0.67922651  0.33505543  0.46958289
   0.57182043  0.32384312  0.40806263
   0.65627596  0.41521643  0.38027696
   0.58035935  0.30338554  0.53206172
   0.47987028  0.35041957  0.48752983
   0.71195738  0.44668118  0.49764800
   0.65363379  0.38963888  0.58805875
   0.56226865  0.39208674  0.30943391
   0.58816884  0.42338132  0.48399977
   0.45772897  0.37367111  0.37496084
   0.41838488  0.35792488  0.58973324
   0.64407755  0.52643895  0.42457909
   0.45871527  0.46819856  0.51555978
   0.53187319  0.39868839  0.59298075
   0.72096808  0.50023830  0.61733752
   0.36376987  0.39228464  0.48422990
   0.61454929  0.50499088  0.57241845
   0.72648581  0.56159419  0.50575412
   0.46363408  0.45692733  0.28831652
   0.58450783  0.51177525  0.30266807
   0.52403769  0.48139298  0.39841764
   0.57526431  0.46363998  0.68267213
   0.68034132  0.62079603  0.59669495
   0.64124775  0.64354025  0.47717761
   0.59331979  0.58195881  0.67105723
   0.46336842  0.56753009  0.32354383
   0.40280633  0.47943718  0.40585940
   0.44677939  0.44859471  0.66574909
   0.54668506  0.56169743  0.49511145
   0.49957654  0.54261984  0.60420185
   0.56722065  0.61036539  0.37787023
   0.34520939  0.45358144  0.59326221
   0.52773450  0.68797974  0.46531249
   0.48948850  0.54127540  0.72889111
   0.28982706  0.49087184  0.48658551
   0.56911732  0.66051199  0.57882656
   0.44815281  0.59866573  0.43389031
   0.37657601  0.55932600  0.52583202
   0.33581393  0.57741382  0.39935549
   0.38852555  0.56145581  0.65324799
   0.47850912  0.64607478  0.66813452
   0.45268120  0.64952369  0.55119574
   0.27466277  0.55063162  0.59688969
   0.26659010  0.61164766  0.49300958
   0.36656050  0.67824413  0.46977571
   0.33810753  0.65595085  0.59032521
Direct configuration=    13
   0.67976182  0.33371692  0.47096308
   0.57127866  0.32401815  0.40860098
   0.65644801  0.41354696  0.38156061
   0.58250546  0.30353538  0.53264398
   0.48135616  0.34849975  0.48794872
   0.71188489  0.44691421  0.49718153
   0.65457988  0.39041756  0.58853967
   0.56163952  0.39250024  0.31080391
   0.58897930  0.42322640  0.48338878
   0.45803862  0.37452040  0.37558230
   0.41760203  0.35802161  0.58994181
   0.64331913  0.52634950  0.42591084
   0.46080712  0.47008955  0.51347447
   0.53256381  0.39774262  0.59383367
   0.72411012  0.49836032  0.61480892
   0.36573877  0.39332499  0.48402320
   0.61447492  0.50626141  0.57322102
   0.72846982  0.56159529  0.50649366
   0.46466727  0.45638876  0.28760803
   0.58433643  0.51210654  0.30338233
   0.52309649  0.48083005  0.39870454
   0.57620311  0.46268561  0.68351534
   0.68086617  0.61978967  0.59761616
   0.64040041  0.64188018  0.47803542
   0.59273908  0.58218155  0.67091547
   0.46191681  0.56734609  0.32306938
   0.40021529  0.48067743  0.40386920
   0.44730750  0.44949032  0.66425860
   0.54556525  0.56057633  0.49463178
   0.49923962  0.54314235  0.60455878
   0.56612843  0.61077712  0.37828927
   0.34525804  0.45422383  0.59144415
   0.52675606  0.68723076  0.46517328
   0.49064270  0.54133260  0.72925350
   0.28914284  0.49068312  0.48588995
   0.56997198  0.65907860  0.57786009
   0.44884133  0.60003516  0.43438893
   0.37628114  0.55977384  0.52616748
   0.33327186  0.57883168  0.39814726
   0.38783161  0.56163160  0.65384154
   0.47766512  0.64582561  0.66839744
   0.45284176  0.64977430  0.55011439
   0.27371845  0.55102809  0.59664183
   0.26672182  0.61247310  0.49282243
   0.36431933  0.67938603  0.47020367
   0.33697561  0.65534627  0.59036091
Direct configuration=    14
   0.67995855  0.33322502  0.47147029
   0.57107956  0.32408247  0.40879882
   0.65651124  0.41293344  0.38203233
   0.58329414  0.30359044  0.53285795
   0.48190222  0.34779423  0.48810266
   0.71185825  0.44699985  0.49701010
   0.65492756  0.39070372  0.58871640
   0.56140832  0.39265220  0.31130737
   0.58927714  0.42316947  0.48316424
   0.45815241  0.37483250  0.37581069
   0.41731434  0.35805716  0.59001846
   0.64304042  0.52631662  0.42640024
   0.46157586  0.47078448  0.51270814
   0.53281761  0.39739505  0.59414711
   0.72526479  0.49767017  0.61387968
   0.36646232  0.39370732  0.48394724
   0.61444759  0.50672832  0.57351596
   0.72919892  0.56159569  0.50676543
   0.46504697  0.45619083  0.28734766
   0.58427345  0.51222829  0.30364482
   0.52275061  0.48062318  0.39880997
   0.57654811  0.46233489  0.68382521
   0.68105904  0.61941985  0.59795469
   0.64008901  0.64127011  0.47835066
   0.59252567  0.58226341  0.67086337
   0.46138336  0.56727847  0.32289503
   0.39926310  0.48113322  0.40313781
   0.44750158  0.44981945  0.66371086
   0.54515372  0.56016434  0.49445551
   0.49911581  0.54333437  0.60468995
   0.56572705  0.61092843  0.37844327
   0.34527592  0.45445991  0.59077602
   0.52639649  0.68695552  0.46512212
   0.49106685  0.54135362  0.72938668
   0.28889139  0.49061377  0.48563434
   0.57028607  0.65855183  0.57750492
   0.44909435  0.60053841  0.43457217
   0.37617278  0.55993842  0.52629076
   0.33233767  0.57935273  0.39770325
   0.38757659  0.56169620  0.65405966
   0.47735495  0.64573404  0.66849406
   0.45290077  0.64986640  0.54971701
   0.27337142  0.55117379  0.59655074
   0.26677023  0.61277644  0.49275366
   0.36349572  0.67980567  0.47036094
   0.33655964  0.65512410  0.59037403
Direct configuration=    15
   0.68066364  0.33318382  0.47212742
   0.57106904  0.32392304  0.40911896
   0.65683021  0.41251242  0.38253207
   0.58408877  0.30380579  0.53340319
   0.48217219  0.34714597  0.48887315
   0.71176387  0.44675572  0.49674663
   0.65539799  0.39128293  0.58881888
   0.56154789  0.39279621  0.31215195
   0.58918488  0.42329098  0.48370160
   0.45788995  0.37545933  0.37674602
   0.41735949  0.35849078  0.58975783
   0.64290210  0.52596886  0.42676713
   0.46231382  0.47116483  0.51161445
   0.53310334  0.39701411  0.59420086
   0.72640695  0.49664838  0.61196565
   0.36771369  0.39453078  0.48356019
   0.61501817  0.50708479  0.57400997
   0.72998368  0.56165512  0.50687551
   0.46525048  0.45615762  0.28707673
   0.58418680  0.51257342  0.30413857
   0.52219596  0.48045286  0.39918036
   0.57675547  0.46217774  0.68396244
   0.68134132  0.61867104  0.59834104
   0.64002108  0.64026859  0.47870244
   0.59230270  0.58239710  0.67116193
   0.46046977  0.56717854  0.32329408
   0.39832443  0.48191084  0.40212999
   0.44751183  0.45018226  0.66301152
   0.54446609  0.55993751  0.49384661
   0.49867568  0.54355710  0.60453314
   0.56518081  0.61037927  0.37868587
   0.34548213  0.45499396  0.58994138
   0.52643230  0.68698576  0.46511818
   0.49154863  0.54125053  0.72949902
   0.28888473  0.49070396  0.48519219
   0.57015075  0.65750690  0.57735714
   0.44822423  0.60064161  0.43439916
   0.37644867  0.55989586  0.52590274
   0.33189865  0.58017093  0.39749511
   0.38715806  0.56161486  0.65413950
   0.47705673  0.64570838  0.66808454
   0.45250774  0.64999416  0.54993690
   0.27301714  0.55108684  0.59638003
   0.26624950  0.61298063  0.49273541
   0.36311872  0.67995231  0.47045576
   0.33620945  0.65512343  0.59040904
Direct configuration=    16
   0.68265665  0.33306734  0.47398485
   0.57103932  0.32347238  0.41002387
   0.65773178  0.41132238  0.38394460
   0.58633486  0.30441447  0.53494436
   0.48293531  0.34531363  0.49105101
   0.71149711  0.44606566  0.49600190
   0.65672770  0.39292013  0.58910853
   0.56194238  0.39320328  0.31453920
   0.58892411  0.42363443  0.48522049
   0.45714808  0.37723113  0.37938982
   0.41748710  0.35971643  0.58902114
   0.64251112  0.52498587  0.42780416
   0.46439974  0.47223994  0.50852305
   0.53391099  0.39593733  0.59435277
   0.72963535  0.49376019  0.60655552
   0.37125079  0.39685835  0.48246617
   0.61663097  0.50809241  0.57540632
   0.73220184  0.56182310  0.50718666
   0.46582571  0.45606373  0.28631094
   0.58394190  0.51354894  0.30553421
   0.52062820  0.47997143  0.40022730
   0.57734160  0.46173354  0.68435032
   0.68213921  0.61655446  0.59943307
   0.63982906  0.63743768  0.47969677
   0.59167245  0.58277500  0.67200584
   0.45788745  0.56689609  0.32442202
   0.39567121  0.48410886  0.39928129
   0.44754080  0.45120777  0.66103479
   0.54252246  0.55929636  0.49212552
   0.49743163  0.54418666  0.60408989
   0.56363685  0.60882704  0.37937159
   0.34606500  0.45650349  0.58758221
   0.52653353  0.68707125  0.46510704
   0.49291041  0.54095913  0.72981656
   0.28886590  0.49095888  0.48394239
   0.56976828  0.65455331  0.57693942
   0.44576475  0.60093329  0.43391013
   0.37722849  0.55977554  0.52480597
   0.33065772  0.58248365  0.39690681
   0.38597505  0.56138492  0.65436516
   0.47621380  0.64563586  0.66692700
   0.45139684  0.65035528  0.55055846
   0.27201572  0.55084108  0.59589751
   0.26477762  0.61355778  0.49268383
   0.36205313  0.68036682  0.47072377
   0.33521959  0.65512154  0.59050801
Direct configuration=    17
   0.68395395  0.33318983  0.47480903
   0.57151164  0.32310975  0.41116680
   0.65835042  0.41121186  0.38483757
   0.58722744  0.30452523  0.53577362
   0.48336683  0.34459213  0.49175916
   0.71188299  0.44627158  0.49471727
   0.65718283  0.39311547  0.58959013
   0.56237805  0.39361948  0.31557377
   0.58825668  0.42385362  0.48642026
   0.45631961  0.37811355  0.38132019
   0.41782734  0.36037238  0.58889873
   0.64278873  0.52412571  0.42774171
   0.46395038  0.47142271  0.50811051
   0.53411682  0.39600280  0.59476982
   0.73183104  0.49206742  0.60505094
   0.37236351  0.39825892  0.48070629
   0.61661905  0.50908712  0.57537950
   0.73291249  0.56186224  0.50608777
   0.46584370  0.45622641  0.28648299
   0.58357529  0.51366111  0.30655801
   0.52043741  0.48014431  0.39946127
   0.57707629  0.46195820  0.68379696
   0.68233278  0.61526214  0.59976830
   0.64014439  0.63583910  0.47990841
   0.59141297  0.58287126  0.67299223
   0.45631751  0.56648175  0.32443540
   0.39498590  0.48504500  0.39814043
   0.44736146  0.45162091  0.66068474
   0.54272734  0.56000797  0.49231585
   0.49739138  0.54443247  0.60301169
   0.56300284  0.60763245  0.37974800
   0.34657519  0.45722094  0.58715604
   0.52664218  0.68686318  0.46549150
   0.49287173  0.54072853  0.72954697
   0.28933389  0.49174357  0.48296177
   0.56904565  0.65270022  0.57710035