<?xml version="1.0" encoding="ISO-8859-1"?>
<modeling>
 <generator>
  <i name="program" type="string">vasp </i>
  <i name="version" type="string">5.3.5  </i>
  <i name="subversion" type="string">31Mar14 (build Feb 01 2018 12:10:03) gamma-only                       parallel </i>
  <i name="platform" type="string">LinuxIFC </i>
  <i name="date" type="string">2019 03 24 </i>
  <i name="time" type="string">00:03:55 </i>
 </generator>
 <incar>
  <i type="string" name="PREC">normal</i>
  <i type="int" name="ISPIN">     2</i>
  <i type="int" name="IBRION">     2</i>
  <i type="int" name="NSW">  1000</i>
  <i type="int" name="ISIF">     2</i>
  <i name="POTIM">      0.10000000</i>
  <i type="logical" name="LPLANE"> T  </i>
  <i type="int" name="ISMEAR">     0</i>
  <i name="SIGMA">      0.00010000</i>
  <i type="logical" name="LWAVE"> F  </i>
  <i type="logical" name="LCHARG"> F  </i>
  <i type="logical" name="LVTOT"> F  </i>
  <i type="string" name="GGA"> PE</i>
 </incar>
 <kpoints>
  <varray name="kpointlist" >
   <v>       0.00000000       0.00000000       0.00000000 </v>
  </varray>
  <varray name="weights" >
   <v>       1.00000000 </v>
  </varray>
 </kpoints>
 <parameters>
  <separator name="general" >
   <i type="string" name="SYSTEM">unknown system</i>
   <i type="logical" name="LCOMPAT"> F  </i>
  </separator>
  <separator name="electronic" >
   <i type="string" name="PREC">normal</i>
   <i name="ENMAX">    249.84400000</i>
   <i name="ENAUG">    412.49600000</i>
   <i name="EDIFF">      0.00010000</i>
   <i type="int" name="IALGO">    38</i>
   <i type="int" name="IWAVPR">    11</i>
   <i type="int" name="NBANDS">   312</i>
   <i name="NELECT">    484.00000000</i>
   <i type="int" name="TURBO">     0</i>
   <i type="int" name="IRESTART">     0</i>
   <i type="int" name="NREBOOT">     0</i>
   <i type="int" name="NMIN">     0</i>
   <i name="EREF">      0.00000000</i>
   <separator name="electronic smearing" >
    <i type="int" name="ISMEAR">     0</i>
    <i name="SIGMA">      0.00010000</i>
    <i name="KSPACING">      0.50000000</i>
    <i type="logical" name="KGAMMA"> T  </i>
   </separator>
   <separator name="electronic projectors" >
    <i type="logical" name="LREAL"> F  </i>
    <v name="ROPT">      0.00000000</v>
    <i type="int" name="LMAXPAW">  -100</i>
    <i type="int" name="LMAXMIX">     2</i>
    <i type="logical" name="NLSPLINE"> F  </i>
   </separator>
   <separator name="electronic startup" >
    <i type="int" name="ISTART">     0</i>
    <i type="int" name="ICHARG">     2</i>
    <i type="int" name="INIWAV">     1</i>
   </separator>
   <separator name="electronic spin" >
    <i type="int" name="ISPIN">     2</i>
    <i type="logical" name="LNONCOLLINEAR"> F  </i>
    <v name="MAGMOM">      1.00000000      1.00000000      1.00000000      1.00000000      1.00000000      1.00000000      1.00000000      1.00000000      1.00000000      1.00000000      1.00000000      1.00000000      1.00000000      1.00000000      1.00000000      1.00000000      1.00000000      1.00000000      1.00000000      1.00000000
      1.00000000      1.00000000      1.00000000      1.00000000      1.00000000      1.00000000      1.00000000      1.00000000      1.00000000      1.00000000      1.00000000      1.00000000      1.00000000      1.00000000      1.00000000      1.00000000      1.00000000      1.00000000      1.00000000      1.00000000
      1.00000000      1.00000000      1.00000000      1.00000000</v>
    <i name="NUPDOWN">     -1.00000000</i>
    <i type="logical" name="LSORBIT"> F  </i>
    <v name="SAXIS">      0.00000000      0.00000000      1.00000000</v>
    <i type="logical" name="LSPIRAL"> F  </i>
    <v name="QSPIRAL">      0.00000000      0.00000000      0.00000000</v>
    <i type="logical" name="LZEROZ"> F  </i>
   </separator>
   <separator name="electronic exchange-correlation" >
    <i type="logical" name="LASPH"> F  </i>
    <i type="logical" name="LMETAGGA"> F  </i>
   </separator>
   <separator name="electronic convergence" >
    <i type="int" name="NELM">    60</i>
    <i type="int" name="NELMDL">    -5</i>
    <i type="int" name="NELMIN">     2</i>
    <i name="ENINI">    249.84400000</i>
    <separator name="electronic convergence detail" >
     <i type="logical" name="LDIAG"> T  </i>
     <i type="logical" name="LSUBROT"> F  </i>
     <i name="WEIMIN">      0.00100000</i>
     <i name="EBREAK">      0.00000008</i>
     <i name="DEPER">      0.30000000</i>
     <i type="int" name="NRMM">     4</i>
     <i name="TIME">      0.40000000</i>
    </separator>
   </separator>
   <separator name="electronic mixer" >
    <i name="AMIX">      0.40000000</i>
    <i name="BMIX">      1.00000000</i>
    <i name="AMIN">      0.10000000</i>
    <i name="AMIX_MAG">      1.60000000</i>
    <i name="BMIX_MAG">      1.00000000</i>
    <separator name="electronic mixer details" >
     <i type="int" name="IMIX">     4</i>
     <i type="int" name="MAXMIX">   -45</i>
     <i name="WC">    100.00000000</i>
     <i type="int" name="INIMIX">     1</i>
     <i type="int" name="MIXPRE">     1</i>
     <i type="int" name="MREMOVE">     5</i>
    </separator>
   </separator>
   <separator name="electronic dipolcorrection" >
    <i type="logical" name="LDIPOL"> F  </i>
    <i type="logical" name="LMONO"> F  </i>
    <i type="int" name="IDIPOL">     0</i>
    <i name="EPSILON">      1.00000000</i>
    <v name="DIPOL">   -100.00000000   -100.00000000   -100.00000000</v>
    <i name="EFIELD">      0.00000000</i>
   </separator>
  </separator>
  <separator name="grids" >
   <i type="int" name="NGX">    90</i>
   <i type="int" name="NGY">    90</i>
   <i type="int" name="NGZ">    90</i>
   <i type="int" name="NGXF">   180</i>
   <i type="int" name="NGYF">   180</i>
   <i type="int" name="NGZF">   180</i>
   <i type="logical" name="ADDGRID"> F  </i>
  </separator>
  <separator name="ionic" >
   <i type="int" name="NSW">  1000</i>
   <i type="int" name="IBRION">     2</i>
   <i type="int" name="ISIF">     2</i>
   <i name="PSTRESS">      0.00000000</i>
   <i name="EDIFFG">      0.00100000</i>
   <i type="int" name="NFREE">     1</i>
   <i name="POTIM">      0.10000000</i>
   <i name="SMASS">     -3.00000000</i>
   <i name="SCALEE">      1.00000000</i>
  </separator>
  <separator name="ionic md" >
   <i name="TEBEG">      0.00010000</i>
   <i name="TEEND">      0.00010000</i>
   <i type="int" name="NBLOCK">     1</i>
   <i type="int" name="KBLOCK">  1000</i>
   <i type="int" name="NPACO">   256</i>
   <i name="APACO">     16.00000000</i>
  </separator>
  <separator name="symmetry" >
   <i type="int" name="ISYM">     2</i>
   <i name="SYMPREC">      0.00001000</i>
  </separator>
  <separator name="dos" >
   <i type="logical" name="LORBIT"> F  </i>
   <v name="RWIGS">     -1.00000000</v>
   <i type="int" name="NEDOS">   301</i>
   <i name="EMIN">     10.00000000</i>
   <i name="EMAX">    -10.00000000</i>
   <i name="EFERMI">      0.00000000</i>
  </separator>
  <separator name="writing" >
   <i type="int" name="NWRITE">     2</i>
   <i type="logical" name="LWAVE"> F  </i>
   <i type="logical" name="LCHARG"> F  </i>
   <i type="logical" name="LPARD"> F  </i>
   <i type="logical" name="LVTOT"> F  </i>
   <i type="logical" name="LVHAR"> F  </i>
   <i type="logical" name="LELF"> F  </i>
   <i type="logical" name="LOPTICS"> F  </i>
   <v name="STM">      0.00000000      0.00000000      0.00000000      0.00000000      0.00000000      0.00000000      0.00000000</v>
  </separator>
  <separator name="performance" >
   <i type="int" name="NPAR">     4</i>
   <i type="int" name="NSIM">     4</i>
   <i type="int" name="NBLK">    -1</i>
   <i type="logical" name="LPLANE"> T  </i>
   <i type="logical" name="LSCALAPACK"> T  </i>
   <i type="logical" name="LSCAAWARE"> F  </i>
   <i type="logical" name="LSCALU"> F  </i>
   <i type="logical" name="LASYNC"> F  </i>
   <i type="logical" name="LORBITALREAL"> F  </i>
  </separator>
  <separator name="miscellaneous" >
   <i type="int" name="IDIOT">     3</i>
   <i type="logical" name="LMUSIC"> F  </i>
   <v name="POMASS">    107.86800000</v>
   <v name="DARWINR">      0.00000000</v>
   <v name="DARWINV">      1.00000000</v>
   <i type="logical" name="LCORR"> T  </i>
  </separator>
  <i type="logical" name="GGA_COMPAT"> T  </i>
  <i type="logical" name="LBERRY"> F  </i>
  <i type="int" name="ICORELEVEL">     0</i>
  <i type="logical" name="LDAU"> F  </i>
  <i type="int" name="I_CONSTRAINED_M">     0</i>
  <separator name="electronic exchange-correlation" >
   <i type="string" name="GGA">PE</i>
   <i type="int" name="VOSKOWN">     0</i>
   <i type="logical" name="LHFCALC"> F  </i>
   <i type="string" name="PRECFOCK"></i>
   <i type="logical" name="LSYMGRAD"> F  </i>
   <i type="logical" name="LHFONE"> F  </i>
   <i type="logical" name="LRHFCALC"> F  </i>
   <i type="logical" name="LTHOMAS"> F  </i>
   <i type="logical" name="LMODELHF"> F  </i>
   <i name="ENCUT4O">     -1.00000000</i>
   <i type="int" name="EXXOEP">     0</i>
   <i type="int" name="FOURORBIT">     0</i>
   <i name="AEXX">      0.00000000</i>
   <i name="HFALPHA">      0.00000000</i>
   <i name="MCALPHA">      0.00000000</i>
   <i name="ALDAX">      1.00000000</i>
   <i name="AGGAX">      1.00000000</i>
   <i name="ALDAC">      1.00000000</i>
   <i name="AGGAC">      1.00000000</i>
   <i type="int" name="NKREDX">     1</i>
   <i type="int" name="NKREDY">     1</i>
   <i type="int" name="NKREDZ">     1</i>
   <i type="logical" name="SHIFTRED"> F  </i>
   <i type="logical" name="ODDONLY"> F  </i>
   <i type="logical" name="EVENONLY"> F  </i>
   <i type="int" name="LMAXFOCK">     0</i>
   <i type="int" name="NMAXFOCKAE">     0</i>
   <i type="logical" name="LFOCKAEDFT"> F  </i>
   <i name="HFSCREEN">      0.00000000</i>
   <i name="HFSCREENC">      0.00000000</i>
   <i type="int" name="NBANDSGWLOW">     0</i>
  </separator>
  <separator name="vdW DFT" >
   <i type="logical" name="LUSE_VDW"> F  </i>
   <i name="Zab_VDW">     -0.84910000</i>
   <i name="PARAM1">      0.12340000</i>
   <i name="PARAM2">      1.00000000</i>
   <i name="PARAM3">      0.00000000</i>
  </separator>
  <separator name="model GW" >
   <i type="int" name="MODEL_GW">     0</i>
   <i name="MODEL_EPS0">    164.19676060</i>
   <i name="MODEL_ALPHA">      1.00000000</i>
  </separator>
  <separator name="linear response parameters" >
   <i type="logical" name="LEPSILON"> F  </i>
   <i type="logical" name="LRPA"> F  </i>
   <i type="logical" name="LNABLA"> F  </i>
   <i type="logical" name="LVEL"> F  </i>
   <i type="int" name="KINTER">     0</i>
   <i name="CSHIFT">      0.10000000</i>
   <i name="OMEGAMAX">     -1.00000000</i>
   <i name="DEG_THRESHOLD">      0.00200000</i>
  </separator>
  <separator name="orbital magnetization" >
   <i type="logical" name="NUCIND"> F  </i>
   <v name="MAGPOS">      0.00000000      0.00000000      0.00000000</v>
   <i type="logical" name="LNICSALL"> T  </i>
   <i type="logical" name="ORBITALMAG"> F  </i>
   <i type="logical" name="LMAGBLOCH"> F  </i>
   <i type="logical" name="LCHIMAG"> F  </i>
   <i type="logical" name="LGAUGE"> T  </i>
   <i type="int" name="MAGATOM">     0</i>
   <v name="MAGDIPOL">      0.00000000      0.00000000      0.00000000</v>
   <v name="AVECCONST">      0.00000000      0.00000000      0.00000000</v>
  </separator>
  <separator name="response functions" >
   <i type="logical" name="LADDER"> F  </i>
   <i type="logical" name="LFXC"> F  </i>
   <i type="logical" name="LHARTREE"> T  </i>
   <i type="int" name="IBSE">     0</i>
   <i type="logical" name="LTCTE"> F  </i>
   <i type="logical" name="LTETE"> F  </i>
   <i type="logical" name="LTRIPLET"> F  </i>
   <i type="logical" name="LFXCEPS"> F  </i>
   <i type="logical" name="LFXHEG"> F  </i>
   <i type="logical" name="L2ORDER"> F  </i>
   <i type="logical" name="LUSEW"> F  </i>
   <i name="ENCUTGW">     -2.00000000</i>
   <i name="ENCUTGWSOFT">     -2.00000000</i>
   <i name="ENCUTLF">     -1.00000000</i>
   <i type="int" name="LMAXMP2">    -1</i>
   <i name="SCISSOR">      0.00000000</i>
   <i type="int" name="NOMEGA">     0</i>
   <i type="int" name="NOMEGAR">     0</i>
   <i type="int" name="NBANDSGW">    -1</i>
   <i type="int" name="NBANDSO">    -1</i>
   <i type="int" name="NBANDSV">    -1</i>
   <i type="int" name="NELM">     1</i>
   <i type="int" name="DIM">     3</i>
   <i type="int" name="ANTIRES">     0</i>
   <i name="OMEGAMAX">    -30.00000000</i>
   <i name="OMEGAMIN">    -30.00000000</i>
   <i name="OMEGATL">   -200.00000000</i>
   <i type="int" name="OMEGAGRID">     0</i>
   <i name="CSHIFT">     -0.10000000</i>
   <i type="logical" name="SELFENERGY"> F  </i>
   <i type="logical" name="LSPECTRAL"> F  </i>
   <i type="logical" name="ODDONLYGW"> F  </i>
   <i type="logical" name="EVENONLYGW"> F  </i>
   <i type="int" name="NKREDLFX">     1</i>
   <i type="int" name="NKREDLFY">     1</i>
   <i type="int" name="NKREDLFZ">     1</i>
   <i type="int" name="MAXMEM">  1800</i>
   <i type="int" name="TELESCOPE">     0</i>
   <i type="int" name="TAUPAR">     1</i>
  </separator>
  <separator name="External order field" >
   <i name="OFIELD_KAPPA">      0.00000000</i>
   <v name="OFIELD_K">      0.00000000      0.00000000      0.00000000</v>
   <i name="OFIELD_Q6_NEAR">      0.00000000</i>
   <i name="OFIELD_Q6_FAR">      0.00000000</i>
   <i name="OFIELD_A">      0.00000000</i>
  </separator>
 </parameters>
 <atominfo>
  <atoms>      44 </atoms>
  <types>       1 </types>
  <array name="atoms" >
   <dimension dim="1">ion</dimension>
   <field type="string">element</field>
   <field type="int">atomtype</field>
   <set>
    <rc><c>Ag</c><c>   1</c></rc>
    <rc><c>Ag</c><c>   1</c></rc>
    <rc><c>Ag</c><c>   1</c></rc>
    <rc><c>Ag</c><c>   1</c></rc>
    <rc><c>Ag</c><c>   1</c></rc>
    <rc><c>Ag</c><c>   1</c></rc>
    <rc><c>Ag</c><c>   1</c></rc>
    <rc><c>Ag</c><c>   1</c></rc>
    <rc><c>Ag</c><c>   1</c></rc>
    <rc><c>Ag</c><c>   1</c></rc>
    <rc><c>Ag</c><c>   1</c></rc>
    <rc><c>Ag</c><c>   1</c></rc>
    <rc><c>Ag</c><c>   1</c></rc>
    <rc><c>Ag</c><c>   1</c></rc>
    <rc><c>Ag</c><c>   1</c></rc>
    <rc><c>Ag</c><c>   1</c></rc>
    <rc><c>Ag</c><c>   1</c></rc>
    <rc><c>Ag</c><c>   1</c></rc>
    <rc><c>Ag</c><c>   1</c></rc>
    <rc><c>Ag</c><c>   1</c></rc>
    <rc><c>Ag</c><c>   1</c></rc>
    <rc><c>Ag</c><c>   1</c></rc>
    <rc><c>Ag</c><c>   1</c></rc>
    <rc><c>Ag</c><c>   1</c></rc>
    <rc><c>Ag</c><c>   1</c></rc>
    <rc><c>Ag</c><c>   1</c></rc>
    <rc><c>Ag</c><c>   1</c></rc>
    <rc><c>Ag</c><c>   1</c></rc>
    <rc><c>Ag</c><c>   1</c></rc>
    <rc><c>Ag</c><c>   1</c></rc>
    <rc><c>Ag</c><c>   1</c></rc>
    <rc><c>Ag</c><c>   1</c></rc>
    <rc><c>Ag</c><c>   1</c></rc>
    <rc><c>Ag</c><c>   1</c></rc>
    <rc><c>Ag</c><c>   1</c></rc>
    <rc><c>Ag</c><c>   1</c></rc>
    <rc><c>Ag</c><c>   1</c></rc>
    <rc><c>Ag</c><c>   1</c></rc>
    <rc><c>Ag</c><c>   1</c></rc>
    <rc><c>Ag</c><c>   1</c></rc>
    <rc><c>Ag</c><c>   1</c></rc>
    <rc><c>Ag</c><c>   1</c></rc>
    <rc><c>Ag</c><c>   1</c></rc>
    <rc><c>Ag</c><c>   1</c></rc>
   </set>
  </array>
  <array name="atomtypes" >
   <dimension dim="1">type</dimension>
   <field type="int">atomspertype</field>
   <field type="string">element</field>
   <field>mass</field>
   <field>valence</field>
   <field type="string">pseudopotential</field>
   <set>
    <rc><c>  44</c><c>Ag</c><c>    107.86800000</c><c>     11.00000000</c><c>  PAW_PBE Ag 02Apr2005                  </c></rc>
   </set>
  </array>
 </atominfo>
 <structure name="initialpos" >
  <crystal>
   <varray name="basis" >
    <v>      22.92039003       0.00000000       0.00000000 </v>
    <v>       0.00000000      22.92039003       0.00000000 </v>
    <v>       0.00000000       0.00000000      22.92039003 </v>
   </varray>
   <i name="volume">  12041.09577750 </i>
   <varray name="rec_basis" >
    <v>       0.04362928       0.00000000       0.00000000 </v>
    <v>       0.00000000       0.04362928       0.00000000 </v>
    <v>       0.00000000       0.00000000       0.04362928 </v>
   </varray>
  </crystal>
  <varray name="positions" >
   <v>       0.62199946       0.43343331       0.71348634 </v>
   <v>       0.61950143       0.55551175       0.71504777 </v>
   <v>       0.51960804       0.61386296       0.67030433 </v>
   <v>       0.51916302       0.48923788       0.68056103 </v>
   <v>       0.53125770       0.36433054       0.67939083 </v>
   <v>       0.43265225       0.67003445       0.60849249 </v>
   <v>       0.43075293       0.54557349       0.62175023 </v>
   <v>       0.65020577       0.61028564       0.60872238 </v>
   <v>       0.43215918       0.42203387       0.63041113 </v>
   <v>       0.64534209       0.36212266       0.61354274 </v>
   <v>       0.55806735       0.67014561       0.55989974 </v>
   <v>       0.65313880       0.48981716       0.61455803 </v>
   <v>       0.33889867       0.60064048       0.56393688 </v>
   <v>       0.43499006       0.29521300       0.63587355 </v>
   <v>       0.34309168       0.47891095       0.56715126 </v>
   <v>       0.54873340       0.54653595       0.56997607 </v>
   <v>       0.46410266       0.73391253       0.50967998 </v>
   <v>       0.54886843       0.42695772       0.57387946 </v>
   <v>       0.34247962       0.35560020       0.57291303 </v>
   <v>       0.35937734       0.66560037       0.46820907 </v>
   <v>       0.54616743       0.28966079       0.58387820 </v>
   <v>       0.45666226       0.60552594       0.50936762 </v>
   <v>       0.45559656       0.48310667       0.51488949 </v>
   <v>       0.45700053       0.35651061       0.52456002 </v>
   <v>       0.43847490       0.71628189       0.39405667 </v>
   <v>       0.36390352       0.41380871       0.46216182 </v>
   <v>       0.66203337       0.43194065       0.51343400 </v>
   <v>       0.36154317       0.54161642       0.45871294 </v>
   <v>       0.56580226       0.49607028       0.46285867 </v>
   <v>       0.72770560       0.54153586       0.53368855 </v>
   <v>       0.57877491       0.34324383       0.48467811 </v>
   <v>       0.53936372       0.66383613       0.43769625 </v>
   <v>       0.62699785       0.59898176       0.48859873 </v>
   <v>       0.47544746       0.55474429       0.40529166 </v>
   <v>       0.48736102       0.41246313       0.41923181 </v>
   <v>       0.37741277       0.60865376       0.35962398 </v>
   <v>       0.38579272       0.47369374       0.35893604 </v>
   <v>       0.68370225       0.51252593       0.42592050 </v>
   <v>       0.61453157       0.40981051       0.39468740 </v>
   <v>       0.49748755       0.64374596       0.31899439 </v>
   <v>       0.59265930       0.57944115       0.37067595 </v>
   <v>       0.44148145       0.54273321       0.28061625 </v>
   <v>       0.53263777       0.47756241       0.32769118 </v>
   <v>       0.65252110       0.49022244       0.30994130 </v>
  </varray>
 </structure>
 <calculation>
  <scstep>
   <time name="dav">    4.61    4.61</time>
   <time name="total">    4.83    4.87</time>
   <energy>
    <i name="alphaZ">    136.75824626 </i>
    <i name="ewald"> 123707.88116613 </i>
    <i name="hartreedc">-167581.48439729 </i>
    <i name="XCdc">   -479.17817949 </i>
    <i name="pawpsdc">  44148.37583506 </i>
    <i name="pawaedc"> -42119.64279067 </i>
    <i name="eentropy">      0.00000000 </i>
    <i name="bandstr">    592.50929890 </i>
    <i name="atom">  45636.73972380 </i>
    <i name="e_fr_energy">   4041.95890270 </i>
    <i name="e_wo_entrp">   4041.95890270 </i>
    <i name="e_0_energy">   4041.95890270 </i>
   </energy>
  </scstep>
  <scstep>
   <time name="dav">    6.70    6.71</time>
   <time name="total">    6.71    6.72</time>
   <energy>
    <i name="e_fr_energy">    668.93629770 </i>
    <i name="e_wo_entrp">    668.93629770 </i>
    <i name="e_0_energy">    668.93629770 </i>
   </energy>
  </scstep>
  <scstep>
   <time name="dav">    5.36    5.37</time>
   <time name="total">    5.36    6.06</time>
   <energy>
    <i name="e_fr_energy">    -64.78117119 </i>
    <i name="e_wo_entrp">    -64.78117119 </i>
    <i name="e_0_energy">    -64.78117119 </i>
   </energy>
  </scstep>
  <scstep>
   <time name="dav">    4.85    4.85</time>
   <time name="total">    4.85   15.47</time>
   <energy>
    <i name="e_fr_energy">    -95.34146328 </i>
    <i name="e_wo_entrp">    -95.34146328 </i>
    <i name="e_0_energy">    -95.34146328 </i>
   </energy>
  </scstep>
  <scstep>
   <time name="dav">    5.06    5.06</time>
   <time name="total">    5.19    5.22</time>
   <energy>
    <i name="e_fr_energy">    -95.79233174 </i>
    <i name="e_wo_entrp">    -95.79233174 </i>
    <i name="e_0_energy">    -95.79233174 </i>
   </energy>
  </scstep>
  <scstep>
   <time name="dav">    4.54    4.55</time>
   <time name="total">    4.89    5.70</time>
   <energy>
    <i name="e_fr_energy">    -46.54723858 </i>
    <i name="e_wo_entrp">    -46.54723858 </i>
    <i name="e_0_energy">    -46.54723858 </i>
   </energy>
  </scstep>
  <scstep>
   <time name="dav">    4.73    4.73</time>
   <time name="total">    5.08    6.66</time>
   <energy>
    <i name="e_fr_energy">    -35.48309487 </i>
    <i name="e_wo_entrp">    -35.48309487 </i>
    <i name="e_0_energy">    -35.48309487 </i>
   </energy>
  </scstep>
  <scstep>
   <time name="dav">    4.80    4.80</time>
   <time name="total">    5.14    8.52</time>
   <energy>
    <i name="e_fr_energy">    -32.71939692 </i>
    <i name="e_wo_entrp">    -32.71939692 </i>
    <i name="e_0_energy">    -32.71939692 </i>
   </energy>
  </scstep>
  <scstep>
   <time name="dav">    4.76    4.77</time>
   <time name="total">    5.12   19.14</time>
   <energy>
    <i name="e_fr_energy">    -36.08102278 </i>
    <i name="e_wo_entrp">    -36.08102278 </i>
    <i name="e_0_energy">    -36.08102278 </i>
   </energy>
  </scstep>
  <scstep>
   <time name="dav">    4.84    4.84</time>
   <time name="total">    5.19    5.89</time>
   <energy>
    <i name="e_fr_energy">    -39.77562093 </i>
    <i name="e_wo_entrp">    -39.77562093 </i>
    <i name="e_0_energy">    -39.77562093 </i>
   </energy>
  </scstep>
  <scstep>
   <time name="dav">    4.57    4.58</time>
   <time name="total">    4.92    7.84</time>
   <energy>
    <i name="e_fr_energy">    -53.11337948 </i>
    <i name="e_wo_entrp">    -53.11337948 </i>
    <i name="e_0_energy">    -53.11337948 </i>
   </energy>
  </scstep>
  <scstep>
   <time name="dav">    4.69    4.69</time>
   <time name="total">    5.04    5.06</time>
   <energy>
    <i name="e_fr_energy">    -63.90970230 </i>
    <i name="e_wo_entrp">    -63.90970230 </i>
    <i name="e_0_energy">    -63.90970230 </i>
   </energy>
  </scstep>
  <scstep>
   <time name="dav">    4.66    4.67</time>
   <time name="total">    5.01    5.11</time>
   <energy>
    <i name="e_fr_energy">    -74.78707766 </i>
    <i name="e_wo_entrp">    -74.78707766 </i>
    <i name="e_0_energy">    -74.78707766 </i>
   </energy>
  </scstep>
  <scstep>
   <time name="dav">    4.74    4.74</time>
   <time name="total">    5.09    5.09</time>
   <energy>
    <i name="e_fr_energy">    -78.33372383 </i>
    <i name="e_wo_entrp">    -78.33372383 </i>
    <i name="e_0_energy">    -78.33372383 </i>
   </energy>
  </scstep>
  <scstep>
   <time name="dav">    4.68    4.69</time>
   <time name="total">    5.03   14.38</time>
   <energy>
    <i name="e_fr_energy">    -84.42172856 </i>
    <i name="e_wo_entrp">    -84.42172856 </i>
    <i name="e_0_energy">    -84.42172856 </i>
   </energy>
  </scstep>
  <scstep>
   <time name="dav">    4.72    4.72</time>
   <time name="total">    5.07    6.16</time>
   <energy>
    <i name="e_fr_energy">    -88.89986129 </i>
    <i name="e_wo_entrp">    -88.89986129 </i>
    <i name="e_0_energy">    -88.89986129 </i>
   </energy>
  </scstep>
  <scstep>
   <time name="dav">    5.03    5.04</time>
   <time name="total">    5.38    5.41</time>
   <energy>
    <i name="e_fr_energy">    -89.30279686 </i>
    <i name="e_wo_entrp">    -89.30279686 </i>
    <i name="e_0_energy">    -89.30279686 </i>
   </energy>
  </scstep>
  <scstep>
   <time name="dav">    4.71    4.72</time>
   <time name="total">    5.06    6.60</time>
   <energy>
    <i name="e_fr_energy">    -90.45865310 </i>
    <i name="e_wo_entrp">    -90.45865310 </i>
    <i name="e_0_energy">    -90.45865310 </i>
   </energy>
  </scstep>
  <scstep>
   <time name="dav">    4.65    4.66</time>
   <time name="total">    5.00    5.17</time>
   <energy>
    <i name="e_fr_energy">    -92.23979764 </i>
    <i name="e_wo_entrp">    -92.23979764 </i>
    <i name="e_0_energy">    -92.23979764 </i>
   </energy>
  </scstep>
  <scstep>
   <time name="dav">    4.80    4.81</time>
   <time name="total">    5.16    5.19</time>
   <energy>
    <i name="e_fr_energy">    -93.19127768 </i>
    <i name="e_wo_entrp">    -93.19127768 </i>
    <i name="e_0_energy">    -93.19127768 </i>
   </energy>
  </scstep>
  <scstep>
   <time name="dav">    4.77    4.78</time>
   <time name="total">    5.12    5.19</time>
   <energy>
    <i name="e_fr_energy">    -93.65788087 </i>
    <i name="e_wo_entrp">    -93.65788087 </i>
    <i name="e_0_energy">    -93.65788087 </i>
   </energy>
  </scstep>
  <scstep>
   <time name="dav">    4.68    4.69</time>
   <time name="total">    5.04   11.63</time>
   <energy>
    <i name="e_fr_energy">    -94.00297901 </i>
    <i name="e_wo_entrp">    -94.00297901 </i>
    <i name="e_0_energy">    -94.00297901 </i>
   </energy>
  </scstep>
  <scstep>
   <time name="dav">    3.94    3.94</time>
   <time name="total">    4.29    4.32</time>
   <energy>
    <i name="e_fr_energy">    -94.08417083 </i>
    <i name="e_wo_entrp">    -94.08417083 </i>
    <i name="e_0_energy">    -94.08417083 </i>
   </energy>
  </scstep>
  <scstep>
   <time name="dav">    3.65    3.65</time>
   <time name="total">    4.00    4.01</time>
   <energy>
    <i name="e_fr_energy">    -94.14298850 </i>
    <i name="e_wo_entrp">    -94.14298850 </i>
    <i name="e_0_energy">    -94.14298850 </i>
   </energy>
  </scstep>
  <scstep>
   <time name="dav">    3.72    3.73</time>
   <time name="total">    4.08    5.77</time>
   <energy>
    <i name="e_fr_energy">    -94.16107531 </i>
    <i name="e_wo_entrp">    -94.16107531 </i>
    <i name="e_0_energy">    -94.16107531 </i>
   </energy>
  </scstep>
  <scstep>
   <time name="dav">    3.65    3.66</time>
   <time name="total">    4.00    4.12</time>
   <energy>
    <i name="e_fr_energy">    -94.16850375 </i>
    <i name="e_wo_entrp">    -94.16850375 </i>
    <i name="e_0_energy">    -94.16850375 </i>
   </energy>
  </scstep>
  <scstep>
   <time name="dav">    3.50    3.50</time>
   <time name="total">    3.85    3.86</time>
   <energy>
    <i name="e_fr_energy">    -94.17634534 </i>
    <i name="e_wo_entrp">    -94.17634534 </i>
    <i name="e_0_energy">    -94.17634534 </i>
   </energy>
  </scstep>
  <scstep>
   <time name="dav">    3.60    3.60</time>
   <time name="total">    3.95    4.01</time>
   <energy>
    <i name="e_fr_energy">    -94.18066114 </i>
    <i name="e_wo_entrp">    -94.18066114 </i>
    <i name="e_0_energy">    -94.18066114 </i>
   </energy>
  </scstep>
  <scstep>
   <time name="dav">    3.50    3.51</time>
   <time name="total">    3.86    3.87</time>
   <energy>
    <i name="e_fr_energy">    -94.18246409 </i>
    <i name="e_wo_entrp">    -94.18246409 </i>
    <i name="e_0_energy">    -94.18246409 </i>
   </energy>
  </scstep>
  <scstep>
   <time name="dav">    3.46    3.46</time>
   <time name="total">    3.81    3.84</time>
   <energy>
    <i name="e_fr_energy">    -94.18335339 </i>
    <i name="e_wo_entrp">    -94.18335339 </i>
    <i name="e_0_energy">    -94.18335339 </i>
   </energy>
  </scstep>
  <scstep>
   <time name="dav">    3.48    3.49</time>
   <time name="total">    3.85   11.56</time>
   <energy>
    <i name="e_fr_energy">    -94.18350474 </i>
    <i name="e_wo_entrp">    -94.18350474 </i>
    <i name="e_0_energy">    -94.18350474 </i>
   </energy>
  </scstep>
  <scstep>
   <time name="dav">    3.42    3.42</time>
   <time name="total">    3.64    3.84</time>
   <energy>
    <i name="alphaZ">    136.75824626 </i>
    <i name="ewald"> 123707.88116613 </i>
    <i name="hartreedc">-167488.66201997 </i>
    <i name="XCdc">   -496.88740009 </i>
    <i name="pawpsdc">  47771.97532314 </i>
    <i name="pawaedc"> -45827.43997481 </i>
    <i name="eentropy">      0.00000000 </i>
    <i name="bandstr">  -3534.54861450 </i>
    <i name="atom">  45636.73972380 </i>
    <i name="e_fr_energy">    -94.18355003 </i>
    <i name="e_wo_entrp">    -94.18355003 </i>
    <i name="e_0_energy">    -94.18355003 </i>
   </energy>
  </scstep>
  <structure>
   <crystal>
    <varray name="basis" >
     <v>      22.92039003       0.00000000       0.00000000 </v>
     <v>       0.00000000      22.92039003       0.00000000 </v>
     <v>       0.00000000       0.00000000      22.92039003 </v>
    </varray>
    <i name="volume">  12041.09577750 </i>
    <varray name="rec_basis" >
     <v>       0.04362928       0.00000000       0.00000000 </v>
     <v>       0.00000000       0.04362928       0.00000000 </v>
     <v>       0.00000000       0.00000000       0.04362928 </v>
    </varray>
   </crystal>
   <varray name="positions" >
    <v>       0.62199946       0.43343331       0.71348634 </v>
    <v>       0.61950143       0.55551175       0.71504777 </v>
    <v>       0.51960804       0.61386296       0.67030433 </v>
    <v>       0.51916302       0.48923788       0.68056103 </v>
    <v>       0.53125770       0.36433054       0.67939083 </v>
    <v>       0.43265225       0.67003445       0.60849249 </v>
    <v>       0.43075293       0.54557349       0.62175023 </v>
    <v>       0.65020577       0.61028564       0.60872238 </v>
    <v>       0.43215918       0.42203387       0.63041113 </v>
    <v>       0.64534209       0.36212266       0.61354274 </v>
    <v>       0.55806735       0.67014561       0.55989974 </v>
    <v>       0.65313880       0.48981716       0.61455803 </v>
    <v>       0.33889867       0.60064048       0.56393688 </v>
    <v>       0.43499006       0.29521300       0.63587355 </v>
    <v>       0.34309168       0.47891095       0.56715126 </v>
    <v>       0.54873340       0.54653595       0.56997607 </v>
    <v>       0.46410266       0.73391253       0.50967998 </v>
    <v>       0.54886843       0.42695772       0.57387946 </v>
    <v>       0.34247962       0.35560020       0.57291303 </v>
    <v>       0.35937734       0.66560037       0.46820907 </v>
    <v>       0.54616743       0.28966079       0.58387820 </v>
    <v>       0.45666226       0.60552594       0.50936762 </v>
    <v>       0.45559656       0.48310667       0.51488949 </v>
    <v>       0.45700053       0.35651061       0.52456002 </v>
    <v>       0.43847490       0.71628189       0.39405667 </v>
    <v>       0.36390352       0.41380871       0.46216182 </v>
    <v>       0.66203337       0.43194065       0.51343400 </v>
    <v>       0.36154317       0.54161642       0.45871294 </v>
    <v>       0.56580226       0.49607028       0.46285867 </v>
    <v>       0.72770560       0.54153586       0.53368855 </v>
    <v>       0.57877491       0.34324383       0.48467811 </v>
    <v>       0.53936372       0.66383613       0.43769625 </v>
    <v>       0.62699785       0.59898176       0.48859873 </v>
    <v>       0.47544746       0.55474429       0.40529166 </v>
    <v>       0.48736102       0.41246313       0.41923181 </v>
    <v>       0.37741277       0.60865376       0.35962398 </v>
    <v>       0.38579272       0.47369374       0.35893604 </v>
    <v>       0.68370225       0.51252593       0.42592050 </v>
    <v>       0.61453157       0.40981051       0.39468740 </v>
    <v>       0.49748755       0.64374596       0.31899439 </v>
    <v>       0.59265930       0.57944115       0.37067595 </v>
    <v>       0.44148145       0.54273321       0.28061625 </v>
    <v>       0.53263777       0.47756241       0.32769118 </v>
    <v>       0.65252110       0.49022244       0.30994130 </v>
   </varray>
  </structure>
  <varray name="forces" >
   <v>       0.05517624      -0.14789483       0.31973467 </v>
   <v>      -0.05257060      -0.10489112      -0.08537669 </v>
   <v>       0.34993766       0.02883374      -0.05143891 </v>
   <v>       0.28868846       0.12482722       0.23145694 </v>
   <v>      -0.02511255      -0.27312553       0.14788044 </v>
   <v>       0.05271601       0.05150526       0.04159631 </v>
   <v>      -0.05375715       0.11692027       0.12901987 </v>
   <v>       0.04899350       0.04491500       0.09772848 </v>
   <v>      -0.18945650      -0.23321719      -0.04339834 </v>
   <v>      -0.25686436      -0.01568499       0.01299650 </v>
   <v>      -0.46225578       0.16340393       0.15094631 </v>
   <v>       0.00978900       0.13179909       0.28812765 </v>
   <v>      -0.17769748       0.01150823       0.28569648 </v>
   <v>       0.01524916       0.29188917      -0.20542659 </v>
   <v>      -0.12843834      -0.11360407      -0.04726313 </v>
   <v>      -0.06621923       0.36928289       0.37391243 </v>
   <v>       0.03022760      -0.15453820      -0.01832400 </v>
   <v>       0.16283066      -0.38860451      -0.13148444 </v>
   <v>       0.29858721       0.01031060       0.04427048 </v>
   <v>      -0.15232688       0.36983681      -0.14461491 </v>
   <v>      -0.15546037       0.13779318       0.16456325 </v>
   <v>       0.01757919       0.34856594       0.44277156 </v>
   <v>      -0.12149150      -0.10437747       0.02143161 </v>
   <v>      -0.06911921      -0.29665871       0.02352955 </v>
   <v>      -0.07509943      -0.12821183      -0.26015861 </v>
   <v>       0.19520810      -0.06598009       0.07281872 </v>
   <v>       0.01173983      -0.19191528      -0.36847288 </v>
   <v>      -0.26021197      -0.26016159       0.09400244 </v>
   <v>      -0.01873642      -0.17765785      -0.10316180 </v>
   <v>      -0.11700434       0.04803206       0.12966415 </v>
   <v>      -0.18150579       0.23932821       0.06745138 </v>
   <v>      -0.06811268       0.26837082      -0.12112249 </v>
   <v>       0.38377224       0.25790082       0.12361689 </v>
   <v>      -0.01012719      -0.40206961      -0.41806583 </v>
   <v>      -0.16220879      -0.24968192      -0.08425083 </v>
   <v>       0.10764242       0.35270928      -0.27502096 </v>
   <v>       0.29129032       0.00483710       0.18156965 </v>
   <v>       0.20543363      -0.09730588      -0.47484385 </v>
   <v>       0.10695940       0.11731100      -0.34534795 </v>
   <v>      -0.14005704      -0.01462487       0.04827561 </v>
   <v>       0.23356283      -0.14522655      -0.24197230 </v>
   <v>       0.04830421       0.17655360      -0.10540125 </v>
   <v>       0.04813093      -0.09319266       0.00416059 </v>
   <v>      -0.01798497      -0.00780946       0.02792379 </v>
  </varray>
  <varray name="stress" >
   <v>      -1.96137937      -0.05788436      -0.15316077 </v>
   <v>      -0.05788437      -1.40748337      -0.04192104 </v>
   <v>      -0.15316077      -0.04192104      -0.84859685 </v>
  </varray>
  <energy>
   <i name="e_fr_energy">    -94.18355003 </i>
   <i name="e_wo_entrp">    -94.18355003 </i>
   <i name="e_0_energy">      0.00000000 </i>
  </energy>
  <time name="totalsc">  161.55  225.97</time>
 </calculation>
 <calculation>
  <scstep>
   <time name="dav">    4.76    4.76</time>
   <time name="total">    5.11    5.13</time>
   <energy>
    <i name="alphaZ">    136.75824626 </i>
    <i name="ewald"> 123651.42406046 </i>
    <i name="hartreedc">-167432.46306558 </i>
    <i name="XCdc">   -496.92358143 </i>
    <i name="pawpsdc">  47771.99013822 </i>
    <i name="pawaedc"> -45827.45470435 </i>
    <i name="eentropy">      0.00000000 </i>
    <i name="bandstr">  -3534.29959282 </i>
    <i name="atom">  45636.73972380 </i>
    <i name="e_fr_energy">    -94.22877544 </i>
    <i name="e_wo_entrp">    -94.22877544 </i>
    <i name="e_0_energy">    -94.22877544 </i>
   </energy>
  </scstep>
  <scstep>
   <time name="dav">    4.81    4.81</time>
   <time name="total">    5.16    5.78</time>
   <energy>
    <i name="e_fr_energy">    -94.23024039 </i>
    <i name="e_wo_entrp">    -94.23024039 </i>
    <i name="e_0_energy">    -94.23024039 </i>
   </energy>
  </scstep>
  <scstep>
   <time name="dav">    3.46    3.47</time>
   <time name="total">    3.68    3.69</time>
   <energy>
    <i name="alphaZ">    136.75824626 </i>
    <i name="ewald"> 123651.42406046 </i>
    <i name="hartreedc">-167432.72308574 </i>
    <i name="XCdc">   -496.92082985 </i>
    <i name="pawpsdc">  47769.03889039 </i>
    <i name="pawaedc"> -45824.45092158 </i>
    <i name="eentropy">      0.00000000 </i>
    <i name="bandstr">  -3534.09630089 </i>
    <i name="atom">  45636.73972380 </i>
    <i name="e_fr_energy">    -94.23021714 </i>
    <i name="e_wo_entrp">    -94.23021714 </i>
    <i name="e_0_energy">    -94.23021714 </i>
   </energy>
  </scstep>
  <structure>
   <crystal>
    <varray name="basis" >
     <v>      22.92039003       0.00000000       0.00000000 </v>
     <v>       0.00000000      22.92039003       0.00000000 </v>
     <v>       0.00000000       0.00000000      22.92039003 </v>
    </varray>
    <i name="volume">  12041.09577750 </i>
    <varray name="rec_basis" >
     <v>       0.04362928       0.00000000       0.00000000 </v>
     <v>       0.00000000       0.04362928       0.00000000 </v>
     <v>       0.00000000       0.00000000       0.04362928 </v>
    </varray>
   </crystal>
   <varray name="positions" >
    <v>       0.62202269       0.43337105       0.71362094 </v>
    <v>       0.61947930       0.55546760       0.71501183 </v>
    <v>       0.51975535       0.61387510       0.67028267 </v>
    <v>       0.51928454       0.48929043       0.68065846 </v>
    <v>       0.53124713       0.36421557       0.67945308 </v>
    <v>       0.43267444       0.67005614       0.60851000 </v>
    <v>       0.43073030       0.54562271       0.62180454 </v>
    <v>       0.65022640       0.61030455       0.60876352 </v>
    <v>       0.43207943       0.42193569       0.63039286 </v>
    <v>       0.64523396       0.36211606       0.61354821 </v>
    <v>       0.55787276       0.67021439       0.55996328 </v>
    <v>       0.65314292       0.48987264       0.61467932 </v>
    <v>       0.33882387       0.60064533       0.56405714 </v>
    <v>       0.43499648       0.29533587       0.63578707 </v>
    <v>       0.34303761       0.47886312       0.56713137 </v>
    <v>       0.54870553       0.54669141       0.57013347 </v>
    <v>       0.46411538       0.73384748       0.50967227 </v>
    <v>       0.54893698       0.42679413       0.57382411 </v>
    <v>       0.34260531       0.35560454       0.57293166 </v>
    <v>       0.35931322       0.66575606       0.46814819 </v>
    <v>       0.54610198       0.28971880       0.58394748 </v>
    <v>       0.45666966       0.60567267       0.50955401 </v>
    <v>       0.45554541       0.48306273       0.51489851 </v>
    <v>       0.45697143       0.35638573       0.52456993 </v>
    <v>       0.43844329       0.71622792       0.39394715 </v>
    <v>       0.36398570       0.41378094       0.46219247 </v>
    <v>       0.66203831       0.43185986       0.51327889 </v>
    <v>       0.36143364       0.54150690       0.45875251 </v>
    <v>       0.56579437       0.49599549       0.46281524 </v>
    <v>       0.72765635       0.54155608       0.53374313 </v>
    <v>       0.57869851       0.34334458       0.48470650 </v>
    <v>       0.53933505       0.66394910       0.43764526 </v>
    <v>       0.62715940       0.59909033       0.48865077 </v>
    <v>       0.47544320       0.55457504       0.40511567 </v>
    <v>       0.48729274       0.41235802       0.41919635 </v>
    <v>       0.37745808       0.60880224       0.35950820 </v>
    <v>       0.38591534       0.47369577       0.35901248 </v>
    <v>       0.68378873       0.51248497       0.42572061 </v>
    <v>       0.61457660       0.40985989       0.39454202 </v>
    <v>       0.49742859       0.64373980       0.31901472 </v>
    <v>       0.59275762       0.57938001       0.37057409 </v>
    <v>       0.44150179       0.54280753       0.28057188 </v>
    <v>       0.53265803       0.47752318       0.32769293 </v>
    <v>       0.65251353       0.49021915       0.30995306 </v>
   </varray>
  </structure>
  <varray name="forces" >
   <v>       0.05303470      -0.15046856       0.30732417 </v>
   <v>      -0.04445331      -0.09911046      -0.07298134 </v>
   <v>       0.33083146       0.03506085      -0.04351596 </v>
   <v>       0.26159023       0.10317529       0.20680378 </v>
   <v>      -0.02113638      -0.24838388       0.14813878 </v>
   <v>       0.04678851       0.05400117       0.05430033 </v>
   <v>      -0.04726850       0.09957105       0.12774996 </v>
   <v>       0.04275543       0.05244157       0.09170178 </v>
   <v>      -0.16213287      -0.20371169      -0.03390552 </v>
   <v>      -0.24211124      -0.01268061       0.01553057 </v>
   <v>      -0.42728882       0.15117375       0.14298138 </v>
   <v>       0.00733465       0.10555155       0.25658414 </v>
   <v>      -0.16977965       0.01765419       0.25640814 </v>
   <v>       0.00830069       0.27415956      -0.19047395 </v>
   <v>      -0.12209641      -0.10422700      -0.04049476 </v>
   <v>      -0.06016469       0.32166015       0.33471545 </v>
   <v>       0.02127452      -0.14012392      -0.02755770 </v>
   <v>       0.14527667      -0.34376150      -0.12008271 </v>
   <v>       0.27656910       0.00570057       0.04076541 </v>
   <v>      -0.14814317       0.33630206      -0.12692299 </v>
   <v>      -0.14221302       0.12946931       0.15320277 </v>
   <v>       0.00894771       0.30507219       0.37730621 </v>
   <v>      -0.10323822      -0.08856049       0.02533267 </v>
   <v>      -0.06302669      -0.28424148       0.01445354 </v>
   <v>      -0.07852631      -0.11770064      -0.24732087 </v>
   <v>       0.18498732      -0.06839293       0.06873091 </v>
   <v>       0.01410835      -0.16899324      -0.33372436 </v>
   <v>      -0.24140133      -0.22084577       0.08550828 </v>
   <v>      -0.01600686      -0.15341896      -0.08131005 </v>
   <v>      -0.11967877       0.03938252       0.11646621 </v>
   <v>      -0.17382255       0.23082916       0.05297624 </v>
   <v>      -0.05275716       0.23603103      -0.11765232 </v>
   <v>       0.35294802       0.24157605       0.10559889 </v>
   <v>      -0.01869070      -0.36807830      -0.36315162 </v>
   <v>      -0.15200574      -0.24075580      -0.07955924 </v>
   <v>       0.10210344       0.33189879      -0.24900686 </v>
   <v>       0.28395283       0.00693514       0.17046286 </v>
   <v>       0.19921485      -0.08356734      -0.43257953 </v>
   <v>       0.09950945       0.09968462      -0.32621939 </v>
   <v>      -0.12444828      -0.01532721       0.04491669 </v>
   <v>       0.21441947      -0.12492723      -0.21553863 </v>
   <v>       0.04549141       0.16375324      -0.10271337 </v>
   <v>       0.04271988      -0.09396988      -0.00195280 </v>
   <v>      -0.01176801      -0.00983690       0.00870481 </v>
  </varray>
  <varray name="stress" >
   <v>      -1.97559156      -0.06389779      -0.15166271 </v>
   <v>      -0.06389779      -1.44642675      -0.04349624 </v>
   <v>      -0.15166271      -0.04349625      -0.89782507 </v>
  </varray>
  <energy>
   <i name="e_fr_energy">    -94.23021714 </i>
   <i name="e_wo_entrp">    -94.23021714 </i>
   <i name="e_0_energy">      0.00000000 </i>
  </energy>
  <time name="totalsc">   22.87   31.72</time>
 </calculation>
 <calculation>
  <scstep>
   <time name="dav">    4.58    4.58</time>
   <time name="total">    4.93    9.72</time>
   <energy>
    <i name="alphaZ">    136.75824626 </i>
    <i name="ewald"> 123483.09912673 </i>
    <i name="hartreedc">-167265.18510222 </i>
    <i name="XCdc">   -497.01960245 </i>
    <i name="pawpsdc">  47766.20084293 </i>
    <i name="pawaedc"> -45821.58144224 </i>
    <i name="eentropy">      0.00000000 </i>
    <i name="bandstr">  -3533.34978925 </i>
    <i name="atom">  45636.73972380 </i>
    <i name="e_fr_energy">    -94.33799645 </i>
    <i name="e_wo_entrp">    -94.33799645 </i>
    <i name="e_0_energy">    -94.33799645 </i>
   </energy>
  </scstep>
  <scstep>
   <time name="dav">    4.80    4.80</time>
   <time name="total">    5.14    5.16</time>
   <energy>
    <i name="e_fr_energy">    -94.35085705 </i>
    <i name="e_wo_entrp">    -94.35085705 </i>
    <i name="e_0_energy">    -94.35085705 </i>
   </energy>
  </scstep>
  <scstep>
   <time name="dav">    4.86    4.87</time>
   <time name="total">    5.21    5.24</time>
   <energy>
    <i name="e_fr_energy">    -94.35053507 </i>
    <i name="e_wo_entrp">    -94.35053507 </i>
    <i name="e_0_energy">    -94.35053507 </i>
   </energy>
  </scstep>
  <scstep>
   <time name="dav">    4.77    4.77</time>
   <time name="total">    5.12    5.15</time>
   <energy>
    <i name="e_fr_energy">    -94.35026229 </i>
    <i name="e_wo_entrp">    -94.35026229 </i>
    <i name="e_0_energy">    -94.35026229 </i>
   </energy>
  </scstep>
  <scstep>
   <time name="dav">    3.40    3.40</time>
   <time name="total">    3.61    8.95</time>
   <energy>
    <i name="alphaZ">    136.75824626 </i>
    <i name="ewald"> 123483.09912673 </i>
    <i name="hartreedc">-167266.03567228 </i>
    <i name="XCdc">   -497.00781236 </i>
    <i name="pawpsdc">  47748.50501877 </i>
    <i name="pawaedc"> -45803.63357397 </i>
    <i name="eentropy">      0.00000000 </i>
    <i name="bandstr">  -3532.77532761 </i>
    <i name="atom">  45636.73972380 </i>
    <i name="e_fr_energy">    -94.35027066 </i>
    <i name="e_wo_entrp">    -94.35027066 </i>
    <i name="e_0_energy">    -94.35027066 </i>
   </energy>
  </scstep>
  <structure>
   <crystal>
    <varray name="basis" >
     <v>      22.92039003       0.00000000       0.00000000 </v>
     <v>       0.00000000      22.92039003       0.00000000 </v>
     <v>       0.00000000       0.00000000      22.92039003 </v>
    </varray>
    <i name="volume">  12041.09577750 </i>
    <varray name="rec_basis" >
     <v>       0.04362928       0.00000000       0.00000000 </v>
     <v>       0.00000000       0.04362928       0.00000000 </v>
     <v>       0.00000000       0.00000000       0.04362928 </v>
    </varray>
   </crystal>
   <varray name="positions" >
    <v>       0.62209237       0.43318428       0.71402472 </v>
    <v>       0.61941291       0.55533513       0.71490401 </v>
    <v>       0.52019728       0.61391152       0.67021771 </v>
    <v>       0.51964912       0.48944807       0.68095076 </v>
    <v>       0.53121542       0.36387065       0.67963983 </v>
    <v>       0.43274101       0.67012118       0.60856253 </v>
    <v>       0.43066241       0.54577036       0.62196748 </v>
    <v>       0.65028827       0.61036127       0.60888694 </v>
    <v>       0.43184017       0.42164117       0.63033805 </v>
    <v>       0.64490957       0.36209625       0.61356462 </v>
    <v>       0.55728899       0.67042075       0.56015391 </v>
    <v>       0.65315528       0.49003909       0.61504319 </v>
    <v>       0.33859946       0.60065986       0.56441794 </v>
    <v>       0.43501573       0.29570449       0.63552764 </v>
    <v>       0.34287541       0.47871966       0.56707168 </v>
    <v>       0.54862190       0.54715777       0.57060568 </v>
    <v>       0.46415356       0.73365231       0.50964913 </v>
    <v>       0.54914261       0.42630337       0.57365806 </v>
    <v>       0.34298239       0.35561756       0.57298757 </v>
    <v>       0.35912085       0.66622311       0.46796556 </v>
    <v>       0.54590566       0.28989281       0.58415530 </v>
    <v>       0.45669186       0.60611287       0.51011317 </v>
    <v>       0.45539199       0.48293092       0.51492558 </v>
    <v>       0.45688414       0.35601109       0.52459964 </v>
    <v>       0.43834845       0.71606600       0.39361861 </v>
    <v>       0.36423222       0.41369761       0.46228444 </v>
    <v>       0.66205314       0.43161750       0.51281355 </v>
    <v>       0.36110502       0.54117835       0.45887123 </v>
    <v>       0.56577071       0.49577113       0.46268496 </v>
    <v>       0.72750859       0.54161673       0.53390688 </v>
    <v>       0.57846929       0.34364682       0.48479169 </v>
    <v>       0.53924903       0.66428802       0.43749230 </v>
    <v>       0.62764406       0.59941603       0.48880688 </v>
    <v>       0.47543041       0.55406728       0.40458770 </v>
    <v>       0.48708789       0.41204270       0.41908995 </v>
    <v>       0.37759402       0.60924767       0.35916089 </v>
    <v>       0.38628321       0.47370188       0.35924178 </v>
    <v>       0.68404817       0.51236208       0.42512094 </v>
    <v>       0.61471168       0.41000804       0.39410589 </v>
    <v>       0.49725172       0.64372133       0.31907568 </v>
    <v>       0.59305258       0.57919661       0.37026851 </v>
    <v>       0.44156279       0.54303050       0.28043877 </v>
    <v>       0.53271881       0.47740549       0.32769818 </v>
    <v>       0.65249081       0.49020929       0.30998832 </v>
   </varray>
  </structure>
  <varray name="forces" >
   <v>       0.04992045      -0.16653612       0.29199414 </v>
   <v>      -0.02457350      -0.08914852      -0.04283093 </v>
   <v>       0.29889944       0.05587858      -0.02334830 </v>
   <v>       0.20642503       0.05247313       0.15467973 </v>
   <v>      -0.01012775      -0.19790119       0.15847396 </v>
   <v>       0.03308251       0.06591248       0.09384606 </v>
   <v>      -0.03290610       0.05836968       0.13009093 </v>
   <v>       0.02878381       0.07463295       0.08092491 </v>
   <v>      -0.09961344      -0.13823157      -0.01045553 </v>
   <v>      -0.21699628      -0.00652462       0.02508417 </v>
   <v>      -0.35809337       0.12834522       0.13254980 </v>
   <v>       0.00137070       0.04232792       0.19139903 </v>
   <v>      -0.15555553       0.03373164       0.19323177 </v>
   <v>      -0.01039045       0.24731384      -0.16102497 </v>
   <v>      -0.11306312      -0.08547267      -0.02489100 </v>
   <v>      -0.04850034       0.21140294       0.24898026 </v>
   <v>      -0.00174841      -0.10895211      -0.05421224 </v>
   <v>       0.10639499      -0.24242927      -0.09717610 </v>
   <v>       0.23114658      -0.00722113       0.03379813 </v>
   <v>      -0.14495996       0.26988362      -0.08840957 </v>
   <v>      -0.11571251       0.11429866       0.13366103 </v>
   <v>      -0.01361730       0.20453222       0.22482813 </v>
   <v>      -0.05898379      -0.05071817       0.03724960 </v>
   <v>      -0.04990031      -0.26944463      -0.00961399 </v>
   <v>      -0.09519507      -0.09667437      -0.22873710 </v>
   <v>       0.16867796      -0.07934670       0.06265800 </v>
   <v>       0.02120323      -0.11869205      -0.26277624 </v>
   <v>      -0.21106819      -0.13273330       0.07055404 </v>
   <v>      -0.01052589      -0.10041774      -0.02942529 </v>
   <v>      -0.13441465       0.01931422       0.08885905 </v>
   <v>      -0.16410610       0.22202909       0.01558073 </v>
   <v>      -0.01565150       0.16498774      -0.11567377 </v>
   <v>       0.29488709       0.21192239       0.06444449 </v>
   <v>      -0.04286138      -0.29884249      -0.24041192 </v>
   <v>      -0.13471579      -0.23081830      -0.07173684 </v>
   <v>       0.09393148       0.29870399      -0.19641845 </v>
   <v>       0.28246229       0.01214870       0.15154845 </v>
   <v>       0.19503773      -0.05291303      -0.34464245 </v>
   <v>       0.08673191       0.05883206      -0.29756214 </v>
   <v>      -0.09008929      -0.01822595       0.03819768 </v>
   <v>       0.17751765      -0.07767012      -0.15792196 </v>
   <v>       0.04058609       0.14021045      -0.10222632 </v>
   <v>       0.03112114      -0.10238453      -0.01888372 </v>
   <v>       0.00518992      -0.01595296      -0.04425524 </v>
  </varray>
  <varray name="stress" >
   <v>      -1.99684305      -0.08285301      -0.14360926 </v>
   <v>      -0.08285302      -1.52851441      -0.05281524 </v>
   <v>      -0.14360926      -0.05281524      -1.01176464 </v>
  </varray>
  <energy>
   <i name="e_fr_energy">    -94.35027066 </i>
   <i name="e_wo_entrp">    -94.35027066 </i>
   <i name="e_0_energy">      0.00000000 </i>
  </energy>
  <time name="totalsc">   32.93   43.15</time>
 </calculation>
 <calculation>
  <scstep>
   <time name="dav">    4.56    4.56</time>
   <time name="total">    4.91    4.93</time>
   <energy>
    <i name="alphaZ">    136.75824626 </i>
    <i name="ewald"> 123151.13403830 </i>
    <i name="hartreedc">-166935.20737531 </i>
    <i name="XCdc">   -497.16556954 </i>
    <i name="pawpsdc">  47748.47491542 </i>
    <i name="pawaedc"> -45803.60515672 </i>
    <i name="eentropy">      0.00000000 </i>
    <i name="bandstr">  -3531.58522749 </i>
    <i name="atom">  45636.73972380 </i>
    <i name="e_fr_energy">    -94.45640529 </i>
    <i name="e_wo_entrp">    -94.45640529 </i>
    <i name="e_0_energy">    -94.45640529 </i>
   </energy>
  </scstep>
  <scstep>
   <time name="dav">    4.75    4.75</time>
   <time name="total">    5.10    5.11</time>
   <energy>
    <i name="e_fr_energy">    -94.50830368 </i>
    <i name="e_wo_entrp">    -94.50830368 </i>
    <i name="e_0_energy">    -94.50830368 </i>
   </energy>
  </scstep>
  <scstep>
   <time name="dav">    4.81    4.81</time>
   <time name="total">    5.16    5.17</time>
   <energy>
    <i name="e_fr_energy">    -94.50719470 </i>
    <i name="e_wo_entrp">    -94.50719470 </i>
    <i name="e_0_energy">    -94.50719470 </i>
   </energy>
  </scstep>
  <scstep>
   <time name="dav">    4.74    4.74</time>
   <time name="total">    5.09    5.10</time>
   <energy>
    <i name="e_fr_energy">    -94.50611712 </i>
    <i name="e_wo_entrp">    -94.50611712 </i>
    <i name="e_0_energy">    -94.50611712 </i>
   </energy>
  </scstep>
  <scstep>
   <time name="dav">    3.57    3.57</time>
   <time name="total">    3.79    5.97</time>
   <energy>
    <i name="alphaZ">    136.75824626 </i>
    <i name="ewald"> 123151.13403830 </i>
    <i name="hartreedc">-166936.66671056 </i>
    <i name="XCdc">   -497.14643867 </i>
    <i name="pawpsdc">  47724.79170092 </i>
    <i name="pawaedc"> -45779.54982099 </i>
    <i name="eentropy">      0.00000000 </i>
    <i name="bandstr">  -3530.56690990 </i>
    <i name="atom">  45636.73972380 </i>
    <i name="e_fr_energy">    -94.50617084 </i>
    <i name="e_wo_entrp">    -94.50617084 </i>
    <i name="e_0_energy">    -94.50617084 </i>
   </energy>
  </scstep>
  <structure>
   <crystal>
    <varray name="basis" >
     <v>      22.92039003       0.00000000       0.00000000 </v>
     <v>       0.00000000      22.92039003       0.00000000 </v>
     <v>       0.00000000       0.00000000      22.92039003 </v>
    </varray>
    <i name="volume">  12041.09577750 </i>
    <varray name="rec_basis" >
     <v>       0.04362928       0.00000000       0.00000000 </v>
     <v>       0.00000000       0.04362928       0.00000000 </v>
     <v>       0.00000000       0.00000000       0.04362928 </v>
    </varray>
   </crystal>
   <varray name="positions" >
    <v>       0.62223173       0.43281073       0.71483229 </v>
    <v>       0.61928013       0.55507021       0.71468837 </v>
    <v>       0.52108113       0.61398434       0.67008779 </v>
    <v>       0.52037828       0.48976335       0.68153536 </v>
    <v>       0.53115199       0.36318080       0.68001334 </v>
    <v>       0.43287416       0.67025127       0.60866759 </v>
    <v>       0.43052663       0.54606568       0.62229335 </v>
    <v>       0.65041202       0.61047471       0.60913377 </v>
    <v>       0.43136165       0.42105212       0.63022844 </v>
    <v>       0.64426079       0.36205664       0.61359745 </v>
    <v>       0.55612145       0.67083347       0.56053516 </v>
    <v>       0.65318001       0.49037198       0.61577093 </v>
    <v>       0.33815064       0.60068893       0.56513954 </v>
    <v>       0.43505425       0.29644173       0.63500879 </v>
    <v>       0.34255101       0.47843272       0.56695231 </v>
    <v>       0.54845465       0.54809048       0.57155009 </v>
    <v>       0.46422990       0.73326199       0.50960284 </v>
    <v>       0.54955388       0.42532185       0.57332596 </v>
    <v>       0.34373655       0.35564361       0.57309939 </v>
    <v>       0.35873611       0.66715723       0.46760030 </v>
    <v>       0.54551300       0.29024084       0.58457095 </v>
    <v>       0.45673626       0.60699326       0.51123151 </v>
    <v>       0.45508513       0.48266729       0.51497971 </v>
    <v>       0.45670956       0.35526180       0.52465907 </v>
    <v>       0.43815877       0.71574217       0.39296151 </v>
    <v>       0.36472527       0.41353096       0.46246836 </v>
    <v>       0.66208279       0.43113277       0.51188288 </v>
    <v>       0.36044779       0.54052125       0.45910865 </v>
    <v>       0.56572338       0.49532241       0.46242440 </v>
    <v>       0.72721306       0.54173805       0.53423438 </v>
    <v>       0.57801085       0.34425130       0.48496205 </v>
    <v>       0.53907700       0.66496586       0.43718638 </v>
    <v>       0.62861337       0.60006742       0.48911910 </v>
    <v>       0.47540483       0.55305175       0.40353177 </v>
    <v>       0.48667819       0.41141207       0.41887715 </v>
    <v>       0.37786590       0.61013852       0.35846625 </v>
    <v>       0.38701893       0.47371410       0.35970038 </v>
    <v>       0.68456704       0.51211631       0.42392161 </v>
    <v>       0.61498183       0.41030434       0.39323363 </v>
    <v>       0.49689797       0.64368439       0.31919761 </v>
    <v>       0.59364250       0.57882980       0.36965735 </v>
    <v>       0.44168480       0.54347643       0.28017255 </v>
    <v>       0.53284038       0.47717011       0.32770869 </v>
    <v>       0.65244539       0.49018956       0.31005885 </v>
   </varray>
  </structure>
  <varray name="forces" >
   <v>       0.04185079      -0.18985686       0.25397453 </v>
   <v>       0.02293360      -0.06222648       0.02540961 </v>
   <v>       0.21947975       0.10447519       0.02754479 </v>
   <v>       0.08791799      -0.05135163       0.05136703 </v>
   <v>       0.01035701      -0.09054571       0.17569768 </v>
   <v>      -0.00170651       0.09580596       0.17980196 </v>
   <v>      -0.00396241      -0.02846355       0.12955834 </v>
   <v>       0.00216748       0.11772332       0.05726180 </v>
   <v>       0.02898950       0.00071315       0.03742854 </v>
   <v>      -0.14803191       0.00448256       0.04415645 </v>
   <v>      -0.19713557       0.08508912       0.10960731 </v>
   <v>      -0.00972437      -0.08310234       0.06386382 </v>
   <v>      -0.11664841       0.06007258       0.06373759 </v>
   <v>      -0.04686546       0.17558880      -0.09041624 </v>
   <v>      -0.09316269      -0.04402644       0.00784497 </v>
   <v>      -0.02049297      -0.00819426       0.07587565 </v>
   <v>      -0.05484501      -0.03231690      -0.11084397 </v>
   <v>       0.01547210      -0.02398976      -0.04354149 </v>
   <v>       0.12082893      -0.03538327       0.01273048 </v>
   <v>      -0.13349082       0.13732354      -0.01548377 </v>
   <v>      -0.05576017       0.06984600       0.08218780 </v>
   <v>      -0.06163738      -0.00092053      -0.06132806 </v>
   <v>       0.03134803       0.02506087       0.05993270 </v>
   <v>      -0.01957326      -0.23110189      -0.06598640 </v>
   <v>      -0.12353897      -0.04079264      -0.17485688 </v>
   <v>       0.12798961      -0.10191914       0.04686686 </v>
   <v>       0.03969825      -0.02013017      -0.12892925 </v>
   <v>      -0.14445592       0.03762078       0.04222625 </v>
   <v>      -0.00177732      -0.00034141       0.06534780 </v>
   <v>      -0.15349101      -0.02456528       0.03250947 </v>
   <v>      -0.13872093       0.18760432      -0.06893366 </v>
   <v>       0.05784082       0.02100584      -0.10422750 </v>
   <v>       0.16354493       0.15399155      -0.01895552 </v>
   <v>      -0.07913537      -0.15069970      -0.00276987 </v>
   <v>      -0.09191520      -0.20445316      -0.05451922 </v>
   <v>       0.06854884       0.22090556      -0.08978216 </v>
   <v>       0.26081436       0.01681861       0.10370237 </v>
   <v>       0.17951710       0.00581344      -0.15104335 </v>
   <v>       0.05559258      -0.02908118      -0.22155147 </v>
   <v>      -0.01149150      -0.02549045       0.01973215 </v>
   <v>       0.09887951       0.02113966      -0.04009262 </v>
   <v>       0.02590619       0.08510300      -0.10266593 </v>
   <v>       0.00770481      -0.11887989      -0.05842421 </v>
   <v>       0.04018096      -0.02835120      -0.16401434 </v>
  </varray>
  <varray name="stress" >
   <v>      -2.01665144      -0.11966562      -0.12870954 </v>
   <v>      -0.11966562      -1.65952158      -0.05363297 </v>
   <v>      -0.12870954      -0.05363296      -1.19811530 </v>
  </varray>
  <energy>
   <i name="e_fr_energy">    -94.50617084 </i>
   <i name="e_wo_entrp">    -94.50617084 </i>
   <i name="e_0_energy">      0.00000000 </i>
  </energy>
  <time name="totalsc">   33.01   39.84</time>
 </calculation>
 <calculation>
  <scstep>
   <time name="dav">    4.56    4.57</time>
   <time name="total">    4.92    4.93</time>
   <energy>
    <i name="alphaZ">    136.75824626 </i>
    <i name="ewald"> 122505.74689726 </i>
    <i name="hartreedc">-166292.29893973 </i>
    <i name="XCdc">   -497.30039159 </i>
    <i name="pawpsdc">  47724.53768744 </i>
    <i name="pawaedc"> -45779.29763978 </i>
    <i name="eentropy">     -0.00000000 </i>
    <i name="bandstr">  -3529.18076541 </i>
    <i name="atom">  45636.73972380 </i>
    <i name="e_fr_energy">    -94.29518176 </i>
    <i name="e_wo_entrp">    -94.29518176 </i>
    <i name="e_0_energy">    -94.29518176 </i>
   </energy>
  </scstep>
  <scstep>
   <time name="dav">    4.76    4.76</time>
   <time name="total">    5.10    5.11</time>
   <energy>
    <i name="e_fr_energy">    -94.50812749 </i>
    <i name="e_wo_entrp">    -94.50812749 </i>
    <i name="e_0_energy">    -94.50812749 </i>
   </energy>
  </scstep>
  <scstep>
   <time name="dav">    4.82    4.82</time>
   <time name="total">    5.16    5.20</time>
   <energy>
    <i name="e_fr_energy">    -94.50414684 </i>
    <i name="e_wo_entrp">    -94.50414684 </i>
    <i name="e_0_energy">    -94.50414684 </i>
   </energy>
  </scstep>
  <scstep>
   <time name="dav">    4.70    4.70</time>
   <time name="total">    5.05   10.61</time>
   <energy>
    <i name="e_fr_energy">    -94.50002964 </i>
    <i name="e_wo_entrp">    -94.50002964 </i>
    <i name="e_0_energy">    -94.50002964 </i>
   </energy>
  </scstep>
  <scstep>
   <time name="dav">    4.81    4.82</time>
   <time name="total">    5.16    5.98</time>
   <energy>
    <i name="e_fr_energy">    -94.50025942 </i>
    <i name="e_wo_entrp">    -94.50025942 </i>
    <i name="e_0_energy">    -94.50025942 </i>
   </energy>
  </scstep>
  <scstep>
   <time name="dav">    3.60    3.61</time>
   <time name="total">    3.82    3.85</time>
   <energy>
    <i name="alphaZ">    136.75824626 </i>
    <i name="ewald"> 122505.74689726 </i>
    <i name="hartreedc">-166294.07182907 </i>
    <i name="XCdc">   -497.27804910 </i>
    <i name="pawpsdc">  47715.69147851 </i>
    <i name="pawaedc"> -45770.17010997 </i>
    <i name="eentropy">      0.00000000 </i>
    <i name="bandstr">  -3527.91667506 </i>
    <i name="atom">  45636.73972380 </i>
    <i name="e_fr_energy">    -94.50031736 </i>
    <i name="e_wo_entrp">    -94.50031736 </i>
    <i name="e_0_energy">    -94.50031736 </i>
   </energy>
  </scstep>
  <structure>
   <crystal>
    <varray name="basis" >
     <v>      22.92039003       0.00000000       0.00000000 </v>
     <v>       0.00000000      22.92039003       0.00000000 </v>
     <v>       0.00000000       0.00000000      22.92039003 </v>
    </varray>
    <i name="volume">  12041.09577750 </i>
    <varray name="rec_basis" >
     <v>       0.04362928       0.00000000       0.00000000 </v>
     <v>       0.00000000       0.04362928       0.00000000 </v>
     <v>       0.00000000       0.00000000       0.04362928 </v>
    </varray>
   </crystal>
   <varray name="positions" >
    <v>       0.62251045       0.43206364       0.71644743 </v>
    <v>       0.61901457       0.55454035       0.71425709 </v>
    <v>       0.52284884       0.61413000       0.66982795 </v>
    <v>       0.52183659       0.49039392       0.68270457 </v>
    <v>       0.53102513       0.36180111       0.68076036 </v>
    <v>       0.43314045       0.67051145       0.60887772 </v>
    <v>       0.43025508       0.54665630       0.62294509 </v>
    <v>       0.65065951       0.61070160       0.60962745 </v>
    <v>       0.43040461       0.41987402       0.63000921 </v>
    <v>       0.64296324       0.36197740       0.61366310 </v>
    <v>       0.55378636       0.67165890       0.56129767 </v>
    <v>       0.65322946       0.49103776       0.61722641 </v>
    <v>       0.33725300       0.60074706       0.56658274 </v>
    <v>       0.43513128       0.29791621       0.63397108 </v>
    <v>       0.34190220       0.47785885       0.56671356 </v>
    <v>       0.54812014       0.54995591       0.57343891 </v>
    <v>       0.46438260       0.73248134       0.50951028 </v>
    <v>       0.55037642       0.42335882       0.57266177 </v>
    <v>       0.34524486       0.35569569       0.57332302 </v>
    <v>       0.35796663       0.66902546       0.46686978 </v>
    <v>       0.54472769       0.29093691       0.58540224 </v>
    <v>       0.45682506       0.60875404       0.51346817 </v>
    <v>       0.45447141       0.48214002       0.51508797 </v>
    <v>       0.45636041       0.35376323       0.52477793 </v>
    <v>       0.43777940       0.71509451       0.39164732 </v>
    <v>       0.36571136       0.41319766       0.46283620 </v>
    <v>       0.66214210       0.43016331       0.51002154 </v>
    <v>       0.35913333       0.53920704       0.45958351 </v>
    <v>       0.56562874       0.49442498       0.46190328 </v>
    <v>       0.72662202       0.54198069       0.53488938 </v>
    <v>       0.57709397       0.34546027       0.48530278 </v>
    <v>       0.53873292       0.66632154       0.43657452 </v>
    <v>       0.63055200       0.60137020       0.48974355 </v>
    <v>       0.47535368       0.55102069       0.40141991 </v>
    <v>       0.48585879       0.41015080       0.41845156 </v>
    <v>       0.37840965       0.61192023       0.35707698 </v>
    <v>       0.38849039       0.47373853       0.36061758 </v>
    <v>       0.68560479       0.51162477       0.42152293 </v>
    <v>       0.61552213       0.41089694       0.39148910 </v>
    <v>       0.49619047       0.64361052       0.31944148 </v>
    <v>       0.59482234       0.57809619       0.36843502 </v>
    <v>       0.44192880       0.54436829       0.27964012 </v>
    <v>       0.53308351       0.47669934       0.32772971 </v>
    <v>       0.65235454       0.49015011       0.31019991 </v>
   </varray>
  </structure>
  <varray name="forces" >
   <v>       0.02336644      -0.21934635       0.19535134 </v>
   <v>       0.13906714       0.01022399       0.18496276 </v>
   <v>       0.04917424       0.23561415       0.17336613 </v>
   <v>      -0.14294038      -0.25416234      -0.11060629 </v>
   <v>       0.04610256       0.10580988       0.21810581 </v>
   <v>      -0.09287575       0.18044337       0.38897591 </v>
   <v>       0.04670560      -0.18638905       0.12082331 </v>
   <v>      -0.03712307       0.19986280       0.01574705 </v>
   <v>       0.27047410       0.29991589       0.13508904 </v>
   <v>       0.02723123       0.01309747       0.09291295 </v>
   <v>       0.16106814       0.02913439       0.07810438 </v>
   <v>      -0.02347441      -0.30938230      -0.14571517 </v>
   <v>      -0.03521187       0.09773958      -0.15180847 </v>
   <v>      -0.11460238      -0.04433190       0.07336795 </v>
   <v>      -0.06216915       0.03605031       0.07229221 </v>
   <v>       0.04129291      -0.40265743      -0.25269373 </v>
   <v>      -0.18001347       0.15426794      -0.23270995 </v>
   <v>      -0.17946257       0.41217036       0.06725247 </v>
   <v>      -0.14425864      -0.09679362      -0.04954246 </v>
   <v>      -0.10443369      -0.08937362       0.09697583 </v>
   <v>       0.06664755      -0.04526555      -0.03442716 </v>
   <v>      -0.16555279      -0.39161455      -0.56433172 </v>
   <v>       0.20089231       0.15844218       0.10307494 </v>
   <v>       0.04811718      -0.15571948      -0.20111127 </v>
   <v>      -0.17401979       0.10088372      -0.04481800 </v>
   <v>       0.04229294      -0.15207317       0.01010413 </v>
   <v>       0.08445746       0.14192169       0.07100518 </v>
   <v>      -0.02012889       0.32064700      -0.00333693 </v>
   <v>       0.00356342       0.15272695       0.20754213 </v>
   <v>      -0.17265328      -0.11198878      -0.06195503 </v>
   <v>      -0.08609383       0.07909641      -0.26131742 </v>
   <v>       0.18762985      -0.21796442      -0.07527713 </v>
   <v>      -0.10804028       0.06600180      -0.16989833 </v>
   <v>      -0.11196107       0.12332140       0.39588854 </v>
   <v>      -0.00261030      -0.15160825      -0.02679134 </v>
   <v>      -0.00202966       0.07854879       0.08513778 </v>
   <v>       0.18770959       0.00024467      -0.00198879 </v>
   <v>       0.15430412       0.11369036       0.21744356 </v>
   <v>      -0.00129817      -0.20834071      -0.03915104 </v>
   <v>       0.15912994      -0.04301917      -0.02986081 </v>
   <v>      -0.05009801       0.21055124       0.17167396 </v>
   <v>      -0.01035488      -0.02747992      -0.11977749 </v>
   <v>      -0.02995556      -0.15990360      -0.15255341 </v>
   <v>       0.11213516      -0.05299211      -0.44552539 </v>
  </varray>
  <varray name="stress" >
   <v>      -1.92389259      -0.19043580      -0.09178402 </v>
   <v>      -0.19043580      -1.73521089      -0.00081749 </v>
   <v>      -0.09178402      -0.00081749      -1.36065635 </v>
  </varray>
  <energy>
   <i name="e_fr_energy">    -94.50031736 </i>
   <i name="e_wo_entrp">    -94.50031736 </i>
   <i name="e_0_energy">      0.00000000 </i>
  </energy>
  <time name="totalsc">   38.12   48.52</time>
 </calculation>
 <calculation>
  <scstep>
   <time name="dav">    4.57    4.57</time>
   <time name="total">    4.92    4.93</time>
   <energy>
    <i name="alphaZ">    136.75824626 </i>
    <i name="ewald"> 122829.14572605 </i>
    <i name="hartreedc">-166617.68069593 </i>
    <i name="XCdc">   -497.21043704 </i>
    <i name="pawpsdc">  47713.99652430 </i>
    <i name="pawaedc"> -45768.47249023 </i>
    <i name="eentropy">      0.00000000 </i>
    <i name="bandstr">  -3527.78024563 </i>
    <i name="atom">  45636.73972380 </i>
    <i name="e_fr_energy">    -94.50364842 </i>
    <i name="e_wo_entrp">    -94.50364842 </i>
    <i name="e_0_energy">    -94.50364842 </i>
   </energy>
  </scstep>
  <scstep>
   <time name="dav">    4.80    4.81</time>
   <time name="total">    5.16    6.59</time>
   <energy>
    <i name="e_fr_energy">    -94.55707065 </i>
    <i name="e_wo_entrp">    -94.55707065 </i>
    <i name="e_0_energy">    -94.55707065 </i>
   </energy>
  </scstep>
  <scstep>
   <time name="dav">    4.89    4.90</time>
   <time name="total">    5.24    7.09</time>
   <energy>
    <i name="e_fr_energy">    -94.55612237 </i>
    <i name="e_wo_entrp">    -94.55612237 </i>
    <i name="e_0_energy">    -94.55612237 </i>
   </energy>
  </scstep>
  <scstep>
   <time name="dav">    4.75    4.75</time>
   <time name="total">    5.10    5.10</time>
   <energy>
    <i name="e_fr_energy">    -94.55514881 </i>
    <i name="e_wo_entrp">    -94.55514881 </i>
    <i name="e_0_energy">    -94.55514881 </i>
   </energy>
  </scstep>
  <scstep>
   <time name="dav">    3.67    3.67</time>
   <time name="total">    4.02    4.03</time>
   <energy>
    <i name="e_fr_energy">    -94.55526569 </i>
    <i name="e_wo_entrp">    -94.55526569 </i>
    <i name="e_0_energy">    -94.55526569 </i>
   </energy>
  </scstep>
  <scstep>
   <time name="dav">    3.37    3.37</time>
   <time name="total">    3.59    3.60</time>
   <energy>
    <i name="alphaZ">    136.75824626 </i>
    <i name="ewald"> 122829.14572605 </i>
    <i name="hartreedc">-166616.74508618 </i>
    <i name="XCdc">   -497.23388336 </i>
    <i name="pawpsdc">  47711.98012185 </i>
    <i name="pawaedc"> -45766.52440819 </i>
    <i name="eentropy">      0.00000000 </i>
    <i name="bandstr">  -3528.67572131 </i>
    <i name="atom">  45636.73972380 </i>
    <i name="e_fr_energy">    -94.55528108 </i>
    <i name="e_wo_entrp">    -94.55528108 </i>
    <i name="e_0_energy">    -94.55528108 </i>
   </energy>
  </scstep>
  <structure>
   <crystal>
    <varray name="basis" >
     <v>      22.92039003       0.00000000       0.00000000 </v>
     <v>       0.00000000      22.92039003       0.00000000 </v>
     <v>       0.00000000       0.00000000      22.92039003 </v>
    </varray>
    <i name="volume">  12041.09577750 </i>
    <varray name="rec_basis" >
     <v>       0.04362928       0.00000000       0.00000000 </v>
     <v>       0.00000000       0.04362928       0.00000000 </v>
     <v>       0.00000000       0.00000000       0.04362928 </v>
    </varray>
   </crystal>
   <varray name="positions" >
    <v>       0.62236946       0.43244156       0.71563041 </v>
    <v>       0.61914890       0.55480838       0.71447525 </v>
    <v>       0.52195464       0.61405632       0.66995939 </v>
    <v>       0.52109890       0.49007495       0.68211312 </v>
    <v>       0.53108930       0.36249903       0.68038248 </v>
    <v>       0.43300575       0.67037984       0.60877142 </v>
    <v>       0.43039245       0.54635753       0.62261540 </v>
    <v>       0.65053431       0.61058683       0.60937772 </v>
    <v>       0.43088873       0.42046996       0.63012011 </v>
    <v>       0.64361961       0.36201748       0.61362989 </v>
    <v>       0.55496757       0.67124136       0.56091195 </v>
    <v>       0.65320444       0.49070097       0.61649015 </v>
    <v>       0.33770707       0.60071765       0.56585269 </v>
    <v>       0.43509231       0.29717034       0.63449600 </v>
    <v>       0.34223040       0.47814914       0.56683433 </v>
    <v>       0.54828935       0.54901228       0.57248344 </v>
    <v>       0.46430536       0.73287623       0.50955710 </v>
    <v>       0.54996034       0.42435182       0.57299775 </v>
    <v>       0.34448188       0.35566934       0.57320990 </v>
    <v>       0.35835587       0.66808041       0.46723931 </v>
    <v>       0.54512494       0.29058480       0.58498173 </v>
    <v>       0.45678014       0.60786334       0.51233675 </v>
    <v>       0.45478186       0.48240674       0.51503320 </v>
    <v>       0.45653703       0.35452129       0.52471780 </v>
    <v>       0.43797130       0.71542213       0.39231211 </v>
    <v>       0.36521254       0.41336626       0.46265013 </v>
    <v>       0.66211210       0.43065371       0.51096310 </v>
    <v>       0.35979825       0.53987184       0.45934330 </v>
    <v>       0.56567661       0.49487895       0.46216689 </v>
    <v>       0.72692100       0.54185795       0.53455805 </v>
    <v>       0.57755778       0.34484871       0.48513042 </v>
    <v>       0.53890697       0.66563576       0.43688403 </v>
    <v>       0.62957134       0.60071119       0.48942767 </v>
    <v>       0.47537955       0.55204811       0.40248820 </v>
    <v>       0.48627328       0.41078882       0.41866685 </v>
    <v>       0.37813459       0.61101895       0.35777975 </v>
    <v>       0.38774605       0.47372617       0.36015361 </v>
    <v>       0.68507984       0.51187342       0.42273631 </v>
    <v>       0.61524882       0.41059717       0.39237158 </v>
    <v>       0.49654836       0.64364789       0.31931812 </v>
    <v>       0.59422552       0.57846729       0.36905334 </v>
    <v>       0.44180537       0.54391714       0.27990945 </v>
    <v>       0.53296052       0.47693748       0.32771907 </v>
    <v>       0.65240049       0.49017007       0.31012855 </v>
   </varray>
  </structure>
  <varray name="forces" >
   <v>       0.03276747      -0.20557344       0.21689171 </v>
   <v>       0.07774243      -0.02875513       0.10129947 </v>
   <v>       0.13520259       0.16316524       0.09252650 </v>
   <v>      -0.02882895      -0.15381067      -0.03574113 </v>
   <v>       0.02815001       0.01207271       0.19304372 </v>
   <v>      -0.04343317       0.13266864       0.27661199 </v>
   <v>       0.02324014      -0.10966872       0.12509696 </v>
   <v>      -0.01982739       0.15941343       0.03484081 </v>
   <v>       0.15356425       0.14648734       0.08524440 </v>
   <v>      -0.06560627       0.01154518       0.06553558 </v>
   <v>      -0.02623469       0.05070620       0.09075557 </v>
   <v>      -0.01883980      -0.19984493      -0.04806797 </v>
   <v>      -0.07467090       0.08097041      -0.05373441 </v>
   <v>      -0.08085665       0.07385555      -0.01147108 </v>
   <v>      -0.07626065      -0.00290769       0.04022566 </v>
   <v>       0.01176975      -0.21240693      -0.08586118 </v>
   <v>      -0.11405005       0.05633060      -0.17019101 </v>
   <v>      -0.07968856       0.19327007       0.01159778 </v>
   <v>      -0.00508766      -0.06510189      -0.01503161 </v>
   <v>      -0.11924851       0.01684595       0.04557291 </v>
   <v>       0.00578069       0.01498814       0.02510376 </v>
   <v>      -0.11193314      -0.19754252      -0.31976994 </v>
   <v>       0.11847797       0.09484195       0.08153078 </v>
   <v>       0.01335096      -0.19176207      -0.12921941 </v>
   <v>      -0.14823577       0.02485810      -0.11205726 </v>
   <v>       0.08548404      -0.12582302       0.02884946 </v>
   <v>       0.06159994       0.06714554      -0.01922656 </v>
   <v>      -0.07896309       0.18989334       0.01748803 </v>
   <v>       0.00324312       0.08496614       0.14413400 </v>
   <v>      -0.16418941      -0.06888033      -0.01850206 </v>
   <v>      -0.11176371       0.13900841      -0.16106888 </v>
   <v>       0.12405008      -0.10941716      -0.08927137 </v>
   <v>       0.02346687       0.10383830      -0.09687551 </v>
   <v>      -0.10107120      -0.00758333       0.20936060 </v>
   <v>      -0.04622893      -0.17622516      -0.03862227 </v>
   <v>       0.03715136       0.14723708       0.00394623 </v>
   <v>       0.22780524       0.01308158       0.05061574 </v>
   <v>       0.16222404       0.06214265       0.03899541 </v>
   <v>       0.02434303      -0.11796332      -0.13305646 </v>
   <v>       0.07279783      -0.03374451      -0.00339010 </v>
   <v>       0.02175615       0.11707036       0.07023187 </v>
   <v>       0.00841435       0.02770383      -0.10769533 </v>
   <v>      -0.01298892      -0.13674388      -0.10346986 </v>
   <v>       0.07562508      -0.04035205      -0.29717555 </v>
  </varray>
  <varray name="stress" >
   <v>      -1.98847042      -0.15742080      -0.11183256 </v>
   <v>      -0.15742080      -1.73308117      -0.03667898 </v>
   <v>      -0.11183257      -0.03667898      -1.31528781 </v>
  </varray>
  <energy>
   <i name="e_fr_energy">    -94.55528108 </i>
   <i name="e_wo_entrp">    -94.55528108 </i>
   <i name="e_0_energy">      0.00000000 </i>
  </energy>
  <time name="totalsc">   36.95   40.47</time>
 </calculation>
 <calculation>
  <scstep>
   <time name="dav">    4.56    4.57</time>
   <time name="total">    4.92    4.93</time>
   <energy>
[...]
       <r>     0.5716     0.0000   284.0000 </r>
       <r>     0.6125     0.0000   284.0000 </r>
       <r>     0.6534     0.0000   285.0000 </r>
       <r>     0.6943     0.0000   285.0000 </r>
       <r>     0.7352     0.0000   286.0000 </r>
       <r>     0.7761     0.0000   287.0000 </r>
       <r>     0.8170    19.4537   288.7957 </r>
       <r>     0.8579     0.0000   289.0000 </r>
       <r>     0.8988     0.3586   291.0147 </r>
       <r>     0.9397     0.0000   293.0000 </r>
       <r>     0.9806     0.0000   293.0000 </r>
       <r>     1.0215     0.0000   294.0000 </r>
       <r>     1.0624     0.0000   296.0000 </r>
       <r>     1.1033     0.0000   299.0000 </r>
       <r>     1.1442     0.0000   301.0000 </r>
       <r>     1.1851     0.0000   303.0000 </r>
       <r>     1.2260     0.0000   304.0000 </r>
       <r>     1.2669     0.0000   306.0000 </r>
       <r>     1.3078    24.4489   307.0000 </r>
       <r>     1.3487    20.7650   308.8493 </r>
       <r>     1.3896     0.0000   310.0000 </r>
       <r>     1.4305     0.0000   312.0000 </r>
       <r>     1.4714     0.0000   312.0000 </r>
       <r>     1.5124     0.0000   312.0000 </r>
       <r>     1.5533     0.0000   312.0000 </r>
       <r>     1.5942     0.0000   312.0000 </r>
       <r>     1.6351     0.0000   312.0000 </r>
       <r>     1.6760     0.0000   312.0000 </r>
       <r>     1.7169     0.0000   312.0000 </r>
       <r>     1.7578     0.0000   312.0000 </r>
       <r>     1.7987     0.0000   312.0000 </r>
       <r>     1.8396     0.0000   312.0000 </r>
       <r>     1.8805     0.0000   312.0000 </r>
       <r>     1.9214     0.0000   312.0000 </r>
       <r>     1.9623     0.0000   312.0000 </r>
      </set>
      <set comment="spin 2">
       <r>   -10.3082     0.0000     0.0000 </r>
       <r>   -10.2673     0.0000     0.0000 </r>
       <r>   -10.2264     0.0000     0.0000 </r>
       <r>   -10.1855     0.0000     0.0000 </r>
       <r>   -10.1446     0.0000     0.0000 </r>
       <r>   -10.1037     0.0000     0.0000 </r>
       <r>   -10.0628     0.0000     0.0000 </r>
       <r>   -10.0219     0.0000     0.0000 </r>
       <r>    -9.9810     0.0000     0.0000 </r>
       <r>    -9.9401     0.0000     0.0000 </r>
       <r>    -9.8992     0.0000     0.0000 </r>
       <r>    -9.8583     0.0000     0.0000 </r>
       <r>    -9.8174     0.0000     0.0000 </r>
       <r>    -9.7765     0.0000     0.0000 </r>
       <r>    -9.7356     0.0000     1.0000 </r>
       <r>    -9.6947     0.0000     1.0000 </r>
       <r>    -9.6538     0.0000     1.0000 </r>
       <r>    -9.6129     0.0000     1.0000 </r>
       <r>    -9.5720     0.0000     1.0000 </r>
       <r>    -9.5311     0.0000     1.0000 </r>
       <r>    -9.4902     0.0000     1.0000 </r>
       <r>    -9.4493     0.0000     1.0000 </r>
       <r>    -9.4084     0.0000     1.0000 </r>
       <r>    -9.3675     0.0000     1.0000 </r>
       <r>    -9.3266     0.0000     1.0000 </r>
       <r>    -9.2857     0.0000     1.0000 </r>
       <r>    -9.2448     0.0000     1.0000 </r>
       <r>    -9.2039     0.0000     1.0000 </r>
       <r>    -9.1630     0.0000     2.0000 </r>
       <r>    -9.1221     0.0000     2.0000 </r>
       <r>    -9.0811     0.0000     4.0000 </r>
       <r>    -9.0402     0.0000     5.0000 </r>
       <r>    -8.9993     0.0000     7.0000 </r>
       <r>    -8.9584     0.0000     9.0000 </r>
       <r>    -8.9175     0.0000    11.0000 </r>
       <r>    -8.8766     0.0000    12.0000 </r>
       <r>    -8.8357     0.0000    14.0000 </r>
       <r>    -8.7948    24.3563    16.9962 </r>
       <r>    -8.7539     0.0000    18.0000 </r>
       <r>    -8.7130     0.0000    21.0000 </r>
       <r>    -8.6721     0.0000    24.0000 </r>
       <r>    -8.6312     0.0000    27.0000 </r>
       <r>    -8.5903     0.0000    30.0000 </r>
       <r>    -8.5494     0.0000    32.0000 </r>
       <r>    -8.5085     0.0000    36.0000 </r>
       <r>    -8.4676     0.0000    38.0000 </r>
       <r>    -8.4267     0.0000    40.0000 </r>
       <r>    -8.3858     0.0000    42.0000 </r>
       <r>    -8.3449     0.0000    46.0000 </r>
       <r>    -8.3040     0.0000    48.0000 </r>
       <r>    -8.2631     0.0000    50.0000 </r>
       <r>    -8.2222     0.0000    52.0000 </r>
       <r>    -8.1813     0.0000    56.0000 </r>
       <r>    -8.1404     0.0000    58.0000 </r>
       <r>    -8.0995     0.0000    62.0000 </r>
       <r>    -8.0586     0.0000    64.0000 </r>
       <r>    -8.0177     0.0000    67.0000 </r>
       <r>    -7.9768     0.0000    69.0000 </r>
       <r>    -7.9359     0.0000    73.0000 </r>
       <r>    -7.8950     0.0000    76.0000 </r>
       <r>    -7.8541     0.0000    78.0000 </r>
       <r>    -7.8132     0.0000    82.0000 </r>
       <r>    -7.7723     0.0000    84.0000 </r>
       <r>    -7.7314    24.4476    87.9999 </r>
       <r>    -7.6905     7.1784    88.2936 </r>
       <r>    -7.6496     0.0000    92.0000 </r>
       <r>    -7.6087     0.0000    95.0000 </r>
       <r>    -7.5678     0.0000    98.0000 </r>
       <r>    -7.5269     0.0000   102.0000 </r>
       <r>    -7.4860     2.0870   104.0854 </r>
       <r>    -7.4451     0.0000   108.0000 </r>
       <r>    -7.4042     0.0000   110.0000 </r>
       <r>    -7.3633     0.0000   112.0000 </r>
       <r>    -7.3224    24.4490   116.0000 </r>
       <r>    -7.2815    24.3297   118.9951 </r>
       <r>    -7.2406     0.0000   122.0000 </r>
       <r>    -7.1997     0.0000   125.0000 </r>
       <r>    -7.1588     0.0000   128.0000 </r>
       <r>    -7.1179     0.0000   131.0000 </r>
       <r>    -7.0770     0.0000   136.0000 </r>
       <r>    -7.0361     0.0000   140.0000 </r>
       <r>    -6.9952     0.0000   142.0000 </r>
       <r>    -6.9543     0.0000   146.0000 </r>
       <r>    -6.9134     0.0000   150.0000 </r>
       <r>    -6.8725     0.0000   153.0000 </r>
       <r>    -6.8316     0.0000   157.0000 </r>
       <r>    -6.7907     0.0000   161.0000 </r>
       <r>    -6.7498    24.4289   164.9992 </r>
       <r>    -6.7089     0.0000   169.0000 </r>
       <r>    -6.6680     0.0000   173.0000 </r>
       <r>    -6.6271     0.0000   178.0000 </r>
       <r>    -6.5862     0.0000   183.0000 </r>
       <r>    -6.5453     0.0000   188.0000 </r>
       <r>    -6.5044     0.0000   192.0000 </r>
       <r>    -6.4634     0.0000   196.0000 </r>
       <r>    -6.4225     0.0000   201.0000 </r>
       <r>    -6.3816     0.0000   204.0000 </r>
       <r>    -6.3407     0.0000   208.0000 </r>
       <r>    -6.2998     0.0000   211.0000 </r>
       <r>    -6.2589    24.4393   214.9996 </r>
       <r>    -6.2180     0.0000   218.0000 </r>
       <r>    -6.1771     0.0000   220.0000 </r>
       <r>    -6.1362     0.0000   224.0000 </r>
       <r>    -6.0953     0.0000   225.0000 </r>
       <r>    -6.0544     0.0000   226.0000 </r>
       <r>    -6.0135     0.0000   226.0000 </r>
       <r>    -5.9726     0.0000   226.0000 </r>
       <r>    -5.9317     0.0000   227.0000 </r>
       <r>    -5.8908     0.0000   227.0000 </r>
       <r>    -5.8499     0.0000   227.0000 </r>
       <r>    -5.8090     0.0000   227.0000 </r>
       <r>    -5.7681     0.0000   228.0000 </r>
       <r>    -5.7272     0.0000   228.0000 </r>
       <r>    -5.6863     0.0000   229.0000 </r>
       <r>    -5.6454     0.0000   229.0000 </r>
       <r>    -5.6045     0.0000   229.0000 </r>
       <r>    -5.5636     0.0000   229.0000 </r>
       <r>    -5.5227     0.0000   229.0000 </r>
       <r>    -5.4818     0.0000   229.0000 </r>
       <r>    -5.4409     0.0000   229.0000 </r>
       <r>    -5.4000     0.0000   230.0000 </r>
       <r>    -5.3591     0.0000   230.0000 </r>
       <r>    -5.3182     0.0000   230.0000 </r>
       <r>    -5.2773     0.0000   230.0000 </r>
       <r>    -5.2364     0.0000   230.0000 </r>
       <r>    -5.1955     0.0000   230.0000 </r>
       <r>    -5.1546     0.0000   232.0000 </r>
       <r>    -5.1137     0.0000   232.0000 </r>
       <r>    -5.0728     0.0000   232.0000 </r>
       <r>    -5.0319     0.0000   232.0000 </r>
       <r>    -4.9910     0.0000   232.0000 </r>
       <r>    -4.9501     0.0000   232.0000 </r>
       <r>    -4.9092     0.0000   232.0000 </r>
       <r>    -4.8683     0.0000   232.0000 </r>
       <r>    -4.8274     0.0000   232.0000 </r>
       <r>    -4.7865     0.0000   232.0000 </r>
       <r>    -4.7456     0.0000   233.0000 </r>
       <r>    -4.7047     0.0000   233.0000 </r>
       <r>    -4.6638     0.0000   233.0000 </r>
       <r>    -4.6229     0.0000   234.0000 </r>
       <r>    -4.5820     0.0000   234.0000 </r>
       <r>    -4.5411     0.0000   234.0000 </r>
       <r>    -4.5002     0.0000   234.0000 </r>
       <r>    -4.4593     0.0000   234.0000 </r>
       <r>    -4.4184     0.0000   234.0000 </r>
       <r>    -4.3775     0.0000   235.0000 </r>
       <r>    -4.3366     0.0000   235.0000 </r>
       <r>    -4.2957     0.0000   235.0000 </r>
       <r>    -4.2548     0.0000   235.0000 </r>
       <r>    -4.2139     0.0000   235.0000 </r>
       <r>    -4.1730     0.0000   236.0000 </r>
       <r>    -4.1321     0.0000   236.0000 </r>
       <r>    -4.0912     0.0000   238.0000 </r>
       <r>    -4.0503     0.0000   238.0000 </r>
       <r>    -4.0094     0.0000   238.0000 </r>
       <r>    -3.9685     0.0000   238.0000 </r>
       <r>    -3.9276     0.0000   238.0000 </r>
       <r>    -3.8867     0.0000   238.0000 </r>
       <r>    -3.8458     0.0000   238.0000 </r>
       <r>    -3.8048     0.0000   238.0000 </r>
       <r>    -3.7639     0.0000   239.0000 </r>
       <r>    -3.7230     0.0000   239.0000 </r>
       <r>    -3.6821     0.0000   239.0000 </r>
       <r>    -3.6412     0.0000   239.0000 </r>
       <r>    -3.6003     0.0000   239.0000 </r>
       <r>    -3.5594     0.0000   241.0000 </r>
       <r>    -3.5185     0.0000   241.0000 </r>
       <r>    -3.4776     0.0000   241.0000 </r>
       <r>    -3.4367     0.0000   241.0000 </r>
       <r>    -3.3958     0.0000   242.0000 </r>
       <r>    -3.3549     0.0000   242.0000 </r>
       <r>    -3.3140     0.0000   242.0000 </r>
       <r>    -3.2731     0.0000   243.0000 </r>
       <r>    -3.2322     0.0000   243.0000 </r>
       <r>    -3.1913     0.0000   243.0000 </r>
       <r>    -3.1504     0.0000   244.0000 </r>
       <r>    -3.1095     0.0000   244.0000 </r>
       <r>    -3.0686     0.0000   244.0000 </r>
       <r>    -3.0277     0.0000   244.0000 </r>
       <r>    -2.9868     0.0000   244.0000 </r>
       <r>    -2.9459     0.0000   245.0000 </r>
       <r>    -2.9050     0.0000   245.0000 </r>
       <r>    -2.8641     0.0000   245.0000 </r>
       <r>    -2.8232     0.0000   245.0000 </r>
       <r>    -2.7823     0.0000   245.0000 </r>
       <r>    -2.7414     0.0000   245.0000 </r>
       <r>    -2.7005     0.0000   246.0000 </r>
       <r>    -2.6596     0.0000   246.0000 </r>
       <r>    -2.6187     0.0000   247.0000 </r>
       <r>    -2.5778     0.0000   247.0000 </r>
       <r>    -2.5369     0.0000   247.0000 </r>
       <r>    -2.4960     0.0000   248.0000 </r>
       <r>    -2.4551     0.0000   248.0000 </r>
       <r>    -2.4142     0.0000   249.0000 </r>
       <r>    -2.3733     0.0000   249.0000 </r>
       <r>    -2.3324     0.0000   250.0000 </r>
       <r>    -2.2915     0.0000   250.0000 </r>
       <r>    -2.2506     0.0000   251.0000 </r>
       <r>    -2.2097     0.0000   251.0000 </r>
       <r>    -2.1688     0.0000   252.0000 </r>
       <r>    -2.1279     0.0000   253.0000 </r>
       <r>    -2.0870     0.0000   253.0000 </r>
       <r>    -2.0461     0.0000   254.0000 </r>
       <r>    -2.0052     0.0000   254.0000 </r>
       <r>    -1.9643     0.0000   255.0000 </r>
       <r>    -1.9234     0.0000   255.0000 </r>
       <r>    -1.8825     0.0000   255.0000 </r>
       <r>    -1.8416     0.0000   256.0000 </r>
       <r>    -1.8007     0.0000   256.0000 </r>
       <r>    -1.7598     0.0000   258.0000 </r>
       <r>    -1.7189     0.0000   258.0000 </r>
       <r>    -1.6780     0.0000   258.0000 </r>
       <r>    -1.6371     0.0000   258.0000 </r>
       <r>    -1.5962     0.0000   259.0000 </r>
       <r>    -1.5553     0.0000   259.0000 </r>
       <r>    -1.5144     0.0000   259.0000 </r>
       <r>    -1.4735     0.0000   259.0000 </r>
       <r>    -1.4326     0.0000   259.0000 </r>
       <r>    -1.3917     0.0000   259.0000 </r>
       <r>    -1.3508     0.0000   260.0000 </r>
       <r>    -1.3099     0.0000   261.0000 </r>
       <r>    -1.2690     0.0000   261.0000 </r>
       <r>    -1.2281     0.0000   261.0000 </r>
       <r>    -1.1872     0.0000   261.0000 </r>
       <r>    -1.1462     0.0000   262.0000 </r>
       <r>    -1.1053     0.0000   263.0000 </r>
       <r>    -1.0644     0.0000   263.0000 </r>
       <r>    -1.0235     0.0000   263.0000 </r>
       <r>    -0.9826     0.0000   264.0000 </r>
       <r>    -0.9417     0.0000   264.0000 </r>
       <r>    -0.9008     0.0000   264.0000 </r>
       <r>    -0.8599     0.0000   265.0000 </r>
       <r>    -0.8190     0.0000   265.0000 </r>
       <r>    -0.7781     0.0000   266.0000 </r>
       <r>    -0.7372     0.0000   266.0000 </r>
       <r>    -0.6963     0.0000   266.0000 </r>
       <r>    -0.6554     0.0000   267.0000 </r>
       <r>    -0.6145     0.0000   267.0000 </r>
       <r>    -0.5736     0.0000   268.0000 </r>
       <r>    -0.5327     0.0000   269.0000 </r>
       <r>    -0.4918     0.0000   269.0000 </r>
       <r>    -0.4509     0.0000   270.0000 </r>
       <r>    -0.4100     0.0000   271.0000 </r>
       <r>    -0.3691     0.0000   272.0000 </r>
       <r>    -0.3282     0.0000   273.0000 </r>
       <r>    -0.2873     0.0000   274.0000 </r>
       <r>    -0.2464     0.0000   274.0000 </r>
       <r>    -0.2055     0.0000   274.0000 </r>
       <r>    -0.1646     0.0000   274.0000 </r>
       <r>    -0.1237     0.0000   274.0000 </r>
       <r>    -0.0828     0.0000   275.0000 </r>
       <r>    -0.0419     0.0000   276.0000 </r>
       <r>    -0.0010     0.0000   276.0000 </r>
       <r>     0.0399     0.0000   277.0000 </r>
       <r>     0.0808     0.0000   277.0000 </r>
       <r>     0.1217     0.0000   278.0000 </r>
       <r>     0.1626     0.0000   278.0000 </r>
       <r>     0.2035     0.0000   279.0000 </r>
       <r>     0.2444     0.0000   279.0000 </r>
       <r>     0.2853     0.0000   280.0000 </r>
       <r>     0.3262     0.0000   280.0000 </r>
       <r>     0.3671     0.0000   281.0000 </r>
       <r>     0.4080     0.0000   281.0000 </r>
       <r>     0.4489     0.0000   282.0000 </r>
       <r>     0.4898     0.0000   283.0000 </r>
       <r>     0.5307     0.0000   283.0000 </r>
       <r>     0.5716     0.0000   284.0000 </r>
       <r>     0.6125     0.0000   284.0000 </r>
       <r>     0.6534     0.0000   285.0000 </r>
       <r>     0.6943     0.0000   285.0000 </r>
       <r>     0.7352     0.0000   286.0000 </r>
       <r>     0.7761     0.0000   287.0000 </r>
       <r>     0.8170    19.4192   288.7943 </r>
       <r>     0.8579     0.0000   289.0000 </r>
       <r>     0.8988     0.3613   291.0148 </r>
       <r>     0.9397     0.0000   293.0000 </r>
       <r>     0.9806     0.0000   293.0000 </r>
       <r>     1.0215     0.0000   294.0000 </r>
       <r>     1.0624     0.0000   296.0000 </r>
       <r>     1.1033     0.0000   299.0000 </r>
       <r>     1.1442     0.0000   301.0000 </r>
       <r>     1.1851     0.0000   303.0000 </r>
       <r>     1.2260     0.0000   304.0000 </r>
       <r>     1.2669     0.0000   306.0000 </r>
       <r>     1.3078    24.4489   307.0000 </r>
       <r>     1.3487    20.7422   308.8484 </r>
       <r>     1.3896     0.0000   310.0000 </r>
       <r>     1.4305     0.0000   312.0000 </r>
       <r>     1.4714     0.0000   312.0000 </r>
       <r>     1.5124     0.0000   312.0000 </r>
       <r>     1.5533     0.0000   312.0000 </r>
       <r>     1.5942     0.0000   312.0000 </r>
       <r>     1.6351     0.0000   312.0000 </r>
       <r>     1.6760     0.0000   312.0000 </r>
       <r>     1.7169     0.0000   312.0000 </r>
       <r>     1.7578     0.0000   312.0000 </r>
       <r>     1.7987     0.0000   312.0000 </r>
       <r>     1.8396     0.0000   312.0000 </r>
       <r>     1.8805     0.0000   312.0000 </r>
       <r>     1.9214     0.0000   312.0000 </r>
       <r>     1.9623     0.0000   312.0000 </r>
      </set>
     </set>
    </array>
   </total>
  </dos>
 </calculation>
 <structure name="finalpos" >
  <crystal>
   <varray name="basis" >
    <v>      22.92039003       0.00000000       0.00000000 </v>
    <v>       0.00000000      22.92039003       0.00000000 </v>
    <v>       0.00000000       0.00000000      22.92039003 </v>
   </varray>
   <i name="volume">  12041.09577750 </i>
   <varray name="rec_basis" >
    <v>       0.04362928       0.00000000       0.00000000 </v>
    <v>       0.00000000       0.04362928       0.00000000 </v>
    <v>       0.00000000       0.00000000       0.04362928 </v>
   </varray>
  </crystal>
  <varray name="positions" >
   <v>       0.62328408       0.42762313       0.73096306 </v>
   <v>       0.62446424       0.55279517       0.72324109 </v>
   <v>       0.53166961       0.61376877       0.67053108 </v>
   <v>       0.52723118       0.48854704       0.68215234 </v>
   <v>       0.53102517       0.36313238       0.68631520 </v>
   <v>       0.43923372       0.67344638       0.61571264 </v>
   <v>       0.43419749       0.54854050       0.62765989 </v>
   <v>       0.64341155       0.60886771       0.61265346 </v>
   <v>       0.43591758       0.42505614       0.62508718 </v>
   <v>       0.64156197       0.36512307       0.62380376 </v>
   <v>       0.55173165       0.67316974       0.55939526 </v>
   <v>       0.64708524       0.48529934       0.62512001 </v>
   <v>       0.34183670       0.60526292       0.56803967 </v>
   <v>       0.43442812       0.30426440       0.63403569 </v>
   <v>       0.34391819       0.48193370       0.56561625 </v>
   <v>       0.54564674       0.54697346       0.56803544 </v>
   <v>       0.45525622       0.73227599       0.50822727 </v>
   <v>       0.54781772       0.42277099       0.56992618 </v>
   <v>       0.34545154       0.35687219       0.56909578 </v>
   <v>       0.35083878       0.66696873       0.46375998 </v>
   <v>       0.54565346       0.29737690       0.58463665 </v>
   <v>       0.45204811       0.61030227       0.51302936 </v>
   <v>       0.45601334       0.48422551       0.51114918 </v>
   <v>       0.45539476       0.34612703       0.51825339 </v>
   <v>       0.43307787       0.71473204       0.38874231 </v>
   <v>       0.36917143       0.41356851       0.46253447 </v>
   <v>       0.66090161       0.42599221       0.51335132 </v>
   <v>       0.35815138       0.54225174       0.45854253 </v>
   <v>       0.56843543       0.48901786       0.46036206 </v>
   <v>       0.71247999       0.53563274       0.53706732 </v>
   <v>       0.57397187       0.34623630       0.47765111 </v>
   <v>       0.53599372       0.66696109       0.43636331 </v>
   <v>       0.62582018       0.60331105       0.48742512 </v>
   <v>       0.47978076       0.55575832       0.40768092 </v>
   <v>       0.48713395       0.40272946       0.41374619 </v>
   <v>       0.38007521       0.60981755       0.35623701 </v>
   <v>       0.40172062       0.47545786       0.36255980 </v>
   <v>       0.68514435       0.50998186       0.42058372 </v>
   <v>       0.61782753       0.40938796       0.38519458 </v>
   <v>       0.49828696       0.64212823       0.31989420 </v>
   <v>       0.59672712       0.57963786       0.36879382 </v>
   <v>       0.44330357       0.54592082       0.27512801 </v>
   <v>       0.53149634       0.47669925       0.32678058 </v>
   <v>       0.65083392       0.49153044       0.30289969 </v>
  </varray>
 </structure>
</modeling>
