25
Energy = -75.31037794 eV
Al 11.327356710913397 9.511869710871729 5.854093492648822
Al 7.140853430125003 9.844299387770256 7.026587656715727
Al 9.357814280259364 8.308631794298678 7.448362483161186
Al 7.9150130350813015 6.222399845209777 8.296581649767669
Al 11.927857533271379 7.831819023725303 8.078672918286964
Al 12.125683093566913 10.513220290528016 8.378517593762938
Al 8.822526018255054 13.407927674598932 8.3074870758381
Al 9.59663684436387 10.96266901436907 7.50659240524699
Al 11.481357357908614 13.072922441467611 7.803190675611318
Al 7.3611367133703105 8.50347276644241 9.431356452742245
Al 7.593484522403518 11.245084131607513 9.378291772330769
Al 10.422618303929662 5.68837963756382 7.577699084325328
Al 10.358895543516054 12.209807299699628 10.209887030086339
Al 9.942017779968475 9.627968219140685 9.991333941165259
Al 7.934638531490283 13.667727405852194 10.828296805538189
Al 12.466097266162766 8.456045471550922 10.511614686037719
Al 9.873560681675931 7.0083695601595295 10.089025156133719
Al 12.862562907456834 11.173640324616018 10.819893681889749
Al 8.151438148333307 8.508101614477294 11.926484568449142
Al 8.392910175145428 11.253112507088957 11.962083794550708
Al 5.918594963604589 10.083346381656703 11.22783775385522
Al 10.689727646259644 8.048505064099963 12.435983261579652
Al 13.120579056555597 9.305005256395626 12.975601196366815
Al 10.891588019990134 10.78419298322533 12.499061301720284
Al 9.166917391145871 9.603348148337984 14.277329516942615
