 vasp.5.3.5 31Mar14 (build Feb 01 2018 12:10:03) gamma-only                     
  
 executed on             LinuxIFC date 2019.03.21  20:51:16
 running on   32 total cores
 distrk:  each k-point on   32 cores,    1 groups
 distr:  one band on NCORES_PER_BAND=   8 cores,    4 groups


--------------------------------------------------------------------------------------------------------


 INCAR:
 POTCAR:    PAW_PBE Ag 02Apr2005                  
 POTCAR:    PAW_PBE Ag 02Apr2005                  
   VRHFIN =Ag : s1 d10                                                          
   LEXCH  = PE                                                                  
   EATOM  =  1037.2675 eV,   76.2370 Ry                                         
                                                                                
   TITEL  = PAW_PBE Ag 02Apr2005                                                
   LULTRA =        F    use ultrasoft PP ?                                      
   IUNSCR =        1    unscreen: 0-lin 1-nonlin 2-no                           
   RPACOR =    2.000    partial core radius                                     
   POMASS =  107.868; ZVAL   =   11.000    mass and valenz                      
   RCORE  =    2.500    outmost cutoff radius                                   
   RWIGS  =    2.840; RWIGS  =    1.503    wigner-seitz radius (au A)           
   ENMAX  =  249.844; ENMIN  =  187.383 eV                                      
   ICORE  =        3    local potential                                         
   LCOR   =        T    correct aug charges                                     
   LPAW   =        T    paw PP                                                  
   EAUG   =  412.496                                                            
   DEXC   =    0.000                                                            
   RMAX   =    2.560    core radius for proj-oper                               
   RAUG   =    1.300    factor for augmentation sphere                          
   RDEP   =    2.576    radius for radial grids                                 
   RDEPT  =    2.072    core radius for aug-charge                              
                                                                                
   Atomic configuration                                                         
   12 entries                                                                   
     n  l   j            E        occ.                                          
     1  0  0.50    -25324.9161   2.0000                                         
     2  0  0.50     -3728.5341   2.0000                                         
     2  1  1.50     -3344.0404   6.0000                                         
     3  0  0.50      -683.5581   2.0000                                         
     3  1  1.50      -557.3225   6.0000                                         
     3  2  2.50      -358.3853  10.0000                                         
     4  0  0.50       -95.0341   2.0000                                         
     4  1  1.50       -58.5511   6.0000                                         
     4  2  2.50        -7.4440  10.0000                                         
     5  0  0.50        -4.4045   1.0000                                         
     5  1  0.50        -1.3606   0.0000                                         
     4  3  2.50        -1.3606   0.0000                                         
   Description                                                                  
     l       E           TYP  RCUT    TYP  RCUT                                 
     2     -7.4439781     23  2.400                                             
     2     -8.8045607     23  2.400                                             
     0     -4.4044681     23  2.400                                             
     0      1.9520038     23  2.400                                             
     1     -1.3605826     23  2.500                                             
     1     27.2116520     23  2.500                                             
     3     -4.0817478     23  2.400                                             
  local pseudopotential read in
  partial core-charges read in
  partial kinetic energy density read in
  atomic valenz-charges read in
  non local Contribution for L=           2  read in
    real space projection operators read in
  non local Contribution for L=           2  read in
    real space projection operators read in
  non local Contribution for L=           0  read in
    real space projection operators read in
  non local Contribution for L=           0  read in
    real space projection operators read in
  non local Contribution for L=           1  read in
    real space projection operators read in
  non local Contribution for L=           1  read in
    real space projection operators read in
    PAW grid and wavefunctions read in
 
   number of l-projection  operators is LMAX  =           6
   number of lm-projection operators is LMMAX =          18
 

 ----------------------------------------------------------------------------- 
|                                                                             |
|  ADVICE TO THIS USER RUNNING 'VASP/VAMP'   (HEAR YOUR MASTER'S VOICE ...):  |
|                                                                             |
|      You have a (more or less) 'large supercell' and for larger cells       |
|      it might be more efficient to use real space projection opertators     |
|      So try LREAL= Auto  in the INCAR   file.                               |
|      Mind: At the moment your POTCAR file does not contain real space       |
|       projectors, and has to be modified,  BUT if you                       |
|      want to do an extremely  accurate calculation you might also keep the  |
|      reciprocal projection scheme          (i.e. LREAL=.FALSE.)             |
|                                                                             |
 ----------------------------------------------------------------------------- 

  PAW_PBE Ag 02Apr2005                  :
 energy of atom  1       EATOM=-1037.2675
 kinetic energy error for atom=    0.0689 (will be added to EATOM!!)
 
 
 POSCAR: Al19, -56.15838881 <s> Ag </s>          
  positions in direct lattice
  No initial velocities read in
 exchange correlation table for  LEXCH =        8
   RHO(1)=    0.500       N(1)  =     2000
   RHO(2)=  100.500       N(2)  =     4000
 


--------------------------------------------------------------------------------------------------------


 ion  position               nearest neighbor table
   1  0.691  0.462  0.458-   6 2.68   7 2.79   5 2.82   4 2.92   2 2.94
   2  0.648  0.387  0.574-   5 2.75   3 2.77   9 2.79   7 2.85   1 2.94
   3  0.532  0.314  0.566-   2 2.77  10 2.77   5 2.82   9 2.83
   4  0.577  0.541  0.417-  12 2.78  15 2.81   5 2.84   6 2.88   1 2.92   8 2.99  11 2.99   7 2.99

   5  0.562  0.412  0.472-   8 2.65   2 2.75   3 2.82   1 2.82   4 2.84  12 2.88  10 2.96   7 3.08
                             9 3.10
   6  0.701  0.594  0.463-  11 2.65   1 2.68   4 2.88   7 2.89
   7  0.620  0.524  0.558-   9 2.73  11 2.74   1 2.79  16 2.79   2 2.85   6 2.89   4 2.99  12 3.01
                             5 3.08
   8  0.462  0.450  0.395-   5 2.65  15 2.67  12 2.78  13 2.88  10 2.94   4 2.99
   9  0.530  0.443  0.619-   7 2.73  14 2.74   2 2.79   3 2.83  16 2.87  12 2.87  10 3.06   5 3.10

  10  0.426  0.390  0.523-   3 2.77  13 2.78  14 2.80  12 2.88   8 2.94   5 2.96   9 3.06
  11  0.594  0.650  0.515-  18 2.62   6 2.65   7 2.74   4 2.99  16 3.00  12 3.50
  12  0.479  0.521  0.511-  16 2.63   4 2.78  13 2.78   8 2.78  15 2.80   9 2.87  10 2.88  17 2.88
                             5 2.88  18 2.89  14 2.99   7 3.01  11 3.50
  13  0.350  0.492  0.472-  10 2.78  12 2.78  19 2.80   8 2.88  17 3.08  15 3.11  14 3.30
  14  0.398  0.476  0.627-  17 2.64   9 2.74  10 2.80  12 2.99  16 3.17  13 3.30
  15  0.446  0.581  0.390-   8 2.67  19 2.73  12 2.80  18 2.81   4 2.81  13 3.11
  16  0.512  0.584  0.620-  12 2.63   7 2.79  17 2.84   9 2.87  11 3.00  18 3.05  14 3.17
  17  0.378  0.597  0.580-  14 2.64  18 2.74  19 2.81  16 2.84  12 2.88  13 3.08
  18  0.466  0.664  0.500-  11 2.62  17 2.74  15 2.81  12 2.89  19 2.90  16 3.05
  19  0.335  0.628  0.451-  15 2.73  13 2.80  17 2.81  18 2.90
 
  LATTYP: Found a simple cubic cell.
 ALAT       =    20.1888367507
  
  Lattice vectors:
  
 A1 = (  20.1888367507,   0.0000000000,   0.0000000000)
 A2 = (   0.0000000000,  20.1888367507,   0.0000000000)
 A3 = (   0.0000000000,   0.0000000000,  20.1888367507)


Analysis of symmetry for initial positions (statically):
=====================================================================
 Subroutine PRICEL returns:
 Original cell was already a primitive cell.
 

 Routine SETGRP: Setting up the symmetry group for a 
 simple cubic supercell.


 Subroutine GETGRP returns: Found  1 space group operations
 (whereof  1 operations were pure point group operations)
 out of a pool of 48 trial point group operations.


The static configuration has the point symmetry C_1 .


Analysis of symmetry for dynamics (positions and initial velocities):
=====================================================================
 Subroutine PRICEL returns:
 Original cell was already a primitive cell.
 

 Routine SETGRP: Setting up the symmetry group for a 
 simple cubic supercell.


 Subroutine GETGRP returns: Found  1 space group operations
 (whereof  1 operations were pure point group operations)
 out of a pool of 48 trial point group operations.


The dynamic configuration has the point symmetry C_1 .


Analysis of magnetic symmetry:
=====================================================================
 Subroutine PRICEL returns:
 Original cell was already a primitive cell.
 

 Subroutine MAGSYM returns: Found  1 space group operations
 (whereof  1 operations were pure point group operations)
 out of a pool of  1 trial space group operations
 (whereof  1 operations were pure point group operations)
 and found also     1 'primitive' translations


The magnetic configuration has the point symmetry C_1 .
 
 
 KPOINTS: Gamma-point only                        
  k-points in reciprocal lattice
Space group operators:
 irot       det(A)        alpha          n_x          n_y          n_z        tau_x        tau_y        tau_z
    1     1.000000     0.000000     1.000000     0.000000     0.000000     0.000000     0.000000     0.000000


--------------------------------------------------------------------------------------------------------




 Dimension of arrays:
   k-points           NKPTS =      1   k-points in BZ     NKDIM =      1   number of bands    NBANDS=    136
   number of dos      NEDOS =    301   number of ions     NIONS =     19
   non local maximal  LDIM  =      6   non local SUM 2l+1 LMDIM =     18
   total plane-waves  NPLWV = 512000
   max r-space proj   IRMAX =      1   max aug-charges    IRDMAX=   3258
   dimension x,y,z NGX =    80 NGY =   80 NGZ =   80
   dimension x,y,z NGXF=   160 NGYF=  160 NGZF=  160
   support grid    NGXF=   160 NGYF=  160 NGZF=  160
   ions per type =              19
 NGX,Y,Z   is equivalent  to a cutoff of   6.59,  6.59,  6.59 a.u.
 NGXF,Y,Z  is equivalent  to a cutoff of  13.18, 13.18, 13.18 a.u.


 I would recommend the setting:
   dimension x,y,z NGX =    78 NGY =   78 NGZ =   78
 SYSTEM =  unknown system                          
 POSCAR =  Al19, -56.15838881 <s> Ag </s>          

 Startparameter for this run:
   NWRITE =      2    write-flag & timer
   PREC   = normal    normal or accurate (medium, high low for compatibility)
   ISTART =      0    job   : 0-new  1-cont  2-samecut
   ICHARG =      2    charge: 1-file 2-atom 10-const
   ISPIN  =      2    spin polarized calculation?
   LNONCOLLINEAR =      F non collinear calculations
   LSORBIT =      F    spin-orbit coupling
   INIWAV =      1    electr: 0-lowe 1-rand  2-diag
   LASPH  =      F    aspherical Exc in radial PAW
   METAGGA=      F    non-selfconsistent MetaGGA calc.

 Electronic Relaxation 1
   ENCUT  =  249.8 eV  18.36 Ry    4.29 a.u.  26.02 26.02 26.02*2*pi/ulx,y,z
   ENINI  =  249.8     initial cutoff
   ENAUG  =  412.5 eV  augmentation charge cutoff
   NELM   =     60;   NELMIN=  2; NELMDL= -5     # of ELM steps 
   EDIFF  = 0.1E-03   stopping-criterion for ELM
   LREAL  =      F    real-space projection
   NLSPLINE    = F    spline interpolate recip. space projectors
   LCOMPAT=      F    compatible to vasp.4.4
   GGA_COMPAT  = T    GGA compatible to vasp.4.4-vasp.4.6
   LMAXPAW     = -100 max onsite density
   LMAXMIX     =    2 max onsite mixed and CHGCAR
   VOSKOWN=      0    Vosko Wilk Nusair interpolation
   ROPT   =    0.00000
 Ionic relaxation
   EDIFFG = 0.1E-02   stopping-criterion for IOM
   NSW    =   1000    number of steps for IOM
   NBLOCK =      1;   KBLOCK =   1000    inner block; outer block 
   IBRION =      2    ionic relax: 0-MD 1-quasi-New 2-CG
   NFREE  =      1    steps in history (QN), initial steepest desc. (CG)
   ISIF   =      2    stress and relaxation
   IWAVPR =     11    prediction:  0-non 1-charg 2-wave 3-comb
   ISYM   =      2    0-nonsym 1-usesym 2-fastsym
   LCORR  =      T    Harris-Foulkes like correction to forces

   POTIM  = 0.1000    time-step for ionic-motion
   TEIN   =    0.0    initial temperature
   TEBEG  =    0.0;   TEEND  =   0.0 temperature during run
   SMASS  =  -3.00    Nose mass-parameter (am)
   estimated Nose-frequenzy (Omega)   =  0.10E-29 period in steps =****** mass=  -0.931E-26a.u.
   SCALEE = 1.0000    scale energy and forces
   NPACO  =    256;   APACO  = 16.0  distance and # of slots for P.C.
   PSTRESS=    0.0 pullay stress

  Mass of Ions in am
   POMASS = 107.87
  Ionic Valenz
   ZVAL   =  11.00
  Atomic Wigner-Seitz radii
   RWIGS  =  -1.00
  virtual crystal weights 
   VCA    =   1.00
   NELECT =     209.0000    total number of electrons
   NUPDOWN=      -1.0000    fix difference up-down

 DOS related values:
   EMIN   =  10.00;   EMAX   =-10.00  energy-range for DOS
   EFERMI =   0.00
   ISMEAR =     0;   SIGMA  =   0.00  broadening in eV -4-tet -1-fermi 0-gaus

 Electronic relaxation 2 (details)
   IALGO  =     38    algorithm
   LDIAG  =      T    sub-space diagonalisation (order eigenvalues)
   LSUBROT=      F    optimize rotation matrix (better conditioning)
   TURBO    =      0    0=normal 1=particle mesh
   IRESTART =      0    0=no restart 2=restart with 2 vectors
   NREBOOT  =      0    no. of reboots
   NMIN     =      0    reboot dimension
   EREF     =   0.00    reference energy to select bands
   IMIX   =      4    mixing-type and parameters
     AMIX     =   0.40;   BMIX     =  1.00
     AMIX_MAG =   1.60;   BMIX_MAG =  1.00
     AMIN     =   0.10
     WC   =   100.;   INIMIX=   1;  MIXPRE=   1;  MAXMIX= -45

 Intra band minimization:
   WEIMIN = 0.0010     energy-eigenvalue tresh-hold
   EBREAK =  0.18E-06  absolut break condition
   DEPER  =   0.30     relativ break condition  

   TIME   =   0.40     timestep for ELM

  volume/ion in A,a.u.               =     433.09      2922.65
  Fermi-wavevector in a.u.,A,eV,Ry     =   0.481222  0.909378  3.150766  0.231575
  Thomas-Fermi vector in A             =   1.479199
 
 Write flags
   LWAVE  =      F    write WAVECAR
   LCHARG =      F    write CHGCAR
   LVTOT  =      F    write LOCPOT, total local potential
   LVHAR  =      F    write LOCPOT, Hartree potential only
   LELF   =      F    write electronic localiz. function (ELF)
   LORBIT =      0    0 simple, 1 ext, 2 COOP (PROOUT)


 Dipole corrections
   LMONO  =      F    monopole corrections only (constant potential shift)
   LDIPOL =      F    correct potential (dipole corrections)
   IDIPOL =      0    1-x, 2-y, 3-z, 4-all directions 
   EPSILON=  1.0000000 bulk dielectric constant

 Exchange correlation treatment:
   GGA     =    PE    GGA type
   LEXCH   =     8    internal setting for exchange type
   VOSKOWN=      0    Vosko Wilk Nusair interpolation
   LHFCALC =     F    Hartree Fock is set to
   LHFONE  =     F    Hartree Fock one center treatment
   AEXX    =    0.0000 exact exchange contribution

 Linear response parameters
   LEPSILON=     F    determine dielectric tensor
   LRPA    =     F    only Hartree local field effects (RPA)
   LNABLA  =     F    use nabla operator in PAW spheres
   LVEL    =     F    velocity operator in full k-point grid
   LINTERFAST=   F  fast interpolation
   KINTER  =     0    interpolate to denser k-point grid
   CSHIFT  =0.1000    complex shift for real part using Kramers Kronig
   OMEGAMAX=  -1.0    maximum frequency
   DEG_THRESHOLD= 0.2000000E-02 threshold for treating states as degnerate
   RTIME   =    0.100 relaxation time in fs

 Orbital magnetization related:
   ORBITALMAG=     F  switch on orbital magnetization
   LCHIMAG   =     F  perturbation theory with respect to B field
   DQ        =  0.001000  dq finite difference perturbation B field



--------------------------------------------------------------------------------------------------------


 conjugate gradient relaxation of ions
 charge density and potential will be updated during run
 spin polarized calculation
 Variant of blocked Davidson
 Davidson routine will perform the subspace rotation
 perform sub-space diagonalisation
    after iterative eigenvector-optimisation
 modified Broyden-mixing scheme, WC =      100.0
 initial mixing is a Kerker type mixing with AMIX =  0.4000 and BMIX =      1.0000
 Hartree-type preconditioning will be used
 using additional bands           31
 reciprocal scheme for non local part
 use partial core corrections
 calculate Harris-corrections to forces 
   (improved forces if not selfconsistent)
 use gradient corrections 
 use of overlap-Matrix (Vanderbilt PP)
 Gauss-broadening in eV      SIGMA  =   0.00


--------------------------------------------------------------------------------------------------------


  energy-cutoff  :      249.84
  volume of cell :     8228.75
      direct lattice vectors                 reciprocal lattice vectors
    20.188836751  0.000000000  0.000000000     0.049532324  0.000000000  0.000000000
     0.000000000 20.188836751  0.000000000     0.000000000  0.049532324  0.000000000
     0.000000000  0.000000000 20.188836751     0.000000000  0.000000000  0.049532324

  length of vectors
    20.188836751 20.188836751 20.188836751     0.049532324  0.049532324  0.049532324


 
 k-points in units of 2pi/SCALE and weight: Gamma-point only                        
   0.00000000  0.00000000  0.00000000       1.000
 
 k-points in reciprocal lattice and weights: Gamma-point only                        
   0.00000000  0.00000000  0.00000000       1.000
 
 position of ions in fractional coordinates (direct lattice) 
   0.69146561  0.46199066  0.45777311
   0.64769498  0.38674293  0.57437976
   0.53178842  0.31362251  0.56626232
   0.57682917  0.54073687  0.41730042
   0.56154577  0.41220322  0.47202893
   0.70081338  0.59443062  0.46337416
   0.61987737  0.52409333  0.55808265
   0.46217102  0.44970409  0.39490097
   0.52967356  0.44343838  0.61894214
   0.42595686  0.38950459  0.52272955
   0.59398931  0.65040901  0.51535128
   0.47851460  0.52148565  0.51149039
   0.34995794  0.49217150  0.47187976
   0.39822950  0.47625451  0.62725729
   0.44631647  0.58069353  0.39035310
   0.51223110  0.58427089  0.62030683
   0.37831876  0.59652780  0.57961034
   0.46571091  0.66353328  0.50020563
   0.33532824  0.62832492  0.45109655
 
 position of ions in cartesian coordinates  (Angst):
  13.95988638  9.32705399  9.24190654
  13.07620831  7.80788989 11.59605921
  10.73618968  6.33167375 11.43217753
  11.64551004 10.91684846  8.42481009
  11.33695580  8.32190347  9.52971494
  14.14860692 12.00086281  9.35498534
  12.51460308 10.58083466 11.26703954
   9.33069536  9.07900247  7.97259115
  10.69349294  8.95250514 12.49572187
   8.59957352  7.86364461 10.55330152
  11.99195317 13.13100136 10.40434293
   9.66065312 10.52818862 10.32639608
   7.06524368  9.93637015  9.52670348
   8.03979027  9.61502452 12.66359500
   9.01061033 11.72352687  7.88077507
  10.34135009 11.79574968 12.52327339
   7.63781562 12.04320245 11.70165862
   9.40216144 13.39596506 10.09856985
   6.76988719 12.68514920  9.10711461
 


--------------------------------------------------------------------------------------------------------


 use parallel FFT for wavefunctions z direction half grid
 k-point  1 :   0.0000 0.0000 0.0000  plane waves:   36943

 maximum and minimum number of plane-waves per node :      4621     4614

 maximum number of plane-waves:     36943
 maximum index in each direction: 
   IXMAX=   26   IYMAX=   26   IZMAX=   26
   IXMIN=  -26   IYMIN=  -26   IZMIN=    0

 WARNING: aliasing errors must be expected set NGX to 106 to avoid them
 WARNING: aliasing errors must be expected set NGY to 106 to avoid them
 WARNING: aliasing errors must be expected set NGZ to 106 to avoid them
 aliasing errors are usually negligible using standard VASP settings
 and one can safely disregard these warnings

 parallel 3D FFT for wavefunctions:
    minimum data exchange during FFTs selected (reduces bandwidth)
 parallel 3D FFT for charge:
    minimum data exchange during FFTs selected (reduces bandwidth)


 total amount of memory used by VASP on root node    57396. kBytes
========================================================================

   base      :      30000. kBytes
   nonl-proj :       2069. kBytes
   fftplans  :       5773. kBytes
   grid      :      14451. kBytes
   one-center:         46. kBytes
   wavefun   :       5057. kBytes
 
     INWAV:  cpu time    0.00: real time    0.00
 Broyden mixing: mesh for mixing (old mesh)
   NGX = 53   NGY = 53   NGZ = 53
  (NGX  =160   NGY  =160   NGZ  =160)
  gives a total of 148877 points

 initial charge density was supplied:
 charge density of overlapping atoms calculated
 number of electron     209.0000000 magnetization      19.0000000
 keeping initial charge density in first step


--------------------------------------------------------------------------------------------------------


 Maximum index for augmentation-charges          250 (set IRDMAX)


--------------------------------------------------------------------------------------------------------


 First call to EWALD:  gamma=   0.088
 Maximum number of real-space cells 3x 3x 3
 Maximum number of reciprocal cells 3x 3x 3

 FEWALD executed in parallel
    FEWALD:  cpu time    0.00: real time    0.00


----------------------------------------- Iteration    1(   1)  ---------------------------------------


    POTLOK:  cpu time    0.23: real time    0.23
    SETDIJ:  cpu time    0.01: real time    0.01
     EDDAV:  cpu time    1.58: real time    1.59
       DOS:  cpu time    0.00: real time    0.00
    --------------------------------------------
      LOOP:  cpu time    1.82: real time    1.85

 eigenvalue-minimisations  :   544
 total energy-change (2. order) : 0.1856584E+04  (-0.3599417E+04)
 number of electron     209.0000000 magnetization      19.0000000
 augmentation part      209.0000000 magnetization      19.0000000

 Free energy of the ion-electron system (eV)
  ---------------------------------------------------
  alpha Z        PSCENC =        37.31534780
  Ewald energy   TEWEN  =     31603.84189142
  -Hartree energ DENC   =    -50476.06599860
  -exchange      EXHF   =         0.00000000
  -V(xc)+E(xc)   XCENC  =      -209.44779558
  PAW double counting   =     19064.07138332   -18188.02756870
  entropy T*S    EENTRO =         0.00000000
  eigenvalues    EBANDS =       318.12297036
  atomic energy  EATOM  =     19706.77397164
  ---------------------------------------------------
  free energy    TOTEN  =      1856.58420166 eV

  energy without entropy =     1856.58420166  energy(sigma->0) =     1856.58420166


--------------------------------------------------------------------------------------------------------




----------------------------------------- Iteration    1(   2)  ---------------------------------------


     EDDAV:  cpu time    2.62: real time    2.62
       DOS:  cpu time    0.00: real time    0.00
    --------------------------------------------
      LOOP:  cpu time    2.62: real time    2.63

 eigenvalue-minimisations  :   984
 total energy-change (2. order) :-0.1364968E+04  (-0.1212519E+04)
 number of electron     209.0000000 magnetization      19.0000000
 augmentation part      209.0000000 magnetization      19.0000000

 Free energy of the ion-electron system (eV)
  ---------------------------------------------------
  alpha Z        PSCENC =        37.31534780
  Ewald energy   TEWEN  =     31603.84189142
  -Hartree energ DENC   =    -50476.06599860
  -exchange      EXHF   =         0.00000000
  -V(xc)+E(xc)   XCENC  =      -209.44779558
  PAW double counting   =     19064.07138332   -18188.02756870
  entropy T*S    EENTRO =         0.00000000
  eigenvalues    EBANDS =     -1046.84479845
  atomic energy  EATOM  =     19706.77397164
  ---------------------------------------------------
  free energy    TOTEN  =       491.61643285 eV

  energy without entropy =      491.61643285  energy(sigma->0) =      491.61643285


--------------------------------------------------------------------------------------------------------




----------------------------------------- Iteration    1(   3)  ---------------------------------------


     EDDAV:  cpu time    2.01: real time    2.02
       DOS:  cpu time    0.00: real time    0.00
    --------------------------------------------
      LOOP:  cpu time    2.02: real time    3.04

 eigenvalue-minimisations  :   744
 total energy-change (2. order) :-0.4974087E+03  (-0.4605294E+03)
 number of electron     209.0000000 magnetization      19.0000000
 augmentation part      209.0000000 magnetization      19.0000000

 Free energy of the ion-electron system (eV)
  ---------------------------------------------------
  alpha Z        PSCENC =        37.31534780
  Ewald energy   TEWEN  =     31603.84189142
  -Hartree energ DENC   =    -50476.06599860
  -exchange      EXHF   =         0.00000000
  -V(xc)+E(xc)   XCENC  =      -209.44779558
  PAW double counting   =     19064.07138332   -18188.02756870
  entropy T*S    EENTRO =         0.00000000
  eigenvalues    EBANDS =     -1544.25352037
  atomic energy  EATOM  =     19706.77397164
  ---------------------------------------------------
  free energy    TOTEN  =        -5.79228907 eV

  energy without entropy =       -5.79228907  energy(sigma->0) =       -5.79228907


--------------------------------------------------------------------------------------------------------




----------------------------------------- Iteration    1(   4)  ---------------------------------------


     EDDAV:  cpu time    1.74: real time    1.74
       DOS:  cpu time    0.00: real time    0.00
    --------------------------------------------
      LOOP:  cpu time    1.74: real time    2.38

 eigenvalue-minimisations  :   592
 total energy-change (2. order) :-0.3110370E+02  (-0.3071211E+02)
 number of electron     209.0000000 magnetization      19.0000000
 augmentation part      209.0000000 magnetization      19.0000000

 Free energy of the ion-electron system (eV)
  ---------------------------------------------------
  alpha Z        PSCENC =        37.31534780
  Ewald energy   TEWEN  =     31603.84189142
  -Hartree energ DENC   =    -50476.06599860
  -exchange      EXHF   =         0.00000000
  -V(xc)+E(xc)   XCENC  =      -209.44779558
  PAW double counting   =     19064.07138332   -18188.02756870
  entropy T*S    EENTRO =         0.00000000
  eigenvalues    EBANDS =     -1575.35721957
  atomic energy  EATOM  =     19706.77397164
  ---------------------------------------------------
  free energy    TOTEN  =       -36.89598827 eV

  energy without entropy =      -36.89598827  energy(sigma->0) =      -36.89598827


--------------------------------------------------------------------------------------------------------




----------------------------------------- Iteration    1(   5)  ---------------------------------------


     EDDAV:  cpu time    1.81: real time    1.81
       DOS:  cpu time    0.00: real time    0.00
    CHARGE:  cpu time    0.08: real time    0.08
    MIXING:  cpu time    0.00: real time    0.01
    --------------------------------------------
      LOOP:  cpu time    1.89: real time    1.90

 eigenvalue-minimisations  :   624
 total energy-change (2. order) :-0.4398312E+00  (-0.4391186E+00)
 number of electron     208.9999921 magnetization      16.4568084
 augmentation part       98.4453338 magnetization      15.8853460

 Broyden mixing:
  rms(total) = 0.24978E+01    rms(broyden)= 0.24974E+01
  rms(prec ) = 0.25463E+01
  weight for this iteration     100.00

 Free energy of the ion-electron system (eV)
  ---------------------------------------------------
  alpha Z        PSCENC =        37.31534780
  Ewald energy   TEWEN  =     31603.84189142
  -Hartree energ DENC   =    -50476.06599860
  -exchange      EXHF   =         0.00000000
  -V(xc)+E(xc)   XCENC  =      -209.44779558
  PAW double counting   =     19064.07138332   -18188.02756870
  entropy T*S    EENTRO =        -0.00000000
  eigenvalues    EBANDS =     -1575.79705082
  atomic energy  EATOM  =     19706.77397164
  ---------------------------------------------------
  free energy    TOTEN  =       -37.33581952 eV

  energy without entropy =      -37.33581952  energy(sigma->0) =      -37.33581952


--------------------------------------------------------------------------------------------------------




----------------------------------------- Iteration    1(   6)  ---------------------------------------


    POTLOK:  cpu time    0.22: real time    0.22
    SETDIJ:  cpu time    0.01: real time    0.01
     EDDAV:  cpu time    1.64: real time    1.65
       DOS:  cpu time    0.00: real time    0.00
    CHARGE:  cpu time    0.08: real time    0.08
    MIXING:  cpu time    0.01: real time    0.01
    --------------------------------------------
      LOOP:  cpu time    1.96: real time    1.97

 eigenvalue-minimisations  :   552
 total energy-change (2. order) : 0.2506863E+02  (-0.7721124E+01)
 number of electron     208.9999918 magnetization      14.9343167
 augmentation part      100.5887874 magnetization       8.5867408

 Broyden mixing:
  rms(total) = 0.12630E+01    rms(broyden)= 0.12629E+01
  rms(prec ) = 0.12813E+01
  weight for this iteration     100.00

 eigenvalues of (default mixing * dielectric matrix)
  average eigenvalue GAMMA=   0.8508
  0.8508

 Free energy of the ion-electron system (eV)
  ---------------------------------------------------
  alpha Z        PSCENC =        37.31534780
  Ewald energy   TEWEN  =     31603.84189142
  -Hartree energ DENC   =    -50406.05034577
  -exchange      EXHF   =         0.00000000
  -V(xc)+E(xc)   XCENC  =      -197.17718149
  PAW double counting   =     19680.54823752   -18817.77802678
  entropy T*S    EENTRO =         0.00000000
  eigenvalues    EBANDS =     -1619.74108229
  atomic energy  EATOM  =     19706.77397164
  ---------------------------------------------------
  free energy    TOTEN  =       -12.26718796 eV

  energy without entropy =      -12.26718796  energy(sigma->0) =      -12.26718796


--------------------------------------------------------------------------------------------------------




----------------------------------------- Iteration    1(   7)  ---------------------------------------


    POTLOK:  cpu time    0.22: real time    0.22
    SETDIJ:  cpu time    0.01: real time    0.01
     EDDAV:  cpu time    1.72: real time    1.72
       DOS:  cpu time    0.00: real time    0.00
    CHARGE:  cpu time    0.07: real time    0.07
    MIXING:  cpu time    0.01: real time    0.01
    --------------------------------------------
      LOOP:  cpu time    2.03: real time    2.04

 eigenvalue-minimisations  :   584
 total energy-change (2. order) : 0.2040287E+01  (-0.4050301E+00)
 number of electron     208.9999918 magnetization      12.6645712
 augmentation part      100.5236354 magnetization       6.5473297

 Broyden mixing:
  rms(total) = 0.72947E+00    rms(broyden)= 0.72946E+00
  rms(prec ) = 0.73969E+00
  weight for this iteration     100.00

 eigenvalues of (default mixing * dielectric matrix)
  average eigenvalue GAMMA=   1.0051
  0.7616  1.2487

 Free energy of the ion-electron system (eV)
  ---------------------------------------------------
  alpha Z        PSCENC =        37.31534780
  Ewald energy   TEWEN  =     31603.84189142
  -Hartree energ DENC   =    -50444.87565646
  -exchange      EXHF   =         0.00000000
  -V(xc)+E(xc)   XCENC  =      -195.25185368
  PAW double counting   =     20056.56052613   -19202.27347390
  entropy T*S    EENTRO =         0.00000000
  eigenvalues    EBANDS =     -1572.31765432
  atomic energy  EATOM  =     19706.77397164
  ---------------------------------------------------
  free energy    TOTEN  =       -10.22690138 eV

  energy without entropy =      -10.22690138  energy(sigma->0) =      -10.22690138


--------------------------------------------------------------------------------------------------------




----------------------------------------- Iteration    1(   8)  ---------------------------------------


    POTLOK:  cpu time    0.22: real time    0.22
    SETDIJ:  cpu time    0.00: real time    0.01
     EDDAV:  cpu time    1.75: real time    1.75
       DOS:  cpu time    0.00: real time    0.00
    CHARGE:  cpu time    0.08: real time    0.07
    MIXING:  cpu time    0.00: real time    0.01
    --------------------------------------------
      LOOP:  cpu time    2.06: real time    2.07

 eigenvalue-minimisations  :   600
 total energy-change (2. order) :-0.1952304E+01  (-0.1530517E+00)
 number of electron     208.9999918 magnetization      11.2023121
 augmentation part      100.4088709 magnetization       5.2487650

 Broyden mixing:
  rms(total) = 0.36511E+00    rms(broyden)= 0.36511E+00
  rms(prec ) = 0.36856E+00
  weight for this iteration     100.00

 eigenvalues of (default mixing * dielectric matrix)
  average eigenvalue GAMMA=   1.2310
  2.1803  0.8946  0.6182

 Free energy of the ion-electron system (eV)
  ---------------------------------------------------
  alpha Z        PSCENC =        37.31534780
  Ewald energy   TEWEN  =     31603.84189142
  -Hartree energ DENC   =    -50486.92502209
  -exchange      EXHF   =         0.00000000
  -V(xc)+E(xc)   XCENC  =      -196.49762765
  PAW double counting   =     20483.37175750   -19637.72013361
  entropy T*S    EENTRO =         0.00000000
  eigenvalues    EBANDS =     -1522.33939028
  atomic energy  EATOM  =     19706.77397164
  ---------------------------------------------------
  free energy    TOTEN  =       -12.17920526 eV

  energy without entropy =      -12.17920526  energy(sigma->0) =      -12.17920526


--------------------------------------------------------------------------------------------------------




----------------------------------------- Iteration    1(   9)  ---------------------------------------


    POTLOK:  cpu time    0.22: real time    0.22
    SETDIJ:  cpu time    0.01: real time    0.01
     EDDAV:  cpu time    1.77: real time    1.77
       DOS:  cpu time    0.00: real time    0.00
    CHARGE:  cpu time    0.08: real time    0.08
    MIXING:  cpu time    0.00: real time    0.01
    --------------------------------------------
      LOOP:  cpu time    2.08: real time    2.09

 eigenvalue-minimisations  :   608
 total energy-change (2. order) :-0.3269399E+01  (-0.7414076E-01)
 number of electron     208.9999918 magnetization       9.8210612
 augmentation part      100.3714263 magnetization       3.9972332

 Broyden mixing:
  rms(total) = 0.19898E+00    rms(broyden)= 0.19898E+00
  rms(prec ) = 0.20313E+00
  weight for this iteration     100.00

 eigenvalues of (default mixing * dielectric matrix)
  average eigenvalue GAMMA=   1.2151
  2.2076  0.6180  0.8056  1.2292

 Free energy of the ion-electron system (eV)
  ---------------------------------------------------
  alpha Z        PSCENC =        37.31534780
  Ewald energy   TEWEN  =     31603.84189142
  -Hartree energ DENC   =    -50499.45563244
  -exchange      EXHF   =         0.00000000
  -V(xc)+E(xc)   XCENC  =      -198.97254607
  PAW double counting   =     20631.85823010   -19789.16741054
  entropy T*S    EENTRO =         0.00000000
  eigenvalues    EBANDS =     -1507.64245586
  atomic energy  EATOM  =     19706.77397164
  ---------------------------------------------------
  free energy    TOTEN  =       -15.44860396 eV

  energy without entropy =      -15.44860396  energy(sigma->0) =      -15.44860396


--------------------------------------------------------------------------------------------------------




----------------------------------------- Iteration    1(  10)  ---------------------------------------


    POTLOK:  cpu time    0.22: real time    0.22
    SETDIJ:  cpu time    0.01: real time    0.01
     EDDAV:  cpu time    1.64: real time    1.64
       DOS:  cpu time    0.00: real time    0.00
    CHARGE:  cpu time    0.08: real time    0.08
    MIXING:  cpu time    0.01: real time    0.01
    --------------------------------------------
      LOOP:  cpu time    1.96: real time    1.96

 eigenvalue-minimisations  :   552
 total energy-change (2. order) :-0.6437492E+01  (-0.1949400E+00)
 number of electron     208.9999919 magnetization       9.5845516
 augmentation part      100.3764281 magnetization       5.9238917

 Broyden mixing:
  rms(total) = 0.25161E+00    rms(broyden)= 0.25149E+00
  rms(prec ) = 0.26429E+00
  weight for this iteration     100.00

 eigenvalues of (default mixing * dielectric matrix)
  average eigenvalue GAMMA=   1.0260
  2.2354  1.2977  0.6180  0.8184  0.1606

 Free energy of the ion-electron system (eV)
  ---------------------------------------------------
  alpha Z        PSCENC =        37.31534780
  Ewald energy   TEWEN  =     31603.84189142
  -Hartree energ DENC   =    -50497.10935788
  -exchange      EXHF   =         0.00000000
  -V(xc)+E(xc)   XCENC  =      -203.84707903
  PAW double counting   =     20634.33221506   -19791.86724184
  entropy T*S    EENTRO =         0.00000000
  eigenvalues    EBANDS =     -1511.32584313
  atomic energy  EATOM  =     19706.77397164
  ---------------------------------------------------
  free energy    TOTEN  =       -21.88609596 eV

  energy without entropy =      -21.88609596  energy(sigma->0) =      -21.88609596


--------------------------------------------------------------------------------------------------------




----------------------------------------- Iteration    1(  11)  ---------------------------------------


    POTLOK:  cpu time    0.22: real time    0.22
    SETDIJ:  cpu time    0.01: real time    0.01
     EDDAV:  cpu time    1.91: real time    1.91
       DOS:  cpu time    0.00: real time    0.00
    CHARGE:  cpu time    0.08: real time    0.08
    MIXING:  cpu time    0.01: real time    0.01
    --------------------------------------------
      LOOP:  cpu time    2.23: real time    2.23

 eigenvalue-minimisations  :   672
 total energy-change (2. order) :-0.3250842E+00  (-0.5470336E-02)
 number of electron     208.9999919 magnetization       8.8444528
 augmentation part      100.3608302 magnetization       5.2254335

 Broyden mixing:
  rms(total) = 0.23135E+00    rms(broyden)= 0.23135E+00
  rms(prec ) = 0.24314E+00
  weight for this iteration     100.00

 eigenvalues of (default mixing * dielectric matrix)
  average eigenvalue GAMMA=   0.9818
  2.2054  1.3051  0.7911  0.6139  0.4877  0.4877

 Free energy of the ion-electron system (eV)
  ---------------------------------------------------
  alpha Z        PSCENC =        37.31534780
  Ewald energy   TEWEN  =     31603.84189142
  -Hartree energ DENC   =    -50498.09083247
  -exchange      EXHF   =         0.00000000
  -V(xc)+E(xc)   XCENC  =      -204.05514365
  PAW double counting   =     20638.10208609   -19795.74677784
  entropy T*S    EENTRO =         0.00000000
  eigenvalues    EBANDS =     -1510.35172315
  atomic energy  EATOM  =     19706.77397164
  ---------------------------------------------------
  free energy    TOTEN  =       -22.21118015 eV

  energy without entropy =      -22.21118015  energy(sigma->0) =      -22.21118015


--------------------------------------------------------------------------------------------------------




----------------------------------------- Iteration    1(  12)  ---------------------------------------


    POTLOK:  cpu time    0.22: real time    0.22
    SETDIJ:  cpu time    0.01: real time    0.01
     EDDAV:  cpu time    1.66: real time    1.67
       DOS:  cpu time    0.00: real time    0.00
    CHARGE:  cpu time    0.08: real time    0.08
    MIXING:  cpu time    0.01: real time    0.01
    --------------------------------------------
      LOOP:  cpu time    1.98: real time    1.99

 eigenvalue-minimisations  :   560
 total energy-change (2. order) :-0.1811589E+01  (-0.3766781E-01)
 number of electron     208.9999919 magnetization       6.2131877
 augmentation part      100.3632084 magnetization       2.6824393

 Broyden mixing:
  rms(total) = 0.19079E+00    rms(broyden)= 0.19079E+00
  rms(prec ) = 0.19787E+00
  weight for this iteration     100.00

 eigenvalues of (default mixing * dielectric matrix)
  average eigenvalue GAMMA=   1.1951
  2.3177  1.6677  1.6677  0.9863  0.6676  0.5292  0.5292

 Free energy of the ion-electron system (eV)
  ---------------------------------------------------
  alpha Z        PSCENC =        37.31534780
  Ewald energy   TEWEN  =     31603.84189142
  -Hartree energ DENC   =    -50498.06862739
  -exchange      EXHF   =         0.00000000
  -V(xc)+E(xc)   XCENC  =      -205.40367726
  PAW double counting   =     20614.14621952   -19771.77791938
  entropy T*S    EENTRO =         0.00000000
  eigenvalues    EBANDS =     -1510.84997586
  atomic energy  EATOM  =     19706.77397164
  ---------------------------------------------------
  free energy    TOTEN  =       -24.02276952 eV

  energy without entropy =      -24.02276952  energy(sigma->0) =      -24.02276952


--------------------------------------------------------------------------------------------------------




----------------------------------------- Iteration    1(  13)  ---------------------------------------


    POTLOK:  cpu time    0.22: real time    0.22
    SETDIJ:  cpu time    0.01: real time    0.01
     EDDAV:  cpu time    1.64: real time    1.65
       DOS:  cpu time    0.00: real time    0.00
    CHARGE:  cpu time    0.08: real time    0.07
    MIXING:  cpu time    0.01: real time    0.01
    --------------------------------------------
      LOOP:  cpu time    1.96: real time    1.97

 eigenvalue-minimisations  :   552
 total energy-change (2. order) :-0.6025655E+01  (-0.3012774E+00)
 number of electron     208.9999919 magnetization       5.8431191
 augmentation part      100.3722848 magnetization       4.5158977

 Broyden mixing:
  rms(total) = 0.21415E+00    rms(broyden)= 0.21399E+00
  rms(prec ) = 0.22580E+00
  weight for this iteration     100.00

 eigenvalues of (default mixing * dielectric matrix)
  average eigenvalue GAMMA=   1.0842
  2.5897  1.8437  1.1544  1.1544  0.7068  0.5712  0.4770  0.1761

 Free energy of the ion-electron system (eV)
  ---------------------------------------------------
  alpha Z        PSCENC =        37.31534780
  Ewald energy   TEWEN  =     31603.84189142
  -Hartree energ DENC   =    -50497.71082695
  -exchange      EXHF   =         0.00000000
  -V(xc)+E(xc)   XCENC  =      -210.12254883
  PAW double counting   =     20569.31437776   -19727.19771826
  entropy T*S    EENTRO =         0.00000000
  eigenvalues    EBANDS =     -1512.26291955
  atomic energy  EATOM  =     19706.77397164
  ---------------------------------------------------
  free energy    TOTEN  =       -30.04842498 eV

  energy without entropy =      -30.04842498  energy(sigma->0) =      -30.04842498


--------------------------------------------------------------------------------------------------------




----------------------------------------- Iteration    1(  14)  ---------------------------------------


    POTLOK:  cpu time    0.22: real time    0.22
    SETDIJ:  cpu time    0.01: real time    0.01
     EDDAV:  cpu time    1.84: real time    1.84
       DOS:  cpu time    0.00: real time    0.00
    CHARGE:  cpu time    0.07: real time    0.07
    MIXING:  cpu time    0.01: real time    0.01
    --------------------------------------------
      LOOP:  cpu time    2.16: real time    2.16

 eigenvalue-minimisations  :   640
 total energy-change (2. order) :-0.4018357E+00  (-0.8249181E-02)
 number of electron     208.9999919 magnetization       4.5847679
 augmentation part      100.3612349 magnetization       3.3043803

 Broyden mixing:
  rms(total) = 0.18746E+00    rms(broyden)= 0.18746E+00
  rms(prec ) = 0.19935E+00
  weight for this iteration     100.00

 eigenvalues of (default mixing * dielectric matrix)
  average eigenvalue GAMMA=   1.2232
  3.9488  2.0553  1.2682  0.8988  0.5901  0.5901  0.6342  0.5116  0.5116

 Free energy of the ion-electron system (eV)
  ---------------------------------------------------
  alpha Z        PSCENC =        37.31534780
  Ewald energy   TEWEN  =     31603.84189142
  -Hartree energ DENC   =    -50498.19643020
  -exchange      EXHF   =         0.00000000
  -V(xc)+E(xc)   XCENC  =      -210.42603094
  PAW double counting   =     20570.17635597   -19728.15316170
  entropy T*S    EENTRO =         0.00000000
  eigenvalues    EBANDS =     -1511.78220472
  atomic energy  EATOM  =     19706.77397164
  ---------------------------------------------------
  free energy    TOTEN  =       -30.45026073 eV

  energy without entropy =      -30.45026073  energy(sigma->0) =      -30.45026073


--------------------------------------------------------------------------------------------------------




----------------------------------------- Iteration    1(  15)  ---------------------------------------


    POTLOK:  cpu time    0.22: real time    0.23
    SETDIJ:  cpu time    0.01: real time    0.01
     EDDAV:  cpu time    1.68: real time    1.69
       DOS:  cpu time    0.00: real time    0.00
    CHARGE:  cpu time    0.08: real time    0.07
    MIXING:  cpu time    0.01: real time    0.01
    --------------------------------------------
      LOOP:  cpu time    2.00: real time    2.01

 eigenvalue-minimisations  :   568
 total energy-change (2. order) :-0.1736231E+01  (-0.4096656E-01)
 number of electron     208.9999919 magnetization       3.5697727
 augmentation part      100.3755565 magnetization       2.3870969

 Broyden mixing:
  rms(total) = 0.14966E+00    rms(broyden)= 0.14966E+00
  rms(prec ) = 0.16117E+00
  weight for this iteration     100.00

 eigenvalues of (default mixing * dielectric matrix)
  average eigenvalue GAMMA=   1.3081
  4.6530  1.7433  1.1855  1.1855  1.2528  0.8977  0.6494  0.5420  0.4860  0.4860

 Free energy of the ion-electron system (eV)
  ---------------------------------------------------
  alpha Z        PSCENC =        37.31534780
  Ewald energy   TEWEN  =     31603.84189142
  -Hartree energ DENC   =    -50497.92002317
  -exchange      EXHF   =         0.00000000
  -V(xc)+E(xc)   XCENC  =      -211.81159634
  PAW double counting   =     20554.79457684   -19712.86024532
  entropy T*S    EENTRO =         0.00000000
  eigenvalues    EBANDS =     -1512.32041505
  atomic energy  EATOM  =     19706.77397164
  ---------------------------------------------------
  free energy    TOTEN  =       -32.18649218 eV

  energy without entropy =      -32.18649218  energy(sigma->0) =      -32.18649218


--------------------------------------------------------------------------------------------------------




----------------------------------------- Iteration    1(  16)  ---------------------------------------


    POTLOK:  cpu time    0.22: real time    0.23
    SETDIJ:  cpu time    0.01: real time    0.01
     EDDAV:  cpu time    1.67: real time    1.67
       DOS:  cpu time    0.00: real time    0.00
    CHARGE:  cpu time    0.08: real time    0.07
    MIXING:  cpu time    0.01: real time    0.01
    --------------------------------------------
      LOOP:  cpu time    1.98: real time    1.99

 eigenvalue-minimisations  :   560
 total energy-change (2. order) :-0.1947962E+01  (-0.7336803E-01)
 number of electron     208.9999919 magnetization       1.9932532
 augmentation part      100.3081385 magnetization       0.8564300

 Broyden mixing:
  rms(total) = 0.83215E-01    rms(broyden)= 0.83208E-01
  rms(prec ) = 0.88920E-01
  weight for this iteration     100.00

 eigenvalues of (default mixing * dielectric matrix)
  average eigenvalue GAMMA=   1.5045
  6.6781  2.3426  1.3445  1.3445  1.0286  1.0286  0.6141  0.5857  0.5857  0.4983
  0.4983

 Free energy of the ion-electron system (eV)
  ---------------------------------------------------
  alpha Z        PSCENC =        37.31534780
  Ewald energy   TEWEN  =     31603.84189142
  -Hartree energ DENC   =    -50498.44316292
  -exchange      EXHF   =         0.00000000
  -V(xc)+E(xc)   XCENC  =      -213.32463148
  PAW double counting   =     20570.11698057   -19728.16902160
  entropy T*S    EENTRO =         0.00000000
  eigenvalues    EBANDS =     -1512.24582939
  atomic energy  EATOM  =     19706.77397164
  ---------------------------------------------------
  free energy    TOTEN  =       -34.13445396 eV

  energy without entropy =      -34.13445396  energy(sigma->0) =      -34.13445396


--------------------------------------------------------------------------------------------------------




----------------------------------------- Iteration    1(  17)  ---------------------------------------


    POTLOK:  cpu time    0.22: real time    0.23
    SETDIJ:  cpu time    0.01: real time    0.01
     EDDAV:  cpu time    1.70: real time    1.71
       DOS:  cpu time    0.00: real time    0.00
    CHARGE:  cpu time    0.08: real time    0.07
    MIXING:  cpu time    0.01: real time    0.01
    --------------------------------------------
      LOOP:  cpu time    2.03: real time    2.04

 eigenvalue-minimisations  :   576
 total energy-change (2. order) :-0.1154837E+01  (-0.3496715E-01)
 number of electron     208.9999919 magnetization       1.8041638
 augmentation part      100.3555937 magnetization       0.7626757

 Broyden mixing:
  rms(total) = 0.50838E-01    rms(broyden)= 0.50825E-01
  rms(prec ) = 0.54380E-01
  weight for this iteration     100.00

 eigenvalues of (default mixing * dielectric matrix)
  average eigenvalue GAMMA=   1.4491
  6.8434  2.0533  1.4765  1.2006  1.2006  0.9644  0.7466  0.7466  0.6292  0.5591
  0.4844  0.4844

 Free energy of the ion-electron system (eV)
  ---------------------------------------------------
  alpha Z        PSCENC =        37.31534780
  Ewald energy   TEWEN  =     31603.84189142
  -Hartree energ DENC   =    -50489.70074772
  -exchange      EXHF   =         0.00000000
  -V(xc)+E(xc)   XCENC  =      -214.48256420
  PAW double counting   =     20535.03459381   -19692.55486944
  entropy T*S    EENTRO =         0.00000000
  eigenvalues    EBANDS =     -1521.51691421
  atomic energy  EATOM  =     19706.77397164
  ---------------------------------------------------
  free energy    TOTEN  =       -35.28929091 eV

  energy without entropy =      -35.28929091  energy(sigma->0) =      -35.28929091


--------------------------------------------------------------------------------------------------------




----------------------------------------- Iteration    1(  18)  ---------------------------------------


    POTLOK:  cpu time    0.23: real time    0.23
    SETDIJ:  cpu time    0.00: real time    0.01
     EDDAV:  cpu time    1.72: real time    1.72
       DOS:  cpu time    0.00: real time    0.00
    CHARGE:  cpu time    0.07: real time    0.07
    MIXING:  cpu time    0.01: real time    0.01
    --------------------------------------------
      LOOP:  cpu time    2.04: real time    2.05

 eigenvalue-minimisations  :   584
 total energy-change (2. order) :-0.4181387E+00  (-0.3708682E-02)
 number of electron     208.9999919 magnetization       1.3566477
 augmentation part      100.3413853 magnetization       0.3163261

 Broyden mixing:
  rms(total) = 0.36453E-01    rms(broyden)= 0.36449E-01
  rms(prec ) = 0.40349E-01
  weight for this iteration     100.00

 eigenvalues of (default mixing * dielectric matrix)
  average eigenvalue GAMMA=   1.5549
  7.2851  2.2030  2.2030  1.3150  1.3150  1.4705  0.8810  0.7382  0.6099  0.6099
  0.6048  0.4889  0.4889

 Free energy of the ion-electron system (eV)
  ---------------------------------------------------
  alpha Z        PSCENC =        37.31534780
  Ewald energy   TEWEN  =     31603.84189142
  -Hartree energ DENC   =    -50486.32631252
  -exchange      EXHF   =         0.00000000
  -V(xc)+E(xc)   XCENC  =      -214.88948140
  PAW double counting   =     20546.76872836   -19704.32618206
  entropy T*S    EENTRO =        -0.00000000
  eigenvalues    EBANDS =     -1524.86539287
  atomic energy  EATOM  =     19706.77397164
  ---------------------------------------------------
  free energy    TOTEN  =       -35.70742963 eV

  energy without entropy =      -35.70742963  energy(sigma->0) =      -35.70742963


--------------------------------------------------------------------------------------------------------




----------------------------------------- Iteration    1(  19)  ---------------------------------------


    POTLOK:  cpu time    0.22: real time    0.23
    SETDIJ:  cpu time    0.01: real time    0.01
     EDDAV:  cpu time    1.67: real time    1.67
       DOS:  cpu time    0.00: real time    0.00
    CHARGE:  cpu time    0.08: real time    0.07
    MIXING:  cpu time    0.01: real time    0.01
    --------------------------------------------
      LOOP:  cpu time    1.99: real time    2.01

 eigenvalue-minimisations  :   560
 total energy-change (2. order) :-0.7607146E+00  (-0.6605458E-02)
 number of electron     208.9999919 magnetization       1.2368166
 augmentation part      100.3610236 magnetization       0.2046474

 Broyden mixing:
  rms(total) = 0.14625E-01    rms(broyden)= 0.14612E-01
  rms(prec ) = 0.17491E-01
  weight for this iteration     100.00

 eigenvalues of (default mixing * dielectric matrix)
  average eigenvalue GAMMA=   1.6116
  7.7271  3.2646  1.8799  1.8799  1.3043  1.3043  0.8363  0.8363  0.4885  0.4885
  0.7620  0.6222  0.5843  0.5843

 Free energy of the ion-electron system (eV)
  ---------------------------------------------------
  alpha Z        PSCENC =        37.31534780
  Ewald energy   TEWEN  =     31603.84189142
  -Hartree energ DENC   =    -50475.05059028
  -exchange      EXHF   =         0.00000000
  -V(xc)+E(xc)   XCENC  =      -215.74529442
  PAW double counting   =     20543.61800110   -19700.86399424
  entropy T*S    EENTRO =        -0.00000000
  eigenvalues    EBANDS =     -1536.35747722
  atomic energy  EATOM  =     19706.77397164
  ---------------------------------------------------
  free energy    TOTEN  =       -36.46814420 eV

  energy without entropy =      -36.46814420  energy(sigma->0) =      -36.46814420


--------------------------------------------------------------------------------------------------------




----------------------------------------- Iteration    1(  20)  ---------------------------------------


    POTLOK:  cpu time    0.22: real time    0.22
    SETDIJ:  cpu time    0.01: real time    0.01
     EDDAV:  cpu time    1.78: real time    1.78
       DOS:  cpu time    0.00: real time    0.00
    CHARGE:  cpu time    0.07: real time    0.07
    MIXING:  cpu time    0.01: real time    0.01
    --------------------------------------------
      LOOP:  cpu time    2.10: real time    2.11

 eigenvalue-minimisations  :   608
 total energy-change (2. order) :-0.2018693E+00  (-0.7244481E-03)
 number of electron     208.9999919 magnetization       1.1409284
 augmentation part      100.3611345 magnetization       0.1089929

 Broyden mixing:
  rms(total) = 0.12433E-01    rms(broyden)= 0.12429E-01
  rms(prec ) = 0.14400E-01
  weight for this iteration     100.00

 eigenvalues of (default mixing * dielectric matrix)
  average eigenvalue GAMMA=   1.5880
  7.9218  3.4332  2.0822  1.3105  1.3105  1.3645  1.0910  1.0910  0.8066  0.4887
  0.4887  0.6213  0.6213  0.6248  0.5640

 Free energy of the ion-electron system (eV)
  ---------------------------------------------------
  alpha Z        PSCENC =        37.31534780
  Ewald energy   TEWEN  =     31603.84189142
  -Hartree energ DENC   =    -50470.62548882
  -exchange      EXHF   =         0.00000000
  -V(xc)+E(xc)   XCENC  =      -215.97744205
  PAW double counting   =     20542.52240209   -19699.67474544
  entropy T*S    EENTRO =         0.00000000
  eigenvalues    EBANDS =     -1540.84595017
  atomic energy  EATOM  =     19706.77397164
  ---------------------------------------------------
  free energy    TOTEN  =       -36.67001353 eV

  energy without entropy =      -36.67001353  energy(sigma->0) =      -36.67001353


--------------------------------------------------------------------------------------------------------




----------------------------------------- Iteration    1(  21)  ---------------------------------------


    POTLOK:  cpu time    0.22: real time    0.23
    SETDIJ:  cpu time    0.01: real time    0.01
     EDDAV:  cpu time    1.66: real time    1.66
       DOS:  cpu time    0.00: real time    0.00
    CHARGE:  cpu time    0.08: real time    0.07
    MIXING:  cpu time    0.01: real time    0.01
    --------------------------------------------
      LOOP:  cpu time    1.98: real time    1.98

 eigenvalue-minimisations  :   552
 total energy-change (2. order) :-0.6617713E-01  (-0.2302746E-03)
 number of electron     208.9999919 magnetization       1.0587007
 augmentation part      100.3628992 magnetization       0.0298902

 Broyden mixing:
  rms(total) = 0.78970E-02    rms(broyden)= 0.78961E-02
  rms(prec ) = 0.98702E-02
  weight for this iteration     100.00

 eigenvalues of (default mixing * dielectric matrix)
  average eigenvalue GAMMA=   1.6519
  7.9677  3.8488  2.3245  1.8309  1.8309  1.2738  1.2738  0.9669  0.9669  0.4887
  0.4887  0.6601  0.6601  0.6902  0.5796  0.5796

 Free energy of the ion-electron system (eV)
  ---------------------------------------------------
  alpha Z        PSCENC =        37.31534780
  Ewald energy   TEWEN  =     31603.84189142
  -Hartree energ DENC   =    -50468.29466185
  -exchange      EXHF   =         0.00000000
  -V(xc)+E(xc)   XCENC  =      -216.06255650
  PAW double counting   =     20542.47076719   -19699.63653896
  entropy T*S    EENTRO =         0.00000000
  eigenvalues    EBANDS =     -1543.14441141
  atomic energy  EATOM  =     19706.77397164
  ---------------------------------------------------
  free energy    TOTEN  =       -36.73619067 eV

  energy without entropy =      -36.73619067  energy(sigma->0) =      -36.73619067


--------------------------------------------------------------------------------------------------------




----------------------------------------- Iteration    1(  22)  ---------------------------------------


    POTLOK:  cpu time    0.22: real time    0.23
    SETDIJ:  cpu time    0.01: real time    0.01
     EDDAV:  cpu time    1.69: real time    1.69
       DOS:  cpu time    0.00: real time    0.00
    CHARGE:  cpu time    0.08: real time    0.08
    MIXING:  cpu time    0.02: real time    0.01
    --------------------------------------------
      LOOP:  cpu time    2.02: real time    2.15

 eigenvalue-minimisations  :   568
 total energy-change (2. order) :-0.7005605E-01  (-0.3837833E-03)
 number of electron     208.9999919 magnetization       1.0510359
 augmentation part      100.3634474 magnetization       0.0219869

 Broyden mixing:
  rms(total) = 0.31453E-02    rms(broyden)= 0.31435E-02
  rms(prec ) = 0.46991E-02
  weight for this iteration     100.00

 eigenvalues of (default mixing * dielectric matrix)
  average eigenvalue GAMMA=   1.6599
  8.0481  4.4275  2.3111  1.9025  1.9025  1.2813  1.2813  1.2034  0.9313  0.4887
  0.4887  0.7256  0.7256  0.6661  0.6661  0.5842  0.5842

 Free energy of the ion-electron system (eV)
  ---------------------------------------------------
  alpha Z        PSCENC =        37.31534780
  Ewald energy   TEWEN  =     31603.84189142
  -Hartree energ DENC   =    -50464.10600715
  -exchange      EXHF   =         0.00000000
  -V(xc)+E(xc)   XCENC  =      -216.16192548
  PAW double counting   =     20545.14936588   -19702.34183450
  entropy T*S    EENTRO =         0.00000000
  eigenvalues    EBANDS =     -1547.27705632
  atomic energy  EATOM  =     19706.77397164
  ---------------------------------------------------
  free energy    TOTEN  =       -36.80624671 eV

  energy without entropy =      -36.80624671  energy(sigma->0) =      -36.80624671


--------------------------------------------------------------------------------------------------------




----------------------------------------- Iteration    1(  23)  ---------------------------------------


    POTLOK:  cpu time    0.22: real time    0.23
    SETDIJ:  cpu time    0.01: real time    0.01
     EDDAV:  cpu time    1.34: real time    1.35
       DOS:  cpu time    0.00: real time    0.00
    CHARGE:  cpu time    0.08: real time    0.07
    MIXING:  cpu time    0.02: real time    0.01
    --------------------------------------------
      LOOP:  cpu time    1.67: real time    1.68

 eigenvalue-minimisations  :   408
 total energy-change (2. order) :-0.1066999E-01  (-0.4209932E-04)
 number of electron     208.9999919 magnetization       1.0419637
 augmentation part      100.3636516 magnetization       0.0116873

 Broyden mixing:
  rms(total) = 0.29120E-02    rms(broyden)= 0.29117E-02
  rms(prec ) = 0.39110E-02
  weight for this iteration     100.00

 eigenvalues of (default mixing * dielectric matrix)
  average eigenvalue GAMMA=   1.6657
  8.0262  4.7502  2.6099  2.0106  1.6231  1.6231  1.2652  1.2652  0.9339  0.9339
  0.4887  0.4887  0.8476  0.6602  0.6602  0.5877  0.5877  0.6210

 Free energy of the ion-electron system (eV)
  ---------------------------------------------------
  alpha Z        PSCENC =        37.31534780
  Ewald energy   TEWEN  =     31603.84189142
  -Hartree energ DENC   =    -50462.45587069
  -exchange      EXHF   =         0.00000000
  -V(xc)+E(xc)   XCENC  =      -216.18234741
  PAW double counting   =     20546.35592558   -19703.55426260
  entropy T*S    EENTRO =         0.00000000
  eigenvalues    EBANDS =     -1548.91157246
  atomic energy  EATOM  =     19706.77397164
  ---------------------------------------------------
  free energy    TOTEN  =       -36.81691671 eV

  energy without entropy =      -36.81691671  energy(sigma->0) =      -36.81691671


--------------------------------------------------------------------------------------------------------




----------------------------------------- Iteration    1(  24)  ---------------------------------------


    POTLOK:  cpu time    0.22: real time    0.23
    SETDIJ:  cpu time    0.01: real time    0.01
     EDDAV:  cpu time    1.31: real time    1.31
       DOS:  cpu time    0.00: real time    0.00
    CHARGE:  cpu time    0.08: real time    0.07
    MIXING:  cpu time    0.01: real time    0.02
    --------------------------------------------
      LOOP:  cpu time    1.63: real time    1.65

 eigenvalue-minimisations  :   392
 total energy-change (2. order) :-0.3368064E-02  (-0.3175563E-04)
 number of electron     208.9999919 magnetization       1.0126526
 augmentation part      100.3646968 magnetization      -0.0178855

 Broyden mixing:
  rms(total) = 0.22869E-02    rms(broyden)= 0.22867E-02
  rms(prec ) = 0.29258E-02
  weight for this iteration     100.00

 eigenvalues of (default mixing * dielectric matrix)
  average eigenvalue GAMMA=   1.6842
  8.1216  4.9742  2.5141  2.5141  1.6894  1.6894  1.2696  1.2696  1.2348  1.0019
  0.4887  0.4887  0.8235  0.7824  0.6556  0.6556  0.6498  0.5880  0.5880

 Free energy of the ion-electron system (eV)
  ---------------------------------------------------
  alpha Z        PSCENC =        37.31534780
  Ewald energy   TEWEN  =     31603.84189142
  -Hartree energ DENC   =    -50461.00670751
  -exchange      EXHF   =         0.00000000
  -V(xc)+E(xc)   XCENC  =      -216.19442243
  PAW double counting   =     20546.84641076   -19704.04692415
  entropy T*S    EENTRO =         0.00000000
  eigenvalues    EBANDS =     -1550.34985230
  atomic energy  EATOM  =     19706.77397164
  ---------------------------------------------------
  free energy    TOTEN  =       -36.82028477 eV

  energy without entropy =      -36.82028477  energy(sigma->0) =      -36.82028477


--------------------------------------------------------------------------------------------------------




----------------------------------------- Iteration    1(  25)  ---------------------------------------


    POTLOK:  cpu time    0.22: real time    0.22
    SETDIJ:  cpu time    0.01: real time    0.01
     EDDAV:  cpu time    1.31: real time    1.31
       DOS:  cpu time    0.00: real time    0.00
    CHARGE:  cpu time    0.07: real time    0.07
    MIXING:  cpu time    0.02: real time    0.02
    --------------------------------------------
      LOOP:  cpu time    1.64: real time    1.64

 eigenvalue-minimisations  :   392
 total energy-change (2. order) :-0.4727423E-03  (-0.2564866E-04)
 number of electron     208.9999919 magnetization       1.0063510
 augmentation part      100.3663059 magnetization      -0.0230079

 Broyden mixing:
  rms(total) = 0.14772E-02    rms(broyden)= 0.14769E-02
  rms(prec ) = 0.18492E-02
  weight for this iteration     100.00

 eigenvalues of (default mixing * dielectric matrix)
  average eigenvalue GAMMA=   1.6781
  8.1029  5.2464  2.7730  2.3702  1.8617  1.5386  1.5386  1.2698  1.2698  1.0279
  0.8786  0.8786  0.4887  0.4887  0.7331  0.6502  0.6502  0.6301  0.5822  0.5822

 Free energy of the ion-electron system (eV)
  ---------------------------------------------------
  alpha Z        PSCENC =        37.31534780
  Ewald energy   TEWEN  =     31603.84189142
  -Hartree energ DENC   =    -50459.64557117
  -exchange      EXHF   =         0.00000000
  -V(xc)+E(xc)   XCENC  =      -216.20479805
  PAW double counting   =     20546.39855674   -19703.59532985
  entropy T*S    EENTRO =         0.00000000
  eigenvalues    EBANDS =     -1551.70482604
  atomic energy  EATOM  =     19706.77397164
  ---------------------------------------------------
  free energy    TOTEN  =       -36.82075751 eV

  energy without entropy =      -36.82075751  energy(sigma->0) =      -36.82075751


--------------------------------------------------------------------------------------------------------




----------------------------------------- Iteration    1(  26)  ---------------------------------------


    POTLOK:  cpu time    0.22: real time    0.22
    SETDIJ:  cpu time    0.01: real time    0.01
     EDDAV:  cpu time    1.33: real time    1.33
       DOS:  cpu time    0.00: real time    0.00
    CHARGE:  cpu time    0.08: real time    0.07
    MIXING:  cpu time    0.02: real time    0.02
    --------------------------------------------
      LOOP:  cpu time    1.66: real time    1.67

 eigenvalue-minimisations  :   400
 total energy-change (2. order) :-0.1598372E-02  (-0.4568515E-05)
 number of electron     208.9999919 magnetization       0.9995120
 augmentation part      100.3663794 magnetization      -0.0294878

 Broyden mixing:
  rms(total) = 0.10366E-02    rms(broyden)= 0.10366E-02
  rms(prec ) = 0.13207E-02
  weight for this iteration     100.00

 eigenvalues of (default mixing * dielectric matrix)
  average eigenvalue GAMMA=   1.6921
  8.0605  5.5241  3.0116  2.3683  2.3683  1.2646  1.2646  1.4032  1.4032  1.3804
  0.9495  0.9495  0.4887  0.4887  0.7971  0.6595  0.6595  0.6958  0.5866  0.5866
  0.6231

 Free energy of the ion-electron system (eV)
  ---------------------------------------------------
  alpha Z        PSCENC =        37.31534780
  Ewald energy   TEWEN  =     31603.84189142
  -Hartree energ DENC   =    -50459.22640648
  -exchange      EXHF   =         0.00000000
  -V(xc)+E(xc)   XCENC  =      -216.20816521
  PAW double counting   =     20546.50880446   -19703.71141557
  entropy T*S    EENTRO =         0.00000000
  eigenvalues    EBANDS =     -1552.11638395
  atomic energy  EATOM  =     19706.77397164
  ---------------------------------------------------
  free energy    TOTEN  =       -36.82235588 eV

  energy without entropy =      -36.82235588  energy(sigma->0) =      -36.82235588


--------------------------------------------------------------------------------------------------------




----------------------------------------- Iteration    1(  27)  ---------------------------------------


    POTLOK:  cpu time    0.22: real time    0.22
    SETDIJ:  cpu time    0.01: real time    0.01
     EDDAV:  cpu time    1.29: real time    1.29
       DOS:  cpu time    0.00: real time    0.00
    CHARGE:  cpu time    0.07: real time    0.07
    MIXING:  cpu time    0.02: real time    0.02
    --------------------------------------------
      LOOP:  cpu time    1.62: real time    1.64

 eigenvalue-minimisations  :   384
 total energy-change (2. order) :-0.1665176E-02  (-0.5150479E-05)
 number of electron     208.9999919 magnetization       0.9953643
 augmentation part      100.3662541 magnetization      -0.0332764

 Broyden mixing:
  rms(total) = 0.44552E-03    rms(broyden)= 0.44540E-03
  rms(prec ) = 0.64886E-03
  weight for this iteration     100.00

 eigenvalues of (default mixing * dielectric matrix)
  average eigenvalue GAMMA=   1.7381
  8.1031  5.7618  3.8622  2.4559  2.4559  1.6318  1.5502  1.5502  1.2659  1.2659
  1.0900  0.4887  0.4887  0.8841  0.8239  0.8239  0.6538  0.6538  0.5863  0.5962
  0.5962  0.6494

 Free energy of the ion-electron system (eV)
  ---------------------------------------------------
  alpha Z        PSCENC =        37.31534780
  Ewald energy   TEWEN  =     31603.84189142
  -Hartree energ DENC   =    -50458.72711653
  -exchange      EXHF   =         0.00000000
  -V(xc)+E(xc)   XCENC  =      -216.21165550
  PAW double counting   =     20546.79335068   -19703.99870423
  entropy T*S    EENTRO =         0.00000000
  eigenvalues    EBANDS =     -1552.61110634
  atomic energy  EATOM  =     19706.77397164
  ---------------------------------------------------
  free energy    TOTEN  =       -36.82402106 eV

  energy without entropy =      -36.82402106  energy(sigma->0) =      -36.82402106


--------------------------------------------------------------------------------------------------------




----------------------------------------- Iteration    1(  28)  ---------------------------------------


    POTLOK:  cpu time    0.22: real time    0.22
    SETDIJ:  cpu time    0.01: real time    0.01
     EDDAV:  cpu time    1.31: real time    1.31
       DOS:  cpu time    0.00: real time    0.00
    CHARGE:  cpu time    0.08: real time    0.07
    MIXING:  cpu time    0.02: real time    0.02
    --------------------------------------------
      LOOP:  cpu time    1.64: real time    1.66

 eigenvalue-minimisations  :   392
 total energy-change (2. order) :-0.5461265E-03  (-0.2015784E-05)
 number of electron     208.9999919 magnetization       0.9983591
 augmentation part      100.3662085 magnetization      -0.0300327

 Broyden mixing:
  rms(total) = 0.38590E-03    rms(broyden)= 0.38583E-03
  rms(prec ) = 0.49433E-03
  weight for this iteration     100.00

 eigenvalues of (default mixing * dielectric matrix)
  average eigenvalue GAMMA=   1.7700
  7.9521  6.5181  4.3544  2.4454  2.4454  2.0869  1.5498  1.5498  1.2665  1.2665
  1.0687  1.0687  0.4887  0.4887  0.8391  0.8391  0.7646  0.6511  0.6511  0.5918
  0.5918  0.5904  0.6420

 Free energy of the ion-electron system (eV)
  ---------------------------------------------------
  alpha Z        PSCENC =        37.31534780
  Ewald energy   TEWEN  =     31603.84189142
  -Hartree energ DENC   =    -50458.44483029
  -exchange      EXHF   =         0.00000000
  -V(xc)+E(xc)   XCENC  =      -216.21313670
  PAW double counting   =     20546.96462251   -19704.16996567
  entropy T*S    EENTRO =         0.00000000
  eigenvalues    EBANDS =     -1552.89246790
  atomic energy  EATOM  =     19706.77397164
  ---------------------------------------------------
  free energy    TOTEN  =       -36.82456719 eV

  energy without entropy =      -36.82456719  energy(sigma->0) =      -36.82456719


--------------------------------------------------------------------------------------------------------




----------------------------------------- Iteration    1(  29)  ---------------------------------------


    POTLOK:  cpu time    0.22: real time    0.22
    SETDIJ:  cpu time    0.01: real time    0.01
     EDDAV:  cpu time    1.26: real time    1.26
       DOS:  cpu time    0.00: real time    0.00
    --------------------------------------------
      LOOP:  cpu time    1.49: real time    1.51

 eigenvalue-minimisations  :   368
 total energy-change (2. order) :-0.9194165E-04  (-0.5181891E-06)
 number of electron     208.9999919 magnetization       0.9983591
 augmentation part      100.3662085 magnetization      -0.0300327

 Free energy of the ion-electron system (eV)
  ---------------------------------------------------
  alpha Z        PSCENC =        37.31534780
  Ewald energy   TEWEN  =     31603.84189142
  -Hartree energ DENC   =    -50458.34192436
  -exchange      EXHF   =         0.00000000
  -V(xc)+E(xc)   XCENC  =      -216.21311287
  PAW double counting   =     20547.10460699   -19704.30914792
  entropy T*S    EENTRO =        -0.00000000
  eigenvalues    EBANDS =     -1552.99629182
  atomic energy  EATOM  =     19706.77397164
  ---------------------------------------------------
  free energy    TOTEN  =       -36.82465913 eV

  energy without entropy =      -36.82465913  energy(sigma->0) =      -36.82465913


--------------------------------------------------------------------------------------------------------




 average (electrostatic) potential at core
  the test charge radii are     1.1249
  (the norm of the test charge is              1.0000)
       1 -82.3692       2 -82.2269       3 -82.1559       4 -82.3578       5 -82.4598
       6 -82.3142       7 -82.4437       8 -82.4906       9 -82.3523      10 -82.3350
      11 -82.2413      12 -82.7868      13 -82.2866      14 -82.2611      15 -82.3053
      16 -82.4931      17 -82.4549      18 -82.4021      19 -82.2530
 
 
 
 E-fermi :  -3.4085     XC(G=0):  -0.9188     alpha+bet : -0.5300


 spin component 1

 k-point     1 :       0.0000    0.0000    0.0000
  band No.  band energies     occupation 
      1      -9.7722      1.00000
      2      -9.3729      1.00000
      3      -9.3376      1.00000
      4      -9.2827      1.00000
      5      -9.1505      1.00000
      6      -9.1184      1.00000
      7      -9.0624      1.00000
      8      -9.0125      1.00000
      9      -8.9364      1.00000
     10      -8.8798      1.00000
     11      -8.7918      1.00000
     12      -8.7747      1.00000
     13      -8.7182      1.00000
     14      -8.6615      1.00000
     15      -8.6474      1.00000
     16      -8.6162      1.00000
     17      -8.5790      1.00000
     18      -8.5584      1.00000
     19      -8.5119      1.00000
     20      -8.5006      1.00000
     21      -8.4458      1.00000
     22      -8.4272      1.00000
     23      -8.3982      1.00000
     24      -8.3607      1.00000
     25      -8.3345      1.00000
     26      -8.3084      1.00000
     27      -8.2745      1.00000
     28      -8.2419      1.00000
     29      -8.2105      1.00000
     30      -8.1936      1.00000
     31      -8.1668      1.00000
     32      -8.1347      1.00000
     33      -8.0686      1.00000
     34      -8.0424      1.00000
     35      -7.9933      1.00000
     36      -7.9784      1.00000
     37      -7.9234      1.00000
     38      -7.9160      1.00000
     39      -7.8948      1.00000
     40      -7.8784      1.00000
     41      -7.8168      1.00000
     42      -7.7788      1.00000
     43      -7.7468      1.00000
     44      -7.7149      1.00000
     45      -7.6478      1.00000
     46      -7.5896      1.00000
     47      -7.5368      1.00000
     48      -7.5129      1.00000
     49      -7.4729      1.00000
     50      -7.4251      1.00000
     51      -7.3775      1.00000
     52      -7.3536      1.00000
     53      -7.2994      1.00000
     54      -7.2631      1.00000
     55      -7.2379      1.00000
     56      -7.2121      1.00000
     57      -7.1919      1.00000
     58      -7.1757      1.00000
     59      -7.1459      1.00000
     60      -7.1387      1.00000
     61      -7.1118      1.00000
     62      -7.0937      1.00000
     63      -7.0839      1.00000
     64      -7.0797      1.00000
     65      -7.0659      1.00000
     66      -7.0462      1.00000
     67      -7.0238      1.00000
     68      -7.0206      1.00000
     69      -7.0162      1.00000
     70      -6.9887      1.00000
     71      -6.9634      1.00000
     72      -6.9301      1.00000
     73      -6.9128      1.00000
     74      -6.9040      1.00000
     75      -6.8859      1.00000
     76      -6.8817      1.00000
     77      -6.8432      1.00000
     78      -6.8155      1.00000
     79      -6.8028      1.00000
     80      -6.7754      1.00000
     81      -6.7514      1.00000
     82      -6.7299      1.00000
     83      -6.6954      1.00000
     84      -6.6789      1.00000
     85      -6.6664      1.00000
     86      -6.6367      1.00000
     87      -6.6280      1.00000
     88      -6.5832      1.00000
     89      -6.5533      1.00000
     90      -6.5454      1.00000
     91      -6.5216      1.00000
     92      -6.5083      1.00000
     93      -6.4693      1.00000
     94      -6.4393      1.00000
     95      -6.4195      1.00000
     96      -6.3514      1.00000
     97      -6.3257      1.00000
     98      -6.2305      1.00000
     99      -5.9065      1.00000
    100      -5.2498      1.00000
    101      -5.0039      1.00000
    102      -4.5072      1.00000
    103      -4.1033      1.00000
    104      -3.7772      1.00000
    105      -3.4091      1.00000
    106      -3.2523      0.00000
    107      -3.0325      0.00000
    108      -2.7586      0.00000
    109      -2.5126      0.00000
    110      -2.3027      0.00000
    111      -2.2210      0.00000
    112      -1.7624      0.00000
    113      -1.5778      0.00000
    114      -1.4109      0.00000
    115      -1.3224      0.00000
    116      -1.2003      0.00000
    117      -1.1541      0.00000
    118      -1.0300      0.00000
    119      -0.8143      0.00000
    120      -0.7052      0.00000
    121      -0.6442      0.00000
    122      -0.3903      0.00000
    123      -0.1912      0.00000
    124      -0.0336      0.00000
    125       0.2847      0.00000
    126       0.3850      0.00000
    127       0.5342      0.00000
    128       0.5758      0.00000
    129       0.6491      0.00000
    130       0.6708      0.00000
    131       0.7079      0.00000
    132       0.7343      0.00000
    133       0.7390      0.00000
    134       0.7798      0.00000
    135       0.8232      0.00000
    136       0.8796      0.00000

 spin component 2

 k-point     1 :       0.0000    0.0000    0.0000
  band No.  band energies     occupation 
      1      -9.7453      1.00000
      2      -9.3535      1.00000
      3      -9.3208      1.00000
      4      -9.2663      1.00000
[...]
     49      -7.4160      1.00000
     50      -7.3588      1.00000
     51      -7.3183      1.00000
     52      -7.2764      1.00000
     53      -7.2536      1.00000
     54      -7.2279      1.00000
     55      -7.1884      1.00000
     56      -7.1437      1.00000
     57      -7.1297      1.00000
     58      -7.1164      1.00000
     59      -7.1044      1.00000
     60      -7.0854      1.00000
     61      -7.0778      1.00000
     62      -7.0527      1.00000
     63      -7.0411      1.00000
     64      -7.0317      1.00000
     65      -7.0291      1.00000
     66      -6.9989      1.00000
     67      -6.9797      1.00000
     68      -6.9657      1.00000
     69      -6.9535      1.00000
     70      -6.9470      1.00000
     71      -6.9290      1.00000
     72      -6.9218      1.00000
     73      -6.8877      1.00000
     74      -6.8668      1.00000
     75      -6.8545      1.00000
     76      -6.8404      1.00000
     77      -6.8090      1.00000
     78      -6.7759      1.00000
     79      -6.7593      1.00000
     80      -6.7485      1.00000
     81      -6.7347      1.00000
     82      -6.6972      1.00000
     83      -6.6775      1.00000
     84      -6.6622      1.00000
     85      -6.6362      1.00000
     86      -6.6120      1.00000
     87      -6.5933      1.00000
     88      -6.5671      1.00000
     89      -6.5427      1.00000
     90      -6.5266      1.00000
     91      -6.4854      1.00000
     92      -6.4596      1.00000
     93      -6.4394      1.00000
     94      -6.4112      1.00000
     95      -6.3970      1.00000
     96      -6.3343      1.00000
     97      -6.2986      1.00000
     98      -6.1722      1.00000
     99      -5.8837      1.00000
    100      -5.2156      1.00000
    101      -4.8578      1.00000
    102      -4.4115      1.00000
    103      -4.0980      1.00000
    104      -3.8583      1.00000
    105      -3.2904      0.00000
    106      -3.1455      0.00000
    107      -2.9714      0.00000
    108      -2.5974      0.00000
    109      -2.5110      0.00000
    110      -2.2837      0.00000
    111      -2.2002      0.00000
    112      -1.7800      0.00000
    113      -1.4989      0.00000
    114      -1.4242      0.00000
    115      -1.2484      0.00000
    116      -1.1307      0.00000
    117      -1.0131      0.00000
    118      -0.9254      0.00000
    119      -0.7252      0.00000
    120      -0.6406      0.00000
    121      -0.5929      0.00000
    122      -0.3580      0.00000
    123      -0.1924      0.00000
    124       0.0494      0.00000
    125       0.2598      0.00000
    126       0.3744      0.00000
    127       0.4984      0.00000
    128       0.5380      0.00000
    129       0.6671      0.00000
    130       0.6748      0.00000
    131       0.6938      0.00000
    132       0.7097      0.00000
    133       0.7585      0.00000
    134       0.7823      0.00000
    135       0.8446      0.00000
    136       0.8998      0.00000


--------------------------------------------------------------------------------------------------------


 soft charge-density along one line, spin component           1
         0         1         2         3         4         5         6         7         8         9
 total charge-density along one line
 
 soft charge-density along one line, spin component           2
         0         1         2         3         4         5         6         7         8         9
 total charge-density along one line
 
 pseudopotential strength for first ion, spin component:           1
-10.394   0.006   0.002  -0.000   0.000 -10.365   0.006   0.002
  0.006 -10.383  -0.001   0.004   0.001   0.006 -10.355  -0.001
  0.002  -0.001 -10.385   0.004   0.007   0.002  -0.001 -10.357
 -0.000   0.004   0.004 -10.388   0.006  -0.000   0.004   0.004
  0.000   0.001   0.007   0.006 -10.391   0.000   0.001   0.007
-10.365   0.006   0.002  -0.000   0.000 -10.312   0.006   0.002
  0.006 -10.355  -0.001   0.004   0.001   0.006 -10.302  -0.001
  0.002  -0.001 -10.357   0.004   0.007   0.002  -0.001 -10.305
 -0.000   0.004   0.004 -10.359   0.005  -0.000   0.004   0.004
  0.000   0.001   0.007   0.005 -10.362   0.000   0.001   0.006
  0.000  -0.001  -0.002  -0.003   0.000   0.000  -0.001  -0.002
  0.000  -0.003  -0.003  -0.004   0.000   0.000  -0.002  -0.003
  0.027  -0.013   0.007  -0.000   0.012   0.026  -0.013   0.007
 -0.000  -0.012  -0.016   0.028   0.000  -0.000  -0.011  -0.015
 -0.012  -0.000  -0.016  -0.013   0.027  -0.011  -0.000  -0.015
  0.034  -0.016   0.008  -0.000   0.014   0.032  -0.015   0.008
 -0.000  -0.015  -0.019   0.034   0.000  -0.000  -0.014  -0.018
 -0.014  -0.000  -0.019  -0.016   0.034  -0.014  -0.000  -0.018
 pseudopotential strength for first ion, spin component:           2
-10.393   0.005   0.003   0.000  -0.000 -10.364   0.005   0.003
  0.005 -10.381  -0.003   0.004   0.002   0.005 -10.353  -0.002
  0.003  -0.003 -10.384   0.004   0.006   0.003  -0.002 -10.356
  0.000   0.004   0.004 -10.388   0.005   0.000   0.004   0.004
 -0.000   0.002   0.006   0.005 -10.390  -0.000   0.002   0.006
-10.364   0.005   0.003   0.000  -0.000 -10.312   0.005   0.002
  0.005 -10.353  -0.002   0.004   0.002   0.005 -10.301  -0.002
  0.003  -0.002 -10.356   0.004   0.006   0.002  -0.002 -10.304
  0.000   0.004   0.004 -10.359   0.005  -0.000   0.003   0.004
 -0.000   0.002   0.006   0.005 -10.361  -0.000   0.002   0.006
  0.000  -0.001  -0.002  -0.002   0.000   0.000  -0.001  -0.002
  0.001  -0.002  -0.004  -0.004   0.000   0.000  -0.002  -0.004
  0.028  -0.014   0.007  -0.000   0.011   0.027  -0.013   0.007
 -0.000  -0.011  -0.016   0.028   0.000  -0.000  -0.011  -0.016
 -0.012  -0.000  -0.016  -0.013   0.028  -0.011  -0.000  -0.015
  0.034  -0.017   0.008   0.000   0.014   0.033  -0.016   0.008
  0.000  -0.014  -0.020   0.034   0.000   0.000  -0.013  -0.019
 -0.015   0.000  -0.020  -0.016   0.034  -0.014   0.000  -0.019
 total augmentation occupancy for first ion, spin component:           1
  2.604  -0.137   0.144  -0.039   0.076  -0.654   0.147  -0.093   0.064  -0.072   0.015  -0.027   0.125  -0.031  -0.013   0.008
 -0.137   2.597  -0.047   0.032  -0.082   0.147  -0.612   0.036   0.008   0.066   0.154   0.001  -0.090  -0.008  -0.018  -0.003
  0.144  -0.047   2.709  -0.135   0.028  -0.093   0.036  -0.693   0.154  -0.015   0.207  -0.036   0.092  -0.107  -0.053  -0.001
 -0.039   0.032  -0.135   2.644  -0.048   0.064   0.008   0.154  -0.607   0.060   0.234  -0.077  -0.029   0.113  -0.042   0.001
  0.076  -0.082   0.028  -0.048   2.915  -0.073   0.066  -0.015   0.060  -0.906   0.058   0.005   0.137   0.008   0.117  -0.001
 -0.654   0.147  -0.093   0.064  -0.073   0.673  -0.157   0.050  -0.085   0.071  -0.005   0.020  -0.144   0.028   0.022   0.009
  0.147  -0.612   0.036   0.008   0.066  -0.157   0.598  -0.026  -0.042  -0.055  -0.144   0.008   0.101   0.022   0.018  -0.006
 -0.093   0.036  -0.693   0.154  -0.015   0.050  -0.026   0.653  -0.170   0.005  -0.183   0.031  -0.092   0.122   0.069   0.005
  0.064   0.008   0.154  -0.607   0.060  -0.085  -0.042  -0.170   0.551  -0.071  -0.206   0.064   0.027  -0.135   0.052  -0.001
 -0.072   0.066  -0.015   0.060  -0.906   0.071  -0.055   0.005  -0.071   0.874  -0.063   0.007  -0.145  -0.011  -0.141   0.008
  0.015   0.154   0.207   0.234   0.058  -0.005  -0.144  -0.183  -0.206  -0.063   1.809  -0.250   0.097   0.115  -0.199  -0.009
 -0.027   0.001  -0.036  -0.077   0.005   0.020   0.008   0.031   0.064   0.007  -0.250   0.049  -0.022  -0.026   0.038   0.002
  0.125  -0.090   0.092  -0.029   0.137  -0.144   0.101  -0.092   0.027  -0.145   0.097  -0.022   0.097  -0.016   0.004  -0.006
 -0.031  -0.008  -0.107   0.113   0.008   0.028   0.022   0.122  -0.135  -0.011   0.115  -0.026  -0.016   0.067  -0.006   0.001
 -0.013  -0.018  -0.053  -0.042   0.117   0.022   0.018   0.069   0.052  -0.141  -0.199   0.038   0.004  -0.006   0.066   0.000
  0.008  -0.003  -0.001   0.001  -0.001   0.009  -0.006   0.005  -0.001   0.008  -0.009   0.002  -0.006   0.001   0.000   0.001
  0.001  -0.006  -0.004   0.009   0.000  -0.001  -0.001  -0.006   0.008   0.000  -0.011   0.002   0.001  -0.004   0.001   0.000
 -0.005   0.001  -0.006  -0.004   0.010  -0.002  -0.001  -0.004  -0.004   0.008   0.018  -0.003   0.000   0.001  -0.005  -0.000
 total augmentation occupancy for first ion, spin component:           2
 -0.002  -0.019   0.009   0.008  -0.015  -0.000   0.014  -0.008  -0.006   0.012   0.001  -0.001   0.007  -0.002  -0.007  -0.000
 -0.019   0.026  -0.026  -0.001   0.026   0.014  -0.023   0.021   0.002  -0.021   0.014   0.001  -0.013   0.007   0.011   0.000
  0.009  -0.026   0.015   0.007  -0.023  -0.008   0.021  -0.013  -0.006   0.017  -0.007  -0.001   0.010  -0.004  -0.010  -0.000
  0.008  -0.001   0.007  -0.009  -0.006  -0.006   0.002  -0.006   0.005   0.004  -0.004  -0.001   0.003  -0.002  -0.001  -0.000
 -0.015   0.026  -0.023  -0.006   0.011   0.012  -0.021   0.017   0.004  -0.011   0.008   0.002  -0.011   0.006   0.009   0.000
 -0.000   0.014  -0.008  -0.006   0.012   0.003  -0.010   0.007   0.004  -0.009  -0.002   0.001  -0.005   0.002   0.005   0.000
  0.014  -0.023   0.021   0.002  -0.021  -0.010   0.020  -0.016  -0.003   0.017  -0.011  -0.000   0.011  -0.006  -0.008  -0.000
 -0.008   0.021  -0.013  -0.006   0.017   0.007  -0.016   0.011   0.005  -0.014   0.005   0.001  -0.008   0.003   0.007   0.000
 -0.006   0.002  -0.006   0.005   0.004   0.004  -0.003   0.005  -0.002  -0.003   0.005  -0.000  -0.003   0.002   0.001   0.000
  0.012  -0.021   0.017   0.004  -0.011  -0.009   0.017  -0.014  -0.003   0.011  -0.007  -0.001   0.009  -0.004  -0.007  -0.000
  0.001   0.014  -0.007  -0.004   0.008  -0.002  -0.011   0.005   0.005  -0.007   0.005  -0.001  -0.005   0.003   0.004   0.000
 -0.001   0.001  -0.001  -0.001   0.002   0.001  -0.000   0.001  -0.000  -0.001  -0.001   0.000  -0.000   0.000   0.001   0.000
  0.007  -0.013   0.010   0.003  -0.011  -0.005   0.011  -0.008  -0.003   0.009  -0.005  -0.000   0.005  -0.003  -0.005  -0.000
 -0.002   0.007  -0.004  -0.002   0.006   0.002  -0.006   0.003   0.002  -0.004   0.003   0.000  -0.003   0.001   0.002   0.000
 -0.007   0.011  -0.010  -0.001   0.009   0.005  -0.008   0.007   0.001  -0.007   0.004   0.001  -0.005   0.002   0.004   0.000
 -0.000   0.000  -0.000  -0.000   0.000   0.000  -0.000   0.000   0.000  -0.000   0.000   0.000  -0.000   0.000   0.000   0.000
  0.000  -0.000   0.000   0.000  -0.000  -0.000   0.000  -0.000  -0.000   0.000  -0.000  -0.000   0.000  -0.000  -0.000  -0.000
  0.000  -0.000   0.000  -0.000  -0.000  -0.000   0.000  -0.000   0.000   0.000  -0.000  -0.000   0.000  -0.000  -0.000  -0.000


------------------------ aborting loop because EDIFF is reached ----------------------------------------


    CHARGE:  cpu time    0.08: real time    0.08
    FORLOC:  cpu time    0.01: real time    0.01
    FORNL :  cpu time    0.93: real time    0.93
    STRESS:  cpu time    1.13: real time    1.13
    FORCOR:  cpu time    0.23: real time    0.23
    FORHAR:  cpu time    0.03: real time    0.03
    MIXING:  cpu time    0.01: real time    0.01
    OFIELD:  cpu time    0.00: real time    0.00

  FORCE on cell =-STRESS in cart. coord.  units (eV):
  Direction    XX          YY          ZZ          XY          YZ          ZX
  --------------------------------------------------------------------------------------
  Alpha Z    37.31535    37.31535    37.31535
  Ewald   14257.37692 11689.25957  5004.49425 -2031.68705 -2040.92780  -146.43402
  Hartree 20173.79568 17837.01965 11807.73389 -1818.31467 -1784.14980   -83.73677
  E(xc)   -1100.50582 -1101.02936 -1102.60555    -0.50404    -0.72052    -0.23317
  Local  -37508.09606-32609.77507-19904.51410  3846.06144  3821.22539   227.20696
  n-local  -206.97089  -206.70503  -206.84547     0.28259    -0.49041     0.45016
  augment  1742.85082  1744.77300  1747.79654     1.24564     1.57250     0.67656
  Kinetic  2597.78224  2602.48274  2610.47758     3.03944     3.51591     2.02125
  Fock        0.00000     0.00000     0.00000     0.00000     0.00000     0.00000
  -------------------------------------------------------------------------------------
  Total      -6.45177    -6.65915    -6.14751     0.12334     0.02526    -0.04901
  in kB      -1.25619    -1.29657    -1.19695     0.02402     0.00492    -0.00954
  external pressure =       -1.25 kB  Pullay stress =        0.00 kB


 VOLUME and BASIS-vectors are now :
 -----------------------------------------------------------------------------
  energy-cutoff  :      249.84
  volume of cell :     8228.75
      direct lattice vectors                 reciprocal lattice vectors
    20.188836751  0.000000000  0.000000000     0.049532324  0.000000000  0.000000000
     0.000000000 20.188836751  0.000000000     0.000000000  0.049532324  0.000000000
     0.000000000  0.000000000 20.188836751     0.000000000  0.000000000  0.049532324

  length of vectors
    20.188836751 20.188836751 20.188836751     0.049532324  0.049532324  0.049532324


 FORCES acting on ions
    electron-ion (+dipol)            ewald-force                    non-local-force                 convergence-correction
 -----------------------------------------------------------------------------------------------
   -.103E+04 0.392E+03 0.511E+03   0.102E+04 -.390E+03 -.509E+03   0.466E+01 -.198E+01 -.232E+01   -.845E-03 0.354E-02 -.127E-01
   -.894E+03 0.679E+03 -.479E+03   0.890E+03 -.677E+03 0.477E+03   0.347E+01 -.232E+01 0.233E+01   -.227E-01 0.333E-03 -.119E-02
   -.462E+01 0.115E+04 -.361E+03   0.426E+01 -.115E+04 0.359E+03   0.392E+00 -.598E+01 0.157E+01   -.527E-01 0.224E-01 -.845E-02
   -.440E+03 -.227E+03 0.983E+03   0.438E+03 0.226E+03 -.982E+03   0.114E+01 0.871E+00 -.807E+00   -.513E-02 -.942E-03 -.333E-01
   -.311E+03 0.851E+03 0.525E+03   0.310E+03 -.850E+03 -.526E+03   0.749E+00 -.100E+01 0.218E+00   0.621E-02 -.390E-01 0.193E-02
   -.980E+03 -.573E+03 0.348E+03   0.975E+03 0.570E+03 -.347E+03   0.521E+01 0.278E+01 -.177E+01   0.439E-02 0.229E-01 -.155E-01
   -.840E+03 -.202E+03 -.585E+03   0.838E+03 0.202E+03 0.586E+03   0.172E+01 0.203E+00 -.559E+00   -.278E-01 -.916E-02 -.382E-01
   0.310E+03 0.597E+03 0.110E+04   -.310E+03 -.595E+03 -.109E+04   -.501E+00 -.248E+01 -.542E+01   0.254E-02 -.809E-02 0.215E-01
   -.150E+03 0.384E+03 -.106E+04   0.149E+03 -.382E+03 0.106E+04   0.492E+00 -.113E+01 0.177E+01   -.146E-01 0.497E-02 0.560E-01
   0.719E+03 0.979E+03 0.313E+00   -.717E+03 -.977E+03 -.111E+01   -.291E+01 -.182E+01 0.799E+00   0.593E-02 0.335E-01 0.437E-02
   -.527E+03 -.105E+04 -.175E+03   0.526E+03 0.104E+04 0.176E+03   0.124E+01 0.312E+01 -.447E+00   -.584E-03 0.200E-01 0.147E-01
   0.175E+03 -.933E+02 0.123E+02   -.174E+03 0.927E+02 -.124E+02   -.686E+00 0.644E+00 0.144E+00   0.387E-01 -.234E-01 0.335E-02
   0.113E+04 0.297E+03 0.339E+03   -.113E+04 -.297E+03 -.339E+03   -.377E+01 0.878E-01 0.536E-01   0.507E-01 0.132E-01 -.251E-01
   0.761E+03 0.302E+03 -.959E+03   -.758E+03 -.300E+03 0.957E+03   -.330E+01 -.174E+01 0.254E+01   0.851E-02 -.574E-02 0.420E-01
   0.225E+03 -.512E+03 0.108E+04   -.224E+03 0.511E+03 -.108E+04   -.154E+01 0.191E+01 -.298E+01   0.582E-02 -.346E-01 0.921E-02
   -.911E+02 -.612E+03 -.109E+04   0.912E+02 0.610E+03 0.108E+04   -.559E-01 0.183E+01 0.519E+01   0.568E-02 0.691E-02 -.552E-02
   0.891E+03 -.542E+03 -.641E+03   -.888E+03 0.540E+03 0.639E+03   -.363E+01 0.141E+01 0.179E+01   0.154E-01 -.181E-01 -.124E-01
   0.143E+03 -.117E+04 0.463E+02   -.143E+03 0.117E+04 -.446E+02   -.186E+00 0.341E+01 -.173E+01   0.363E-02 -.786E-02 0.816E-02
   0.907E+03 -.655E+03 0.407E+03   -.903E+03 0.652E+03 -.404E+03   -.421E+01 0.243E+01 -.211E+01   -.851E-02 0.168E-01 -.416E-02
 -----------------------------------------------------------------------------------------------
   0.167E+01 -.231E+00 0.176E+01   0.455E-12 0.341E-12 0.227E-12   -.171E+01 0.237E+00 -.173E+01   0.146E-01 -.235E-02 0.464E-02
 
 
 POSITION                                       TOTAL-FORCE (eV/Angst)
 -----------------------------------------------------------------------------------
     13.84399      9.20488      9.17096        -0.005853      0.000091     -0.001946
     13.22915      7.80043     11.61500        -0.004100     -0.000697      0.001058
     10.73526      6.33841     11.62692        -0.016068     -0.003361      0.008344
     11.65136     10.81952      8.33766         0.015580     -0.006295     -0.006346
     11.33479      8.17124      9.61707         0.005151      0.001512     -0.007442
     13.98246     12.00984      9.25875        -0.006788      0.001117     -0.001448
     12.61164     10.55979     11.29494        -0.006593      0.001766     -0.009033
      9.30211      9.07661      7.98266         0.008098     -0.013808     -0.008719
     10.77903      8.92338     12.52865         0.012470      0.003771      0.007447
      8.67395      7.85134     10.48843        -0.007593     -0.000073      0.001040
     11.93643     13.13747     10.67755         0.010021      0.003003      0.001029
      9.63450     10.55300     10.29065         0.014394      0.003833      0.018300
      7.05683     10.01017      9.40325        -0.000606      0.009280     -0.006607
      8.15962      9.60611     12.65552        -0.005917      0.006209      0.012545
      9.10436     11.85087      7.77865        -0.011493      0.003173      0.000032
     10.28815     11.81631     12.54872        -0.003178     -0.003997     -0.000042
      7.50987     12.03627     11.62742         0.001525     -0.007418     -0.002041
      9.31452     13.45973     10.16082        -0.003628     -0.002731     -0.004187
      6.81317     12.81105      9.03711         0.004578      0.004625     -0.001980
 -----------------------------------------------------------------------------------
    total drift:                               -0.024019      0.004006      0.036051


--------------------------------------------------------------------------------------------------------



  FREE ENERGIE OF THE ION-ELECTRON SYSTEM (eV)
  ---------------------------------------------------
  free  energy   TOTEN  =       -37.13186920 eV

  energy  without entropy=      -37.13186920  energy(sigma->0) =      -37.13186920
 
 d Force = 0.8132598E-04[ 0.750E-04, 0.877E-04]  d Energy = 0.1878481E-03-0.107E-03
 d Force =-0.1334230E+01[-0.133E+01,-0.133E+01]  d Ewald  =-0.1334230E+01-0.605E-07


--------------------------------------------------------------------------------------------------------


    POTLOK:  cpu time    0.24: real time    0.24


--------------------------------------------------------------------------------------------------------




--------------------------------------------------------------------------------------------------------


  
 reached required accuracy - stopping structural energy minimisation
     LOOP+:  cpu time    6.60: real time    6.67
    4ORBIT:  cpu time    0.00: real time    0.00

 total amount of memory used by VASP on root node    57396. kBytes
========================================================================

   base      :      30000. kBytes
   nonl-proj :       2069. kBytes
   fftplans  :       5773. kBytes
   grid      :      14451. kBytes
   one-center:         46. kBytes
   wavefun   :       5057. kBytes
 
  
  
 General timing and accounting informations for this job:
 ========================================================
  
                  Total CPU time used (sec):      310.539
                            User time (sec):      307.143
                          System time (sec):        3.396
                         Elapsed time (sec):      330.394
  
                   Maximum memory used (kb):       65836.
                   Average memory used (kb):           0.
  
                          Minor page faults:       559381
                          Major page faults:            0
                 Voluntary context switches:         5498
