   29   29 1000    2
  0.3527983E+03  0.2170908E-08  0.2170908E-08  0.2170908E-08  0.1000000E-15
  1.000000000000000E-004
  CAR 
 unknown system                          
    319      1    208
 
  0.0000000E+00  0.0000000E+00  0.0000000E+00  0.1000000E+01
    1       -9.546086     -9.526570
    2       -9.137800     -9.118274
    3       -9.082356     -9.070964
    4       -9.057532     -9.045532
    5       -9.009898     -9.000518
    6       -8.988519     -8.978683
    7       -8.977879     -8.965783
    8       -8.939546     -8.928354
    9       -8.914446     -8.903392
   10       -8.884301     -8.873295
   11       -8.875458     -8.866060
   12       -8.842202     -8.832786
   13       -8.815751     -8.804022
   14       -8.804584     -8.792612
   15       -8.775667     -8.761226
   16       -8.764698     -8.755240
   17       -8.751217     -8.739473
   18       -8.724785     -8.711501
   19       -8.695524     -8.683665
   20       -8.689540     -8.671489
   21       -8.676905     -8.664238
   22       -8.638227     -8.626970
   23       -8.610803     -8.595907
   24       -8.606717     -8.594068
   25       -8.543128     -8.530297
   26       -8.530147     -8.518619
   27       -8.501159     -8.489387
   28       -8.481397     -8.469591
   29       -8.442660     -8.433248
   30       -8.431883     -8.420330
   31       -8.423654     -8.411449
   32       -8.395019     -8.385380
   33       -8.374785     -8.363204
   34       -8.356700     -8.347217
   35       -8.319219     -8.305906
   36       -8.291771     -8.283874
   37       -8.264835     -8.255502
   38       -8.249165     -8.234651
   39       -8.216504     -8.205486
   40       -8.205991     -8.195316
   41       -8.199946     -8.189458
   42       -8.160171     -8.150012
   43       -8.159502     -8.146812
   44       -8.134310     -8.125105
   45       -8.112363     -8.100540
   46       -8.083057     -8.072305
   47       -8.034786     -8.023397
   48       -8.013503     -8.001790
   49       -7.972149     -7.960954
   50       -7.957135     -7.946374
   51       -7.952799     -7.941959
   52       -7.936080     -7.923293
   53       -7.909024     -7.898682
   54       -7.883679     -7.874415
   55       -7.879987     -7.871087
   56       -7.839191     -7.829141
   57       -7.808923     -7.797515
   58       -7.792784     -7.781800
   59       -7.768886     -7.758255
   60       -7.753396     -7.741978
   61       -7.733940     -7.724555
   62       -7.697933     -7.686616
   63       -7.686429     -7.674898
   64       -7.676743     -7.665916
   65       -7.662158     -7.651179
   66       -7.647333     -7.636501
   67       -7.624966     -7.613529
   68       -7.596733     -7.586894
   69       -7.578833     -7.568470
   70       -7.545811     -7.536266
   71       -7.541385     -7.530061
   72       -7.517447     -7.509636
   73       -7.480059     -7.469704
   74       -7.464973     -7.454810
   75       -7.452179     -7.441061
   76       -7.431192     -7.422574
   77       -7.400896     -7.389929
   78       -7.379386     -7.367454
   79       -7.361890     -7.348740
   80       -7.351399     -7.339495
   81       -7.318219     -7.305738
   82       -7.303154     -7.291747
   83       -7.283039     -7.276198
   84       -7.275908     -7.267820
   85       -7.242998     -7.232226
   86       -7.235758     -7.226389
   87       -7.223504     -7.214181
   88       -7.197469     -7.186830
   89       -7.183797     -7.175201
   90       -7.167145     -7.158793
   91       -7.148641     -7.139159
   92       -7.121692     -7.112331
   93       -7.094502     -7.084583
   94       -7.088145     -7.076600
   95       -7.073391     -7.064244
   96       -7.052374     -7.043703
   97       -7.042610     -7.033448
   98       -7.037534     -7.028076
   99       -7.015504     -7.007949
  100       -7.004017     -6.993414
  101       -6.996960     -6.987916
  102       -6.982060     -6.972246
  103       -6.961978     -6.954167
  104       -6.936919     -6.929198
  105       -6.926280     -6.917042
  106       -6.916173     -6.908678
  107       -6.895945     -6.887603
  108       -6.880297     -6.871565
  109       -6.869374     -6.860331
  110       -6.858151     -6.848694
  111       -6.843326     -6.833256
  112       -6.840593     -6.832422
  113       -6.826026     -6.816275
  114       -6.818129     -6.809648
  115       -6.806841     -6.797859
  116       -6.804737     -6.796037
  117       -6.771681     -6.761085
  118       -6.759936     -6.751226
  119       -6.743030     -6.735197
  120       -6.737075     -6.728060
  121       -6.717206     -6.705032
  122       -6.696890     -6.688094
  123       -6.692264     -6.685437
  124       -6.678465     -6.667886
  125       -6.667876     -6.657573
  126       -6.651995     -6.639900
  127       -6.631337     -6.622778
  128       -6.613553     -6.603601
  129       -6.577553     -6.569508
  130       -6.560560     -6.552804
  131       -6.555499     -6.545121
  132       -6.537485     -6.528808
  133       -6.519197     -6.511371
  134       -6.506992     -6.499115
  135       -6.502121     -6.491839
  136       -6.469353     -6.461323
  137       -6.460969     -6.451038
  138       -6.451295     -6.441505
  139       -6.431115     -6.421180
  140       -6.415171     -6.407862
  141       -6.399711     -6.391519
  142       -6.383517     -6.376528
  143       -6.356310     -6.344507
  144       -6.351565     -6.342072
  145       -6.333536     -6.324014
  146       -6.327608     -6.317144
  147       -6.314056     -6.302989
  148       -6.311387     -6.300096
  149       -6.295739     -6.285908
  150       -5.986166     -5.967675
  151       -5.813546     -5.781894
  152       -5.542977     -5.513244
  153       -5.141604     -5.119065
  154       -4.743847     -4.703857
  155       -4.490700     -4.470944
  156       -4.247577     -4.220195
  157       -4.230316     -4.202088
  158       -3.915415     -3.884570
  159       -3.733190     -3.698326
  160       -3.558618     -3.472454
  161       -3.156683     -3.124939
  162       -2.946531     -2.924569
  163       -2.804347     -2.782153
  164       -2.746883     -2.721580
  165       -2.641334     -2.606088
  166       -2.455513     -2.421683
  167       -2.340663     -2.304421
  168       -2.235262     -2.195465
  169       -2.071097     -2.016602
  170       -1.939280     -1.912840
  171       -1.630815     -1.594773
  172       -1.605443     -1.556028
  173       -1.384688     -1.337454
  174       -1.328756     -1.279951
  175       -1.128201     -1.110507
  176       -1.053222     -1.017973
  177       -1.013727     -0.972953
  178       -0.839239     -0.805830
  179       -0.695620     -0.662268
  180       -0.653821     -0.614593
  181       -0.563108     -0.524766
  182       -0.523181     -0.486975
  183       -0.399491     -0.359431
  184       -0.256109     -0.209071
  185       -0.047282     -0.009819
  186        0.061731      0.101689
  187        0.109378      0.140674
  188        0.204663      0.227103
  189        0.364362      0.393726
  190        0.438630      0.457886
  191        0.587807      0.617011
  192        0.620442      0.647719
  193        0.673696      0.705803
  194        0.694110      0.719354
  195        0.711995      0.733523
  196        0.747140      0.761612
  197        0.758043      0.791194
  198        0.786693      0.795704
  199        0.872696      0.892010
  200        0.876189      0.904893
  201        0.921721      0.926317
  202        0.963640      0.975896
  203        0.986111      1.006271
  204        1.028948      1.048328
  205        1.042333      1.066783
  206        1.076179      1.101457
  207        1.099799      1.110297
  208        1.109479      1.124191
