       N       E                     dE             d eps       ncg     rms          rms(c)
DAV:   1     0.311875000304E+04    0.31188E+04   -0.73912E+04   944   0.613E+02
DAV:   2     0.511621114303E+03   -0.26071E+04   -0.23592E+04  1544   0.166E+02
DAV:   3    -0.464554240966E+02   -0.55808E+03   -0.51301E+03  1184   0.835E+01
DAV:   4    -0.677968265977E+02   -0.21341E+02   -0.21178E+02  1032   0.178E+01
DAV:   5    -0.681038871115E+02   -0.30706E+00   -0.30679E+00  1080   0.245E+00    0.387E+01
DAV:   6    -0.254847232541E+02    0.42619E+02   -0.12666E+02   964   0.164E+01    0.215E+01
DAV:   7    -0.196154091085E+02    0.58693E+01   -0.85458E+00  1016   0.483E+00    0.122E+01
DAV:   8    -0.192777432478E+02    0.33767E+00   -0.22867E+00  1004   0.265E+00    0.560E+00
DAV:   9    -0.238004346143E+02   -0.45227E+01   -0.76711E-01  1032   0.125E+00    0.415E+00
DAV:  10    -0.263645800456E+02   -0.25641E+01   -0.39043E-01  1016   0.131E+00    0.359E+00
DAV:  11    -0.370365148321E+02   -0.10672E+02   -0.37993E+00   952   0.263E+00    0.254E+00
DAV:  12    -0.513927713575E+02   -0.14356E+02   -0.75475E+00   968   0.319E+00    0.308E+00
DAV:  13    -0.517857051544E+02   -0.39293E+00   -0.17335E-01  1136   0.513E-01    0.283E+00
DAV:  14    -0.529143007123E+02   -0.11286E+01   -0.11194E-01   992   0.489E-01    0.263E+00
DAV:  15    -0.583443399596E+02   -0.54300E+01   -0.22215E+00   960   0.196E+00    0.164E+00
DAV:  16    -0.627195661876E+02   -0.43752E+01   -0.16103E+00   968   0.151E+00    0.846E-01
DAV:  17    -0.642495602912E+02   -0.15300E+01   -0.24659E-01   976   0.555E-01    0.550E-01
DAV:  18    -0.655149091134E+02   -0.12653E+01   -0.10116E-01   984   0.393E-01    0.350E-01
DAV:  19    -0.661142943376E+02   -0.59939E+00   -0.34265E-02   976   0.275E-01    0.193E-01
DAV:  20    -0.663410636177E+02   -0.22677E+00   -0.72885E-03  1008   0.128E-01    0.136E-01
DAV:  21    -0.664482022868E+02   -0.10714E+00   -0.49947E-03   992   0.914E-02    0.625E-02
DAV:  22    -0.664639913972E+02   -0.15789E-01   -0.79676E-04   720   0.408E-02    0.410E-02
DAV:  23    -0.664704006983E+02   -0.64093E-02   -0.12361E-03   768   0.359E-02    0.253E-02
DAV:  24    -0.664765646572E+02   -0.61640E-02   -0.40144E-04   652   0.253E-02    0.186E-02
DAV:  25    -0.664795661031E+02   -0.30014E-02   -0.18436E-04   672   0.150E-02    0.133E-02
DAV:  26    -0.664821951847E+02   -0.26291E-02   -0.97600E-05   672   0.171E-02    0.758E-03
DAV:  27    -0.664833783864E+02   -0.11832E-02   -0.37346E-05   656   0.912E-03    0.502E-03
DAV:  28    -0.664834190614E+02   -0.40675E-04   -0.94793E-06   688   0.605E-03
   1 F= -.66483419E+02 E0= -.66483419E+02  d E =-.664834E+02  mag=     0.9993
       N       E                     dE             d eps       ncg     rms          rms(c)
DAV:   1    -0.670136500459E+02   -0.53027E+00   -0.40378E+01   984   0.112E+01    0.936E-01
DAV:   2    -0.670318069932E+02   -0.18157E-01   -0.19149E-01  1016   0.107E+00    0.680E-01
DAV:   3    -0.670308978633E+02    0.90913E-03   -0.68810E-03   980   0.203E-01    0.249E-01
DAV:   4    -0.670308420091E+02    0.55854E-04   -0.71409E-04  1008   0.113E-01
   2 F= -.67030842E+02 E0= -.67030842E+02  d E =-.547423E+00  mag=     0.9997
       N       E                     dE             d eps       ncg     rms          rms(c)
DAV:   1    -0.680237710316E+02   -0.99287E+00   -0.36574E+02   944   0.340E+01    0.228E+00
DAV:   2    -0.681854684292E+02   -0.16170E+00   -0.16969E+00   984   0.324E+00    0.182E+00
DAV:   3    -0.681793039282E+02    0.61645E-02   -0.40547E-02   984   0.500E-01    0.925E-01
DAV:   4    -0.681780811466E+02    0.12228E-02   -0.11532E-02  1000   0.302E-01    0.107E-01
DAV:   5    -0.681776602881E+02    0.42086E-03   -0.12461E-03   984   0.967E-02    0.680E-02
DAV:   6    -0.681776137437E+02    0.46544E-04   -0.61544E-04  1000   0.423E-02
   3 F= -.68177614E+02 E0= -.68177614E+02  d E =-.169419E+01  mag=     0.9999
       N       E                     dE             d eps       ncg     rms          rms(c)
DAV:   1    -0.680784451279E+02    0.99215E-01   -0.14960E+03   944   0.700E+01    0.305E+00
DAV:   2    -0.687627729358E+02   -0.68433E+00   -0.70560E+00   976   0.683E+00    0.298E+00
DAV:   3    -0.687578511025E+02    0.49218E-02   -0.11200E-01  1008   0.811E-01    0.221E+00
DAV:   4    -0.687389775826E+02    0.18874E-01   -0.61286E-02   972   0.549E-01    0.864E-01
DAV:   5    -0.687396832788E+02   -0.70570E-03   -0.64861E-03   988   0.225E-01    0.217E-01
DAV:   6    -0.687391865630E+02    0.49672E-03   -0.12372E-03   984   0.647E-02    0.113E-01
DAV:   7    -0.687392537031E+02   -0.67140E-04   -0.34648E-04   816   0.412E-02
   4 F= -.68739254E+02 E0= -.68739254E+02  d E =-.225583E+01  mag=     1.0000
       N       E                     dE             d eps       ncg     rms          rms(c)
DAV:   1    -0.687561511960E+02   -0.16965E-01   -0.52338E+01   944   0.127E+01    0.596E-01
DAV:   2    -0.687805659881E+02   -0.24415E-01   -0.25785E-01   992   0.125E+00    0.420E-01
DAV:   3    -0.687800758681E+02    0.49012E-03   -0.52071E-03  1008   0.173E-01    0.246E-01
DAV:   4    -0.687800128788E+02    0.62989E-04   -0.18291E-03   992   0.102E-01    0.525E-02
DAV:   5    -0.687800542764E+02   -0.41398E-04   -0.93252E-05   648   0.310E-02
   5 F= -.68780054E+02 E0= -.68780054E+02  d E =-.229664E+01  mag=     1.0000
       N       E                     dE             d eps       ncg     rms          rms(c)
DAV:   1    -0.690508472025E+02   -0.27083E+00   -0.79649E+01   944   0.157E+01    0.889E-01
DAV:   2    -0.690850367546E+02   -0.34190E-01   -0.34638E-01   992   0.145E+00    0.605E-01
DAV:   3    -0.690836150621E+02    0.14217E-02   -0.76768E-03   980   0.259E-01    0.352E-01
DAV:   4    -0.690834537723E+02    0.16129E-03   -0.36067E-03  1000   0.134E-01    0.703E-02
DAV:   5    -0.690832914583E+02    0.16231E-03   -0.39718E-04   856   0.405E-02    0.253E-02
DAV:   6    -0.690832849833E+02    0.64750E-05   -0.99788E-05   640   0.194E-02
   6 F= -.69083285E+02 E0= -.69083285E+02  d E =-.303231E+00  mag=     1.0000
       N       E                     dE             d eps       ncg     rms          rms(c)
DAV:   1    -0.691675762403E+02   -0.84285E-01   -0.56285E+02   944   0.422E+01    0.180E+00
DAV:   2    -0.694186974978E+02   -0.25112E+00   -0.25321E+00   988   0.400E+00    0.133E+00
DAV:   3    -0.694130569586E+02    0.56405E-02   -0.44429E-02  1004   0.644E-01    0.952E-01
DAV:   4    -0.694086207441E+02    0.44362E-02   -0.29163E-02   992   0.315E-01    0.157E-01
DAV:   5    -0.694082691105E+02    0.35163E-03   -0.10931E-03   960   0.900E-02    0.764E-02
DAV:   6    -0.694081911071E+02    0.78003E-04   -0.55154E-04  1012   0.416E-02
   7 F= -.69408191E+02 E0= -.69408191E+02  d E =-.628137E+00  mag=     1.0000
       N       E                     dE             d eps       ncg     rms          rms(c)
DAV:   1    -0.694093040815E+02   -0.10350E-02   -0.29894E+00   968   0.304E+00    0.118E-01
DAV:   2    -0.694106363328E+02   -0.13323E-02   -0.13302E-02  1016   0.284E-01    0.824E-02
DAV:   3    -0.694106213116E+02    0.15021E-04   -0.22352E-04   688   0.428E-02
   8 F= -.69410621E+02 E0= -.69410621E+02  d E =-.630567E+00  mag=     1.0000
       N       E                     dE             d eps       ncg     rms          rms(c)
DAV:   1    -0.694569119477E+02   -0.46276E-01   -0.19369E+01   944   0.778E+00    0.293E-01
DAV:   2    -0.694655683745E+02   -0.86564E-02   -0.88280E-02   984   0.737E-01    0.224E-01
DAV:   3    -0.694653938960E+02    0.17448E-03   -0.16083E-03  1020   0.100E-01    0.142E-01
DAV:   4    -0.694652616966E+02    0.13220E-03   -0.76482E-04   980   0.557E-02    0.318E-02
DAV:   5    -0.694652738920E+02   -0.12195E-04   -0.21199E-05   640   0.158E-02
   9 F= -.69465274E+02 E0= -.69465274E+02  d E =-.546526E-01  mag=     1.0000
       N       E                     dE             d eps       ncg     rms          rms(c)
DAV:   1    -0.694619621362E+02    0.32996E-02   -0.17476E+02   944   0.234E+01    0.793E-01
DAV:   2    -0.695401752645E+02   -0.78213E-01   -0.79658E-01   992   0.222E+00    0.649E-01
DAV:   3    -0.695388338463E+02    0.13414E-02   -0.13700E-02  1036   0.291E-01    0.441E-01
DAV:   4    -0.695370768501E+02    0.17570E-02   -0.66017E-03   992   0.161E-01    0.132E-01
DAV:   5    -0.695371484449E+02   -0.71595E-04   -0.38148E-04   872   0.545E-02
  10 F= -.69537148E+02 E0= -.69537148E+02  d E =-.126527E+00  mag=     1.0000
       N       E                     dE             d eps       ncg     rms          rms(c)
DAV:   1    -0.695546230219E+02   -0.17546E-01   -0.14608E+01   948   0.674E+00    0.148E-01
DAV:   2    -0.695613272854E+02   -0.67043E-02   -0.67172E-02  1016   0.640E-01    0.136E-01
DAV:   3    -0.695612509990E+02    0.76286E-04   -0.10046E-03  1040   0.773E-02    0.992E-02
DAV:   4    -0.695610784501E+02    0.17255E-03   -0.34880E-04   816   0.368E-02    0.523E-02
DAV:   5    -0.695611008450E+02   -0.22395E-04   -0.24007E-04   624   0.323E-02
  11 F= -.69561101E+02 E0= -.69561101E+02  d E =-.239524E-01  mag=     1.0000
       N       E                     dE             d eps       ncg     rms          rms(c)
DAV:   1    -0.695493213361E+02    0.11757E-01   -0.13191E+02   944   0.203E+01    0.462E-01
DAV:   2    -0.696097488990E+02   -0.60428E-01   -0.60581E-01   968   0.193E+00    0.417E-01
DAV:   3    -0.696088317526E+02    0.91715E-03   -0.90644E-03  1040   0.232E-01    0.302E-01
DAV:   4    -0.696069215653E+02    0.19102E-02   -0.36375E-03   952   0.115E-01    0.150E-01
DAV:   5    -0.696068629514E+02    0.58614E-04   -0.17267E-03  1016   0.809E-02    0.547E-02
DAV:   6    -0.696068861178E+02   -0.23166E-04   -0.76551E-05   628   0.167E-02
  12 F= -.69606886E+02 E0= -.69606886E+02  d E =-.697377E-01  mag=     1.0000
       N       E                     dE             d eps       ncg     rms          rms(c)
DAV:   1    -0.693427573812E+02    0.26411E+00   -0.53257E+02   944   0.411E+01    0.108E+00
DAV:   2    -0.695919291936E+02   -0.24917E+00   -0.24885E+00   980   0.393E+00    0.851E-01
DAV:   3    -0.695877106417E+02    0.42186E-02   -0.39267E-02  1024   0.486E-01    0.589E-01
DAV:   4    -0.695806976685E+02    0.70130E-02   -0.14958E-02   976   0.234E-01    0.274E-01
DAV:   5    -0.695806193913E+02    0.78277E-04   -0.45827E-03   992   0.134E-01    0.926E-02
DAV:   6    -0.695806949674E+02   -0.75576E-04   -0.29218E-04   672   0.325E-02
  13 F= -.69580695E+02 E0= -.69580695E+02  d E =-.435465E-01  mag=     1.0000
       N       E                     dE             d eps       ncg     rms          rms(c)
DAV:   1    -0.695149341454E+02    0.65685E-01   -0.22951E+02   944   0.268E+01    0.614E-01
DAV:   2    -0.696207780852E+02   -0.10584E+00   -0.10562E+00   984   0.255E+00    0.569E-01
DAV:   3    -0.696194324488E+02    0.13456E-02   -0.16615E-02  1056   0.315E-01    0.416E-01
DAV:   4    -0.696161152858E+02    0.33172E-02   -0.61102E-03   980   0.149E-01    0.217E-01
DAV:   5    -0.696159527602E+02    0.16253E-03   -0.33558E-03  1004   0.112E-01    0.771E-02
DAV:   6    -0.696159468138E+02    0.59464E-05   -0.14348E-04   656   0.230E-02
  14 F= -.69615947E+02 E0= -.69615947E+02  d E =-.787984E-01  mag=     1.0000
       N       E                     dE             d eps       ncg     rms          rms(c)
DAV:   1    -0.696290025369E+02   -0.13050E-01   -0.18125E+01   952   0.752E+00    0.138E-01
DAV:   2    -0.696372440250E+02   -0.82415E-02   -0.81197E-02  1024   0.706E-01    0.142E-01
DAV:   3    -0.696371448588E+02    0.99166E-04   -0.11729E-03  1048   0.823E-02    0.111E-01
DAV:   4    -0.696368710151E+02    0.27384E-03   -0.36231E-04   888   0.365E-02    0.655E-02
DAV:   5    -0.696368289761E+02    0.42039E-04   -0.51783E-04  1000   0.431E-02
  15 F= -.69636829E+02 E0= -.69636829E+02  d E =-.208822E-01  mag=     1.0000
       N       E                     dE             d eps       ncg     rms          rms(c)
DAV:   1    -0.696078824188E+02    0.28989E-01   -0.16351E+02   944   0.226E+01    0.449E-01
DAV:   2    -0.696828915869E+02   -0.75009E-01   -0.74150E-01   988   0.213E+00    0.429E-01
DAV:   3    -0.696818296326E+02    0.10620E-02   -0.10678E-02  1064   0.249E-01    0.322E-01
DAV:   4    -0.696794007980E+02    0.24288E-02   -0.35912E-03   964   0.114E-01    0.181E-01
DAV:   5    -0.696790527743E+02    0.34802E-03   -0.31604E-03   992   0.106E-01    0.645E-02
DAV:   6    -0.696790575650E+02   -0.47907E-05   -0.62714E-05   616   0.164E-02
  16 F= -.69679058E+02 E0= -.69679058E+02  d E =-.631108E-01  mag=     1.0000
       N       E                     dE             d eps       ncg     rms          rms(c)
DAV:   1    -0.693664786201E+02    0.31257E+00   -0.66173E+02   944   0.459E+01    0.110E+00
DAV:   2    -0.696769659882E+02   -0.31049E+00   -0.30668E+00  1016   0.438E+00    0.894E-01
DAV:   3    -0.696719531994E+02    0.50128E-02   -0.47213E-02  1032   0.530E-01    0.628E-01
DAV:   4    -0.696629088171E+02    0.90444E-02   -0.15239E-02   976   0.234E-01    0.332E-01
DAV:   5    -0.696619828237E+02    0.92599E-03   -0.80684E-03  1008   0.172E-01    0.109E-01
DAV:   6    -0.696620460368E+02   -0.63213E-04   -0.22597E-04   664   0.313E-02
  17 F= -.69662046E+02 E0= -.69662046E+02  d E =-.460992E-01  mag=     1.0000
       N       E                     dE             d eps       ncg     rms          rms(c)
DAV:   1    -0.695882023293E+02    0.73780E-01   -0.23180E+02   944   0.270E+01    0.542E-01
DAV:   2    -0.696949300812E+02   -0.10673E+00   -0.10506E+00   976   0.255E+00    0.524E-01
DAV:   3    -0.696936037787E+02    0.13263E-02   -0.16042E-02  1056   0.306E-01    0.397E-01
DAV:   4    -0.696901972744E+02    0.34065E-02   -0.48854E-03   976   0.132E-01    0.227E-01
DAV:   5    -0.696897282721E+02    0.46900E-03   -0.48222E-03  1008   0.129E-01    0.781E-02
DAV:   6    -0.696897521227E+02   -0.23851E-04   -0.94499E-05   632   0.202E-02
  18 F= -.69689752E+02 E0= -.69689752E+02  d E =-.738053E-01  mag=     1.0000
       N       E                     dE             d eps       ncg     rms          rms(c)
DAV:   1    -0.696974497362E+02   -0.77215E-02   -0.37421E+01   944   0.108E+01    0.236E-01
DAV:   2    -0.697143362419E+02   -0.16887E-01   -0.16789E-01   984   0.101E+00    0.205E-01
DAV:   3    -0.697140438773E+02    0.29236E-03   -0.26006E-03  1040   0.124E-01    0.153E-01
DAV:   4    -0.697134890977E+02    0.55478E-03   -0.11029E-03   968   0.617E-02    0.673E-02
DAV:   5    -0.697134693153E+02    0.19782E-04   -0.45829E-04  1012   0.415E-02
  19 F= -.69713469E+02 E0= -.69713469E+02  d E =-.237172E-01  mag=     1.0000
       N       E                     dE             d eps       ncg     rms          rms(c)
DAV:   1    -0.696611772888E+02    0.52312E-01   -0.15350E+02   944   0.219E+01    0.531E-01
DAV:   2    -0.697310227369E+02   -0.69845E-01   -0.69750E-01   984   0.207E+00    0.414E-01
DAV:   3    -0.697296630664E+02    0.13597E-02   -0.10918E-02  1012   0.257E-01    0.295E-01
DAV:   4    -0.697275977753E+02    0.20653E-02   -0.46557E-03   972   0.127E-01    0.120E-01
DAV:   5    -0.697275820661E+02    0.15709E-04   -0.12570E-03  1016   0.705E-02    0.457E-02
DAV:   6    -0.697275898544E+02   -0.77883E-05   -0.94686E-05   608   0.187E-02
  20 F= -.69727590E+02 E0= -.69727590E+02  d E =-.378377E-01  mag=     1.0000
       N       E                     dE             d eps       ncg     rms          rms(c)
DAV:   1    -0.697211773779E+02    0.64047E-02   -0.66224E+01   944   0.144E+01    0.264E-01
DAV:   2    -0.697508813575E+02   -0.29704E-01   -0.29490E-01   976   0.135E+00    0.272E-01
DAV:   3    -0.697504879714E+02    0.39339E-03   -0.45632E-03  1036   0.165E-01    0.210E-01
DAV:   4    -0.697494964144E+02    0.99156E-03   -0.11400E-03   960   0.639E-02    0.130E-01
DAV:   5    -0.697492752847E+02    0.22113E-03   -0.19128E-03   984   0.804E-02    0.449E-02
DAV:   6    -0.697493113217E+02   -0.36037E-04   -0.26812E-05   600   0.108E-02
  21 F= -.69749311E+02 E0= -.69749311E+02  d E =-.217215E-01  mag=     1.0000
       N       E                     dE             d eps       ncg     rms          rms(c)
DAV:   1    -0.697016318077E+02    0.47643E-01   -0.13512E+02   944   0.206E+01    0.396E-01
DAV:   2    -0.697622566097E+02   -0.60625E-01   -0.60381E-01   976   0.194E+00    0.390E-01
DAV:   3    -0.697613508203E+02    0.90579E-03   -0.93764E-03  1044   0.238E-01    0.296E-01
DAV:   4    -0.697593037286E+02    0.20471E-02   -0.24996E-03   964   0.943E-02    0.176E-01
DAV:   5    -0.697588641259E+02    0.43960E-03   -0.33100E-03   992   0.106E-01    0.596E-02
DAV:   6    -0.697589036107E+02   -0.39485E-04   -0.52156E-05   600   0.150E-02
  22 F= -.69758904E+02 E0= -.69758904E+02  d E =-.313138E-01  mag=     1.0000
       N       E                     dE             d eps       ncg     rms          rms(c)
DAV:   1    -0.697614015364E+02   -0.25374E-02   -0.59212E+01   944   0.136E+01    0.287E-01
DAV:   2    -0.697875021422E+02   -0.26101E-01   -0.26103E-01   980   0.127E+00    0.279E-01
DAV:   3    -0.697870964124E+02    0.40573E-03   -0.40306E-03  1032   0.156E-01    0.211E-01
DAV:   4    -0.697861262540E+02    0.97016E-03   -0.15700E-03   968   0.742E-02    0.111E-01
DAV:   5    -0.697860659501E+02    0.60304E-04   -0.11067E-03  1000   0.635E-02    0.416E-02
DAV:   6    -0.697860784458E+02   -0.12496E-04   -0.32529E-05   592   0.113E-02
  23 F= -.69786078E+02 E0= -.69786078E+02  d E =-.271748E-01  mag=     1.0000
       N       E                     dE             d eps       ncg     rms          rms(c)
DAV:   1    -0.697569597655E+02    0.29106E-01   -0.99180E+01   944   0.176E+01    0.374E-01
DAV:   2    -0.698006517141E+02   -0.43692E-01   -0.43800E-01   984   0.164E+00    0.359E-01
DAV:   3    -0.697999517491E+02    0.69997E-03   -0.67698E-03  1028   0.202E-01    0.271E-01
DAV:   4    -0.697983407718E+02    0.16110E-02   -0.25530E-03   968   0.946E-02    0.143E-01
DAV:   5    -0.697982050910E+02    0.13568E-03   -0.17942E-03  1008   0.807E-02    0.522E-02
DAV:   6    -0.697982132464E+02   -0.81553E-05   -0.52695E-05   592   0.144E-02
  24 F= -.69798213E+02 E0= -.69798213E+02  d E =-.393096E-01  mag=     1.0000
       N       E                     dE             d eps       ncg     rms          rms(c)
DAV:   1    -0.697883530363E+02    0.98521E-02   -0.83853E+01   944   0.162E+01    0.321E-01
DAV:   2    -0.698253660620E+02   -0.37013E-01   -0.36872E-01   976   0.152E+00    0.335E-01
DAV:   3    -0.698248605882E+02    0.50547E-03   -0.57615E-03  1040   0.186E-01    0.258E-01
DAV:   4    -0.698234424012E+02    0.14182E-02   -0.17697E-03   976   0.791E-02    0.155E-01
DAV:   5    -0.698231824861E+02    0.25992E-03   -0.21818E-03  1000   0.874E-02    0.562E-02
DAV:   6    -0.698232086117E+02   -0.26126E-04   -0.35374E-05   596   0.125E-02
  25 F= -.69823209E+02 E0= -.69823209E+02  d E =-.249954E-01  mag=     1.0000
       N       E                     dE             d eps       ncg     rms          rms(c)
DAV:   1    -0.697742293812E+02    0.48953E-01   -0.14179E+02   944   0.211E+01    0.423E-01
DAV:   2    -0.698368979352E+02   -0.62669E-01   -0.62573E-01   984   0.198E+00    0.435E-01
DAV:   3    -0.698360063432E+02    0.89159E-03   -0.97716E-03  1032   0.244E-01    0.332E-01
DAV:   4    -0.698337029343E+02    0.23034E-02   -0.28976E-03   976   0.101E-01    0.199E-01
DAV:   5    -0.698332572687E+02    0.44567E-03   -0.34388E-03   984   0.110E-01    0.701E-02
DAV:   6    -0.698332965201E+02   -0.39251E-04   -0.53627E-05   604   0.156E-02
  26 F= -.69833297E+02 E0= -.69833297E+02  d E =-.350833E-01  mag=     1.0000
       N       E                     dE             d eps       ncg     rms          rms(c)
DAV:   1    -0.698199042325E+02    0.13353E-01   -0.87003E+01   944   0.165E+01    0.319E-01
DAV:   2    -0.698582343103E+02   -0.38330E-01   -0.37884E-01   984   0.153E+00    0.310E-01
DAV:   3    -0.698576178718E+02    0.61644E-03   -0.56695E-03  1032   0.183E-01    0.240E-01
DAV:   4    -0.698562474067E+02    0.13705E-02   -0.18378E-03   968   0.799E-02    0.133E-01
DAV:   5    -0.698560333911E+02    0.21402E-03   -0.18923E-03  1004   0.814E-02    0.459E-02
DAV:   6    -0.698560609658E+02   -0.27575E-04   -0.29449E-05   596   0.117E-02
  27 F= -.69856061E+02 E0= -.69856061E+02  d E =-.227644E-01  mag=     1.0000
       N       E                     dE             d eps       ncg     rms          rms(c)
DAV:   1    -0.697955923754E+02    0.60441E-01   -0.16866E+02   944   0.230E+01    0.466E-01
DAV:   2    -0.698702596606E+02   -0.74667E-01   -0.73800E-01   992   0.213E+00    0.431E-01
DAV:   3    -0.698689412384E+02    0.13184E-02   -0.11103E-02  1012   0.257E-01    0.329E-01
DAV:   4    -0.698663382881E+02    0.26030E-02   -0.36301E-03   984   0.112E-01    0.177E-01
DAV:   5    -0.698659280869E+02    0.41020E-03   -0.30961E-03  1000   0.105E-01    0.577E-02
DAV:   6    -0.698659662150E+02   -0.38128E-04   -0.50576E-05   576   0.156E-02
  28 F= -.69865966E+02 E0= -.69865966E+02  d E =-.326697E-01  mag=     1.0000
       N       E                     dE             d eps       ncg     rms          rms(c)
DAV:   1    -0.698472065205E+02    0.18722E-01   -0.10260E+02   944   0.179E+01    0.356E-01
DAV:   2    -0.698924966925E+02   -0.45290E-01   -0.44706E-01   980   0.166E+00    0.321E-01
DAV:   3    -0.698916802897E+02    0.81640E-03   -0.66826E-03  1012   0.200E-01    0.246E-01
DAV:   4    -0.698901400732E+02    0.15402E-02   -0.22368E-03   972   0.878E-02    0.126E-01
DAV:   5    -0.698899561358E+02    0.18394E-03   -0.18373E-03   992   0.803E-02    0.422E-02
DAV:   6    -0.698899802297E+02   -0.24094E-04   -0.34098E-05   588   0.126E-02
  29 F= -.69889980E+02 E0= -.69889980E+02  d E =-.240140E-01  mag=     1.0000
       N       E                     dE             d eps       ncg     rms          rms(c)
DAV:   1    -0.698296557267E+02    0.60300E-01   -0.16581E+02   944   0.228E+01    0.478E-01
DAV:   2    -0.699030283639E+02   -0.73373E-01   -0.72545E-01   972   0.211E+00    0.410E-01
DAV:   3    -0.699015845975E+02    0.14438E-02   -0.10907E-02  1000   0.257E-01    0.309E-01
DAV:   4    -0.698991235195E+02    0.24611E-02   -0.38685E-03   968   0.115E-01    0.151E-01
DAV:   5    -0.698988647702E+02    0.25875E-03   -0.24205E-03   992   0.930E-02    0.490E-02
DAV:   6    -0.698988876500E+02   -0.22880E-04   -0.52835E-05   584   0.156E-02
  30 F= -.69898888E+02 E0= -.69898888E+02  d E =-.329214E-01  mag=     1.0000
       N       E                     dE             d eps       ncg     rms          rms(c)
DAV:   1    -0.698765436212E+02    0.22321E-01   -0.10715E+02   944   0.183E+01    0.334E-01
DAV:   2    -0.699240268532E+02   -0.47483E-01   -0.46990E-01   976   0.171E+00    0.344E-01
DAV:   3    -0.699233771945E+02    0.64966E-03   -0.71958E-03  1024   0.208E-01    0.266E-01
DAV:   4    -0.699217443525E+02    0.16328E-02   -0.17643E-03   976   0.794E-02    0.165E-01
DAV:   5    -0.699212975674E+02    0.44679E-03   -0.30151E-03  1000   0.101E-01    0.554E-02
DAV:   6    -0.699213250105E+02   -0.27443E-04   -0.35621E-05   616   0.131E-02
  31 F= -.69921325E+02 E0= -.69921325E+02  d E =-.224374E-01  mag=     1.0000
       N       E                     dE             d eps       ncg     rms          rms(c)
DAV:   1    -0.698345307521E+02    0.86767E-01   -0.22695E+02   944   0.267E+01    0.520E-01
DAV:   2    -0.699350400675E+02   -0.10051E+00   -0.99961E-01   972   0.249E+00    0.501E-01
DAV:   3    -0.699334278079E+02    0.16123E-02   -0.15328E-02  1040   0.304E-01    0.378E-01
DAV:   4    -0.699300194882E+02    0.34083E-02   -0.40641E-03   960   0.120E-01    0.223E-01
DAV:   5    -0.699292078446E+02    0.81164E-03   -0.49985E-03   988   0.131E-01    0.714E-02
DAV:   6    -0.699292484973E+02   -0.40653E-04   -0.64596E-05   600   0.178E-02
  32 F= -.69929248E+02 E0= -.69929248E+02  d E =-.303608E-01  mag=     1.0000
       N       E                     dE             d eps       ncg     rms          rms(c)
DAV:   1    -0.698982889931E+02    0.30919E-01   -0.12341E+02   944   0.197E+01    0.374E-01
DAV:   2    -0.699531229711E+02   -0.54834E-01   -0.54564E-01   976   0.184E+00    0.377E-01
DAV:   3    -0.699523270329E+02    0.79594E-03   -0.83583E-03  1032   0.227E-01    0.287E-01
DAV:   4    -0.699504334803E+02    0.18936E-02   -0.21884E-03   968   0.877E-02    0.173E-01
DAV:   5    -0.699499726652E+02    0.46082E-03   -0.31687E-03   988   0.104E-01    0.584E-02
DAV:   6    -0.699500045465E+02   -0.31881E-04   -0.40749E-05   592   0.138E-02
  33 F= -.69950005E+02 E0= -.69950005E+02  d E =-.207560E-01  mag=     1.0000
       N       E                     dE             d eps       ncg     rms          rms(c)
DAV:   1    -0.699207442996E+02    0.29228E-01   -0.80121E+01   944   0.158E+01    0.297E-01
DAV:   2    -0.699563025263E+02   -0.35558E-01   -0.35426E-01   972   0.148E+00    0.302E-01
DAV:   3    -0.699558186615E+02    0.48386E-03   -0.54243E-03  1032   0.183E-01    0.230E-01
DAV:   4    -0.699546004219E+02    0.12182E-02   -0.13942E-03   968   0.701E-02    0.140E-01
DAV:   5    -0.699543101710E+02    0.29025E-03   -0.21357E-03   980   0.854E-02    0.481E-02
DAV:   6    -0.699543380134E+02   -0.27842E-04   -0.28109E-05   584   0.113E-02
  34 F= -.69954338E+02 E0= -.69954338E+02  d E =-.250895E-01  mag=     1.0000
       N       E                     dE             d eps       ncg     rms          rms(c)
DAV:   1    -0.699528491940E+02    0.14610E-02   -0.52952E+01   944   0.128E+01    0.274E-01
DAV:   2    -0.699766834938E+02   -0.23834E-01   -0.23785E-01   980   0.121E+00    0.263E-01
DAV:   3    -0.699763906721E+02    0.29282E-03   -0.36124E-03  1020   0.147E-01    0.199E-01
DAV:   4    -0.699756178908E+02    0.77278E-03   -0.13106E-03   960   0.687E-02    0.104E-01
DAV:   5    -0.699755834507E+02    0.34440E-04   -0.91280E-04  1008   0.576E-02
  35 F= -.69975583E+02 E0= -.69975583E+02  d E =-.212454E-01  mag=     1.0000
       N       E                     dE             d eps       ncg     rms          rms(c)
DAV:   1    -0.699494033235E+02    0.26215E-01   -0.78382E+01   944   0.156E+01    0.331E-01
DAV:   2    -0.699849747392E+02   -0.35571E-01   -0.35405E-01   984   0.147E+00    0.315E-01
DAV:   3    -0.699846046569E+02    0.37008E-03   -0.53890E-03  1016   0.179E-01    0.236E-01
DAV:   4    -0.699835482797E+02    0.10564E-02   -0.17475E-03   976   0.801E-02    0.127E-01
DAV:   5    -0.699834847501E+02    0.63530E-04   -0.13544E-03  1000   0.700E-02    0.451E-02
DAV:   6    -0.699834892463E+02   -0.44963E-05   -0.39816E-05   580   0.125E-02
  36 F= -.69983489E+02 E0= -.69983489E+02  d E =-.291512E-01  mag=     1.0000
       N       E                     dE             d eps       ncg     rms          rms(c)
DAV:   1    -0.699782005825E+02    0.52842E-02   -0.54765E+01   944   0.130E+01    0.230E-01
DAV:   2    -0.700030926914E+02   -0.24892E-01   -0.24491E-01   984   0.122E+00    0.231E-01
DAV:   3    -0.700028550582E+02    0.23763E-03   -0.35958E-03  1024   0.143E-01    0.180E-01
DAV:   4    -0.700021397941E+02    0.71526E-03   -0.84714E-04   980   0.551E-02    0.108E-01
DAV:   5    -0.700019724909E+02    0.16730E-03   -0.13592E-03   988   0.677E-02    0.358E-02
DAV:   6    -0.700019961420E+02   -0.23651E-04   -0.14677E-05   600   0.854E-03
  37 F= -.70001996E+02 E0= -.70001996E+02  d E =-.185069E-01  mag=     1.0000
       N       E                     dE             d eps       ncg     rms          rms(c)
DAV:   1    -0.698868402783E+02    0.11513E+00   -0.29304E+02   944   0.303E+01    0.606E-01
DAV:   2    -0.700223263369E+02   -0.13549E+00   -0.13318E+00   992   0.286E+00    0.545E-01
DAV:   3    -0.700208107761E+02    0.15156E-02   -0.19912E-02  1008   0.341E-01    0.406E-01
DAV:   4    -0.700171878056E+02    0.36230E-02   -0.45577E-03  1008   0.128E-01    0.239E-01
DAV:   5    -0.700163380035E+02    0.84980E-03   -0.51922E-03  1000   0.133E-01    0.719E-02
DAV:   6    -0.700164285609E+02   -0.90557E-04   -0.60664E-05   640   0.180E-02
  38 F= -.70016429E+02 E0= -.70016429E+02  d E =-.329393E-01  mag=     1.0000
       N       E                     dE             d eps       ncg     rms          rms(c)
DAV:   1    -0.700146678640E+02    0.16701E-02   -0.37507E+01   944   0.107E+01    0.186E-01
DAV:   2    -0.700317348512E+02   -0.17067E-01   -0.16820E-01  1016   0.101E+00    0.185E-01
DAV:   3    -0.700315786476E+02    0.15620E-03   -0.24428E-03  1016   0.117E-01    0.144E-01
DAV:   4    -0.700311218074E+02    0.45684E-03   -0.57760E-04   976   0.454E-02    0.858E-02
DAV:   5    -0.700310523590E+02    0.69448E-04   -0.88189E-04  1000   0.543E-02
  39 F= -.70031052E+02 E0= -.70031052E+02  d E =-.146238E-01  mag=     1.0000
       N       E                     dE             d eps       ncg     rms          rms(c)
DAV:   1    -0.698971597815E+02    0.13396E+00   -0.34307E+02   944   0.327E+01    0.696E-01
DAV:   2    -0.700574437454E+02   -0.16028E+00   -0.15873E+00  1008   0.311E+00    0.579E-01
DAV:   3    -0.700554097382E+02    0.20340E-02   -0.23893E-02  1000   0.373E-01    0.420E-01
DAV:   4    -0.700514467713E+02    0.39630E-02   -0.51675E-03  1008   0.136E-01    0.244E-01
DAV:   5    -0.700505627119E+02    0.88406E-03   -0.51535E-03   984   0.133E-01    0.712E-02
DAV:   6    -0.700506680575E+02   -0.10535E-03   -0.63863E-05   640   0.189E-02    0.429E-02
DAV:   7    -0.700507564148E+02   -0.88357E-04   -0.34177E-05   632   0.112E-02
  40 F= -.70050756E+02 E0= -.70050756E+02  d E =-.343279E-01  mag=     1.0000
       N       E                     dE             d eps       ncg     rms          rms(c)
DAV:   1    -0.700597810729E+02   -0.91130E-02   -0.17056E+01   956   0.725E+00    0.167E-01
DAV:   2    -0.700675865343E+02   -0.78055E-02   -0.77344E-02  1000   0.684E-01    0.144E-01
DAV:   3    -0.700674868239E+02    0.99710E-04   -0.11821E-03  1032   0.827E-02    0.105E-01
DAV:   4    -0.700673033349E+02    0.18349E-03   -0.51694E-04   964   0.424E-02    0.450E-02
DAV:   5    -0.700673385421E+02   -0.35207E-04   -0.15028E-04   640   0.254E-02
  41 F= -.70067339E+02 E0= -.70067339E+02  d E =-.165821E-01  mag=     1.0000
       N       E                     dE             d eps       ncg     rms          rms(c)
DAV:   1    -0.700165529282E+02    0.50750E-01   -0.15427E+02   944   0.219E+01    0.563E-01
DAV:   2    -0.700878448541E+02   -0.71292E-01   -0.70986E-01   968   0.207E+00    0.433E-01
DAV:   3    -0.700866488555E+02    0.11960E-02   -0.11054E-02  1032   0.255E-01    0.302E-01
DAV:   4    -0.700848677521E+02    0.17811E-02   -0.46943E-03   968   0.128E-01    0.118E-01
DAV:   5    -0.700849402026E+02   -0.72451E-04   -0.95919E-04  1008   0.629E-02
  42 F= -.70084940E+02 E0= -.70084940E+02  d E =-.341838E-01  mag=     1.0000
       N       E                     dE             d eps       ncg     rms          rms(c)
DAV:   1    -0.700869282987E+02   -0.20605E-02   -0.25770E+01   944   0.893E+00    0.173E-01
DAV:   2    -0.700986287171E+02   -0.11700E-01   -0.11594E-01   984   0.835E-01    0.161E-01
DAV:   3    -0.700985042185E+02    0.12450E-03   -0.17115E-03  1024   0.979E-02    0.123E-01
DAV:   4    -0.700981858065E+02    0.31841E-03   -0.55866E-04   984   0.448E-02    0.640E-02
DAV:   5    -0.700981852678E+02    0.53873E-06   -0.46146E-04   980   0.401E-02
  43 F= -.70098185E+02 E0= -.70098185E+02  d E =-.132451E-01  mag=     1.0000
       N       E                     dE             d eps       ncg     rms          rms(c)
DAV:   1    -0.700744952659E+02    0.23691E-01   -0.72458E+01   944   0.150E+01    0.301E-01
DAV:   2    -0.701073552639E+02   -0.32860E-01   -0.32577E-01   980   0.140E+00    0.269E-01
DAV:   3    -0.701069062106E+02    0.44905E-03   -0.48191E-03  1008   0.164E-01    0.204E-01
DAV:   4    -0.701059308121E+02    0.97540E-03   -0.17150E-03   980   0.778E-02    0.999E-02
DAV:   5    -0.701058880415E+02    0.42771E-04   -0.11070E-03  1000   0.621E-02    0.370E-02
DAV:   6    -0.701058963685E+02   -0.83270E-05   -0.33723E-05   608   0.114E-02
  44 F= -.70105896E+02 E0= -.70105896E+02  d E =-.209562E-01  mag=     1.0000
       N       E                     dE             d eps       ncg     rms          rms(c)
DAV:   1    -0.701107678075E+02   -0.48798E-02   -0.13035E+01   944   0.638E+00    0.190E-01
DAV:   2    -0.701167023953E+02   -0.59346E-02   -0.59049E-02   972   0.604E-01    0.158E-01
DAV:   3    -0.701166039247E+02    0.98471E-04   -0.96607E-04  1024   0.758E-02
  45 F= -.70116604E+02 E0= -.70116604E+02  d E =-.107076E-01  mag=     1.0000
       N       E                     dE             d eps       ncg     rms          rms(c)
DAV:   1    -0.701141973947E+02    0.25050E-02   -0.14987E+01   944   0.684E+00    0.226E-01
DAV:   2    -0.701208785405E+02   -0.66811E-02   -0.67322E-02   972   0.643E-01    0.182E-01
DAV:   3    -0.701207251949E+02    0.15335E-03   -0.11194E-03  1040   0.802E-02    0.118E-01
DAV:   4    -0.701205754196E+02    0.14978E-03   -0.62989E-04   984   0.488E-02    0.331E-02
DAV:   5    -0.701205895327E+02   -0.14113E-04   -0.28870E-05   640   0.162E-02
  46 F= -.70120590E+02 E0= -.70120590E+02  d E =-.146932E-01  mag=     1.0000
       N       E                     dE             d eps       ncg     rms          rms(c)
DAV:   1    -0.701219562952E+02   -0.13809E-02   -0.10220E+01   944   0.564E+00    0.129E-01
DAV:   2    -0.701266020337E+02   -0.46457E-02   -0.46067E-02   976   0.528E-01    0.114E-01
DAV:   3    -0.701265429939E+02    0.59040E-04   -0.69392E-04  1032   0.624E-02
  47 F= -.70126543E+02 E0= -.70126543E+02  d E =-.595346E-02  mag=     1.0000
       N       E                     dE             d eps       ncg     rms          rms(c)
DAV:   1    -0.701238331580E+02    0.27689E-02   -0.10553E+01   944   0.574E+00    0.151E-01
DAV:   2    -0.701284996173E+02   -0.46665E-02   -0.46733E-02   980   0.532E-01    0.132E-01
DAV:   3    -0.701283995755E+02    0.10004E-03   -0.70771E-04  1024   0.618E-02    0.958E-02
DAV:   4    -0.701282578928E+02    0.14168E-03   -0.53457E-04   988   0.428E-02    0.295E-02
DAV:   5    -0.701282746745E+02   -0.16782E-04   -0.42223E-05   592   0.157E-02
  48 F= -.70128275E+02 E0= -.70128275E+02  d E =-.768514E-02  mag=     1.0000
       N       E                     dE             d eps       ncg     rms          rms(c)
DAV:   1    -0.701263216518E+02    0.19362E-02   -0.13230E+01   944   0.641E+00    0.123E-01
DAV:   2    -0.701323420897E+02   -0.60204E-02   -0.59502E-02   992   0.600E-01    0.122E-01
DAV:   3    -0.701322783971E+02    0.63693E-04   -0.88044E-04  1024   0.704E-02
  49 F= -.70132278E+02 E0= -.70132278E+02  d E =-.400372E-02  mag=     1.0000
       N       E                     dE             d eps       ncg     rms          rms(c)
DAV:   1    -0.701303230342E+02    0.20191E-02   -0.56179E+00   948   0.418E+00    0.108E-01
DAV:   2    -0.701326953708E+02   -0.23723E-02   -0.24179E-02  1008   0.385E-01    0.103E-01
DAV:   3    -0.701326228242E+02    0.72547E-04   -0.33997E-04   840   0.431E-02
  50 F= -.70132623E+02 E0= -.70132623E+02  d E =-.434815E-02  mag=     1.0000
       N       E                     dE             d eps       ncg     rms          rms(c)
DAV:   1    -0.701312505180E+02    0.14449E-02   -0.10517E+01   952   0.571E+00    0.106E-01
DAV:   2    -0.701360136931E+02   -0.47632E-02   -0.46762E-02   968   0.533E-01    0.108E-01
DAV:   3    -0.701359554463E+02    0.58247E-04   -0.67963E-04  1008   0.617E-02
  51 F= -.70135955E+02 E0= -.70135955E+02  d E =-.333262E-02  mag=     1.0000
       N       E                     dE             d eps       ncg     rms          rms(c)
DAV:   1    -0.700975138646E+02    0.38500E-01   -0.94736E+01   944   0.171E+01    0.347E-01
DAV:   2    -0.701401031052E+02   -0.42589E-01   -0.42327E-01   968   0.161E+00    0.329E-01
DAV:   3    -0.701392575725E+02    0.84553E-03   -0.62106E-03  1008   0.188E-01    0.256E-01
DAV:   4    -0.701375005082E+02    0.17571E-02   -0.30520E-03   984   0.101E-01    0.120E-01
DAV:   5    -0.701373949247E+02    0.10558E-03   -0.16795E-03  1000   0.775E-02    0.465E-02
DAV:   6    -0.701374169480E+02   -0.22023E-04   -0.49146E-05   592   0.143E-02
  52 F= -.70137417E+02 E0= -.70137417E+02  d E =-.479412E-02  mag=     1.0000
       N       E                     dE             d eps       ncg     rms          rms(c)
DAV:   1    -0.701348801202E+02    0.25148E-02   -0.79550E+00   952   0.496E+00    0.844E-02
DAV:   2    -0.701384895821E+02   -0.36095E-02   -0.35353E-02  1008   0.464E-01    0.926E-02
DAV:   3    -0.701384576905E+02    0.31892E-04   -0.52083E-04   992   0.545E-02
  53 F= -.70138458E+02 E0= -.70138458E+02  d E =-.583487E-02  mag=     1.0000
       N       E                     dE             d eps       ncg     rms          rms(c)
DAV:   1    -0.701338515715E+02    0.46380E-02   -0.19277E+01   944   0.774E+00    0.148E-01
DAV:   2    -0.701427708000E+02   -0.89192E-02   -0.87393E-02   992   0.725E-01    0.128E-01
DAV:   3    -0.701426827350E+02    0.88065E-04   -0.12850E-03  1020   0.863E-02    0.965E-02
DAV:   4    -0.701424687193E+02    0.21402E-03   -0.28767E-04   732   0.334E-02    0.534E-02
DAV:   5    -0.701424451133E+02    0.23606E-04   -0.38043E-04   928   0.387E-02
  54 F= -.70142445E+02 E0= -.70142445E+02  d E =-.398742E-02  mag=     1.0000
       N       E                     dE             d eps       ncg     rms          rms(c)
DAV:   1    -0.701295544313E+02    0.12914E-01   -0.30622E+01   944   0.976E+00    0.180E-01
DAV:   2    -0.701432996196E+02   -0.13745E-01   -0.13623E-01   976   0.907E-01    0.173E-01
DAV:   3    -0.701431046001E+02    0.19502E-03   -0.19679E-03  1004   0.104E-01    0.136E-01
DAV:   4    -0.701426405718E+02    0.46403E-03   -0.71159E-04   984   0.501E-02    0.706E-02
DAV:   5    -0.701425956236E+02    0.44948E-04   -0.60950E-04  1008   0.463E-02
  55 F= -.70142596E+02 E0= -.70142596E+02  d E =-.413793E-02  mag=     1.0000
       N       E                     dE             d eps       ncg     rms          rms(c)
DAV:   1    -0.701403277982E+02    0.23128E-02   -0.11334E+01   944   0.596E+00    0.205E-01
DAV:   2    -0.701453718348E+02   -0.50440E-02   -0.52532E-02   976   0.559E-01    0.153E-01
DAV:   3    -0.701452918661E+02    0.79969E-04   -0.92102E-04  1024   0.692E-02
  56 F= -.70145292E+02 E0= -.70145292E+02  d E =-.269624E-02  mag=     1.0000
       N       E                     dE             d eps       ncg     rms          rms(c)
DAV:   1    -0.701452390538E+02    0.13278E-03   -0.99100E-01   964   0.176E+00    0.440E-02
DAV:   2    -0.701456955077E+02   -0.45645E-03   -0.45416E-03   984   0.168E-01    0.376E-02
DAV:   3    -0.701456932077E+02    0.23001E-05   -0.70779E-05   608   0.214E-02
  57 F= -.70145693E+02 E0= -.70145693E+02  d E =-.309758E-02  mag=     1.0000
       N       E                     dE             d eps       ncg     rms          rms(c)
DAV:   1    -0.701459026196E+02   -0.20711E-03   -0.22698E+00   960   0.266E+00    0.559E-02
DAV:   2    -0.701469331146E+02   -0.10305E-02   -0.10323E-02   992   0.253E-01    0.534E-02
DAV:   3    -0.701469194754E+02    0.13639E-04   -0.14687E-04   592   0.321E-02
  58 F= -.70146919E+02 E0= -.70146919E+02  d E =-.122627E-02  mag=     1.0000
       N       E                     dE             d eps       ncg     rms          rms(c)
DAV:   1    -0.701469789159E+02   -0.45801E-04   -0.41713E-02   960   0.363E-01    0.212E-02
DAV:   2    -0.701469895753E+02   -0.10659E-04   -0.13985E-04   600   0.318E-02
  59 F= -.70146990E+02 E0= -.70146990E+02  d E =-.129637E-02  mag=     1.0000
