  53  53   0   0
  0.2340620E+03  0.2314918E-08  0.2314918E-08  0.2314918E-08  0.1000000E-15
  1.000000000000000E-004
  CAR 
 unknown system                          
      2.25805308    -10.19199390  301     -3.25109271      1.00000000
    -10.192  0.0000E+00  0.0000E+00  0.0000E+00  0.0000E+00
    -10.150  0.0000E+00  0.0000E+00  0.0000E+00  0.0000E+00
    -10.109  0.0000E+00  0.0000E+00  0.0000E+00  0.0000E+00
    -10.067  0.0000E+00  0.0000E+00  0.0000E+00  0.0000E+00
    -10.026  0.0000E+00  0.0000E+00  0.0000E+00  0.0000E+00
     -9.984  0.0000E+00  0.0000E+00  0.0000E+00  0.0000E+00
     -9.943  0.0000E+00  0.0000E+00  0.0000E+00  0.0000E+00
     -9.901  0.0000E+00  0.0000E+00  0.0000E+00  0.0000E+00
     -9.860  0.0000E+00  0.0000E+00  0.0000E+00  0.0000E+00
     -9.818  0.0000E+00  0.0000E+00  0.0000E+00  0.0000E+00
     -9.777  0.0000E+00  0.0000E+00  0.0000E+00  0.0000E+00
     -9.735  0.0000E+00  0.0000E+00  0.0000E+00  0.0000E+00
     -9.694  0.0000E+00  0.0000E+00  0.0000E+00  0.0000E+00
     -9.652  0.0000E+00  0.0000E+00  0.0000E+00  0.0000E+00
     -9.611  0.0000E+00  0.0000E+00  0.1000E-02  0.1000E-02
     -9.569  0.0000E+00  0.0000E+00  0.1000E-02  0.1000E-02
     -9.528  0.0000E+00  0.0000E+00  0.1000E-02  0.1000E-02
     -9.486  0.0000E+00  0.0000E+00  0.1000E-02  0.1000E-02
     -9.445  0.0000E+00  0.0000E+00  0.1000E-02  0.1000E-02
     -9.403  0.0000E+00  0.0000E+00  0.1000E-02  0.1000E-02
     -9.362  0.0000E+00  0.0000E+00  0.1000E-02  0.1000E-02
     -9.320  0.0000E+00  0.0000E+00  0.1000E-02  0.1000E-02
     -9.279  0.0000E+00  0.0000E+00  0.1000E-02  0.1000E-02
     -9.237  0.0000E+00  0.0000E+00  0.1000E-02  0.1000E-02
     -9.196  0.0000E+00  0.0000E+00  0.1000E-02  0.1000E-02
     -9.154  0.0000E+00  0.0000E+00  0.1000E-02  0.1000E-02
     -9.113  0.0000E+00  0.0000E+00  0.2000E-02  0.2000E-02
     -9.071  0.0000E+00  0.0000E+00  0.2000E-02  0.2000E-02
     -9.030  0.0000E+00  0.0000E+00  0.3000E-02  0.3000E-02
     -8.988  0.0000E+00  0.0000E+00  0.3000E-02  0.3000E-02
     -8.947  0.0000E+00  0.0000E+00  0.5000E-02  0.4000E-02
     -8.905  0.0000E+00  0.0000E+00  0.7000E-02  0.6000E-02
     -8.864  0.0000E+00  0.2410E-01  0.8000E-02  0.8000E-02
     -8.822  0.0000E+00  0.0000E+00  0.1200E-01  0.1100E-01
     -8.781  0.0000E+00  0.0000E+00  0.1300E-01  0.1300E-01
     -8.739  0.0000E+00  0.2410E-01  0.1400E-01  0.1400E-01
     -8.698  0.2410E-01  0.0000E+00  0.1600E-01  0.1500E-01
     -8.656  0.0000E+00  0.0000E+00  0.1900E-01  0.1900E-01
     -8.615  0.0000E+00  0.0000E+00  0.2300E-01  0.2200E-01
     -8.573  0.2410E-01  0.0000E+00  0.2600E-01  0.2500E-01
     -8.532  0.0000E+00  0.0000E+00  0.2800E-01  0.2800E-01
     -8.490  0.0000E+00  0.0000E+00  0.3200E-01  0.3100E-01
     -8.449  0.0000E+00  0.2410E-01  0.3500E-01  0.3500E-01
     -8.407  0.0000E+00  0.0000E+00  0.3700E-01  0.3700E-01
     -8.366  0.0000E+00  0.0000E+00  0.4100E-01  0.4100E-01
     -8.324  0.0000E+00  0.0000E+00  0.4300E-01  0.4200E-01
     -8.283  0.0000E+00  0.2410E-01  0.4700E-01  0.4700E-01
     -8.241  0.0000E+00  0.0000E+00  0.5000E-01  0.4900E-01
     -8.200  0.0000E+00  0.0000E+00  0.5400E-01  0.5400E-01
     -8.158  0.0000E+00  0.8972E-11  0.5800E-01  0.5600E-01
     -8.117  0.0000E+00  0.0000E+00  0.6000E-01  0.6000E-01
     -8.075  0.0000E+00  0.0000E+00  0.6200E-01  0.6200E-01
     -8.034  0.2356E-01  0.0000E+00  0.6698E-01  0.6600E-01
     -7.992  0.0000E+00  0.0000E+00  0.7000E-01  0.7000E-01
     -7.951  0.0000E+00  0.0000E+00  0.7400E-01  0.7400E-01
     -7.909  0.0000E+00  0.0000E+00  0.7800E-01  0.7700E-01
     -7.868  0.0000E+00  0.0000E+00  0.8100E-01  0.8100E-01
     -7.826  0.8033E-07  0.0000E+00  0.8400E-01  0.8300E-01
     -7.785  0.0000E+00  0.2025E-01  0.8800E-01  0.8684E-01
     -7.743  0.2410E-01  0.0000E+00  0.9200E-01  0.9000E-01
     -7.702  0.5206E-02  0.0000E+00  0.9422E-01  0.9400E-01
     -7.660  0.0000E+00  0.0000E+00  0.9800E-01  0.9700E-01
     -7.619  0.0000E+00  0.0000E+00  0.1010E+00  0.1010E+00
     -7.577  0.0000E+00  0.0000E+00  0.1030E+00  0.1030E+00
     -7.536  0.0000E+00  0.0000E+00  0.1080E+00  0.1070E+00
     -7.494  0.6116E-02  0.0000E+00  0.1113E+00  0.1110E+00
     -7.453  0.0000E+00  0.0000E+00  0.1130E+00  0.1130E+00
     -7.411  0.0000E+00  0.0000E+00  0.1160E+00  0.1160E+00
     -7.370  0.2410E-01  0.0000E+00  0.1210E+00  0.1200E+00
     -7.328  0.0000E+00  0.0000E+00  0.1240E+00  0.1240E+00
     -7.287  0.0000E+00  0.0000E+00  0.1270E+00  0.1260E+00
     -7.245  0.0000E+00  0.0000E+00  0.1300E+00  0.1290E+00
     -7.204  0.1164E-12  0.0000E+00  0.1340E+00  0.1340E+00
     -7.162  0.0000E+00  0.0000E+00  0.1380E+00  0.1380E+00
     -7.121  0.0000E+00  0.0000E+00  0.1410E+00  0.1410E+00
     -7.079  0.0000E+00  0.9024E-12  0.1450E+00  0.1440E+00
     -7.038  0.0000E+00  0.0000E+00  0.1490E+00  0.1490E+00
     -6.996  0.0000E+00  0.0000E+00  0.1520E+00  0.1520E+00
     -6.955  0.0000E+00  0.0000E+00  0.1580E+00  0.1570E+00
     -6.913  0.0000E+00  0.2031E-08  0.1610E+00  0.1600E+00
     -6.872  0.0000E+00  0.0000E+00  0.1650E+00  0.1650E+00
     -6.830  0.9077E-12  0.0000E+00  0.1670E+00  0.1670E+00
     -6.789  0.0000E+00  0.0000E+00  0.1720E+00  0.1720E+00
     -6.747  0.0000E+00  0.0000E+00  0.1760E+00  0.1760E+00
     -6.706  0.2410E-01  0.0000E+00  0.1820E+00  0.1810E+00
     -6.664  0.0000E+00  0.0000E+00  0.1880E+00  0.1870E+00
     -6.623  0.0000E+00  0.0000E+00  0.1930E+00  0.1920E+00
     -6.581  0.0000E+00  0.1800E-01  0.1980E+00  0.1977E+00
     -6.540  0.0000E+00  0.0000E+00  0.2040E+00  0.2030E+00
     -6.498  0.0000E+00  0.0000E+00  0.2090E+00  0.2080E+00
     -6.457  0.0000E+00  0.2898E-05  0.2150E+00  0.2140E+00
     -6.415  0.0000E+00  0.0000E+00  0.2220E+00  0.2210E+00
     -6.374  0.0000E+00  0.3956E-02  0.2270E+00  0.2262E+00
     -6.332  0.0000E+00  0.0000E+00  0.2330E+00  0.2320E+00
     -6.291  0.0000E+00  0.0000E+00  0.2370E+00  0.2370E+00
     -6.249  0.0000E+00  0.0000E+00  0.2430E+00  0.2430E+00
     -6.208  0.0000E+00  0.0000E+00  0.2470E+00  0.2460E+00
     -6.166  0.0000E+00  0.0000E+00  0.2510E+00  0.2510E+00
     -6.125  0.0000E+00  0.0000E+00  0.2570E+00  0.2560E+00
     -6.083  0.0000E+00  0.0000E+00  0.2600E+00  0.2600E+00
     -6.042  0.0000E+00  0.0000E+00  0.2640E+00  0.2630E+00
     -6.000  0.2410E-01  0.0000E+00  0.2670E+00  0.2660E+00
     -5.959  0.0000E+00  0.0000E+00  0.2690E+00  0.2680E+00
     -5.917  0.0000E+00  0.0000E+00  0.2710E+00  0.2710E+00
     -5.876  0.0000E+00  0.0000E+00  0.2730E+00  0.2730E+00
     -5.834  0.0000E+00  0.0000E+00  0.2730E+00  0.2730E+00
     -5.793  0.0000E+00  0.0000E+00  0.2740E+00  0.2740E+00
     -5.751  0.0000E+00  0.0000E+00  0.2740E+00  0.2740E+00
     -5.710  0.0000E+00  0.0000E+00  0.2740E+00  0.2740E+00
     -5.668  0.0000E+00  0.0000E+00  0.2740E+00  0.2740E+00
     -5.627  0.0000E+00  0.0000E+00  0.2740E+00  0.2740E+00
     -5.585  0.0000E+00  0.0000E+00  0.2740E+00  0.2740E+00
     -5.544  0.0000E+00  0.0000E+00  0.2740E+00  0.2740E+00
     -5.502  0.0000E+00  0.0000E+00  0.2740E+00  0.2740E+00
     -5.461  0.0000E+00  0.0000E+00  0.2750E+00  0.2750E+00
     -5.419  0.0000E+00  0.0000E+00  0.2750E+00  0.2750E+00
     -5.378  0.0000E+00  0.0000E+00  0.2750E+00  0.2750E+00
     -5.336  0.0000E+00  0.0000E+00  0.2750E+00  0.2750E+00
     -5.295  0.0000E+00  0.0000E+00  0.2760E+00  0.2750E+00
     -5.253  0.0000E+00  0.0000E+00  0.2760E+00  0.2760E+00
     -5.212  0.0000E+00  0.0000E+00  0.2760E+00  0.2760E+00
     -5.170  0.0000E+00  0.0000E+00  0.2760E+00  0.2760E+00
     -5.129  0.0000E+00  0.0000E+00  0.2770E+00  0.2770E+00
     -5.087  0.0000E+00  0.0000E+00  0.2770E+00  0.2770E+00
     -5.046  0.0000E+00  0.0000E+00  0.2770E+00  0.2770E+00
     -5.004  0.0000E+00  0.0000E+00  0.2780E+00  0.2770E+00
     -4.963  0.0000E+00  0.0000E+00  0.2790E+00  0.2780E+00
     -4.921  0.0000E+00  0.0000E+00  0.2790E+00  0.2790E+00
     -4.880  0.0000E+00  0.0000E+00  0.2800E+00  0.2790E+00
     -4.838  0.0000E+00  0.0000E+00  0.2800E+00  0.2800E+00
     -4.797  0.0000E+00  0.0000E+00  0.2800E+00  0.2800E+00
     -4.755  0.0000E+00  0.0000E+00  0.2800E+00  0.2800E+00
     -4.714  0.0000E+00  0.0000E+00  0.2800E+00  0.2800E+00
     -4.672  0.0000E+00  0.0000E+00  0.2820E+00  0.2810E+00
     -4.631  0.0000E+00  0.0000E+00  0.2820E+00  0.2820E+00
     -4.589  0.0000E+00  0.0000E+00  0.2820E+00  0.2820E+00
     -4.548  0.0000E+00  0.0000E+00  0.2820E+00  0.2820E+00
     -4.506  0.0000E+00  0.0000E+00  0.2820E+00  0.2820E+00
     -4.465  0.0000E+00  0.0000E+00  0.2820E+00  0.2820E+00
     -4.423  0.0000E+00  0.0000E+00  0.2820E+00  0.2820E+00
     -4.382  0.0000E+00  0.0000E+00  0.2820E+00  0.2820E+00
     -4.340  0.0000E+00  0.0000E+00  0.2820E+00  0.2820E+00
     -4.299  0.0000E+00  0.0000E+00  0.2820E+00  0.2820E+00
     -4.257  0.0000E+00  0.0000E+00  0.2820E+00  0.2820E+00
     -4.216  0.0000E+00  0.0000E+00  0.2830E+00  0.2820E+00
     -4.174  0.0000E+00  0.0000E+00  0.2830E+00  0.2830E+00
     -4.133  0.0000E+00  0.0000E+00  0.2830E+00  0.2830E+00
     -4.091  0.0000E+00  0.0000E+00  0.2830E+00  0.2830E+00
     -4.050  0.0000E+00  0.0000E+00  0.2830E+00  0.2830E+00
     -4.008  0.0000E+00  0.0000E+00  0.2840E+00  0.2830E+00
     -3.967  0.0000E+00  0.0000E+00  0.2840E+00  0.2840E+00
     -3.925  0.0000E+00  0.0000E+00  0.2850E+00  0.2850E+00
     -3.884  0.0000E+00  0.0000E+00  0.2850E+00  0.2850E+00
     -3.842  0.0000E+00  0.0000E+00  0.2860E+00  0.2860E+00
     -3.801  0.0000E+00  0.0000E+00  0.2860E+00  0.2860E+00
     -3.759  0.0000E+00  0.0000E+00  0.2870E+00  0.2860E+00
     -3.718  0.0000E+00  0.0000E+00  0.2870E+00  0.2870E+00
     -3.676  0.0000E+00  0.0000E+00  0.2870E+00  0.2870E+00
     -3.635  0.0000E+00  0.0000E+00  0.2880E+00  0.2870E+00
     -3.593  0.0000E+00  0.0000E+00  0.2880E+00  0.2880E+00
     -3.552  0.0000E+00  0.0000E+00  0.2880E+00  0.2880E+00
     -3.510  0.0000E+00  0.0000E+00  0.2890E+00  0.2890E+00
     -3.469  0.0000E+00  0.0000E+00  0.2890E+00  0.2890E+00
     -3.427  0.0000E+00  0.0000E+00  0.2890E+00  0.2890E+00
     -3.386  0.0000E+00  0.0000E+00  0.2900E+00  0.2900E+00
     -3.344  0.0000E+00  0.0000E+00  0.2900E+00  0.2900E+00
     -3.303  0.0000E+00  0.0000E+00  0.2910E+00  0.2910E+00
     -3.261  0.0000E+00  0.0000E+00  0.2920E+00  0.2910E+00
     -3.220  0.0000E+00  0.0000E+00  0.2920E+00  0.2910E+00
     -3.178  0.0000E+00  0.0000E+00  0.2920E+00  0.2920E+00
     -3.137  0.0000E+00  0.0000E+00  0.2920E+00  0.2920E+00
     -3.095  0.0000E+00  0.0000E+00  0.2930E+00  0.2930E+00
     -3.054  0.0000E+00  0.0000E+00  0.2930E+00  0.2930E+00
     -3.012  0.0000E+00  0.0000E+00  0.2930E+00  0.2930E+00
     -2.971  0.0000E+00  0.0000E+00  0.2930E+00  0.2930E+00
     -2.929  0.0000E+00  0.0000E+00  0.2940E+00  0.2930E+00
     -2.888  0.0000E+00  0.0000E+00  0.2940E+00  0.2940E+00
     -2.846  0.0000E+00  0.0000E+00  0.2940E+00  0.2940E+00
     -2.805  0.0000E+00  0.0000E+00  0.2940E+00  0.2940E+00
     -2.763  0.0000E+00  0.0000E+00  0.2940E+00  0.2940E+00
     -2.722  0.0000E+00  0.0000E+00  0.2940E+00  0.2940E+00
     -2.680  0.0000E+00  0.0000E+00  0.2940E+00  0.2940E+00
     -2.639  0.0000E+00  0.0000E+00  0.2950E+00  0.2940E+00
     -2.597  0.0000E+00  0.0000E+00  0.2960E+00  0.2960E+00
     -2.556  0.0000E+00  0.0000E+00  0.2960E+00  0.2960E+00
     -2.514  0.0000E+00  0.0000E+00  0.2970E+00  0.2970E+00
     -2.473  0.0000E+00  0.0000E+00  0.2970E+00  0.2970E+00
     -2.431  0.0000E+00  0.0000E+00  0.2970E+00  0.2970E+00
     -2.390  0.0000E+00  0.0000E+00  0.2980E+00  0.2970E+00
     -2.348  0.0000E+00  0.0000E+00  0.2990E+00  0.2980E+00
     -2.307  0.0000E+00  0.0000E+00  0.2990E+00  0.2990E+00
     -2.265  0.0000E+00  0.0000E+00  0.3000E+00  0.2990E+00
     -2.224  0.0000E+00  0.0000E+00  0.3000E+00  0.3000E+00
     -2.182  0.0000E+00  0.0000E+00  0.3020E+00  0.3010E+00
     -2.141  0.0000E+00  0.0000E+00  0.3020E+00  0.3020E+00
     -2.099  0.0000E+00  0.0000E+00  0.3020E+00  0.3020E+00
     -2.058  0.0000E+00  0.0000E+00  0.3020E+00  0.3020E+00
     -2.016  0.0000E+00  0.0000E+00  0.3030E+00  0.3020E+00
     -1.975  0.0000E+00  0.0000E+00  0.3040E+00  0.3030E+00
     -1.933  0.0000E+00  0.0000E+00  0.3040E+00  0.3040E+00
     -1.892  0.0000E+00  0.0000E+00  0.3040E+00  0.3040E+00
     -1.850  0.0000E+00  0.0000E+00  0.3040E+00  0.3040E+00
     -1.809  0.0000E+00  0.0000E+00  0.3050E+00  0.3040E+00
     -1.767  0.0000E+00  0.0000E+00  0.3050E+00  0.3050E+00
     -1.726  0.0000E+00  0.0000E+00  0.3060E+00  0.3050E+00
     -1.684  0.0000E+00  0.0000E+00  0.3060E+00  0.3060E+00
     -1.643  0.0000E+00  0.0000E+00  0.3070E+00  0.3070E+00
     -1.601  0.0000E+00  0.0000E+00  0.3080E+00  0.3070E+00
     -1.560  0.0000E+00  0.0000E+00  0.3090E+00  0.3080E+00
     -1.518  0.0000E+00  0.0000E+00  0.3090E+00  0.3090E+00
     -1.477  0.0000E+00  0.0000E+00  0.3100E+00  0.3100E+00
     -1.435  0.0000E+00  0.0000E+00  0.3110E+00  0.3100E+00
     -1.394  0.0000E+00  0.0000E+00  0.3110E+00  0.3110E+00
     -1.352  0.0000E+00  0.0000E+00  0.3110E+00  0.3110E+00
     -1.311  0.0000E+00  0.0000E+00  0.3110E+00  0.3110E+00
     -1.269  0.0000E+00  0.0000E+00  0.3120E+00  0.3120E+00
     -1.228  0.0000E+00  0.0000E+00  0.3130E+00  0.3120E+00
     -1.186  0.0000E+00  0.0000E+00  0.3130E+00  0.3130E+00
     -1.145  0.0000E+00  0.0000E+00  0.3140E+00  0.3140E+00
     -1.103  0.0000E+00  0.0000E+00  0.3150E+00  0.3140E+00
     -1.062  0.0000E+00  0.0000E+00  0.3160E+00  0.3150E+00
     -1.020  0.0000E+00  0.0000E+00  0.3160E+00  0.3160E+00
     -0.979  0.0000E+00  0.0000E+00  0.3160E+00  0.3160E+00
     -0.937  0.0000E+00  0.0000E+00  0.3160E+00  0.3160E+00
     -0.896  0.0000E+00  0.0000E+00  0.3180E+00  0.3170E+00
     -0.854  0.0000E+00  0.0000E+00  0.3190E+00  0.3190E+00
     -0.813  0.0000E+00  0.0000E+00  0.3190E+00  0.3190E+00
     -0.771  0.0000E+00  0.0000E+00  0.3190E+00  0.3190E+00
     -0.730  0.0000E+00  0.0000E+00  0.3200E+00  0.3190E+00
     -0.688  0.0000E+00  0.0000E+00  0.3200E+00  0.3200E+00
     -0.647  0.0000E+00  0.0000E+00  0.3210E+00  0.3200E+00
     -0.605  0.0000E+00  0.0000E+00  0.3210E+00  0.3210E+00
     -0.564  0.0000E+00  0.0000E+00  0.3220E+00  0.3220E+00
     -0.522  0.0000E+00  0.0000E+00  0.3230E+00  0.3230E+00
     -0.481  0.0000E+00  0.0000E+00  0.3230E+00  0.3230E+00
     -0.439  0.0000E+00  0.0000E+00  0.3230E+00  0.3230E+00
     -0.398  0.0000E+00  0.0000E+00  0.3230E+00  0.3230E+00
     -0.356  0.0000E+00  0.0000E+00  0.3240E+00  0.3230E+00
     -0.315  0.0000E+00  0.0000E+00  0.3240E+00  0.3240E+00
     -0.273  0.0000E+00  0.0000E+00  0.3240E+00  0.3240E+00
     -0.232  0.0000E+00  0.0000E+00  0.3240E+00  0.3240E+00
     -0.190  0.0000E+00  0.0000E+00  0.3250E+00  0.3250E+00
     -0.149  0.0000E+00  0.0000E+00  0.3250E+00  0.3250E+00
     -0.107  0.0000E+00  0.0000E+00  0.3270E+00  0.3270E+00
     -0.066  0.0000E+00  0.0000E+00  0.3280E+00  0.3270E+00
     -0.024  0.0000E+00  0.0000E+00  0.3290E+00  0.3280E+00
      0.017  0.0000E+00  0.0000E+00  0.3290E+00  0.3290E+00
      0.059  0.2410E-01  0.0000E+00  0.3310E+00  0.3290E+00
      0.100  0.0000E+00  0.0000E+00  0.3310E+00  0.3310E+00
      0.142  0.0000E+00  0.0000E+00  0.3310E+00  0.3310E+00
      0.183  0.0000E+00  0.0000E+00  0.3320E+00  0.3310E+00
      0.225  0.0000E+00  0.0000E+00  0.3330E+00  0.3330E+00
      0.266  0.0000E+00  0.0000E+00  0.3340E+00  0.3330E+00
      0.308  0.0000E+00  0.0000E+00  0.3340E+00  0.3340E+00
      0.349  0.0000E+00  0.0000E+00  0.3350E+00  0.3350E+00
      0.391  0.0000E+00  0.0000E+00  0.3360E+00  0.3360E+00
      0.432  0.0000E+00  0.0000E+00  0.3360E+00  0.3360E+00
      0.474  0.0000E+00  0.0000E+00  0.3360E+00  0.3360E+00
      0.515  0.0000E+00  0.0000E+00  0.3370E+00  0.3370E+00
      0.557  0.0000E+00  0.0000E+00  0.3380E+00  0.3380E+00
      0.598  0.0000E+00  0.0000E+00  0.3390E+00  0.3380E+00
      0.640  0.0000E+00  0.0000E+00  0.3390E+00  0.3390E+00
      0.681  0.0000E+00  0.0000E+00  0.3390E+00  0.3400E+00
      0.723  0.0000E+00  0.0000E+00  0.3410E+00  0.3400E+00
      0.764  0.0000E+00  0.0000E+00  0.3410E+00  0.3410E+00
      0.806  0.0000E+00  0.0000E+00  0.3410E+00  0.3410E+00
      0.847  0.0000E+00  0.0000E+00  0.3420E+00  0.3420E+00
      0.889  0.0000E+00  0.0000E+00  0.3430E+00  0.3420E+00
      0.930  0.0000E+00  0.0000E+00  0.3440E+00  0.3430E+00
      0.972  0.0000E+00  0.0000E+00  0.3450E+00  0.3440E+00
      1.013  0.0000E+00  0.0000E+00  0.3460E+00  0.3460E+00
      1.055  0.0000E+00  0.0000E+00  0.3490E+00  0.3480E+00
      1.096  0.0000E+00  0.0000E+00  0.3490E+00  0.3490E+00
      1.138  0.0000E+00  0.0000E+00  0.3520E+00  0.3510E+00
      1.179  0.0000E+00  0.0000E+00  0.3530E+00  0.3530E+00
      1.221  0.0000E+00  0.0000E+00  0.3560E+00  0.3560E+00
      1.262  0.0000E+00  0.0000E+00  0.3590E+00  0.3580E+00
      1.304  0.0000E+00  0.0000E+00  0.3600E+00  0.3590E+00
      1.345  0.2399E-01  0.0000E+00  0.3610E+00  0.3600E+00
      1.387  0.0000E+00  0.0000E+00  0.3620E+00  0.3610E+00
      1.428  0.0000E+00  0.0000E+00  0.3630E+00  0.3640E+00
      1.470  0.0000E+00  0.0000E+00  0.3660E+00  0.3660E+00
      1.511  0.0000E+00  0.0000E+00  0.3680E+00  0.3680E+00
      1.553  0.0000E+00  0.0000E+00  0.3700E+00  0.3690E+00
      1.594  0.0000E+00  0.6989E-14  0.3730E+00  0.3710E+00
      1.636  0.0000E+00  0.0000E+00  0.3740E+00  0.3730E+00
      1.677  0.0000E+00  0.0000E+00  0.3750E+00  0.3750E+00
      1.719  0.0000E+00  0.0000E+00  0.3760E+00  0.3760E+00
      1.760  0.0000E+00  0.0000E+00  0.3760E+00  0.3760E+00
      1.802  0.0000E+00  0.0000E+00  0.3760E+00  0.3760E+00
      1.843  0.0000E+00  0.0000E+00  0.3760E+00  0.3760E+00
      1.885  0.0000E+00  0.0000E+00  0.3760E+00  0.3760E+00
      1.926  0.0000E+00  0.0000E+00  0.3760E+00  0.3760E+00
      1.968  0.0000E+00  0.0000E+00  0.3760E+00  0.3760E+00
      2.009  0.0000E+00  0.0000E+00  0.3760E+00  0.3760E+00
      2.051  0.0000E+00  0.0000E+00  0.3760E+00  0.3760E+00
      2.092  0.0000E+00  0.0000E+00  0.3760E+00  0.3760E+00
      2.134  0.0000E+00  0.0000E+00  0.3760E+00  0.3760E+00
      2.175  0.0000E+00  0.0000E+00  0.3760E+00  0.3760E+00
      2.217  0.0000E+00  0.0000E+00  0.3760E+00  0.3760E+00
      2.258  0.0000E+00  0.0000E+00  0.3760E+00  0.3760E+00
