unknown system                          
           1
    20.787925    0.000000    0.000000
     0.000000   20.787925    0.000000
     0.000000    0.000000   20.787925
   Ag
  21
Direct configuration=     1
   0.57276368  0.50351954  0.49686621
   0.47967714  0.59393718  0.44732509
   0.44828676  0.46271355  0.50232418
   0.44987759  0.66985447  0.55665688
   0.58140798  0.63147854  0.53601441
   0.36625567  0.55999011  0.54558550
   0.32124863  0.42662837  0.50635070
   0.36133094  0.65510634  0.44566355
   0.60373286  0.58084597  0.39043557
   0.37153485  0.51887298  0.40516066
   0.49198987  0.55037954  0.61227580
   0.50681040  0.47808814  0.36975703
   0.62632463  0.51837610  0.62248004
   0.53435124  0.41415377  0.60428414
   0.65658879  0.40716053  0.53231048
   0.69588559  0.55141884  0.49784730
   0.64164093  0.44616336  0.39409962
   0.54234954  0.36982034  0.46042861
   0.41396659  0.37876159  0.40277456
   0.40177197  0.44698600  0.62857266
   0.43220434  0.33574474  0.54278700
Direct configuration=     2
   0.57278343  0.50350642  0.49687135
   0.47965491  0.59388258  0.44740924
   0.44826969  0.46269390  0.50231069
   0.44990747  0.66972144  0.55659477
   0.58132804  0.63134417  0.53598992
   0.36637091  0.55995974  0.54553512
   0.32141442  0.42667071  0.50634317
   0.36142657  0.65499511  0.44574681
   0.60366013  0.58072742  0.39052638
   0.37165016  0.51887009  0.40525577
   0.49198804  0.55032606  0.61215258
   0.50682863  0.47807407  0.36991656
   0.62622256  0.51833973  0.62236440
   0.53432743  0.41425080  0.60414722
   0.65646257  0.40725672  0.53228251
   0.69574975  0.55137357  0.49786259
   0.64151511  0.44623561  0.39419599
   0.54229386  0.36998149  0.46048784
   0.41403272  0.37884841  0.40285822
   0.40185674  0.44703372  0.62841334
   0.43225688  0.33590823  0.54273554
Direct configuration=     3
   0.57284267  0.50346705  0.49688678
   0.47958821  0.59371878  0.44766168
   0.44821850  0.46263496  0.50227021
   0.44999711  0.66932236  0.55640846
   0.58108822  0.63094107  0.53591643
   0.36671660  0.55986864  0.54538399
   0.32191180  0.42679776  0.50632056
   0.36171344  0.65466142  0.44599658
   0.60344191  0.58037177  0.39079880
   0.37199610  0.51886142  0.40554109
   0.49198254  0.55016564  0.61178292
   0.50688332  0.47803183  0.37039513
   0.62591636  0.51823061  0.62201750
   0.53425599  0.41454191  0.60373646
   0.65608393  0.40754529  0.53219857
   0.69534221  0.55123776  0.49790847
   0.64113764  0.44645236  0.39448509
   0.54212681  0.37046493  0.46066555
   0.41423111  0.37910886  0.40310921
   0.40211106  0.44717689  0.62793539
   0.43241447  0.33639870  0.54258115
Direct configuration=     4
   0.57296114  0.50338832  0.49691763
   0.47945482  0.59339118  0.44816656
   0.44811612  0.46251707  0.50218925
   0.45017639  0.66852420  0.55603583
   0.58060859  0.63013488  0.53576945
   0.36740798  0.55968642  0.54508173
   0.32290655  0.42705184  0.50627534
   0.36228720  0.65399404  0.44649614
   0.60300548  0.57966046  0.39134365
   0.37268798  0.51884409  0.40611174
   0.49197154  0.54984480  0.61104361
   0.50699271  0.47794735  0.37135228
   0.62530394  0.51801237  0.62132368
   0.53411311  0.41512411  0.60291493
   0.65532663  0.40812244  0.53203070
   0.69452715  0.55096614  0.49800021
   0.64038271  0.44688585  0.39506329
   0.54179273  0.37143182  0.46102095
   0.41462788  0.37962978  0.40361117
   0.40261970  0.44746321  0.62697947
   0.43272967  0.33737963  0.54227237
Direct configuration=     5
   0.57319809  0.50323086  0.49697934
   0.47918802  0.59273599  0.44917632
   0.44791136  0.46228131  0.50202734
   0.45053496  0.66692787  0.55529057
   0.57964931  0.62852249  0.53547549
   0.36879075  0.55932198  0.54447722
   0.32489604  0.42756000  0.50618491
   0.36343471  0.65265928  0.44749525
   0.60213261  0.57823784  0.39243334
   0.37407173  0.51880942  0.40725305
   0.49194955  0.54920312  0.60956498
   0.50721149  0.47777840  0.37326659
   0.62407910  0.51757590  0.61993604
   0.53382736  0.41628853  0.60127189
   0.65381204  0.40927673  0.53169497
   0.69289701  0.55042291  0.49818371
   0.63887284  0.44775284  0.39621969
   0.54112456  0.37336559  0.46173176
   0.41542142  0.38067160  0.40461510
   0.40363697  0.44803586  0.62506763
   0.43336005  0.33934150  0.54165482
Direct configuration=     6
   0.57313893  0.50327017  0.49696393
   0.47925463  0.59289957  0.44892420
   0.44796248  0.46234017  0.50206776
   0.45044544  0.66732643  0.55547664
   0.57988882  0.62892506  0.53554889
   0.36844551  0.55941297  0.54462815
   0.32439931  0.42743312  0.50620749
   0.36314820  0.65299253  0.44724580
   0.60235054  0.57859304  0.39216127
   0.37372624  0.51881808  0.40696809
   0.49195504  0.54936333  0.60993416
   0.50715687  0.47782059  0.37278863
   0.62438492  0.51768488  0.62028250
   0.53389871  0.41599780  0.60168212
   0.65419020  0.40898853  0.53177879
   0.69330401  0.55055854  0.49813789
   0.63924982  0.44753638  0.39593096
   0.54129139  0.37288278  0.46155429
   0.41522329  0.38041148  0.40436445
   0.40338298  0.44789288  0.62554497
   0.43320266  0.33885167  0.54180901
Direct configuration=     7
   0.57238176  0.50329288  0.49703035
   0.47946272  0.59253805  0.44900794
   0.44864214  0.46290416  0.50191115
   0.45051622  0.66716523  0.55539952
   0.57972441  0.62867916  0.53554297
   0.36860521  0.55937404  0.54462136
   0.32441495  0.42741592  0.50615865
   0.36320903  0.65286061  0.44737944
   0.60212485  0.57851435  0.39216907
   0.37391660  0.51885648  0.40706910
   0.49196966  0.54931462  0.60971574
   0.50713652  0.47787005  0.37312070
   0.62427306  0.51764817  0.62027204
   0.53392217  0.41607097  0.60143922
   0.65410561  0.40903463  0.53182737
   0.69320130  0.55054368  0.49819908
   0.63918377  0.44754852  0.39604241
   0.54127170  0.37306857  0.46161711
   0.41524060  0.38043415  0.40426695
   0.40336027  0.44802642  0.62547754
   0.43333746  0.33883932  0.54173229
Direct configuration=     8
   0.57172456  0.50331260  0.49708800
   0.47964333  0.59222427  0.44908062
   0.44923207  0.46339369  0.50177521
   0.45057765  0.66702531  0.55533257
   0.57958170  0.62846572  0.53553784
   0.36874382  0.55934025  0.54461546
   0.32442852  0.42740099  0.50611627
   0.36326183  0.65274610  0.44749544
   0.60192895  0.57844606  0.39217585
   0.37408183  0.51888982  0.40715677
   0.49198234  0.54927235  0.60952617
   0.50711885  0.47791299  0.37340892
   0.62417597  0.51761631  0.62026295
   0.53394254  0.41613449  0.60122839
   0.65403219  0.40907465  0.53186953
   0.69311215  0.55053078  0.49825219
   0.63912644  0.44755906  0.39613914
   0.54125461  0.37322984  0.46167164
   0.41525562  0.38045382  0.40418233
   0.40334056  0.44814233  0.62541901
   0.43345447  0.33882860  0.54166571
Direct configuration=     9
   0.57173349  0.50339025  0.49717728
   0.47971547  0.59207718  0.44903999
   0.44918133  0.46357557  0.50173126
   0.45061881  0.66699896  0.55528934
   0.57955627  0.62840730  0.53558971
   0.36877107  0.55930031  0.54468226
   0.32460043  0.42741264  0.50604061
   0.36329278  0.65268235  0.44755944
   0.60181172  0.57847434  0.39207828
   0.37411673  0.51891730  0.40715309
   0.49198422  0.54928806  0.60951291
   0.50707633  0.47793797  0.37346376
   0.62415988  0.51760391  0.62035272
   0.53396505  0.41605121  0.60117205
   0.65400553  0.40915361  0.53192130
   0.69289341  0.55047288  0.49830632
   0.63915863  0.44754333  0.39624861
   0.54131103  0.37315347  0.46164956
   0.41522185  0.38046812  0.40409059
   0.40325569  0.44823032  0.62538180
   0.43357029  0.33886091  0.54155912
Direct configuration=    10
   0.57174727  0.50351013  0.49731512
   0.47982682  0.59185011  0.44897727
   0.44910301  0.46385636  0.50166343
   0.45068236  0.66695828  0.55522259
   0.57951703  0.62831712  0.53566977
   0.36881314  0.55923865  0.54478539
   0.32486581  0.42743063  0.50592382
   0.36334056  0.65258394  0.44765824
   0.60163075  0.57851800  0.39192766
   0.37417059  0.51895973  0.40714742
   0.49198712  0.54931231  0.60949244
   0.50701069  0.47797653  0.37354843
   0.62413503  0.51758477  0.62049130
   0.53399979  0.41592266  0.60108508
   0.65396437  0.40927551  0.53200122
   0.69255572  0.55038349  0.49838988
   0.63920833  0.44751906  0.39641761
   0.54139814  0.37303557  0.46161546
   0.41516972  0.38049020  0.40394896
   0.40312466  0.44836617  0.62532435
   0.43374910  0.33891078  0.54139457
Direct configuration=    11
   0.57182476  0.50342817  0.49733810
   0.47977983  0.59190001  0.44894050
   0.44907411  0.46370384  0.50166937
   0.45070719  0.66696721  0.55515720
   0.57954010  0.62841422  0.53575433
   0.36876421  0.55930060  0.54489639
   0.32494986  0.42739526  0.50582143
   0.36337812  0.65254179  0.44770020
   0.60159793  0.57853162  0.39179412
   0.37409619  0.51900256  0.40704408
   0.49199210  0.54930569  0.60957402
   0.50701372  0.47793897  0.37350237
   0.62412978  0.51755991  0.62064568
   0.53396338  0.41585223  0.60107950
   0.65398866  0.40931531  0.53207643
   0.69243658  0.55037793  0.49841987
   0.63923120  0.44753545  0.39652982
   0.54141360  0.37301197  0.46158537
   0.41517655  0.38052746  0.40390660
   0.40308617  0.44839725  0.62529525
   0.43385597  0.33899256  0.54126937
Direct configuration=    12
   0.57190473  0.50334359  0.49736181
   0.47973134  0.59195149  0.44890254
   0.44904429  0.46354646  0.50167551
   0.45073281  0.66697641  0.55508971
   0.57956391  0.62851444  0.53584159
   0.36871373  0.55936453  0.54501094
   0.32503660  0.42735875  0.50571576
   0.36341688  0.65249829  0.44774350
   0.60156406  0.57854568  0.39165632
   0.37401941  0.51904676  0.40693743
   0.49199723  0.54929887  0.60965820
   0.50701684  0.47790022  0.37345485
   0.62412437  0.51753424  0.62080498
   0.53392580  0.41577955  0.60107374
   0.65401372  0.40935639  0.53215405
   0.69231364  0.55037218  0.49845083
   0.63925479  0.44755236  0.39664561
   0.54142955  0.37298761  0.46155432
   0.41518360  0.38056591  0.40386289
   0.40304645  0.44842932  0.62526523
   0.43396625  0.33907695  0.54114017
Direct configuration=    13
   0.57181058  0.50337067  0.49739762
   0.47976342  0.59191490  0.44887395
   0.44909294  0.46359543  0.50163051
   0.45077680  0.66699389  0.55501626
   0.57956797  0.62854609  0.53592647
   0.36868645  0.55938363  0.54514600
   0.32507868  0.42730828  0.50554935
   0.36341618  0.65246992  0.44778982
   0.60148850  0.57852879  0.39151673
   0.37398300  0.51909270  0.40684133
   0.49201178  0.54928859  0.60973078
   0.50702861  0.47787853  0.37342294
   0.62408606  0.51748369  0.62100012
   0.53390341  0.41571498  0.60108732
   0.65407817  0.40937131  0.53230022
   0.69216777  0.55039961  0.49849543
   0.63931294  0.44757167  0.39677201
   0.54149217  0.37295637  0.46149613
   0.41518422  0.38060051  0.40376153
   0.40298881  0.44847188  0.62524295
   0.43408156  0.33905858  0.54100253
Direct configuration=    14
   0.57159638  0.50343231  0.49747908
   0.47983643  0.59183164  0.44880890
   0.44920363  0.46370683  0.50152812
   0.45087687  0.66703364  0.55484916
   0.57957720  0.62861812  0.53611957
   0.36862438  0.55942707  0.54545327
   0.32517440  0.42719344  0.50517076
   0.36341459  0.65240538  0.44789522
   0.60131659  0.57849035  0.39119914
   0.37390016  0.51919719  0.40662269
   0.49204488  0.54926520  0.60989592
   0.50705540  0.47782919  0.37335034
   0.62399890  0.51736868  0.62144407
   0.53385245  0.41556806  0.60111821
   0.65422480  0.40940526  0.53263276
   0.69183591  0.55046200  0.49859691
   0.63944524  0.44761562  0.39705956
   0.54163463  0.37288531  0.46136374
   0.41518562  0.38067921  0.40353093
   0.40285767  0.44856871  0.62519228
   0.43434389  0.33901680  0.54068936
Direct configuration=    15
   0.57164689  0.50350606  0.49762143
   0.47985717  0.59177811  0.44879230
   0.44904233  0.46385816  0.50145932
   0.45092534  0.66703020  0.55475307
   0.57956277  0.62854150  0.53619959
   0.36865785  0.55936821  0.54554573
   0.32525455  0.42716344  0.50488365
   0.36338671  0.65235902  0.44796117
   0.60123896  0.57839996  0.39110582
   0.37397245  0.51923870  0.40659158
   0.49204004  0.54926514  0.60993741
   0.50711062  0.47781304  0.37332538
   0.62388066  0.51724023  0.62156937
   0.53384045  0.41555319  0.60113869
   0.65418417  0.40950937  0.53283637
   0.69164521  0.55052028  0.49866187
   0.63952527  0.44766747  0.39723614
   0.54175504  0.37292413  0.46132154
   0.41521504  0.38074144  0.40342462
   0.40282777  0.44856602  0.62509009
   0.43443070  0.33895635  0.54054487
Direct configuration=    16
   0.57166574  0.50353359  0.49767454
   0.47986490  0.59175814  0.44878610
   0.44898215  0.46391463  0.50143365
   0.45094343  0.66702891  0.55471721
   0.57955738  0.62851291  0.53622944
   0.36867034  0.55934625  0.54558023
   0.32528446  0.42715225  0.50477652
   0.36337631  0.65234172  0.44798577
   0.60120999  0.57836623  0.39107100
   0.37399942  0.51925418  0.40657997
   0.49203824  0.54926512  0.60995289
   0.50713123  0.47780702  0.37331606
   0.62383654  0.51719230  0.62161612
   0.53383597  0.41554764  0.60114634
   0.65416902  0.40954822  0.53291234
   0.69157405  0.55054202  0.49868610
   0.63955513  0.44768681  0.39730203
   0.54179998  0.37293861  0.46130579
   0.41522602  0.38076465  0.40338495
   0.40281661  0.44856501  0.62505197
   0.43446309  0.33893380  0.54049095
Direct configuration=    17
   0.57153630  0.50344690  0.49768259
   0.47986450  0.59177188  0.44879140
   0.44912677  0.46385773  0.50143605
   0.45093860  0.66702046  0.55468806
   0.57954452  0.62851561  0.53625836
   0.36866738  0.55937481  0.54559113
   0.32521640  0.42712211  0.50462544
   0.36335339  0.65231534  0.44801601
   0.60121267  0.57832110  0.39108358
   0.37402770  0.51928843  0.40653216
   0.49199596  0.54927183  0.60994924
   0.50719222  0.47779959  0.37333373
   0.62379954  0.51711830  0.62164746
   0.53377016  0.41555711  0.60112988
   0.65412842  0.40958315  0.53300912
   0.69164517  0.55061535  0.49870561
   0.63959637  0.44770813  0.39736211
   0.54179526  0.37304903  0.46134399
   0.41527796  0.38079240  0.40337344
   0.40282952  0.44850337  0.62499943
   0.43448118  0.33896736  0.54044121
Direct configuration=    18
   0.57153644  0.50344699  0.49768258
   0.47986450  0.59177187  0.44879139
   0.44912662  0.46385779  0.50143605
   0.45093860  0.66702047  0.55468809
   0.57954454  0.62851561  0.53625833
   0.36866738  0.55937478  0.54559111
   0.32521648  0.42712214  0.50462560
   0.36335341  0.65231537  0.44801597
   0.60121266  0.57832115  0.39108357
   0.37402767  0.51928839  0.40653221
   0.49199600  0.54927183  0.60994924
   0.50719216  0.47779960  0.37333372
   0.62379958  0.51711838  0.62164743
   0.53377023  0.41555710  0.60112990
   0.65412847  0.40958311  0.53300902
   0.69164509  0.55061527  0.49870559
   0.63959632  0.44770811  0.39736205
   0.54179526  0.37304891  0.46134395
   0.41527791  0.38079237  0.40337345
   0.40282950  0.44850344  0.62499948
   0.43448117  0.33896733  0.54044127
