unknown system                          
           1
    17.850382    0.000000    0.000000
     0.000000   17.850382    0.000000
     0.000000    0.000000   17.850382
   Ag
  12
Direct configuration=     1
   0.42167538  0.59359889  0.63411173
   0.50596341  0.47237562  0.62860326
   0.43249044  0.64701386  0.43963782
   0.53598553  0.62672228  0.54525180
   0.62547560  0.56109578  0.64480474
   0.40496490  0.51639371  0.50921196
   0.63792086  0.61077764  0.43758328
   0.63091180  0.48507603  0.51496858
   0.60093207  0.36309201  0.59568888
   0.40753324  0.43216051  0.38571223
   0.52032548  0.52865274  0.40266726
   0.50450551  0.39052594  0.48860636
Direct configuration=     2
   0.42139525  0.59374611  0.63440787
   0.50587674  0.47234158  0.62848409
   0.43226649  0.64732555  0.43942353
   0.53602510  0.62663642  0.54521912
   0.62581025  0.56120766  0.64515845
   0.40493557  0.51627671  0.50927924
   0.63826492  0.61097756  0.43735575
   0.63082852  0.48504839  0.51493853
   0.60128934  0.36274424  0.59603171
   0.40719167  0.43207290  0.38531126
   0.52034563  0.52857989  0.40266234
   0.50445474  0.39052801  0.48857603
Direct configuration=     3
   0.42055487  0.59418777  0.63529628
   0.50561672  0.47223945  0.62812658
   0.43159466  0.64826062  0.43878065
   0.53614380  0.62637883  0.54512109
   0.62681421  0.56154328  0.64621957
   0.40484759  0.51592570  0.50948109
   0.63929709  0.61157730  0.43667314
   0.63057868  0.48496548  0.51484839
   0.60236115  0.36170096  0.59706019
   0.40616696  0.43181007  0.38410833
   0.52040609  0.52836134  0.40264757
   0.50430241  0.39053422  0.48848503
Direct configuration=     4
   0.41887411  0.59507110  0.63707311
   0.50509670  0.47203518  0.62741156
   0.43025099  0.65013077  0.43749489
   0.53638122  0.62586365  0.54492501
   0.62882211  0.56221452  0.64834182
   0.40467163  0.51522368  0.50988479
   0.64136143  0.61277679  0.43530792
   0.63007900  0.48479966  0.51466810
   0.60450476  0.35961440  0.59911715
   0.40411753  0.43128440  0.38170249
   0.52052699  0.52792424  0.40261803
   0.50399776  0.39054664  0.48830302
Direct configuration=     5
   0.41551259  0.59683777  0.64062677
   0.50405664  0.47162665  0.62598152
   0.42756364  0.65387105  0.43492336
   0.53685604  0.62483329  0.54453286
   0.63283792  0.56355701  0.65258633
   0.40431971  0.51381963  0.51069220
   0.64549012  0.61517577  0.43257749
   0.62907964  0.48446801  0.51430753
   0.60879199  0.35544127  0.60323107
   0.40001867  0.43023306  0.37689079
   0.52076881  0.52705004  0.40255897
   0.50338846  0.39057147  0.48793901
Direct configuration=     6
   0.41703235  0.59603905  0.63902014
   0.50452685  0.47181135  0.62662805
   0.42877860  0.65218005  0.43608596
   0.53664137  0.62529912  0.54471015
   0.63102235  0.56295006  0.65066736
   0.40447882  0.51445441  0.51032717
   0.64362352  0.61409118  0.43381193
   0.62953146  0.48461795  0.51447055
   0.60685371  0.35732797  0.60137114
   0.40187179  0.43070838  0.37906619
   0.52065948  0.52744527  0.40258567
   0.50366392  0.39056025  0.48810358
Direct configuration=     7
   0.41677117  0.59587890  0.63918774
   0.50514657  0.47209241  0.62612033
   0.42866692  0.65228080  0.43594752
   0.53656682  0.62430282  0.54449313
   0.63127219  0.56290906  0.65100983
   0.40466603  0.51474072  0.51009712
   0.64386288  0.61380128  0.43343513
   0.62902158  0.48488045  0.51508059
   0.60709180  0.35745938  0.60155256
   0.40152913  0.43090666  0.37871862
   0.52039666  0.52771017  0.40297500
   0.50369247  0.39052238  0.48823032
Direct configuration=     8
   0.41598762  0.59539845  0.63969054
   0.50700573  0.47293561  0.62459718
   0.42833185  0.65258306  0.43553220
   0.53634317  0.62131393  0.54384208
   0.63202171  0.56278604  0.65203722
   0.40522767  0.51559966  0.50940700
   0.64458097  0.61293157  0.43230470
   0.62749195  0.48566794  0.51691072
   0.60780608  0.35785363  0.60209682
   0.40050117  0.43150150  0.37767594
   0.51960821  0.52850487  0.40414298
   0.50377810  0.39040877  0.48861052
Direct configuration=     9
   0.41442053  0.59443756  0.64069615
   0.51072405  0.47462200  0.62155087
   0.42766173  0.65318757  0.43470155
   0.53589587  0.61533614  0.54253997
   0.63352076  0.56254000  0.65409201
   0.40635094  0.51731754  0.50802675
   0.64601715  0.61119217  0.43004386
   0.62443269  0.48724292  0.52057098
   0.60923463  0.35864211  0.60318533
   0.39844523  0.43269119  0.37559056
   0.51803129  0.53009426  0.40647894
   0.50394936  0.39018155  0.48937093
Direct configuration=    10
   0.41534680  0.59500553  0.64010176
   0.50852623  0.47362521  0.62335148
   0.42805783  0.65283026  0.43519253
   0.53616026  0.61886948  0.54330962
   0.63263470  0.56268543  0.65287747
   0.40568700  0.51630214  0.50884259
   0.64516826  0.61222029  0.43138020
   0.62624095  0.48631198  0.51840748
   0.60839024  0.35817606  0.60254193
   0.39966045  0.43198799  0.37682318
   0.51896337  0.52915481  0.40509820
   0.50384813  0.39031586  0.48892147
Direct configuration=    11
   0.41543584  0.59431060  0.63987043
   0.50905077  0.47434653  0.62367334
   0.42786806  0.65307341  0.43497524
   0.53579435  0.61759015  0.54312557
   0.63305765  0.56280870  0.65371580
   0.40524362  0.51663637  0.50856926
   0.64508480  0.61132396  0.43121561
   0.62658718  0.48675955  0.51867218
   0.60870665  0.35846936  0.60255328
   0.40004389  0.43269385  0.37718588
   0.51849100  0.52931725  0.40481955
   0.50332042  0.39015529  0.48847177
Direct configuration=    12
   0.41559187  0.59309283  0.63946505
   0.50996996  0.47561057  0.62423737
   0.42753551  0.65349951  0.43459445
   0.53515314  0.61534827  0.54280305
   0.63379882  0.56302472  0.65518487
   0.40446665  0.51722208  0.50809027
   0.64493857  0.60975325  0.43092720
   0.62719389  0.48754385  0.51913604
   0.60926111  0.35898334  0.60257316
   0.40071583  0.43393078  0.37782147
   0.51766323  0.52960192  0.40433125
   0.50239566  0.38987392  0.48768372
Direct configuration=    13
   0.41516383  0.59253240  0.63965097
   0.51091085  0.47532698  0.62458928
   0.42722516  0.65389769  0.43420246
   0.53469393  0.61446607  0.54260670
   0.63441959  0.56335523  0.65612070
   0.40362492  0.51743099  0.50798703
   0.64487199  0.60904584  0.43049675
   0.62782989  0.48702459  0.51954206
   0.60927630  0.35976696  0.60209473
   0.40066276  0.43448156  0.37782029
   0.51753910  0.52987745  0.40364887
   0.50246590  0.39027927  0.48808805
Direct configuration=    14
   0.41497579  0.59228620  0.63973264
   0.51132418  0.47520240  0.62474388
   0.42708882  0.65407261  0.43403026
   0.53449220  0.61407852  0.54252044
   0.63469230  0.56350042  0.65653182
   0.40325514  0.51752276  0.50794168
   0.64484275  0.60873508  0.43030766
   0.62810929  0.48679648  0.51972043
   0.60928298  0.36011120  0.60188455
   0.40063945  0.43472352  0.37781978
   0.51748456  0.52999848  0.40334910
   0.50249676  0.39045734  0.48826568
Direct configuration=    15
   0.41459373  0.59167445  0.64012183
   0.51142265  0.47515671  0.62500320
   0.42694847  0.65412483  0.43377543
   0.53429580  0.61390488  0.54244844
   0.63494559  0.56375718  0.65651906
   0.40317877  0.51760226  0.50791854
   0.64484287  0.60852621  0.43012891
   0.62862590  0.48683285  0.51966866
   0.60949689  0.35971255  0.60173836
   0.40022393  0.43472936  0.37752898
   0.51742889  0.53016510  0.40324924
   0.50268073  0.39129865  0.48874727
Direct configuration=    16
   0.41388103  0.59053331  0.64084780
   0.51160634  0.47507147  0.62548693
   0.42668665  0.65422225  0.43330008
   0.53392943  0.61358098  0.54231413
   0.63541807  0.56423611  0.65649527
   0.40303632  0.51775054  0.50787538
   0.64484311  0.60813660  0.42979547
   0.62958957  0.48690069  0.51957210
   0.60989592  0.35896892  0.60146567
   0.39944884  0.43474026  0.37698652
   0.51732505  0.53047590  0.40306296
   0.50302390  0.39286800  0.48964560
Direct configuration=    17
   0.41352219  0.58957169  0.64123675
   0.51214663  0.47512765  0.62574215
   0.42661570  0.65415828  0.43312964
   0.53364048  0.61345361  0.54245238
   0.63549501  0.56456648  0.65594452
   0.40311548  0.51784034  0.50768191
   0.64491778  0.60813914  0.42964725
   0.62990522  0.48700399  0.51993494
   0.61008429  0.35862719  0.60130737
   0.39938745  0.43483938  0.37709404
   0.51691693  0.53035846  0.40306239
   0.50293707  0.39379882  0.48961458
Direct configuration=    18
   0.41326533  0.58888334  0.64151517
   0.51253338  0.47516787  0.62592485
   0.42656490  0.65411248  0.43300763
   0.53343365  0.61336243  0.54255134
   0.63555008  0.56480296  0.65555028
   0.40317214  0.51790463  0.50754342
   0.64497124  0.60814096  0.42954114
   0.63013117  0.48707793  0.52019468
   0.61021914  0.35838257  0.60119405
   0.39934350  0.43491033  0.37717100
   0.51662479  0.53027440  0.40306198
   0.50287492  0.39446513  0.48959237
Direct configuration=    19
   0.41300176  0.58793271  0.64175635
   0.51322226  0.47500382  0.62609431
   0.42656484  0.65406933  0.43297777
   0.53311900  0.61336246  0.54264461
   0.63575346  0.56548508  0.65510704
   0.40298178  0.51812843  0.50763372
   0.64466801  0.60802865  0.42962656
   0.63013676  0.48718959  0.52045547
   0.61016782  0.35833121  0.60092270
   0.39933821  0.43483338  0.37735705
   0.51685943  0.53038562  0.40299494
   0.50287091  0.39473476  0.48927740
Direct configuration=    20
   0.41233728  0.58553601  0.64236440
   0.51495905  0.47459022  0.62652154
   0.42656469  0.65396053  0.43290250
   0.53232572  0.61336252  0.54287978
   0.63626621  0.56720482  0.65398958
   0.40250184  0.51869266  0.50786136
   0.64390353  0.60774551  0.42984189
   0.63015083  0.48747109  0.52111295
   0.61003843  0.35820174  0.60023859
   0.39932488  0.43463936  0.37782611
   0.51745099  0.53066601  0.40282591
   0.50286080  0.39541455  0.48848330
Direct configuration=    21
   0.41247879  0.58556439  0.64296921
   0.51421911  0.47488710  0.62660166
   0.42655322  0.65410311  0.43277256
   0.53199064  0.61345019  0.54297186
   0.63673200  0.56812778  0.65439826
   0.40274669  0.51825218  0.50725017
   0.64435599  0.60819098  0.42998909
   0.63026371  0.48736521  0.52049568
   0.61019673  0.35756165  0.60000231
   0.39935997  0.43475266  0.37787811
   0.51664016  0.53019145  0.40284852
   0.50314722  0.39503833  0.48867048
Direct configuration=    22
   0.41245050  0.58555872  0.64284831
   0.51436702  0.47482776  0.62658564
   0.42655551  0.65407461  0.43279854
   0.53205762  0.61343267  0.54295346
   0.63663889  0.56794328  0.65431656
   0.40269775  0.51834023  0.50737234
   0.64426554  0.60810193  0.42995967
   0.63024115  0.48738638  0.52061907
   0.61016509  0.35768960  0.60004954
   0.39935296  0.43473001  0.37786771
   0.51680224  0.53028631  0.40284400
   0.50308996  0.39511353  0.48863306
Direct configuration=    23
   0.41242699  0.58559960  0.64310296
   0.51447721  0.47487992  0.62643100
   0.42653887  0.65418908  0.43271947
   0.53191899  0.61338124  0.54302573
   0.63673122  0.56845878  0.65424840
   0.40274809  0.51825638  0.50748675
   0.64417545  0.60828621  0.43013529
   0.63007501  0.48737689  0.52047745
   0.61010094  0.35753226  0.59978777
   0.39916302  0.43449646  0.37769235
   0.51694603  0.53034913  0.40287891
   0.50338241  0.39467908  0.48886183
Direct configuration=    24
   0.41242972  0.58559486  0.64307340
   0.51446442  0.47487387  0.62644894
   0.42654080  0.65417579  0.43272865
   0.53193508  0.61338721  0.54301734
   0.63672051  0.56839895  0.65425631
   0.40274224  0.51826611  0.50747347
   0.64418590  0.60826482  0.43011491
   0.63009429  0.48737799  0.52049389
   0.61010839  0.35755052  0.59981815
   0.39918506  0.43452356  0.37771270
   0.51692934  0.53034184  0.40287486
   0.50334847  0.39472950  0.48883528
