31
Energy = -63.45525298 eV
Ag 14.162050015291078 15.326952985713877 8.654523398167548
Ag 11.973318504030777 14.119383243226533 7.3581227040867265
Ag 11.57554794232871 16.07699258999524 9.335916742554105
Ag 15.631074085517083 13.728378437784626 10.370637374135248
Ag 13.618284219570112 12.49353154615754 8.850161661875967
Ag 13.152854423526597 14.824722793226396 11.233366793731483
Ag 9.719981226538671 13.945509059336619 9.05631711762177
Ag 11.052139235399117 11.639554258570607 8.13604264435205
Ag 10.366162777101552 15.020181129905081 11.579509227771084
Ag 14.396274461677075 12.820224195089857 12.706634275751616
Ag 15.046504984632827 10.996040773298239 10.691413857022377
Ag 12.743093518305143 9.904274027554258 9.46809417378891
Ag 11.921566470745054 13.758763031097134 13.537456229621244
Ag 8.462934801993745 11.480261422463192 9.183228928893723
Ag 8.096255736121583 13.35296280042488 11.23869821369548
Ag 10.049329778829593 9.16062492589361 9.034773943000904
Ag 6.496104993285197 11.027722700559186 11.073411265653101
Ag 15.240481101574339 10.23318700734876 13.400206126071916
Ag 9.10608969783141 14.021703354732349 13.806807189766573
Ag 7.192300558979111 9.035628833241816 9.123022282534567
Ag 8.245977363669928 11.40807120240419 13.247066016938263
Ag 14.144349428486704 8.5090443609302 11.416724270747368
Ag 13.167282133663909 11.603619569770894 14.83468724108102
Ag 8.663171946470408 9.32111149770689 11.452479817989145
Ag 11.320286565286455 8.473635613843717 11.438150114966739
Ag 10.378444600497486 11.89191567260764 14.99854079336872
Ag 14.50460939004899 9.454182370752093 15.999778073480496
Ag 10.073234442900372 9.337175610069366 13.841442005034667
Ag 12.86767885966325 8.691208412148386 13.951054133944108
Ag 11.62673455553101 9.734212754677781 16.193246838184503
Ag 12.787640240507312 6.390981879473741 12.57024460417332
