  16  16   0   0
  0.4547643E+03  0.1937770E-08  0.1937770E-08  0.1937770E-08  0.1000000E-15
  1.000000000000000E-004
  CAR 
 unknown system                          
      1.32940258     -9.74737682  301     -3.86745309      1.00000000
     -9.747  0.0000E+00  0.0000E+00  0.0000E+00  0.0000E+00
     -9.710  0.0000E+00  0.0000E+00  0.0000E+00  0.0000E+00
     -9.674  0.0000E+00  0.0000E+00  0.0000E+00  0.0000E+00
     -9.637  0.0000E+00  0.0000E+00  0.0000E+00  0.0000E+00
     -9.600  0.0000E+00  0.0000E+00  0.0000E+00  0.0000E+00
     -9.563  0.0000E+00  0.0000E+00  0.0000E+00  0.0000E+00
     -9.526  0.0000E+00  0.0000E+00  0.0000E+00  0.0000E+00
     -9.489  0.0000E+00  0.0000E+00  0.0000E+00  0.0000E+00
     -9.452  0.0000E+00  0.0000E+00  0.0000E+00  0.0000E+00
     -9.415  0.0000E+00  0.0000E+00  0.0000E+00  0.0000E+00
     -9.378  0.0000E+00  0.0000E+00  0.0000E+00  0.0000E+00
     -9.341  0.0000E+00  0.0000E+00  0.0000E+00  0.0000E+00
     -9.304  0.0000E+00  0.0000E+00  0.0000E+00  0.0000E+00
     -9.267  0.0000E+00  0.0000E+00  0.0000E+00  0.0000E+00
     -9.230  0.0000E+00  0.0000E+00  0.1000E-02  0.1000E-02
     -9.194  0.0000E+00  0.0000E+00  0.1000E-02  0.1000E-02
     -9.157  0.0000E+00  0.0000E+00  0.1000E-02  0.1000E-02
     -9.120  0.0000E+00  0.0000E+00  0.1000E-02  0.1000E-02
     -9.083  0.0000E+00  0.0000E+00  0.1000E-02  0.1000E-02
     -9.046  0.0000E+00  0.0000E+00  0.1000E-02  0.1000E-02
     -9.009  0.0000E+00  0.0000E+00  0.1000E-02  0.1000E-02
     -8.972  0.0000E+00  0.0000E+00  0.3000E-02  0.3000E-02
     -8.935  0.0000E+00  0.0000E+00  0.4000E-02  0.4000E-02
     -8.898  0.0000E+00  0.0000E+00  0.4000E-02  0.4000E-02
     -8.861  0.2708E-01  0.2708E-01  0.5000E-02  0.5000E-02
     -8.824  0.0000E+00  0.0000E+00  0.6000E-02  0.6000E-02
     -8.787  0.0000E+00  0.0000E+00  0.7000E-02  0.7000E-02
     -8.750  0.0000E+00  0.0000E+00  0.7000E-02  0.7000E-02
     -8.714  0.0000E+00  0.0000E+00  0.8000E-02  0.8000E-02
     -8.677  0.0000E+00  0.0000E+00  0.9000E-02  0.9000E-02
     -8.640  0.0000E+00  0.0000E+00  0.9000E-02  0.9000E-02
     -8.603  0.0000E+00  0.0000E+00  0.1100E-01  0.1100E-01
     -8.566  0.0000E+00  0.0000E+00  0.1100E-01  0.1100E-01
     -8.529  0.0000E+00  0.0000E+00  0.1200E-01  0.1200E-01
     -8.492  0.0000E+00  0.0000E+00  0.1300E-01  0.1300E-01
     -8.455  0.0000E+00  0.0000E+00  0.1400E-01  0.1400E-01
     -8.418  0.0000E+00  0.0000E+00  0.1500E-01  0.1500E-01
     -8.381  0.0000E+00  0.0000E+00  0.1600E-01  0.1600E-01
     -8.344  0.0000E+00  0.0000E+00  0.1700E-01  0.1700E-01
     -8.307  0.0000E+00  0.0000E+00  0.1800E-01  0.1800E-01
     -8.270  0.0000E+00  0.0000E+00  0.1800E-01  0.1800E-01
     -8.234  0.0000E+00  0.0000E+00  0.1900E-01  0.1900E-01
     -8.197  0.1458E-15  0.1458E-15  0.1900E-01  0.1900E-01
     -8.160  0.0000E+00  0.0000E+00  0.2100E-01  0.2100E-01
     -8.123  0.0000E+00  0.0000E+00  0.2200E-01  0.2200E-01
     -8.086  0.0000E+00  0.0000E+00  0.2300E-01  0.2300E-01
     -8.049  0.9461E-07  0.9461E-07  0.2400E-01  0.2400E-01
     -8.012  0.0000E+00  0.0000E+00  0.2500E-01  0.2500E-01
     -7.975  0.0000E+00  0.0000E+00  0.2600E-01  0.2600E-01
     -7.938  0.0000E+00  0.0000E+00  0.2700E-01  0.2700E-01
     -7.901  0.0000E+00  0.0000E+00  0.2800E-01  0.2800E-01
     -7.864  0.0000E+00  0.0000E+00  0.2900E-01  0.2900E-01
     -7.827  0.2708E-01  0.2708E-01  0.3000E-01  0.3000E-01
     -7.790  0.0000E+00  0.0000E+00  0.3100E-01  0.3100E-01
     -7.754  0.0000E+00  0.0000E+00  0.3200E-01  0.3200E-01
     -7.717  0.0000E+00  0.0000E+00  0.3200E-01  0.3200E-01
     -7.680  0.0000E+00  0.0000E+00  0.3200E-01  0.3200E-01
     -7.643  0.0000E+00  0.0000E+00  0.3400E-01  0.3400E-01
     -7.606  0.0000E+00  0.0000E+00  0.3500E-01  0.3500E-01
     -7.569  0.0000E+00  0.0000E+00  0.3500E-01  0.3500E-01
     -7.532  0.0000E+00  0.0000E+00  0.3600E-01  0.3600E-01
     -7.495  0.0000E+00  0.0000E+00  0.3700E-01  0.3700E-01
     -7.458  0.0000E+00  0.0000E+00  0.3800E-01  0.3800E-01
     -7.421  0.0000E+00  0.0000E+00  0.3900E-01  0.3900E-01
     -7.384  0.0000E+00  0.0000E+00  0.4000E-01  0.4000E-01
     -7.347  0.0000E+00  0.0000E+00  0.4000E-01  0.4000E-01
     -7.310  0.0000E+00  0.0000E+00  0.4200E-01  0.4200E-01
     -7.274  0.0000E+00  0.0000E+00  0.4300E-01  0.4300E-01
     -7.237  0.0000E+00  0.0000E+00  0.4400E-01  0.4400E-01
     -7.200  0.0000E+00  0.0000E+00  0.4600E-01  0.4600E-01
     -7.163  0.0000E+00  0.0000E+00  0.4700E-01  0.4700E-01
     -7.126  0.0000E+00  0.0000E+00  0.4900E-01  0.4900E-01
     -7.089  0.0000E+00  0.0000E+00  0.5000E-01  0.5000E-01
     -7.052  0.0000E+00  0.0000E+00  0.5200E-01  0.5200E-01
     -7.015  0.0000E+00  0.0000E+00  0.5400E-01  0.5400E-01
     -6.978  0.0000E+00  0.0000E+00  0.5500E-01  0.5500E-01
     -6.941  0.0000E+00  0.0000E+00  0.5700E-01  0.5700E-01
     -6.904  0.0000E+00  0.0000E+00  0.5800E-01  0.5800E-01
     -6.867  0.0000E+00  0.0000E+00  0.6100E-01  0.6100E-01
     -6.830  0.0000E+00  0.0000E+00  0.6200E-01  0.6200E-01
     -6.794  0.0000E+00  0.0000E+00  0.6400E-01  0.6400E-01
     -6.757  0.0000E+00  0.0000E+00  0.6600E-01  0.6600E-01
     -6.720  0.0000E+00  0.0000E+00  0.6700E-01  0.6700E-01
     -6.683  0.0000E+00  0.0000E+00  0.6800E-01  0.6800E-01
     -6.646  0.0000E+00  0.0000E+00  0.6900E-01  0.6900E-01
     -6.609  0.0000E+00  0.0000E+00  0.7100E-01  0.7100E-01
     -6.572  0.0000E+00  0.0000E+00  0.7300E-01  0.7300E-01
     -6.535  0.0000E+00  0.0000E+00  0.7500E-01  0.7500E-01
     -6.498  0.0000E+00  0.0000E+00  0.7600E-01  0.7600E-01
     -6.461  0.0000E+00  0.0000E+00  0.7700E-01  0.7700E-01
     -6.424  0.0000E+00  0.0000E+00  0.7900E-01  0.7900E-01
     -6.387  0.0000E+00  0.0000E+00  0.7900E-01  0.7900E-01
     -6.350  0.0000E+00  0.0000E+00  0.8100E-01  0.8100E-01
     -6.314  0.0000E+00  0.0000E+00  0.8200E-01  0.8200E-01
     -6.277  0.0000E+00  0.0000E+00  0.8200E-01  0.8200E-01
     -6.240  0.0000E+00  0.0000E+00  0.8200E-01  0.8200E-01
     -6.203  0.0000E+00  0.0000E+00  0.8200E-01  0.8200E-01
     -6.166  0.0000E+00  0.0000E+00  0.8200E-01  0.8200E-01
     -6.129  0.0000E+00  0.0000E+00  0.8200E-01  0.8200E-01
     -6.092  0.0000E+00  0.0000E+00  0.8200E-01  0.8200E-01
     -6.055  0.0000E+00  0.0000E+00  0.8200E-01  0.8200E-01
     -6.018  0.0000E+00  0.0000E+00  0.8200E-01  0.8200E-01
     -5.981  0.0000E+00  0.0000E+00  0.8300E-01  0.8300E-01
     -5.944  0.0000E+00  0.0000E+00  0.8300E-01  0.8300E-01
     -5.907  0.0000E+00  0.0000E+00  0.8300E-01  0.8300E-01
     -5.871  0.0000E+00  0.0000E+00  0.8300E-01  0.8300E-01
     -5.834  0.0000E+00  0.0000E+00  0.8300E-01  0.8300E-01
     -5.797  0.0000E+00  0.0000E+00  0.8300E-01  0.8300E-01
     -5.760  0.0000E+00  0.0000E+00  0.8300E-01  0.8300E-01
     -5.723  0.0000E+00  0.0000E+00  0.8300E-01  0.8300E-01
     -5.686  0.0000E+00  0.0000E+00  0.8300E-01  0.8300E-01
     -5.649  0.0000E+00  0.0000E+00  0.8300E-01  0.8300E-01
     -5.612  0.0000E+00  0.0000E+00  0.8300E-01  0.8300E-01
     -5.575  0.0000E+00  0.0000E+00  0.8300E-01  0.8300E-01
     -5.538  0.0000E+00  0.0000E+00  0.8300E-01  0.8300E-01
     -5.501  0.0000E+00  0.0000E+00  0.8300E-01  0.8300E-01
     -5.464  0.0000E+00  0.0000E+00  0.8300E-01  0.8300E-01
     -5.427  0.0000E+00  0.0000E+00  0.8300E-01  0.8300E-01
     -5.391  0.0000E+00  0.0000E+00  0.8300E-01  0.8300E-01
     -5.354  0.0000E+00  0.0000E+00  0.8400E-01  0.8400E-01
     -5.317  0.0000E+00  0.0000E+00  0.8400E-01  0.8400E-01
     -5.280  0.0000E+00  0.0000E+00  0.8400E-01  0.8400E-01
     -5.243  0.0000E+00  0.0000E+00  0.8400E-01  0.8400E-01
     -5.206  0.0000E+00  0.0000E+00  0.8400E-01  0.8400E-01
     -5.169  0.0000E+00  0.0000E+00  0.8400E-01  0.8400E-01
     -5.132  0.0000E+00  0.0000E+00  0.8400E-01  0.8400E-01
     -5.095  0.0000E+00  0.0000E+00  0.8400E-01  0.8400E-01
     -5.058  0.0000E+00  0.0000E+00  0.8400E-01  0.8400E-01
     -5.021  0.0000E+00  0.0000E+00  0.8400E-01  0.8400E-01
     -4.984  0.0000E+00  0.0000E+00  0.8400E-01  0.8400E-01
     -4.947  0.0000E+00  0.0000E+00  0.8400E-01  0.8400E-01
     -4.911  0.0000E+00  0.0000E+00  0.8400E-01  0.8400E-01
     -4.874  0.0000E+00  0.0000E+00  0.8400E-01  0.8400E-01
     -4.837  0.0000E+00  0.0000E+00  0.8400E-01  0.8400E-01
     -4.800  0.0000E+00  0.0000E+00  0.8400E-01  0.8400E-01
     -4.763  0.0000E+00  0.0000E+00  0.8400E-01  0.8400E-01
     -4.726  0.0000E+00  0.0000E+00  0.8400E-01  0.8400E-01
     -4.689  0.0000E+00  0.0000E+00  0.8400E-01  0.8400E-01
     -4.652  0.0000E+00  0.0000E+00  0.8400E-01  0.8400E-01
     -4.615  0.0000E+00  0.0000E+00  0.8500E-01  0.8500E-01
     -4.578  0.0000E+00  0.0000E+00  0.8500E-01  0.8500E-01
     -4.541  0.0000E+00  0.0000E+00  0.8500E-01  0.8500E-01
     -4.504  0.0000E+00  0.0000E+00  0.8600E-01  0.8600E-01
     -4.467  0.0000E+00  0.0000E+00  0.8600E-01  0.8600E-01
     -4.431  0.0000E+00  0.0000E+00  0.8600E-01  0.8600E-01
     -4.394  0.0000E+00  0.0000E+00  0.8600E-01  0.8600E-01
     -4.357  0.0000E+00  0.0000E+00  0.8600E-01  0.8600E-01
     -4.320  0.0000E+00  0.0000E+00  0.8600E-01  0.8600E-01
     -4.283  0.0000E+00  0.0000E+00  0.8600E-01  0.8600E-01
     -4.246  0.0000E+00  0.0000E+00  0.8600E-01  0.8600E-01
     -4.209  0.0000E+00  0.0000E+00  0.8600E-01  0.8600E-01
     -4.172  0.0000E+00  0.0000E+00  0.8700E-01  0.8700E-01
     -4.135  0.0000E+00  0.0000E+00  0.8700E-01  0.8700E-01
     -4.098  0.0000E+00  0.0000E+00  0.8700E-01  0.8700E-01
     -4.061  0.0000E+00  0.0000E+00  0.8700E-01  0.8700E-01
     -4.024  0.0000E+00  0.0000E+00  0.8700E-01  0.8700E-01
     -3.987  0.0000E+00  0.0000E+00  0.8700E-01  0.8700E-01
     -3.951  0.0000E+00  0.0000E+00  0.8700E-01  0.8700E-01
     -3.914  0.0000E+00  0.0000E+00  0.8700E-01  0.8700E-01
     -3.877  0.0000E+00  0.0000E+00  0.8800E-01  0.8800E-01
     -3.840  0.0000E+00  0.0000E+00  0.8800E-01  0.8800E-01
     -3.803  0.0000E+00  0.0000E+00  0.8800E-01  0.8800E-01
     -3.766  0.0000E+00  0.0000E+00  0.8800E-01  0.8800E-01
     -3.729  0.0000E+00  0.0000E+00  0.8800E-01  0.8800E-01
     -3.692  0.0000E+00  0.0000E+00  0.8800E-01  0.8800E-01
     -3.655  0.0000E+00  0.0000E+00  0.8800E-01  0.8800E-01
     -3.618  0.0000E+00  0.0000E+00  0.8800E-01  0.8800E-01
     -3.581  0.0000E+00  0.0000E+00  0.8800E-01  0.8800E-01
     -3.544  0.0000E+00  0.0000E+00  0.8800E-01  0.8800E-01
     -3.507  0.0000E+00  0.0000E+00  0.8800E-01  0.8800E-01
     -3.471  0.0000E+00  0.0000E+00  0.8800E-01  0.8800E-01
     -3.434  0.0000E+00  0.0000E+00  0.8800E-01  0.8800E-01
     -3.397  0.0000E+00  0.0000E+00  0.8800E-01  0.8800E-01
     -3.360  0.0000E+00  0.0000E+00  0.8800E-01  0.8800E-01
     -3.323  0.0000E+00  0.0000E+00  0.8800E-01  0.8800E-01
     -3.286  0.0000E+00  0.0000E+00  0.8800E-01  0.8800E-01
     -3.249  0.0000E+00  0.0000E+00  0.8800E-01  0.8800E-01
     -3.212  0.0000E+00  0.0000E+00  0.8800E-01  0.8800E-01
     -3.175  0.0000E+00  0.0000E+00  0.8800E-01  0.8800E-01
     -3.138  0.0000E+00  0.0000E+00  0.8800E-01  0.8800E-01
     -3.101  0.0000E+00  0.0000E+00  0.8800E-01  0.8800E-01
     -3.064  0.0000E+00  0.0000E+00  0.8900E-01  0.8900E-01
     -3.027  0.0000E+00  0.0000E+00  0.8900E-01  0.8900E-01
     -2.991  0.0000E+00  0.0000E+00  0.8900E-01  0.8900E-01
     -2.954  0.0000E+00  0.0000E+00  0.8900E-01  0.8900E-01
     -2.917  0.0000E+00  0.0000E+00  0.9000E-01  0.9000E-01
     -2.880  0.0000E+00  0.0000E+00  0.9000E-01  0.9000E-01
     -2.843  0.0000E+00  0.0000E+00  0.9000E-01  0.9000E-01
     -2.806  0.0000E+00  0.0000E+00  0.9000E-01  0.9000E-01
     -2.769  0.0000E+00  0.0000E+00  0.9100E-01  0.9100E-01
     -2.732  0.0000E+00  0.0000E+00  0.9100E-01  0.9100E-01
     -2.695  0.0000E+00  0.0000E+00  0.9100E-01  0.9100E-01
     -2.658  0.0000E+00  0.0000E+00  0.9100E-01  0.9100E-01
     -2.621  0.0000E+00  0.0000E+00  0.9100E-01  0.9100E-01
     -2.584  0.0000E+00  0.0000E+00  0.9100E-01  0.9100E-01
     -2.547  0.0000E+00  0.0000E+00  0.9100E-01  0.9100E-01
     -2.511  0.0000E+00  0.0000E+00  0.9100E-01  0.9100E-01
     -2.474  0.0000E+00  0.0000E+00  0.9200E-01  0.9200E-01
     -2.437  0.0000E+00  0.0000E+00  0.9200E-01  0.9200E-01
     -2.400  0.0000E+00  0.0000E+00  0.9200E-01  0.9200E-01
     -2.363  0.0000E+00  0.0000E+00  0.9300E-01  0.9300E-01
     -2.326  0.0000E+00  0.0000E+00  0.9300E-01  0.9300E-01
     -2.289  0.0000E+00  0.0000E+00  0.9300E-01  0.9300E-01
     -2.252  0.0000E+00  0.0000E+00  0.9300E-01  0.9300E-01
     -2.215  0.0000E+00  0.0000E+00  0.9300E-01  0.9300E-01
     -2.178  0.0000E+00  0.0000E+00  0.9300E-01  0.9300E-01
     -2.141  0.0000E+00  0.0000E+00  0.9300E-01  0.9300E-01
     -2.104  0.0000E+00  0.0000E+00  0.9300E-01  0.9300E-01
     -2.067  0.0000E+00  0.0000E+00  0.9300E-01  0.9300E-01
     -2.031  0.0000E+00  0.0000E+00  0.9300E-01  0.9300E-01
     -1.994  0.0000E+00  0.0000E+00  0.9300E-01  0.9300E-01
     -1.957  0.0000E+00  0.0000E+00  0.9400E-01  0.9400E-01
     -1.920  0.0000E+00  0.0000E+00  0.9400E-01  0.9400E-01
     -1.883  0.0000E+00  0.0000E+00  0.9400E-01  0.9400E-01
     -1.846  0.0000E+00  0.0000E+00  0.9400E-01  0.9400E-01
     -1.809  0.0000E+00  0.0000E+00  0.9400E-01  0.9400E-01
     -1.772  0.0000E+00  0.0000E+00  0.9500E-01  0.9500E-01
     -1.735  0.0000E+00  0.0000E+00  0.9500E-01  0.9500E-01
     -1.698  0.0000E+00  0.0000E+00  0.9500E-01  0.9500E-01
     -1.661  0.0000E+00  0.0000E+00  0.9500E-01  0.9500E-01
     -1.624  0.0000E+00  0.0000E+00  0.9500E-01  0.9500E-01
     -1.587  0.0000E+00  0.0000E+00  0.9600E-01  0.9600E-01
     -1.551  0.0000E+00  0.0000E+00  0.9600E-01  0.9600E-01
     -1.514  0.0000E+00  0.0000E+00  0.9600E-01  0.9600E-01
     -1.477  0.0000E+00  0.0000E+00  0.9600E-01  0.9600E-01
     -1.440  0.0000E+00  0.0000E+00  0.9600E-01  0.9600E-01
     -1.403  0.0000E+00  0.0000E+00  0.9700E-01  0.9700E-01
     -1.366  0.0000E+00  0.0000E+00  0.9700E-01  0.9700E-01
     -1.329  0.0000E+00  0.0000E+00  0.9700E-01  0.9700E-01
     -1.292  0.0000E+00  0.0000E+00  0.9700E-01  0.9700E-01
     -1.255  0.0000E+00  0.0000E+00  0.9700E-01  0.9700E-01
     -1.218  0.0000E+00  0.0000E+00  0.9700E-01  0.9700E-01
     -1.181  0.0000E+00  0.0000E+00  0.9700E-01  0.9700E-01
     -1.144  0.0000E+00  0.0000E+00  0.9700E-01  0.9700E-01
     -1.107  0.0000E+00  0.0000E+00  0.9700E-01  0.9700E-01
     -1.071  0.0000E+00  0.0000E+00  0.9800E-01  0.9800E-01
     -1.034  0.0000E+00  0.0000E+00  0.9800E-01  0.9800E-01
     -0.997  0.0000E+00  0.0000E+00  0.9900E-01  0.9900E-01
     -0.960  0.0000E+00  0.0000E+00  0.9900E-01  0.9900E-01
     -0.923  0.0000E+00  0.0000E+00  0.9900E-01  0.9900E-01
     -0.886  0.0000E+00  0.0000E+00  0.9900E-01  0.9900E-01
     -0.849  0.0000E+00  0.0000E+00  0.9900E-01  0.9900E-01
     -0.812  0.0000E+00  0.0000E+00  0.9900E-01  0.9900E-01
     -0.775  0.0000E+00  0.0000E+00  0.1000E+00  0.1000E+00
     -0.738  0.0000E+00  0.0000E+00  0.1000E+00  0.1000E+00
     -0.701  0.0000E+00  0.0000E+00  0.1000E+00  0.1000E+00
     -0.664  0.0000E+00  0.0000E+00  0.1000E+00  0.1000E+00
     -0.627  0.0000E+00  0.0000E+00  0.1000E+00  0.1000E+00
     -0.591  0.0000E+00  0.0000E+00  0.1010E+00  0.1010E+00
     -0.554  0.0000E+00  0.0000E+00  0.1010E+00  0.1010E+00
     -0.517  0.0000E+00  0.0000E+00  0.1020E+00  0.1020E+00
     -0.480  0.0000E+00  0.0000E+00  0.1020E+00  0.1020E+00
     -0.443  0.0000E+00  0.0000E+00  0.1020E+00  0.1020E+00
     -0.406  0.0000E+00  0.0000E+00  0.1030E+00  0.1030E+00
     -0.369  0.0000E+00  0.0000E+00  0.1030E+00  0.1030E+00
     -0.332  0.0000E+00  0.0000E+00  0.1040E+00  0.1040E+00
     -0.295  0.0000E+00  0.0000E+00  0.1040E+00  0.1040E+00
     -0.258  0.0000E+00  0.0000E+00  0.1040E+00  0.1040E+00
     -0.221  0.0000E+00  0.0000E+00  0.1040E+00  0.1040E+00
     -0.184  0.0000E+00  0.0000E+00  0.1050E+00  0.1050E+00
     -0.148  0.0000E+00  0.0000E+00  0.1050E+00  0.1050E+00
     -0.111  0.0000E+00  0.0000E+00  0.1050E+00  0.1050E+00
     -0.074  0.0000E+00  0.0000E+00  0.1050E+00  0.1050E+00
     -0.037  0.0000E+00  0.0000E+00  0.1050E+00  0.1050E+00
      0.000  0.0000E+00  0.0000E+00  0.1050E+00  0.1050E+00
      0.037  0.0000E+00  0.0000E+00  0.1060E+00  0.1060E+00
      0.074  0.0000E+00  0.0000E+00  0.1060E+00  0.1060E+00
      0.111  0.0000E+00  0.0000E+00  0.1060E+00  0.1060E+00
      0.148  0.0000E+00  0.0000E+00  0.1060E+00  0.1060E+00
      0.185  0.0000E+00  0.0000E+00  0.1060E+00  0.1060E+00
      0.222  0.0000E+00  0.0000E+00  0.1070E+00  0.1070E+00
      0.259  0.0000E+00  0.0000E+00  0.1070E+00  0.1070E+00
      0.296  0.0000E+00  0.0000E+00  0.1070E+00  0.1070E+00
      0.332  0.0000E+00  0.0000E+00  0.1070E+00  0.1070E+00
      0.369  0.0000E+00  0.0000E+00  0.1070E+00  0.1070E+00
      0.406  0.0000E+00  0.0000E+00  0.1080E+00  0.1080E+00
      0.443  0.0000E+00  0.0000E+00  0.1080E+00  0.1080E+00
      0.480  0.0000E+00  0.0000E+00  0.1080E+00  0.1080E+00
      0.517  0.0000E+00  0.0000E+00  0.1090E+00  0.1090E+00
      0.554  0.2708E-01  0.0000E+00  0.1100E+00  0.1100E+00
      0.591  0.0000E+00  0.0000E+00  0.1100E+00  0.1100E+00
      0.628  0.0000E+00  0.0000E+00  0.1100E+00  0.1100E+00
      0.665  0.0000E+00  0.0000E+00  0.1110E+00  0.1110E+00
      0.702  0.0000E+00  0.0000E+00  0.1120E+00  0.1120E+00
      0.739  0.0000E+00  0.0000E+00  0.1130E+00  0.1130E+00
      0.776  0.0000E+00  0.0000E+00  0.1140E+00  0.1140E+00
      0.812  0.0000E+00  0.0000E+00  0.1150E+00  0.1150E+00
      0.849  0.0000E+00  0.0000E+00  0.1160E+00  0.1160E+00
      0.886  0.0000E+00  0.0000E+00  0.1160E+00  0.1160E+00
      0.923  0.0000E+00  0.0000E+00  0.1160E+00  0.1160E+00
      0.960  0.0000E+00  0.0000E+00  0.1160E+00  0.1160E+00
      0.997  0.0000E+00  0.0000E+00  0.1160E+00  0.1160E+00
      1.034  0.0000E+00  0.0000E+00  0.1160E+00  0.1160E+00
      1.071  0.0000E+00  0.0000E+00  0.1160E+00  0.1160E+00
      1.108  0.0000E+00  0.0000E+00  0.1160E+00  0.1160E+00
      1.145  0.0000E+00  0.0000E+00  0.1160E+00  0.1160E+00
      1.182  0.0000E+00  0.0000E+00  0.1160E+00  0.1160E+00
      1.219  0.0000E+00  0.0000E+00  0.1160E+00  0.1160E+00
      1.256  0.0000E+00  0.0000E+00  0.1160E+00  0.1160E+00
      1.292  0.0000E+00  0.0000E+00  0.1160E+00  0.1160E+00
      1.329  0.0000E+00  0.0000E+00  0.1160E+00  0.1160E+00
