  27  27   0   0
  0.3834805E+03  0.2179561E-08  0.2179561E-08  0.2179561E-08  0.1000000E-15
  1.000000000000000E-004
  CAR 
 unknown system                          
      1.51900075     -9.99923125  301     -3.42424048      1.00000000
     -9.999  0.0000E+00  0.0000E+00  0.0000E+00  0.0000E+00
     -9.961  0.0000E+00  0.0000E+00  0.0000E+00  0.0000E+00
     -9.922  0.0000E+00  0.0000E+00  0.0000E+00  0.0000E+00
     -9.884  0.0000E+00  0.0000E+00  0.0000E+00  0.0000E+00
     -9.846  0.0000E+00  0.0000E+00  0.0000E+00  0.0000E+00
     -9.807  0.0000E+00  0.0000E+00  0.0000E+00  0.0000E+00
     -9.769  0.0000E+00  0.0000E+00  0.0000E+00  0.0000E+00
     -9.730  0.0000E+00  0.0000E+00  0.0000E+00  0.0000E+00
     -9.692  0.0000E+00  0.0000E+00  0.0000E+00  0.0000E+00
     -9.654  0.0000E+00  0.0000E+00  0.0000E+00  0.0000E+00
     -9.615  0.0000E+00  0.0000E+00  0.0000E+00  0.0000E+00
     -9.577  0.0000E+00  0.0000E+00  0.0000E+00  0.0000E+00
     -9.539  0.0000E+00  0.0000E+00  0.0000E+00  0.0000E+00
     -9.500  0.0000E+00  0.0000E+00  0.0000E+00  0.0000E+00
     -9.462  0.0000E+00  0.0000E+00  0.1000E-02  0.0000E+00
     -9.423  0.0000E+00  0.0000E+00  0.1000E-02  0.1000E-02
     -9.385  0.0000E+00  0.0000E+00  0.1000E-02  0.1000E-02
     -9.347  0.0000E+00  0.0000E+00  0.1000E-02  0.1000E-02
     -9.308  0.0000E+00  0.0000E+00  0.1000E-02  0.1000E-02
     -9.270  0.0000E+00  0.0000E+00  0.1000E-02  0.1000E-02
     -9.231  0.0000E+00  0.0000E+00  0.1000E-02  0.1000E-02
     -9.193  0.0000E+00  0.0000E+00  0.1000E-02  0.1000E-02
     -9.155  0.0000E+00  0.0000E+00  0.2000E-02  0.1000E-02
     -9.116  0.0000E+00  0.0000E+00  0.2000E-02  0.2000E-02
     -9.078  0.0000E+00  0.0000E+00  0.3000E-02  0.2000E-02
     -9.039  0.0000E+00  0.0000E+00  0.4000E-02  0.4000E-02
     -9.001  0.0000E+00  0.0000E+00  0.4000E-02  0.4000E-02
     -8.963  0.0000E+00  0.0000E+00  0.6000E-02  0.5000E-02
     -8.924  0.0000E+00  0.0000E+00  0.7000E-02  0.7000E-02
     -8.886  0.0000E+00  0.0000E+00  0.9000E-02  0.8000E-02
     -8.847  0.0000E+00  0.0000E+00  0.1100E-01  0.1100E-01
     -8.809  0.0000E+00  0.0000E+00  0.1200E-01  0.1100E-01
     -8.771  0.5273E-08  0.0000E+00  0.1300E-01  0.1200E-01
     -8.732  0.0000E+00  0.0000E+00  0.1600E-01  0.1500E-01
     -8.694  0.0000E+00  0.0000E+00  0.1700E-01  0.1600E-01
     -8.655  0.0000E+00  0.0000E+00  0.1800E-01  0.1800E-01
     -8.617  0.0000E+00  0.0000E+00  0.1900E-01  0.1900E-01
     -8.579  0.0000E+00  0.0000E+00  0.2000E-01  0.2000E-01
     -8.540  0.0000E+00  0.0000E+00  0.2200E-01  0.2100E-01
     -8.502  0.0000E+00  0.1813E-07  0.2400E-01  0.2300E-01
     -8.463  0.0000E+00  0.0000E+00  0.2600E-01  0.2600E-01
     -8.425  0.0000E+00  0.0000E+00  0.2700E-01  0.2700E-01
     -8.387  0.0000E+00  0.0000E+00  0.2800E-01  0.2800E-01
     -8.348  0.0000E+00  0.0000E+00  0.3000E-01  0.3000E-01
     -8.310  0.0000E+00  0.0000E+00  0.3100E-01  0.3100E-01
     -8.271  0.0000E+00  0.0000E+00  0.3300E-01  0.3200E-01
     -8.233  0.0000E+00  0.0000E+00  0.3400E-01  0.3400E-01
     -8.195  0.0000E+00  0.0000E+00  0.3700E-01  0.3700E-01
     -8.156  0.0000E+00  0.0000E+00  0.3800E-01  0.3700E-01
     -8.118  0.0000E+00  0.0000E+00  0.3900E-01  0.3900E-01
     -8.080  0.0000E+00  0.0000E+00  0.4100E-01  0.4100E-01
     -8.041  0.0000E+00  0.0000E+00  0.4200E-01  0.4100E-01
     -8.003  0.0000E+00  0.0000E+00  0.4300E-01  0.4300E-01
     -7.964  0.0000E+00  0.0000E+00  0.4600E-01  0.4500E-01
     -7.926  0.0000E+00  0.0000E+00  0.4600E-01  0.4600E-01
     -7.888  0.0000E+00  0.0000E+00  0.4800E-01  0.4700E-01
     -7.849  0.0000E+00  0.0000E+00  0.5100E-01  0.5000E-01
     -7.811  0.0000E+00  0.0000E+00  0.5200E-01  0.5200E-01
     -7.772  0.0000E+00  0.0000E+00  0.5300E-01  0.5300E-01
     -7.734  0.0000E+00  0.0000E+00  0.5500E-01  0.5400E-01
     -7.696  0.0000E+00  0.0000E+00  0.5700E-01  0.5700E-01
     -7.657  0.0000E+00  0.0000E+00  0.5800E-01  0.5800E-01
     -7.619  0.0000E+00  0.0000E+00  0.6000E-01  0.6000E-01
     -7.580  0.2605E-01  0.0000E+00  0.6200E-01  0.6100E-01
     -7.542  0.0000E+00  0.0000E+00  0.6300E-01  0.6300E-01
     -7.504  0.0000E+00  0.0000E+00  0.6400E-01  0.6400E-01
     -7.465  0.0000E+00  0.0000E+00  0.6600E-01  0.6500E-01
     -7.427  0.0000E+00  0.0000E+00  0.6800E-01  0.6700E-01
     -7.388  0.0000E+00  0.0000E+00  0.6900E-01  0.6900E-01
     -7.350  0.0000E+00  0.0000E+00  0.7000E-01  0.7000E-01
     -7.312  0.0000E+00  0.0000E+00  0.7200E-01  0.7100E-01
     -7.273  0.0000E+00  0.0000E+00  0.7400E-01  0.7300E-01
     -7.235  0.0000E+00  0.0000E+00  0.7600E-01  0.7500E-01
     -7.196  0.0000E+00  0.0000E+00  0.7900E-01  0.7900E-01
     -7.158  0.0000E+00  0.0000E+00  0.8200E-01  0.8100E-01
     -7.120  0.0000E+00  0.0000E+00  0.8400E-01  0.8400E-01
     -7.081  0.0000E+00  0.0000E+00  0.8700E-01  0.8600E-01
     -7.043  0.0000E+00  0.0000E+00  0.9000E-01  0.8900E-01
     -7.004  0.0000E+00  0.0000E+00  0.9200E-01  0.9200E-01
     -6.966  0.0000E+00  0.0000E+00  0.9500E-01  0.9400E-01
     -6.928  0.0000E+00  0.0000E+00  0.9800E-01  0.9800E-01
     -6.889  0.0000E+00  0.0000E+00  0.1000E+00  0.1000E+00
     -6.851  0.2604E-01  0.0000E+00  0.1030E+00  0.1020E+00
     -6.813  0.0000E+00  0.0000E+00  0.1050E+00  0.1050E+00
     -6.774  0.0000E+00  0.0000E+00  0.1080E+00  0.1080E+00
     -6.736  0.0000E+00  0.0000E+00  0.1100E+00  0.1100E+00
     -6.697  0.0000E+00  0.0000E+00  0.1140E+00  0.1130E+00
     -6.659  0.0000E+00  0.2003E-01  0.1160E+00  0.1158E+00
     -6.621  0.0000E+00  0.0000E+00  0.1180E+00  0.1170E+00
     -6.582  0.0000E+00  0.2605E-01  0.1200E+00  0.1200E+00
     -6.544  0.0000E+00  0.0000E+00  0.1220E+00  0.1220E+00
     -6.505  0.0000E+00  0.0000E+00  0.1250E+00  0.1250E+00
     -6.467  0.0000E+00  0.0000E+00  0.1270E+00  0.1270E+00
     -6.429  0.7356E-10  0.0000E+00  0.1290E+00  0.1280E+00
     -6.390  0.0000E+00  0.0000E+00  0.1310E+00  0.1310E+00
     -6.352  0.0000E+00  0.0000E+00  0.1330E+00  0.1320E+00
     -6.313  0.0000E+00  0.0000E+00  0.1350E+00  0.1350E+00
     -6.275  0.0000E+00  0.0000E+00  0.1370E+00  0.1370E+00
     -6.237  0.0000E+00  0.0000E+00  0.1390E+00  0.1390E+00
     -6.198  0.0000E+00  0.0000E+00  0.1390E+00  0.1390E+00
     -6.160  0.0000E+00  0.0000E+00  0.1390E+00  0.1390E+00
     -6.121  0.0000E+00  0.0000E+00  0.1390E+00  0.1390E+00
     -6.083  0.0000E+00  0.0000E+00  0.1390E+00  0.1390E+00
     -6.045  0.0000E+00  0.0000E+00  0.1390E+00  0.1390E+00
     -6.006  0.0000E+00  0.0000E+00  0.1390E+00  0.1390E+00
     -5.968  0.0000E+00  0.0000E+00  0.1390E+00  0.1390E+00
     -5.929  0.0000E+00  0.0000E+00  0.1390E+00  0.1390E+00
     -5.891  0.0000E+00  0.0000E+00  0.1390E+00  0.1390E+00
     -5.853  0.0000E+00  0.0000E+00  0.1400E+00  0.1390E+00
     -5.814  0.0000E+00  0.0000E+00  0.1400E+00  0.1400E+00
     -5.776  0.0000E+00  0.0000E+00  0.1400E+00  0.1400E+00
     -5.737  0.0000E+00  0.0000E+00  0.1400E+00  0.1400E+00
     -5.699  0.0000E+00  0.0000E+00  0.1410E+00  0.1400E+00
     -5.661  0.0000E+00  0.0000E+00  0.1410E+00  0.1410E+00
     -5.622  0.0000E+00  0.0000E+00  0.1410E+00  0.1410E+00
     -5.584  0.0000E+00  0.0000E+00  0.1410E+00  0.1410E+00
     -5.546  0.0000E+00  0.0000E+00  0.1410E+00  0.1410E+00
     -5.507  0.0000E+00  0.0000E+00  0.1410E+00  0.1410E+00
     -5.469  0.0000E+00  0.0000E+00  0.1410E+00  0.1410E+00
     -5.430  0.0000E+00  0.0000E+00  0.1410E+00  0.1410E+00
     -5.392  0.0000E+00  0.0000E+00  0.1410E+00  0.1410E+00
     -5.354  0.0000E+00  0.0000E+00  0.1410E+00  0.1410E+00
     -5.315  0.0000E+00  0.0000E+00  0.1410E+00  0.1410E+00
     -5.277  0.0000E+00  0.0000E+00  0.1410E+00  0.1410E+00
     -5.238  0.0000E+00  0.0000E+00  0.1410E+00  0.1410E+00
     -5.200  0.0000E+00  0.0000E+00  0.1410E+00  0.1410E+00
     -5.162  0.0000E+00  0.0000E+00  0.1420E+00  0.1410E+00
     -5.123  0.0000E+00  0.0000E+00  0.1420E+00  0.1420E+00
     -5.085  0.0000E+00  0.0000E+00  0.1420E+00  0.1420E+00
     -5.046  0.0000E+00  0.0000E+00  0.1420E+00  0.1420E+00
     -5.008  0.0000E+00  0.0000E+00  0.1420E+00  0.1420E+00
     -4.970  0.0000E+00  0.0000E+00  0.1420E+00  0.1420E+00
     -4.931  0.0000E+00  0.0000E+00  0.1420E+00  0.1420E+00
     -4.893  0.0000E+00  0.0000E+00  0.1420E+00  0.1420E+00
     -4.854  0.0000E+00  0.0000E+00  0.1430E+00  0.1420E+00
     -4.816  0.0000E+00  0.0000E+00  0.1430E+00  0.1430E+00
     -4.778  0.0000E+00  0.0000E+00  0.1430E+00  0.1430E+00
     -4.739  0.0000E+00  0.0000E+00  0.1430E+00  0.1430E+00
     -4.701  0.0000E+00  0.0000E+00  0.1430E+00  0.1430E+00
     -4.662  0.0000E+00  0.0000E+00  0.1430E+00  0.1430E+00
     -4.624  0.0000E+00  0.0000E+00  0.1430E+00  0.1430E+00
     -4.586  0.0000E+00  0.0000E+00  0.1440E+00  0.1430E+00
     -4.547  0.0000E+00  0.0000E+00  0.1440E+00  0.1440E+00
     -4.509  0.0000E+00  0.0000E+00  0.1450E+00  0.1440E+00
     -4.470  0.0000E+00  0.0000E+00  0.1450E+00  0.1450E+00
     -4.432  0.0000E+00  0.0000E+00  0.1450E+00  0.1450E+00
     -4.394  0.0000E+00  0.0000E+00  0.1450E+00  0.1450E+00
     -4.355  0.0000E+00  0.0000E+00  0.1460E+00  0.1450E+00
     -4.317  0.0000E+00  0.0000E+00  0.1460E+00  0.1460E+00
     -4.279  0.0000E+00  0.0000E+00  0.1460E+00  0.1460E+00
     -4.240  0.0000E+00  0.0000E+00  0.1460E+00  0.1460E+00
     -4.202  0.0000E+00  0.0000E+00  0.1470E+00  0.1460E+00
     -4.163  0.0000E+00  0.0000E+00  0.1470E+00  0.1470E+00
     -4.125  0.0000E+00  0.0000E+00  0.1470E+00  0.1470E+00
     -4.087  0.0000E+00  0.0000E+00  0.1470E+00  0.1470E+00
     -4.048  0.0000E+00  0.0000E+00  0.1470E+00  0.1470E+00
     -4.010  0.0000E+00  0.0000E+00  0.1470E+00  0.1470E+00
     -3.971  0.0000E+00  0.0000E+00  0.1470E+00  0.1470E+00
     -3.933  0.0000E+00  0.0000E+00  0.1470E+00  0.1470E+00
     -3.895  0.0000E+00  0.0000E+00  0.1470E+00  0.1470E+00
     -3.856  0.0000E+00  0.0000E+00  0.1470E+00  0.1470E+00
     -3.818  0.0000E+00  0.0000E+00  0.1470E+00  0.1470E+00
     -3.779  0.0000E+00  0.0000E+00  0.1470E+00  0.1470E+00
     -3.741  0.0000E+00  0.0000E+00  0.1470E+00  0.1470E+00
     -3.703  0.0000E+00  0.0000E+00  0.1470E+00  0.1470E+00
     -3.664  0.0000E+00  0.0000E+00  0.1470E+00  0.1470E+00
     -3.626  0.0000E+00  0.0000E+00  0.1470E+00  0.1470E+00
     -3.587  0.0000E+00  0.0000E+00  0.1480E+00  0.1470E+00
     -3.549  0.0000E+00  0.0000E+00  0.1480E+00  0.1480E+00
     -3.511  0.0000E+00  0.0000E+00  0.1480E+00  0.1480E+00
     -3.472  0.0000E+00  0.0000E+00  0.1480E+00  0.1480E+00
     -3.434  0.0000E+00  0.0000E+00  0.1490E+00  0.1480E+00
     -3.395  0.0000E+00  0.0000E+00  0.1490E+00  0.1480E+00
     -3.357  0.0000E+00  0.0000E+00  0.1490E+00  0.1480E+00
     -3.319  0.0000E+00  0.0000E+00  0.1490E+00  0.1490E+00
     -3.280  0.0000E+00  0.0000E+00  0.1490E+00  0.1490E+00
     -3.242  0.0000E+00  0.0000E+00  0.1490E+00  0.1490E+00
     -3.203  0.0000E+00  0.0000E+00  0.1490E+00  0.1490E+00
     -3.165  0.0000E+00  0.0000E+00  0.1490E+00  0.1490E+00
     -3.127  0.0000E+00  0.0000E+00  0.1500E+00  0.1490E+00
     -3.088  0.0000E+00  0.0000E+00  0.1500E+00  0.1500E+00
     -3.050  0.0000E+00  0.0000E+00  0.1500E+00  0.1500E+00
     -3.012  0.0000E+00  0.0000E+00  0.1500E+00  0.1500E+00
     -2.973  0.0000E+00  0.0000E+00  0.1500E+00  0.1500E+00
     -2.935  0.0000E+00  0.0000E+00  0.1500E+00  0.1500E+00
     -2.896  0.0000E+00  0.0000E+00  0.1510E+00  0.1500E+00
     -2.858  0.0000E+00  0.0000E+00  0.1510E+00  0.1510E+00
     -2.820  0.0000E+00  0.0000E+00  0.1510E+00  0.1510E+00
     -2.781  0.0000E+00  0.0000E+00  0.1510E+00  0.1510E+00
     -2.743  0.0000E+00  0.0000E+00  0.1510E+00  0.1510E+00
     -2.704  0.0000E+00  0.0000E+00  0.1510E+00  0.1510E+00
     -2.666  0.7173E-02  0.0000E+00  0.1523E+00  0.1510E+00
     -2.628  0.0000E+00  0.0000E+00  0.1530E+00  0.1530E+00
     -2.589  0.0000E+00  0.0000E+00  0.1530E+00  0.1530E+00
     -2.551  0.0000E+00  0.0000E+00  0.1530E+00  0.1530E+00
     -2.512  0.0000E+00  0.0000E+00  0.1530E+00  0.1530E+00
     -2.474  0.0000E+00  0.0000E+00  0.1540E+00  0.1530E+00
     -2.436  0.0000E+00  0.0000E+00  0.1540E+00  0.1540E+00
     -2.397  0.2605E-01  0.0000E+00  0.1550E+00  0.1540E+00
     -2.359  0.0000E+00  0.0000E+00  0.1550E+00  0.1550E+00
     -2.320  0.0000E+00  0.0000E+00  0.1560E+00  0.1550E+00
     -2.282  0.0000E+00  0.0000E+00  0.1560E+00  0.1560E+00
     -2.244  0.0000E+00  0.0000E+00  0.1560E+00  0.1560E+00
     -2.205  0.0000E+00  0.0000E+00  0.1560E+00  0.1560E+00
     -2.167  0.0000E+00  0.0000E+00  0.1570E+00  0.1560E+00
     -2.128  0.0000E+00  0.0000E+00  0.1570E+00  0.1570E+00
     -2.090  0.0000E+00  0.0000E+00  0.1580E+00  0.1570E+00
     -2.052  0.0000E+00  0.0000E+00  0.1580E+00  0.1580E+00
     -2.013  0.0000E+00  0.0000E+00  0.1580E+00  0.1580E+00
     -1.975  0.0000E+00  0.0000E+00  0.1580E+00  0.1580E+00
     -1.936  0.0000E+00  0.0000E+00  0.1580E+00  0.1580E+00
     -1.898  0.0000E+00  0.0000E+00  0.1580E+00  0.1580E+00
     -1.860  0.0000E+00  0.0000E+00  0.1580E+00  0.1580E+00
     -1.821  0.0000E+00  0.0000E+00  0.1590E+00  0.1580E+00
     -1.783  0.0000E+00  0.0000E+00  0.1590E+00  0.1580E+00
     -1.744  0.0000E+00  0.0000E+00  0.1590E+00  0.1590E+00
     -1.706  0.0000E+00  0.0000E+00  0.1590E+00  0.1590E+00
     -1.668  0.0000E+00  0.0000E+00  0.1590E+00  0.1590E+00
     -1.629  0.0000E+00  0.0000E+00  0.1590E+00  0.1590E+00
     -1.591  0.0000E+00  0.0000E+00  0.1590E+00  0.1590E+00
     -1.553  0.2605E-01  0.0000E+00  0.1600E+00  0.1590E+00
     -1.514  0.0000E+00  0.0000E+00  0.1600E+00  0.1600E+00
     -1.476  0.0000E+00  0.0000E+00  0.1600E+00  0.1600E+00
     -1.437  0.0000E+00  0.0000E+00  0.1600E+00  0.1600E+00
     -1.399  0.0000E+00  0.0000E+00  0.1600E+00  0.1600E+00
     -1.361  0.0000E+00  0.0000E+00  0.1620E+00  0.1600E+00
     -1.322  0.0000E+00  0.0000E+00  0.1620E+00  0.1610E+00
     -1.284  0.0000E+00  0.0000E+00  0.1620E+00  0.1620E+00
     -1.245  0.0000E+00  0.0000E+00  0.1620E+00  0.1620E+00
     -1.207  0.0000E+00  0.0000E+00  0.1620E+00  0.1620E+00
     -1.169  0.0000E+00  0.0000E+00  0.1620E+00  0.1620E+00
     -1.130  0.0000E+00  0.0000E+00  0.1620E+00  0.1620E+00
     -1.092  0.0000E+00  0.0000E+00  0.1620E+00  0.1620E+00
     -1.053  0.0000E+00  0.0000E+00  0.1630E+00  0.1620E+00
     -1.015  0.0000E+00  0.0000E+00  0.1630E+00  0.1630E+00
     -0.977  0.2605E-01  0.0000E+00  0.1650E+00  0.1630E+00
     -0.938  0.0000E+00  0.0000E+00  0.1650E+00  0.1650E+00
     -0.900  0.0000E+00  0.0000E+00  0.1660E+00  0.1650E+00
     -0.861  0.0000E+00  0.0000E+00  0.1660E+00  0.1650E+00
     -0.823  0.0000E+00  0.0000E+00  0.1660E+00  0.1660E+00
     -0.785  0.0000E+00  0.0000E+00  0.1670E+00  0.1670E+00
     -0.746  0.0000E+00  0.0000E+00  0.1670E+00  0.1670E+00
     -0.708  0.0000E+00  0.0000E+00  0.1680E+00  0.1670E+00
     -0.669  0.0000E+00  0.0000E+00  0.1680E+00  0.1670E+00
     -0.631  0.0000E+00  0.0000E+00  0.1680E+00  0.1680E+00
     -0.593  0.0000E+00  0.0000E+00  0.1680E+00  0.1680E+00
     -0.554  0.0000E+00  0.0000E+00  0.1690E+00  0.1680E+00
     -0.516  0.0000E+00  0.0000E+00  0.1690E+00  0.1690E+00
     -0.477  0.0000E+00  0.0000E+00  0.1690E+00  0.1690E+00
     -0.439  0.0000E+00  0.0000E+00  0.1700E+00  0.1690E+00
     -0.401  0.0000E+00  0.0000E+00  0.1700E+00  0.1690E+00
     -0.362  0.0000E+00  0.0000E+00  0.1710E+00  0.1700E+00
     -0.324  0.0000E+00  0.0000E+00  0.1710E+00  0.1710E+00
     -0.286  0.0000E+00  0.0000E+00  0.1710E+00  0.1710E+00
     -0.247  0.0000E+00  0.0000E+00  0.1710E+00  0.1710E+00
     -0.209  0.0000E+00  0.0000E+00  0.1720E+00  0.1710E+00
     -0.170  0.0000E+00  0.0000E+00  0.1720E+00  0.1720E+00
     -0.132  0.0000E+00  0.0000E+00  0.1730E+00  0.1720E+00
     -0.094  0.0000E+00  0.0000E+00  0.1730E+00  0.1730E+00
     -0.055  0.0000E+00  0.0000E+00  0.1730E+00  0.1730E+00
     -0.017  0.0000E+00  0.0000E+00  0.1740E+00  0.1730E+00
      0.022  0.0000E+00  0.0000E+00  0.1740E+00  0.1740E+00
      0.060  0.0000E+00  0.0000E+00  0.1740E+00  0.1740E+00
      0.098  0.0000E+00  0.0000E+00  0.1750E+00  0.1740E+00
      0.137  0.0000E+00  0.0000E+00  0.1760E+00  0.1750E+00
      0.175  0.0000E+00  0.0000E+00  0.1760E+00  0.1760E+00
      0.214  0.0000E+00  0.0000E+00  0.1760E+00  0.1760E+00
      0.252  0.0000E+00  0.0000E+00  0.1760E+00  0.1760E+00
      0.290  0.0000E+00  0.0000E+00  0.1760E+00  0.1760E+00
      0.329  0.0000E+00  0.0000E+00  0.1760E+00  0.1760E+00
      0.367  0.0000E+00  0.0000E+00  0.1770E+00  0.1760E+00
      0.406  0.0000E+00  0.0000E+00  0.1780E+00  0.1770E+00
      0.444  0.0000E+00  0.0000E+00  0.1780E+00  0.1780E+00
      0.482  0.0000E+00  0.0000E+00  0.1780E+00  0.1780E+00
      0.521  0.0000E+00  0.0000E+00  0.1780E+00  0.1780E+00
      0.559  0.0000E+00  0.0000E+00  0.1780E+00  0.1780E+00
      0.598  0.0000E+00  0.0000E+00  0.1800E+00  0.1790E+00
      0.636  0.0000E+00  0.0000E+00  0.1800E+00  0.1800E+00
      0.674  0.2479E-09  0.0000E+00  0.1810E+00  0.1810E+00
      0.713  0.2605E-01  0.0000E+00  0.1840E+00  0.1830E+00
      0.751  0.0000E+00  0.0000E+00  0.1840E+00  0.1840E+00
      0.790  0.0000E+00  0.0000E+00  0.1850E+00  0.1840E+00
      0.828  0.0000E+00  0.0000E+00  0.1860E+00  0.1860E+00
      0.866  0.0000E+00  0.0000E+00  0.1870E+00  0.1860E+00
      0.905  0.0000E+00  0.0000E+00  0.1890E+00  0.1880E+00
      0.943  0.0000E+00  0.0000E+00  0.1900E+00  0.1890E+00
      0.981  0.0000E+00  0.0000E+00  0.1920E+00  0.1910E+00
      1.020  0.0000E+00  0.0000E+00  0.1920E+00  0.1920E+00
      1.058  0.0000E+00  0.0000E+00  0.1920E+00  0.1920E+00
      1.097  0.0000E+00  0.0000E+00  0.1920E+00  0.1920E+00
      1.135  0.0000E+00  0.0000E+00  0.1920E+00  0.1920E+00
      1.173  0.0000E+00  0.0000E+00  0.1920E+00  0.1920E+00
      1.212  0.0000E+00  0.0000E+00  0.1920E+00  0.1920E+00
      1.250  0.0000E+00  0.0000E+00  0.1920E+00  0.1920E+00
      1.289  0.0000E+00  0.0000E+00  0.1920E+00  0.1920E+00
      1.327  0.0000E+00  0.0000E+00  0.1920E+00  0.1920E+00
      1.365  0.0000E+00  0.0000E+00  0.1920E+00  0.1920E+00
      1.404  0.0000E+00  0.0000E+00  0.1920E+00  0.1920E+00
      1.442  0.0000E+00  0.0000E+00  0.1920E+00  0.1920E+00
      1.481  0.0000E+00  0.0000E+00  0.1920E+00  0.1920E+00
      1.519  0.0000E+00  0.0000E+00  0.1920E+00  0.1920E+00
