   12   12 1000    2
  0.4689839E+03  0.1778742E-08  0.1778742E-08  0.1778742E-08  0.1000000E-15
  1.000000000000000E-004
  CAR 
 unknown system                          
    132      1     88
 
  0.0000000E+00  0.0000000E+00  0.0000000E+00  0.1000000E+01
    1       -8.666324     -8.604015
    2       -8.664670     -8.563538
    3       -8.659964     -8.561807
    4       -8.574729     -8.507976
    5       -8.572586     -8.506263
    6       -8.562573     -8.505087
    7       -8.560700     -8.503643
    8       -8.540429     -8.431298
    9       -8.525343     -8.429360
   10       -8.521869     -8.424298
   11       -8.519990     -8.415021
   12       -8.439722     -8.348052
   13       -8.437959     -8.346140
   14       -8.398327     -8.305599
   15       -8.390748     -8.298173
   16       -8.373240     -8.189993
   17       -8.291455     -8.188037
   18       -8.291215     -8.162320
   19       -8.286794     -8.160067
   20       -8.262325     -8.155519
   21       -8.259413     -8.143793
   22       -7.993426     -7.932241
   23       -7.891208     -7.784744
   24       -7.888952     -7.767631
   25       -7.873802     -7.763792
   26       -7.863322     -7.762152
   27       -7.860139     -7.754716
   28       -7.853896     -7.751184
   29       -7.780030     -7.680959
   30       -7.670065     -7.594937
   31       -7.645605     -7.571502
   32       -7.615984     -7.530675
   33       -7.494229     -7.411285
   34       -7.489000     -7.406169
   35       -7.139083     -7.101474
   36       -7.126105     -7.051014
   37       -7.121988     -7.046197
   38       -7.117480     -7.041385
   39       -7.112962     -7.038646
   40       -6.994049     -6.918703
   41       -6.992405     -6.917203
   42       -6.950037     -6.884179
   43       -6.941130     -6.878137
   44       -6.930916     -6.869758
   45       -6.930597     -6.839697
   46       -6.924852     -6.833624
   47       -6.872169     -6.802032
   48       -6.870727     -6.800891
   49       -6.810751     -6.723669
   50       -6.804561     -6.720172
   51       -6.800652     -6.717926
   52       -6.737754     -6.652751
   53       -6.733602     -6.651939
   54       -6.729577     -6.644395
   55       -6.727488     -6.642513
   56       -6.624942     -6.551478
   57       -6.618021     -6.550092
   58       -6.615484     -6.538945
   59       -6.479525     -6.424087
   60       -6.477662     -6.421887
   61       -6.470502     -6.399864
   62       -5.670221     -5.411514
   63       -5.668640     -5.410271
   64       -5.587841     -5.347141
   65       -3.752693     -3.379390
   66       -3.747926     -3.378337
   67       -3.742743     -3.370945
   68       -3.737229     -3.358414
   69       -3.625778     -3.356629
   70       -2.216116     -1.947331
   71       -1.421228     -1.062344
   72       -1.405181     -1.044784
   73       -1.248124     -0.976833
   74       -1.133019     -0.746365
   75       -1.130054     -0.740691
   76       -1.081095     -0.699491
   77       -1.077265     -0.695376
   78       -0.649207     -0.356215
   79       -0.647702     -0.352294
   80       -0.503544     -0.326667
   81        0.278631      0.435447
   82        0.298783      0.557925
   83        0.308183      0.610489
   84        0.362796      0.698149
   85        0.375803      0.737693
   86        0.610635      0.832670
   87        0.732159      0.965339
   88        0.769280      1.016065
