 running on   64 total cores
 distrk:  each k-point on   64 cores,    1 groups
 distr:  one band on   16 cores,    4 groups
 using from now: INCAR     
 vasp.5.3.5 31Mar14 (build Feb 01 2018 12:10:03) gamma-only                     
  
 POSCAR found type information on POSCAR  Ag
 POSCAR found :  1 types and      43 ions
 scaLAPACK will be used

 ----------------------------------------------------------------------------- 
|                                                                             |
|  ADVICE TO THIS USER RUNNING 'VASP/VAMP'   (HEAR YOUR MASTER'S VOICE ...):  |
|                                                                             |
|      You have a (more or less) 'large supercell' and for larger cells       |
|      it might be more efficient to use real space projection opertators     |
|      So try LREAL= Auto  in the INCAR   file.                               |
|      Mind: At the moment your POTCAR file does not contain real space       |
|       projectors, and has to be modified,  BUT if you                       |
|      want to do an extremely  accurate calculation you might also keep the  |
|      reciprocal projection scheme          (i.e. LREAL=.FALSE.)             |
|                                                                             |
 ----------------------------------------------------------------------------- 

 LDA part: xc-table for Pade appr. of Perdew
 POSCAR, INCAR and KPOINTS ok, starting setup
 WARNING: small aliasing (wrap around) errors must be expected
 FFT: planning ...
 WAVECAR not read
 entering main loop
       N       E                     dE             d eps       ncg     rms          rms(c)
DAV:   1     0.397983322434E+04    0.39798E+04   -0.95925E+04  1248   0.613E+02
DAV:   2     0.687746550320E+03   -0.32921E+04   -0.29576E+04  2016   0.162E+02
DAV:   3    -0.604986153180E+02   -0.74825E+03   -0.68071E+03  1544   0.834E+01
DAV:   4    -0.931889482054E+02   -0.32690E+02   -0.32388E+02  1328   0.186E+01
DAV:   5    -0.936660164372E+02   -0.47707E+00   -0.47660E+00  1384   0.263E+00    0.377E+01
DAV:   6    -0.439999889623E+02    0.49666E+02   -0.16019E+02  1240   0.162E+01    0.203E+01
DAV:   7    -0.334278521242E+02    0.10572E+02   -0.99540E+00  1304   0.510E+00    0.126E+01
DAV:   8    -0.313278695925E+02    0.21000E+01   -0.24354E+00  1320   0.267E+00    0.717E+00
DAV:   9    -0.349152905478E+02   -0.35874E+01   -0.90998E-01  1328   0.136E+00    0.506E+00
DAV:  10    -0.391948678127E+02   -0.42796E+01   -0.92476E-01  1312   0.225E+00    0.426E+00
DAV:  11    -0.518619460233E+02   -0.12667E+02   -0.40543E+00  1256   0.243E+00    0.315E+00
DAV:  12    -0.691763435926E+02   -0.17314E+02   -0.90035E+00  1276   0.317E+00    0.247E+00
DAV:  13    -0.731656412274E+02   -0.39893E+01   -0.10854E+00  1344   0.143E+00    0.192E+00
DAV:  14    -0.802847033709E+02   -0.71191E+01   -0.20773E+00  1256   0.160E+00    0.266E+00
DAV:  15    -0.813905511779E+02   -0.11058E+01   -0.13595E-01  1384   0.650E-01    0.218E+00
DAV:  16    -0.852951944186E+02   -0.39046E+01   -0.93790E-01  1256   0.122E+00    0.137E+00
DAV:  17    -0.880251514633E+02   -0.27300E+01   -0.54848E-01  1256   0.808E-01    0.771E-01
DAV:  18    -0.897080012505E+02   -0.16828E+01   -0.18652E-01  1288   0.555E-01    0.469E-01
DAV:  19    -0.913590954990E+02   -0.16511E+01   -0.12187E-01  1296   0.356E-01    0.254E-01
DAV:  20    -0.919741656781E+02   -0.61507E+00   -0.20379E-02  1296   0.158E-01    0.156E-01
DAV:  21    -0.921982180831E+02   -0.22405E+00   -0.45466E-03  1312   0.845E-02    0.813E-02
DAV:  22    -0.923197309041E+02   -0.12151E+00   -0.27448E-03  1272   0.688E-02    0.508E-02
DAV:  23    -0.923434947665E+02   -0.23764E-01   -0.11240E-03   932   0.317E-02    0.318E-02
DAV:  24    -0.923561712825E+02   -0.12677E-01   -0.34534E-04   864   0.218E-02    0.211E-02
DAV:  25    -0.923627802497E+02   -0.66090E-02   -0.16192E-04   864   0.162E-02    0.143E-02
DAV:  26    -0.923685067729E+02   -0.57265E-02   -0.89341E-05   844   0.853E-03    0.879E-03
DAV:  27    -0.923725978682E+02   -0.40911E-02   -0.49714E-05   824   0.612E-03    0.519E-03
DAV:  28    -0.923742459951E+02   -0.16481E-02   -0.12791E-05   832   0.458E-03    0.293E-03
DAV:  29    -0.923746726877E+02   -0.42669E-03   -0.54883E-06   784   0.336E-03    0.223E-03
DAV:  30    -0.923747497189E+02   -0.77031E-04   -0.25533E-06   780   0.230E-03
   1 F= -.92374750E+02 E0= -.92374750E+02  d E =-.923747E+02  mag=     1.0030
 curvature:   0.00 expect dE= 0.000E+00 dE for cont linesearch  0.000E+00
 trial: gam= 0.00000 g(F)=  0.327E-01 g(S)=  0.000E+00 ort = 0.000E+00 (trialstep = 0.100E+01)
 search vector abs. value=  0.327E-01
 bond charge predicted
       N       E                     dE             d eps       ncg     rms          rms(c)
DAV:   1    -0.924056382554E+02   -0.30966E-01   -0.21950E+00  1288   0.229E+00    0.868E-02
DAV:   2    -0.924066802439E+02   -0.10420E-02   -0.99859E-03  1268   0.216E-01    0.658E-02
DAV:   3    -0.924066846067E+02   -0.43629E-05   -0.16686E-04   816   0.295E-02
   2 F= -.92406685E+02 E0= -.92406685E+02  d E =-.319349E-01  mag=     1.0018
 ZBRENT: can't locate minimum, use default step
 trial-energy change:   -0.031935  1 .order   -0.031478   -0.032680   -0.030275
 step:   4.0000(harm= 13.5893)  dis= 0.01825  next Energy=   -92.596799 (dE=-0.222E+00)
 bond charge predicted
       N       E                     dE             d eps       ncg     rms          rms(c)
DAV:   1    -0.924830909834E+02   -0.76411E-01   -0.19798E+01  1232   0.689E+00    0.260E-01
DAV:   2    -0.924920046711E+02   -0.89137E-02   -0.89891E-02  1272   0.648E-01    0.196E-01
DAV:   3    -0.924918433976E+02    0.16127E-03   -0.16187E-03  1304   0.878E-02    0.130E-01
DAV:   4    -0.924916529069E+02    0.19049E-03   -0.76162E-04  1280   0.483E-02    0.314E-02
DAV:   5    -0.924916563444E+02   -0.34375E-05   -0.27318E-05   792   0.140E-02
   3 F= -.92491656E+02 E0= -.92491656E+02  d E =-.116907E+00  mag=     1.0009
 curvature:  -2.85 expect dE=-0.607E-01 dE for cont linesearch -0.585E-01
 ZBRENT: increasing intervall
 opt :  10.0000  next Energy=   -92.620660 (dE=-0.246E+00)
 bond charge predicted
       N       E                     dE             d eps       ncg     rms          rms(c)
DAV:   1    -0.925823115562E+02   -0.90659E-01   -0.79135E+01  1232   0.138E+01    0.482E-01
DAV:   2    -0.926181528576E+02   -0.35841E-01   -0.35996E-01  1248   0.130E+00    0.370E-01
DAV:   3    -0.926175391979E+02    0.61366E-03   -0.63159E-03  1312   0.172E-01    0.254E-01
DAV:   4    -0.926166857390E+02    0.85346E-03   -0.29087E-03  1284   0.935E-02    0.701E-02
DAV:   5    -0.926167003543E+02   -0.14615E-04   -0.15030E-04   824   0.299E-02
   4 F= -.92616700E+02 E0= -.92616700E+02  d E =-.241951E+00  mag=     1.0004
 curvature:  -6.29 expect dE=-0.791E-01 dE for cont linesearch -0.509E-01
 ZBRENT: increasing intervall
 opt :  22.0000  next Energy=   -92.696262 (dE=-0.322E+00)
 bond charge predicted
       N       E                     dE             d eps       ncg     rms          rms(c)
DAV:   1    -0.925604983960E+02    0.56187E-01   -0.31824E+02  1232   0.277E+01    0.921E-01
DAV:   2    -0.927064183136E+02   -0.14592E+00   -0.14642E+00  1272   0.262E+00    0.697E-01
DAV:   3    -0.927041484835E+02    0.22698E-02   -0.23468E-02  1284   0.336E-01    0.492E-01
DAV:   4    -0.927007429941E+02    0.34055E-02   -0.10045E-02  1276   0.174E-01    0.156E-01
DAV:   5    -0.927008207327E+02   -0.77739E-04   -0.97889E-04  1312   0.637E-02
   5 F= -.92700821E+02 E0= -.92700821E+02  d E =-.326071E+00  mag=     1.0002
 curvature:  -9.84 expect dE=-0.189E+00 dE for cont linesearch -0.773E-03
 trial: gam= 0.63693 g(F)=  0.192E-01 g(S)=  0.000E+00 ort =-0.160E-02 (trialstep = 0.520E+01)
 search vector abs. value=  0.304E-01
 bond charge predicted
       N       E                     dE             d eps       ncg     rms          rms(c)
DAV:   1    -0.927597795752E+02   -0.59037E-01   -0.55140E+01  1240   0.115E+01    0.314E-01
DAV:   2    -0.927858614796E+02   -0.26082E-01   -0.25744E-01  1288   0.112E+00    0.301E-01
DAV:   3    -0.927857179430E+02    0.14354E-03   -0.42472E-03  1328   0.147E-01    0.218E-01
DAV:   4    -0.927850360813E+02    0.68186E-03   -0.13130E-03  1280   0.615E-02    0.116E-01
DAV:   5    -0.927850954166E+02   -0.59335E-04   -0.88937E-04  1288   0.501E-02
   6 F= -.92785095E+02 E0= -.92785095E+02  d E =-.842747E-01  mag=     1.0001
 ZBRENT: can't locate minimum, use default step
 trial-energy change:   -0.084275  1 .order   -0.084809   -0.094596   -0.075021
 step:  20.8000(harm= 25.1291)  dis= 0.08621  next Energy=   -92.929390 (dE=-0.229E+00)
 bond charge predicted
       N       E                     dE             d eps       ncg     rms          rms(c)
DAV:   1    -0.926902589593E+02    0.94777E-01   -0.50071E+02  1232   0.347E+01    0.918E-01
DAV:   2    -0.929264661482E+02   -0.23621E+00   -0.23412E+00  1284   0.339E+00    0.917E-01
DAV:   3    -0.929250017400E+02    0.14644E-02   -0.38227E-02  1352   0.435E-01    0.669E-01
DAV:   4    -0.929182548587E+02    0.67469E-02   -0.96772E-03  1292   0.169E-01    0.402E-01
DAV:   5    -0.929173252512E+02    0.92961E-03   -0.93702E-03  1284   0.159E-01    0.133E-01
DAV:   6    -0.929173514576E+02   -0.26206E-04   -0.31240E-04   864   0.302E-02
   7 F= -.92917351E+02 E0= -.92917351E+02  d E =-.216531E+00  mag=     1.0000
 curvature: -20.02 expect dE=-0.133E+00 dE for cont linesearch -0.635E-02
 ZBRENT: extrapolating
 opt :  25.0798  next Energy=   -92.923998 (dE=-0.223E+00)
 bond charge predicted
       N       E                     dE             d eps       ncg     rms          rms(c)
DAV:   1    -0.929062295998E+02    0.11096E-01   -0.37328E+01  1232   0.942E+00    0.246E-01
DAV:   2    -0.929239464411E+02   -0.17717E-01   -0.17410E-01  1272   0.917E-01    0.238E-01
DAV:   3    -0.929238921659E+02    0.54275E-04   -0.29526E-03  1360   0.120E-01    0.172E-01
DAV:   4    -0.929234707423E+02    0.42142E-03   -0.80292E-04  1272   0.485E-02    0.972E-02
DAV:   5    -0.929235320608E+02   -0.61319E-04   -0.67714E-04  1284   0.430E-02
   8 F= -.92923532E+02 E0= -.92923532E+02  d E =-.222711E+00  mag=     1.0000
 curvature: -20.96 expect dE=-0.167E+00 dE for cont linesearch -0.823E-06
 trial: gam= 0.29896 g(F)=  0.798E-02 g(S)=  0.000E+00 ort = 0.346E-04 (trialstep = 0.918E+01)
 search vector abs. value=  0.107E-01
 bond charge predicted
       N       E                     dE             d eps       ncg     rms          rms(c)
DAV:   1    -0.929590853947E+02   -0.35615E-01   -0.60425E+01  1232   0.120E+01    0.327E-01
DAV:   2    -0.929877507417E+02   -0.28665E-01   -0.27813E-01  1288   0.115E+00    0.275E-01
DAV:   3    -0.929874576648E+02    0.29308E-03   -0.43845E-03  1336   0.148E-01    0.197E-01
DAV:   4    -0.929867258596E+02    0.73181E-03   -0.15223E-03  1272   0.652E-02    0.889E-02
DAV:   5    -0.929867412397E+02   -0.15380E-04   -0.66163E-04  1296   0.440E-02
   9 F= -.92986741E+02 E0= -.92986741E+02  d E =-.632092E-01  mag=     1.0000
 trial-energy change:   -0.063209  1 .order   -0.063723   -0.073303   -0.054143
 step:  35.1057(harm= 35.1057)  dis= 0.11229  next Energy=   -93.063754 (dE=-0.140E+00)
 bond charge predicted
       N       E                     dE             d eps       ncg     rms          rms(c)
DAV:   1    -0.928264542108E+02    0.16027E+00   -0.48656E+02  1232   0.343E+01    0.108E+00
DAV:   2    -0.930566600355E+02   -0.23021E+00   -0.22807E+00  1264   0.331E+00    0.795E-01
DAV:   3    -0.930531335120E+02    0.35265E-02   -0.38519E-02  1352   0.448E-01    0.543E-01
DAV:   4    -0.930472398021E+02    0.58937E-02   -0.12180E-02  1268   0.185E-01    0.235E-01
DAV:   5    -0.930470643019E+02    0.17550E-03   -0.36215E-03  1336   0.105E-01    0.760E-02
DAV:   6    -0.930471984491E+02   -0.13415E-03   -0.29114E-04   860   0.289E-02    0.407E-02
DAV:   7    -0.930474344569E+02   -0.23601E-03   -0.89506E-05   860   0.169E-02    0.141E-02
DAV:   8    -0.930476497449E+02   -0.21529E-03   -0.20780E-05   808   0.801E-03    0.444E-03
DAV:   9    -0.930477949311E+02   -0.14519E-03   -0.55955E-06   848   0.409E-03    0.263E-03
DAV:  10    -0.930478853583E+02   -0.90427E-04   -0.18542E-06   800   0.187E-03
  10 F= -.93047885E+02 E0= -.93047885E+02  d E =-.124353E+00  mag=     1.0000
 curvature: -23.55 expect dE=-0.167E+00 dE for cont linesearch -0.361E-02
 trial: gam= 1.01775 g(F)=  0.711E-02 g(S)=  0.000E+00 ort =-0.128E-02 (trialstep = 0.986E+01)
 search vector abs. value=  0.156E-01
 bond charge predicted
       N       E                     dE             d eps       ncg     rms          rms(c)
DAV:   1    -0.930469000446E+02    0.89489E-03   -0.10167E+02  1232   0.156E+01    0.403E-01
DAV:   2    -0.930937064507E+02   -0.46806E-01   -0.46563E-01  1272   0.149E+00    0.352E-01
DAV:   3    -0.930929375590E+02    0.76889E-03   -0.73293E-03  1336   0.192E-01    0.254E-01
DAV:   4    -0.930913916811E+02    0.15459E-02   -0.23773E-03  1268   0.805E-02    0.126E-01
DAV:   5    -0.930912094496E+02    0.18223E-03   -0.15168E-03  1332   0.641E-02    0.441E-02
DAV:   6    -0.930912814303E+02   -0.71981E-04   -0.60168E-05   792   0.133E-02
  11 F= -.93091281E+02 E0= -.93091281E+02  d E =-.433961E-01  mag=     1.0000
 trial-energy change:   -0.043396  1 .order   -0.043454   -0.057287   -0.029622
 step:  20.4262(harm= 20.4262)  dis= 0.05101  next Energy=   -93.107198 (dE=-0.593E-01)
 bond charge predicted
       N       E                     dE             d eps       ncg     rms          rms(c)
DAV:   1    -0.930539964844E+02    0.37213E-01   -0.11655E+02  1232   0.167E+01    0.450E-01
DAV:   2    -0.931074176063E+02   -0.53421E-01   -0.53484E-01  1264   0.160E+00    0.381E-01
DAV:   3    -0.931065196799E+02    0.89793E-03   -0.86870E-03  1320   0.210E-01    0.271E-01
DAV:   4    -0.931047999619E+02    0.17197E-02   -0.28503E-03  1272   0.883E-02    0.130E-01
DAV:   5    -0.931047119581E+02    0.88004E-04   -0.15283E-03  1308   0.647E-02    0.457E-02
DAV:   6    -0.931048334067E+02   -0.12145E-03   -0.64803E-05   812   0.137E-02    0.269E-02
DAV:   7    -0.931049989787E+02   -0.16557E-03   -0.41385E-05   820   0.107E-02    0.978E-03
DAV:   8    -0.931051732144E+02   -0.17424E-03   -0.12610E-05   800   0.609E-03    0.250E-03
DAV:   9    -0.931052843297E+02   -0.11112E-03   -0.41265E-06   840   0.325E-03    0.183E-03
DAV:  10    -0.931053679955E+02   -0.83666E-04   -0.14514E-06   784   0.160E-03
  12 F= -.93105368E+02 E0= -.93105368E+02  d E =-.574826E-01  mag=     1.0000
 curvature: -27.44 expect dE=-0.105E+00 dE for cont linesearch -0.250E-03
 trial: gam= 0.19491 g(F)=  0.381E-02 g(S)=  0.000E+00 ort =-0.377E-03 (trialstep = 0.120E+02)
 search vector abs. value=  0.425E-02
 bond charge predicted
       N       E                     dE             d eps       ncg     rms          rms(c)
DAV:   1    -0.931204794596E+02   -0.15195E-01   -0.40987E+01  1232   0.990E+00    0.314E-01
DAV:   2    -0.931391367085E+02   -0.18657E-01   -0.18671E-01  1288   0.939E-01    0.267E-01
DAV:   3    -0.931388565977E+02    0.28011E-03   -0.29768E-03  1336   0.117E-01    0.184E-01
DAV:   4    -0.931383858253E+02    0.47077E-03   -0.14058E-03  1272   0.645E-02    0.710E-02
DAV:   5    -0.931384227628E+02   -0.36937E-04   -0.19785E-04   824   0.293E-02
  13 F= -.93138423E+02 E0= -.93138423E+02  d E =-.330548E-01  mag=     1.0000
 trial-energy change:   -0.033055  1 .order   -0.033414   -0.044731   -0.022097
 step:  23.6688(harm= 23.6688)  dis= 0.03774  next Energy=   -93.149567 (dE=-0.442E-01)
 bond charge predicted
       N       E                     dE             d eps       ncg     rms          rms(c)
DAV:   1    -0.931311251166E+02    0.72607E-02   -0.39031E+01  1232   0.966E+00    0.305E-01
DAV:   2    -0.931490484093E+02   -0.17923E-01   -0.17888E-01  1292   0.919E-01    0.254E-01
DAV:   3    -0.931488142387E+02    0.23417E-03   -0.28392E-03  1328   0.114E-01    0.173E-01
DAV:   4    -0.931483928442E+02    0.42139E-03   -0.12104E-03  1296   0.605E-02    0.684E-02
DAV:   5    -0.931484165288E+02   -0.23685E-04   -0.19035E-04   808   0.285E-02
  14 F= -.93148417E+02 E0= -.93148417E+02  d E =-.430485E-01  mag=     1.0000
 curvature: -13.48 expect dE=-0.220E-01 dE for cont linesearch -0.389E-05
 trial: gam= 0.41403 g(F)=  0.163E-02 g(S)=  0.000E+00 ort = 0.350E-04 (trialstep = 0.143E+02)
 search vector abs. value=  0.239E-02
 bond charge predicted
       N       E                     dE             d eps       ncg     rms          rms(c)
DAV:   1    -0.931519304230E+02   -0.35376E-02   -0.32714E+01  1232   0.884E+00    0.224E-01
DAV:   2    -0.931668814493E+02   -0.14951E-01   -0.14769E-01  1268   0.838E-01    0.206E-01
DAV:   3    -0.931667161225E+02    0.16533E-03   -0.23685E-03  1320   0.105E-01    0.152E-01
DAV:   4    -0.931662564812E+02    0.45964E-03   -0.80623E-04  1272   0.475E-02    0.760E-02
DAV:   5    -0.931662396898E+02    0.16791E-04   -0.49080E-04  1296   0.372E-02
  15 F= -.93166240E+02 E0= -.93166240E+02  d E =-.178232E-01  mag=     1.0000
 trial-energy change:   -0.017823  1 .order   -0.018398   -0.023558   -0.013239
 step:  32.6818(harm= 32.6818)  dis= 0.03004  next Energy=   -93.175308 (dE=-0.269E-01)
 bond charge predicted
       N       E                     dE             d eps       ncg     rms          rms(c)
DAV:   1    -0.931503079043E+02    0.15949E-01   -0.53872E+01  1232   0.113E+01    0.287E-01
DAV:   2    -0.931750654377E+02   -0.24758E-01   -0.24417E-01  1272   0.108E+00    0.264E-01
DAV:   3    -0.931748074208E+02    0.25802E-03   -0.39243E-03  1316   0.135E-01    0.194E-01
DAV:   4    -0.931740607884E+02    0.74663E-03   -0.12843E-03  1280   0.602E-02    0.982E-02
DAV:   5    -0.931740256758E+02    0.35113E-04   -0.81010E-04  1312   0.478E-02
  16 F= -.93174026E+02 E0= -.93174026E+02  d E =-.256091E-01  mag=     1.0000
 curvature: -23.73 expect dE=-0.338E-01 dE for cont linesearch -0.109E-04
 trial: gam= 0.86983 g(F)=  0.142E-02 g(S)=  0.000E+00 ort = 0.332E-04 (trialstep = 0.131E+02)
 search vector abs. value=  0.329E-02
 bond charge predicted
       N       E                     dE             d eps       ncg     rms          rms(c)
DAV:   1    -0.931734839512E+02    0.57684E-03   -0.37456E+01  1232   0.943E+00    0.191E-01
DAV:   2    -0.931910038900E+02   -0.17520E-01   -0.16973E-01  1260   0.895E-01    0.197E-01
DAV:   3    -0.931908984879E+02    0.10540E-03   -0.26452E-03  1320   0.110E-01    0.152E-01
DAV:   4    -0.931904052729E+02    0.49322E-03   -0.49522E-04  1232   0.379E-02    0.975E-02
DAV:   5    -0.931902449513E+02    0.16032E-03   -0.11069E-03  1280   0.536E-02    0.330E-02
DAV:   6    -0.931902778779E+02   -0.32927E-04   -0.13481E-05   792   0.699E-03
  17 F= -.93190278E+02 E0= -.93190278E+02  d E =-.162522E-01  mag=     1.0000
 ZBRENT: can't locate minimum, use default step
 trial-energy change:   -0.016252  1 .order   -0.016932   -0.018975   -0.014890
 step:  52.2833(harm= 60.7108)  dis= 0.05537  next Energy=   -93.218093 (dE=-0.441E-01)
 bond charge predicted
       N       E                     dE             d eps       ncg     rms          rms(c)
DAV:   1    -0.930595513356E+02    0.13069E+00   -0.33980E+02  1232   0.285E+01    0.643E-01
DAV:   2    -0.932200511518E+02   -0.16050E+00   -0.15531E+00  1276   0.272E+00    0.610E-01
DAV:   3    -0.932183958871E+02    0.16553E-02   -0.24250E-02  1336   0.335E-01    0.455E-01
DAV:   4    -0.932136987335E+02    0.46972E-02   -0.49661E-03  1296   0.119E-01    0.281E-01
DAV:   5    -0.932122126904E+02    0.14860E-02   -0.74316E-03  1292   0.139E-01    0.866E-02
DAV:   6    -0.932123609275E+02   -0.14824E-03   -0.85722E-05   800   0.185E-02    0.538E-02
DAV:   7    -0.932125327463E+02   -0.17182E-03   -0.67924E-05   816   0.135E-02    0.209E-02
DAV:   8    -0.932126644489E+02   -0.13170E-03   -0.24460E-05   816   0.878E-03    0.633E-03
DAV:   9    -0.932127872349E+02   -0.12279E-03   -0.64833E-06   804   0.420E-03    0.249E-03
DAV:  10    -0.932128653633E+02   -0.78128E-04   -0.22032E-06   808   0.187E-03
  18 F= -.93212865E+02 E0= -.93212865E+02  d E =-.388397E-01  mag=     1.0000
 curvature: -66.61 expect dE=-0.184E+00 dE for cont linesearch -0.494E-06
 trial: gam= 1.93365 g(F)=  0.277E-02 g(S)=  0.000E+00 ort =-0.494E-05 (trialstep = 0.457E+01)
 search vector abs. value=  0.150E-01
 bond charge predicted
       N       E                     dE             d eps       ncg     rms          rms(c)
DAV:   1    -0.932153556880E+02   -0.25685E-02   -0.20973E+01  1232   0.701E+00    0.139E-01
DAV:   2    -0.932251591655E+02   -0.98035E-02   -0.95483E-02  1256   0.670E-01    0.148E-01
DAV:   3    -0.932250772273E+02    0.81938E-04   -0.14898E-03  1328   0.832E-02    0.114E-01
DAV:   4    -0.932247901266E+02    0.28710E-03   -0.22573E-04   800   0.265E-02    0.779E-02
DAV:   5    -0.932246758556E+02    0.11427E-03   -0.82500E-04  1256   0.472E-02    0.255E-02
DAV:   6    -0.932247022883E+02   -0.26433E-04   -0.92233E-06   760   0.591E-03
  19 F= -.93224702E+02 E0= -.93224702E+02  d E =-.118369E-01  mag=     1.0000
 ZBRENT: can't locate minimum, use default step
 trial-energy change:   -0.011837  1 .order   -0.011937   -0.012616   -0.011259
 step:  18.2831(harm= 42.5057)  dis= 0.05905  next Energy=   -93.271525 (dE=-0.587E-01)
 bond charge predicted
       N       E                     dE             d eps       ncg     rms          rms(c)
DAV:   1    -0.931620935078E+02    0.62582E-01   -0.18980E+02  1232   0.211E+01    0.476E-01
DAV:   2    -0.932512577395E+02   -0.89164E-01   -0.87643E-01  1268   0.203E+00    0.449E-01
DAV:   3    -0.932502121843E+02    0.10456E-02   -0.13833E-02  1320   0.257E-01    0.331E-01
DAV:   4    -0.932476222323E+02    0.25900E-02   -0.25715E-03  1272   0.852E-02    0.207E-01
DAV:   5    -0.932467176765E+02    0.90456E-03   -0.44853E-03  1276   0.107E-01    0.618E-02
DAV:   6    -0.932468270705E+02   -0.10939E-03   -0.54976E-05   796   0.143E-02    0.381E-02
DAV:   7    -0.932469629684E+02   -0.13590E-03   -0.38442E-05   808   0.996E-03    0.157E-02
DAV:   8    -0.932470887231E+02   -0.12575E-03   -0.16553E-05   804   0.698E-03    0.384E-03
DAV:   9    -0.932471878629E+02   -0.99140E-04   -0.40139E-06   796   0.323E-03
  20 F= -.93247188E+02 E0= -.93247188E+02  d E =-.343225E-01  mag=     1.0000
 curvature: -68.62 expect dE=-0.150E+00 dE for cont linesearch -0.337E-02
 ZBRENT: increasing intervall
 opt :  45.7077  next Energy=   -93.226754 (dE=-0.139E-01)
 bond charge predicted
       N       E                     dE             d eps       ncg     rms          rms(c)
DAV:   1    -0.928652022951E+02    0.38189E+00   -0.77400E+02  1232   0.430E+01    0.126E+00
DAV:   2    -0.932396982594E+02   -0.37450E+00   -0.37205E+00  1288   0.422E+00    0.941E-01
DAV:   3    -0.932340341363E+02    0.56641E-02   -0.60472E-02  1340   0.548E-01    0.642E-01
DAV:   4    -0.932246536828E+02    0.93805E-02   -0.11149E-02  1264   0.179E-01    0.382E-01
DAV:   5    -0.932221177554E+02    0.25359E-02   -0.11051E-02  1312   0.171E-01    0.101E-01
DAV:   6    -0.932224467284E+02   -0.32897E-03   -0.15821E-04   856   0.256E-02    0.605E-02
DAV:   7    -0.932228312262E+02   -0.38450E-03   -0.63172E-05   864   0.134E-02    0.249E-02
DAV:   8    -0.932231380433E+02   -0.30682E-03   -0.22700E-05   816   0.772E-03    0.711E-03
DAV:   9    -0.932233656083E+02   -0.22757E-03   -0.76432E-06   836   0.387E-03    0.323E-03
DAV:  10    -0.932235295981E+02   -0.16399E-03   -0.39426E-06   816   0.199E-03    0.187E-03
DAV:  11    -0.932236349135E+02   -0.10532E-03   -0.20533E-06   824   0.125E-03    0.131E-03
DAV:  12    -0.932238068470E+02   -0.17193E-03   -0.60418E-06   796   0.161E-03    0.936E-04
DAV:  13    -0.932238593871E+02   -0.52540E-04   -0.14370E-06   864   0.835E-04
  21 F= -.93223859E+02 E0= -.93223859E+02  d E =-.109940E-01  mag=     1.0000
 curvature: 416.56 expect dE= 0.314E+01 dE for cont linesearch  0.228E+00
 ZBRENT: bracketing found
 ZBRENT: interpolating
 opt :  24.5970  next Energy=   -93.249900 (dE=-0.370E-01)
 bond charge predicted
       N       E                     dE             d eps       ncg     rms          rms(c)
DAV:   1    -0.930488969948E+02    0.17491E+00   -0.45391E+02  1232   0.329E+01    0.755E-01
DAV:   2    -0.932602688447E+02   -0.21137E+00   -0.20922E+00  1280   0.315E+00    0.727E-01
DAV:   3    -0.932578925288E+02    0.23763E-02   -0.32937E-02  1352   0.392E-01    0.542E-01
DAV:   4    -0.932519185087E+02    0.59740E-02   -0.57055E-03  1300   0.130E-01    0.354E-01
DAV:   5    -0.932495261957E+02    0.23923E-02   -0.10301E-02  1280   0.162E-01    0.105E-01
DAV:   6    -0.932497293275E+02   -0.20313E-03   -0.11367E-04   864   0.215E-02    0.627E-02
DAV:   7    -0.932499636398E+02   -0.23431E-03   -0.69452E-05   824   0.140E-02    0.246E-02
DAV:   8    -0.932501347222E+02   -0.17108E-03   -0.30345E-05   840   0.956E-03    0.717E-03
DAV:   9    -0.932502903659E+02   -0.15564E-03   -0.76094E-06   792   0.456E-03    0.326E-03
DAV:  10    -0.932503696432E+02   -0.79277E-04   -0.20435E-06   824   0.187E-03
  22 F= -.93250370E+02 E0= -.93250370E+02  d E =-.375043E-01  mag=     1.0000
 curvature:  -4.95 expect dE=-0.130E-01 dE for cont linesearch -0.631E-05
 trial: gam= 0.41542 g(F)=  0.264E-02 g(S)=  0.000E+00 ort = 0.139E-03 (trialstep = 0.858E+01)
 search vector abs. value=  0.535E-02
 bond charge predicted
       N       E                     dE             d eps       ncg     rms          rms(c)
DAV:   1    -0.932591254165E+02   -0.88351E-02   -0.26274E+01  1244   0.788E+00    0.191E-01
DAV:   2    -0.932711628648E+02   -0.12037E-01   -0.11915E-01  1272   0.749E-01    0.170E-01
DAV:   3    -0.932710238550E+02    0.13901E-03   -0.19148E-03  1376   0.954E-02    0.125E-01
DAV:   4    -0.932706882772E+02    0.33558E-03   -0.51850E-04  1272   0.378E-02    0.639E-02
DAV:   5    -0.932706473289E+02    0.40948E-04   -0.43871E-04  1252   0.341E-02
  23 F= -.93270647E+02 E0= -.93270647E+02  d E =-.202777E-01  mag=     1.0000
 ZBRENT: can't locate minimum, use default step
 trial-energy change:   -0.020278  1 .order   -0.020468   -0.023095   -0.017842
 step:  34.3041(harm= 37.7006)  dis= 0.06741  next Energy=   -93.301134 (dE=-0.508E-01)
 bond charge predicted
       N       E                     dE             d eps       ncg     rms          rms(c)
DAV:   1    -0.931898181711E+02    0.80870E-01   -0.23772E+02  1232   0.238E+01    0.640E-01
DAV:   2    -0.933004455218E+02   -0.11063E+00   -0.10989E+00  1276   0.228E+00    0.511E-01
DAV:   3    -0.932988647724E+02    0.15807E-02   -0.17921E-02  1348   0.296E-01    0.363E-01
DAV:   4    -0.932957948452E+02    0.30699E-02   -0.46700E-03  1296   0.114E-01    0.178E-01
DAV:   5    -0.932954793492E+02    0.31550E-03   -0.29290E-03  1320   0.891E-02    0.559E-02
DAV:   6    -0.932956204142E+02   -0.14107E-03   -0.93862E-05   816   0.168E-02    0.333E-02
DAV:   7    -0.932958143913E+02   -0.19398E-03   -0.57360E-05   844   0.126E-02    0.120E-02
DAV:   8    -0.932960103839E+02   -0.19599E-03   -0.18860E-05   816   0.752E-03    0.276E-03
DAV:   9    -0.932961130046E+02   -0.10262E-03   -0.44231E-06   848   0.356E-03    0.202E-03
DAV:  10    -0.932961794399E+02   -0.66435E-04   -0.13739E-06   772   0.163E-03
  24 F= -.93296179E+02 E0= -.93296179E+02  d E =-.458098E-01  mag=     1.0000
 curvature: -36.92 expect dE=-0.867E-01 dE for cont linesearch -0.120E-04
 trial: gam= 0.92149 g(F)=  0.235E-02 g(S)=  0.000E+00 ort =-0.417E-04 (trialstep = 0.108E+02)
 search vector abs. value=  0.681E-02
 bond charge predicted
       N       E                     dE             d eps       ncg     rms          rms(c)
DAV:   1    -0.932942138919E+02    0.18991E-02   -0.52793E+01  1236   0.112E+01    0.248E-01
DAV:   2    -0.933188382424E+02   -0.24624E-01   -0.24119E-01  1276   0.107E+00    0.231E-01
DAV:   3    -0.933185435348E+02    0.29471E-03   -0.38066E-03  1348   0.134E-01    0.174E-01
DAV:   4    -0.933177900218E+02    0.75351E-03   -0.75596E-04  1244   0.461E-02    0.102E-01
DAV:   5    -0.933175291498E+02    0.26087E-03   -0.12510E-03  1288   0.567E-02    0.320E-02
DAV:   6    -0.933175893155E+02   -0.60166E-04   -0.18525E-05   768   0.787E-03
  25 F= -.93317589E+02 E0= -.93317589E+02  d E =-.214099E-01  mag=     1.0000
 trial-energy change:   -0.021410  1 .order   -0.021768   -0.024890   -0.018646
 step:  42.9247(harm= 42.9247)  dis= 0.09785  next Energy=   -93.345786 (dE=-0.496E-01)
 bond charge predicted
       N       E                     dE             d eps       ncg     rms          rms(c)
DAV:   1    -0.931176361026E+02    0.19989E+00   -0.47632E+02  1232   0.337E+01    0.924E-01
DAV:   2    -0.933451335467E+02   -0.22750E+00   -0.22465E+00  1256   0.327E+00    0.706E-01
DAV:   3    -0.933421070128E+02    0.30265E-02   -0.36401E-02  1356   0.424E-01    0.496E-01
DAV:   4    -0.933362435130E+02    0.58635E-02   -0.72888E-03  1280   0.144E-01    0.274E-01
DAV:   5    -0.933349321390E+02    0.13114E-02   -0.68445E-03  1288   0.134E-01    0.732E-02
DAV:   6    -0.933352905003E+02   -0.35836E-03   -0.11827E-04   856   0.203E-02    0.470E-02
DAV:   7    -0.933357535520E+02   -0.46305E-03   -0.74772E-05   820   0.135E-02    0.181E-02
DAV:   8    -0.933361960213E+02   -0.44247E-03   -0.31502E-05   828   0.875E-03    0.493E-03
DAV:   9    -0.933364620143E+02   -0.26599E-03   -0.64593E-06   864   0.382E-03    0.314E-03
DAV:  10    -0.933366718269E+02   -0.20981E-03   -0.35975E-06   804   0.195E-03    0.205E-03
DAV:  11    -0.933368937716E+02   -0.22194E-03   -0.41583E-06   828   0.165E-03    0.141E-03
DAV:  12    -0.933370903488E+02   -0.19658E-03   -0.51332E-06   836   0.150E-03    0.831E-04
DAV:  13    -0.933371801901E+02   -0.89841E-04   -0.14996E-06   856   0.942E-04
  26 F= -.93337180E+02 E0= -.93337180E+02  d E =-.410008E-01  mag=     1.0000
 curvature: -63.27 expect dE=-0.218E+00 dE for cont linesearch -0.254E-02
 ZBRENT: interpolating
 opt :  35.4676  next Energy=   -93.339129 (dE=-0.429E-01)
 bond charge predicted
       N       E                     dE             d eps       ncg     rms          rms(c)
DAV:   1    -0.933278803720E+02    0.92100E-02   -0.25295E+01  1232   0.773E+00    0.166E-01
DAV:   2    -0.933395510860E+02   -0.11671E-01   -0.11439E-01  1288   0.734E-01    0.163E-01
DAV:   3    -0.933394409833E+02    0.11010E-03   -0.17913E-03  1352   0.908E-02    0.125E-01
DAV:   4    -0.933390784849E+02    0.36250E-03   -0.36309E-04  1148   0.324E-02    0.751E-02
DAV:   5    -0.933389468904E+02    0.13159E-03   -0.69485E-04  1288   0.430E-02    0.250E-02
DAV:   6    -0.933389736019E+02   -0.26712E-04   -0.99488E-06   816   0.582E-03
  27 F= -.93338974E+02 E0= -.93338974E+02  d E =-.427942E-01  mag=     1.0000
 curvature: -48.59 expect dE=-0.113E+00 dE for cont linesearch -0.357E-05
 trial: gam= 0.90693 g(F)=  0.232E-02 g(S)=  0.000E+00 ort =-0.224E-04 (trialstep = 0.136E+02)
 search vector abs. value=  0.788E-02
 bond charge predicted
       N       E                     dE             d eps       ncg     rms          rms(c)
DAV:   1    -0.933204043723E+02    0.18543E-01   -0.97254E+01  1232   0.151E+01    0.329E-01
DAV:   2    -0.933662742019E+02   -0.45870E-01   -0.44523E-01  1264   0.145E+00    0.326E-01
DAV:   3    -0.933659022554E+02    0.37195E-03   -0.69133E-03  1360   0.178E-01    0.248E-01
DAV:   4    -0.933645796638E+02    0.13226E-02   -0.14368E-03  1276   0.643E-02    0.152E-01
DAV:   5    -0.933640970067E+02    0.48266E-03   -0.24837E-03  1284   0.802E-02    0.490E-02
DAV:   6    -0.933641204994E+02   -0.23493E-04   -0.36931E-05   808   0.113E-02
  28 F= -.93364120E+02 E0= -.93364120E+02  d E =-.251469E-01  mag=     1.0000
 trial-energy change:   -0.025147  1 .order   -0.025356   -0.031223   -0.019490
 step:  36.1260(harm= 36.1260)  dis= 0.10412  next Energy=   -93.380517 (dE=-0.415E-01)
 bond charge predicted
       N       E                     dE             d eps       ncg     rms          rms(c)
DAV:   1    -0.932518528577E+02    0.11224E+00   -0.26968E+02  1232   0.253E+01    0.601E-01
DAV:   2    -0.933790630150E+02   -0.12721E+00   -0.12521E+00  1252   0.243E+00    0.548E-01
DAV:   3    -0.933776099423E+02    0.14531E-02   -0.19640E-02  1332   0.304E-01    0.401E-01
DAV:   4    -0.933739948465E+02    0.36151E-02   -0.40355E-03  1296   0.108E-01    0.240E-01
DAV:   5    -0.933729656658E+02    0.10292E-02   -0.54100E-03  1312   0.119E-01    0.726E-02
DAV:   6    -0.933730895631E+02   -0.12390E-03   -0.82031E-05   824   0.172E-02    0.453E-02
DAV:   7    -0.933732673921E+02   -0.17783E-03   -0.62114E-05   804   0.128E-02    0.173E-02
DAV:   8    -0.933734409234E+02   -0.17353E-03   -0.22790E-05   824   0.843E-03    0.426E-03
DAV:   9    -0.933735868588E+02   -0.14594E-03   -0.54382E-06   804   0.386E-03    0.236E-03
DAV:  10    -0.933736928108E+02   -0.10595E-03   -0.18989E-06   816   0.173E-03    0.149E-03
DAV:  11    -0.933737946881E+02   -0.10188E-03   -0.15875E-06   808   0.111E-03    0.998E-04
DAV:  12    -0.933739229167E+02   -0.12823E-03   -0.30181E-06   804   0.119E-03    0.684E-04
DAV:  13    -0.933739702757E+02   -0.47359E-04   -0.84143E-07   856   0.673E-04
  29 F= -.93373970E+02 E0= -.93373970E+02  d E =-.349967E-01  mag=     1.0000
 curvature: -61.92 expect dE=-0.202E+00 dE for cont linesearch -0.250E-02
 ZBRENT: interpolating
 opt :  29.7648  next Energy=   -93.375764 (dE=-0.368E-01)
 bond charge predicted
       N       E                     dE             d eps       ncg     rms          rms(c)
DAV:   1    -0.933664469066E+02    0.74760E-02   -0.21295E+01  1244   0.708E+00    0.151E-01
DAV:   2    -0.933762137248E+02   -0.97668E-02   -0.96125E-02  1296   0.670E-01    0.149E-01
DAV:   3    -0.933761150919E+02    0.98633E-04   -0.14763E-03  1352   0.819E-02    0.114E-01
DAV:   4    -0.933758154124E+02    0.29968E-03   -0.31836E-04  1012   0.311E-02    0.691E-02
DAV:   5    -0.933757205209E+02    0.94892E-04   -0.60989E-04  1280   0.410E-02
  30 F= -.93375721E+02 E0= -.93375721E+02  d E =-.367469E-01  mag=     1.0000
 curvature: -44.45 expect dE=-0.101E+00 dE for cont linesearch -0.555E-04
 trial: gam= 0.82908 g(F)=  0.226E-02 g(S)=  0.000E+00 ort =-0.992E-04 (trialstep = 0.168E+02)
 search vector abs. value=  0.752E-02
 bond charge predicted
       N       E                     dE             d eps       ncg     rms          rms(c)
DAV:   1    -0.933382434787E+02    0.37572E-01   -0.14225E+02  1232   0.184E+01    0.403E-01
DAV:   2    -0.934036929034E+02   -0.65449E-01   -0.63968E-01  1256   0.174E+00    0.397E-01
DAV:   3    -0.934029836131E+02    0.70929E-03   -0.98815E-03  1328   0.213E-01    0.306E-01
DAV:   4    -0.934009293392E+02    0.20543E-02   -0.23886E-03  1284   0.824E-02    0.179E-01
DAV:   5    -0.934004077134E+02    0.52163E-03   -0.34415E-03  1280   0.948E-02    0.578E-02
DAV:   6    -0.934004049238E+02    0.27896E-05   -0.50005E-05   808   0.134E-02
  31 F= -.93400405E+02 E0= -.93400405E+02  d E =-.246844E-01  mag=     1.0000
 trial-energy change:   -0.024684  1 .order   -0.024851   -0.036684   -0.013017
 step:  26.0612(harm= 26.0612)  dis= 0.06134  next Energy=   -93.404151 (dE=-0.284E-01)
 bond charge predicted
       N       E                     dE             d eps       ncg     rms          rms(c)
DAV:   1    -0.933834343878E+02    0.16973E-01   -0.42885E+01  1232   0.101E+01    0.219E-01
DAV:   2    -0.934031650888E+02   -0.19731E-01   -0.19303E-01  1272   0.952E-01    0.211E-01
DAV:   3    -0.934029612310E+02    0.20386E-03   -0.29589E-03  1324   0.116E-01    0.161E-01
DAV:   4    -0.934023713896E+02    0.58984E-03   -0.71319E-04  1280   0.452E-02    0.926E-02
DAV:   5    -0.934022447493E+02    0.12664E-03   -0.99960E-04  1284   0.512E-02    0.313E-02
DAV:   6    -0.934022517650E+02   -0.70157E-05   -0.16115E-05   784   0.745E-03
  32 F= -.93402252E+02 E0= -.93402252E+02  d E =-.265312E-01  mag=     1.0000
 curvature: -44.90 expect dE=-0.714E-01 dE for cont linesearch -0.266E-03
 trial: gam= 0.68944 g(F)=  0.159E-02 g(S)=  0.000E+00 ort =-0.211E-03 (trialstep = 0.187E+02)
 search vector abs. value=  0.487E-02
 bond charge predicted
       N       E                     dE             d eps       ncg     rms          rms(c)
DAV:   1    -0.933689107656E+02    0.33334E-01   -0.11341E+02  1232   0.164E+01    0.363E-01
DAV:   2    -0.934217536538E+02   -0.52843E-01   -0.51344E-01  1272   0.156E+00    0.363E-01
DAV:   3    -0.934212002595E+02    0.55339E-03   -0.78280E-03  1328   0.190E-01    0.278E-01
DAV:   4    -0.934194704016E+02    0.17299E-02   -0.20724E-03  1284   0.762E-02    0.164E-01
DAV:   5    -0.934190898971E+02    0.38050E-03   -0.28958E-03  1292   0.868E-02    0.568E-02
DAV:   6    -0.934190918878E+02   -0.19907E-05   -0.50588E-05   816   0.128E-02
  33 F= -.93419092E+02 E0= -.93419092E+02  d E =-.168401E-01  mag=     1.0000
 trial-energy change:   -0.016840  1 .order   -0.017861   -0.026969   -0.008752
 step:  27.6290(harm= 27.6290)  dis= 0.03909  next Energy=   -93.422215 (dE=-0.200E-01)
 bond charge predicted
       N       E                     dE             d eps       ncg     rms          rms(c)
DAV:   1    -0.934089332604E+02    0.10157E-01   -0.26115E+01  1232   0.788E+00    0.172E-01
DAV:   2    -0.934210866649E+02   -0.12153E-01   -0.11822E-01  1304   0.749E-01    0.173E-01
DAV:   3    -0.934209667825E+02    0.11988E-03   -0.17580E-03  1312   0.904E-02    0.132E-01
DAV:   4    -0.934205848144E+02    0.38197E-03   -0.48432E-04  1304   0.369E-02    0.776E-02
DAV:   5    -0.934205221039E+02    0.62710E-04   -0.66948E-04  1312   0.419E-02
  34 F= -.93420522E+02 E0= -.93420522E+02  d E =-.182703E-01  mag=     1.0000
 curvature: -46.59 expect dE=-0.592E-01 dE for cont linesearch -0.987E-07
 trial: gam= 0.57467 g(F)=  0.127E-02 g(S)=  0.000E+00 ort =-0.321E-05 (trialstep = 0.205E+02)
 search vector abs. value=  0.288E-02
 bond charge predicted
       N       E                     dE             d eps       ncg     rms          rms(c)
DAV:   1    -0.934022461289E+02    0.18339E-01   -0.80427E+01  1232   0.139E+01    0.299E-01
DAV:   2    -0.934397640990E+02   -0.37518E-01   -0.36384E-01  1260   0.132E+00    0.304E-01
DAV:   3    -0.934393619014E+02    0.40220E-03   -0.56965E-03  1368   0.162E-01    0.233E-01
DAV:   4    -0.934381034099E+02    0.12585E-02   -0.14340E-03  1300   0.632E-02    0.141E-01
DAV:   5    -0.934377841662E+02    0.31924E-03   -0.22236E-03  1308   0.761E-02    0.497E-02
DAV:   6    -0.934377937765E+02   -0.96103E-05   -0.35987E-05   816   0.108E-02
  35 F= -.93437794E+02 E0= -.93437794E+02  d E =-.172717E-01  mag=     1.0000
 trial-energy change:   -0.017272  1 .order   -0.018114   -0.025971   -0.010257
 step:  33.8078(harm= 33.8078)  dis= 0.05950  next Energy=   -93.441983 (dE=-0.215E-01)
 bond charge predicted
       N       E                     dE             d eps       ncg     rms          rms(c)
DAV:   1    -0.934252323593E+02    0.12552E-01   -0.34213E+01  1232   0.903E+00    0.193E-01
DAV:   2    -0.934408681201E+02   -0.15636E-01   -0.15378E-01  1256   0.855E-01    0.198E-01
DAV:   3    -0.934406702990E+02    0.19782E-03   -0.23940E-03  1312   0.105E-01    0.153E-01
DAV:   4    -0.934401227001E+02    0.54760E-03   -0.62642E-04  1272   0.416E-02    0.920E-02
DAV:   5    -0.934400011627E+02    0.12154E-03   -0.97571E-04  1300   0.504E-02    0.332E-02
DAV:   6    -0.934400181667E+02   -0.17004E-04   -0.15383E-05   768   0.705E-03
  36 F= -.93440018E+02 E0= -.93440018E+02  d E =-.194961E-01  mag=     1.0000
 curvature: -38.31 expect dE=-0.417E-01 dE for cont linesearch -0.116E-03
 trial: gam= 0.81899 g(F)=  0.109E-02 g(S)=  0.000E+00 ort =-0.932E-04 (trialstep = 0.231E+02)
 search vector abs. value=  0.287E-02
 bond charge predicted
       N       E                     dE             d eps       ncg     rms          rms(c)
DAV:   1    -0.934077594797E+02    0.32242E-01   -0.10257E+02  1232   0.156E+01    0.372E-01
DAV:   2    -0.934546897065E+02   -0.46930E-01   -0.46486E-01  1264   0.148E+00    0.357E-01
DAV:   3    -0.934538740650E+02    0.81564E-03   -0.72355E-03  1328   0.183E-01    0.268E-01
DAV:   4    -0.934520724331E+02    0.18016E-02   -0.25364E-03  1280   0.825E-02    0.145E-01
DAV:   5    -0.934518036047E+02    0.26883E-03   -0.20565E-03  1316   0.743E-02    0.519E-02
DAV:   6    -0.934518167734E+02   -0.13169E-04   -0.49260E-05   784   0.122E-02
  37 F= -.93451817E+02 E0= -.93451817E+02  d E =-.117986E-01  mag=     1.0000
 trial-energy change:   -0.011799  1 .order   -0.012683   -0.023396   -0.001969
 step:  26.0745(harm= 25.2517)  dis= 0.06219  next Energy=   -93.451940 (dE=-0.119E-01)
 bond charge predicted
       N       E                     dE             d eps       ncg     rms          rms(c)
DAV:   1    -0.934510860008E+02    0.71760E-03   -0.16564E+00  1264   0.198E+00    0.468E-02
DAV:   2    -0.934518630129E+02   -0.77701E-03   -0.74624E-03  1320   0.187E-01    0.458E-02
DAV:   3    -0.934518638195E+02   -0.80663E-06   -0.10060E-04   776   0.225E-02
  38 F= -.93451864E+02 E0= -.93451864E+02  d E =-.118457E-01  mag=     1.0000
 curvature: -30.40 expect dE=-0.217E-01 dE for cont linesearch -0.491E-03
 trial: gam= 0.54835 g(F)=  0.714E-03 g(S)=  0.000E+00 ort =-0.215E-03 (trialstep = 0.237E+02)
 search vector abs. value=  0.134E-02
 bond charge predicted
       N       E                     dE             d eps       ncg     rms          rms(c)
DAV:   1    -0.934398270284E+02    0.12036E-01   -0.50392E+01  1232   0.110E+01    0.255E-01
DAV:   2    -0.934623613319E+02   -0.22534E-01   -0.22349E-01  1272   0.102E+00    0.245E-01
DAV:   3    -0.934619374088E+02    0.42392E-03   -0.33527E-03  1360   0.120E-01    0.189E-01
DAV:   4    -0.934609992731E+02    0.93814E-03   -0.15445E-03  1268   0.635E-02    0.902E-02
DAV:   5    -0.934609423069E+02    0.56966E-04   -0.85076E-04  1308   0.486E-02
  39 F= -.93460942E+02 E0= -.93460942E+02  d E =-.907849E-02  mag=     1.0000
 trial-energy change:   -0.009078  1 .order   -0.008841   -0.014141   -0.003541
 step:  31.6377(harm= 31.6377)  dis= 0.05369  next Energy=   -93.461296 (dE=-0.943E-02)
 bond charge predicted
       N       E                     dE             d eps       ncg     rms          rms(c)
DAV:   1    -0.934585866968E+02    0.24126E-02   -0.55980E+00  1236   0.365E+00    0.895E-02
DAV:   2    -0.934611628668E+02   -0.25762E-02   -0.25193E-02  1312   0.341E-01    0.781E-02
DAV:   3    -0.934611373025E+02    0.25564E-04   -0.36825E-04  1168   0.400E-02
  40 F= -.93461137E+02 E0= -.93461137E+02  d E =-.927348E-02  mag=     1.0000
 curvature: -35.55 expect dE=-0.161E-01 dE for cont linesearch -0.384E-03
 trial: gam= 0.67424 g(F)=  0.453E-03 g(S)=  0.000E+00 ort =-0.120E-03 (trialstep = 0.253E+02)
 search vector abs. value=  0.900E-03
 bond charge predicted
       N       E                     dE             d eps       ncg     rms          rms(c)
DAV:   1    -0.934492900324E+02    0.11873E-01   -0.38536E+01  1232   0.957E+00    0.217E-01
DAV:   2    -0.934665755512E+02   -0.17286E-01   -0.17181E-01  1272   0.899E-01    0.224E-01
DAV:   3    -0.934663349414E+02    0.24061E-03   -0.26316E-03  1368   0.106E-01    0.174E-01
DAV:   4    -0.934656447762E+02    0.69017E-03   -0.10077E-03  1276   0.530E-02    0.978E-02
DAV:   5    -0.934655883904E+02    0.56386E-04   -0.90831E-04  1288   0.494E-02
  41 F= -.93465588E+02 E0= -.93465588E+02  d E =-.445109E-02  mag=     1.0000
 trial-energy change:   -0.004451  1 .order   -0.004804   -0.009413   -0.000196
 step:  25.8378(harm= 25.8378)  dis= 0.02639  next Energy=   -93.465944 (dE=-0.481E-02)
 bond charge predicted
       N       E                     dE             d eps       ncg     rms          rms(c)
DAV:   1    -0.934655747028E+02    0.70073E-04   -0.16830E-02  1280   0.199E-01    0.240E-02
DAV:   2    -0.934656009929E+02   -0.26290E-04   -0.95513E-05   788   0.213E-02
  42 F= -.93465601E+02 E0= -.93465601E+02  d E =-.446369E-02  mag=     1.0000
 curvature: -31.25 expect dE=-0.862E-02 dE for cont linesearch -0.180E-03
 trial: gam= 0.57121 g(F)=  0.276E-03 g(S)=  0.000E+00 ort =-0.719E-04 (trialstep = 0.254E+02)
 search vector abs. value=  0.487E-03
 bond charge predicted
       N       E                     dE             d eps       ncg     rms          rms(c)
DAV:   1    -0.934601115672E+02    0.54631E-02   -0.20984E+01  1232   0.709E+00    0.159E-01
DAV:   2    -0.934693445548E+02   -0.92330E-02   -0.90830E-02  1272   0.651E-01    0.145E-01
DAV:   3    -0.934691825142E+02    0.16204E-03   -0.13372E-03  1328   0.750E-02    0.114E-01
DAV:   4    -0.934688482108E+02    0.33430E-03   -0.63699E-04  1252   0.404E-02    0.470E-02
DAV:   5    -0.934688483591E+02   -0.14829E-06   -0.24635E-04   800   0.276E-02
  43 F= -.93468848E+02 E0= -.93468848E+02  d E =-.324737E-02  mag=     1.0000
 trial-energy change:   -0.003247  1 .order   -0.003412   -0.005965   -0.000859
 step:  29.6843(harm= 29.6843)  dis= 0.01607  next Energy=   -93.469085 (dE=-0.348E-02)
 bond charge predicted
       N       E                     dE             d eps       ncg     rms          rms(c)
DAV:   1    -0.934685087584E+02    0.33945E-03   -0.59139E-01  1292   0.119E+00    0.316E-02
DAV:   2    -0.934687823546E+02   -0.27360E-03   -0.26352E-03  1296   0.110E-01    0.221E-02
DAV:   3    -0.934687849360E+02   -0.25814E-05   -0.33880E-05   752   0.128E-02
  44 F= -.93468785E+02 E0= -.93468785E+02  d E =-.318394E-02  mag=     1.0000
 curvature: -30.81 expect dE=-0.559E-02 dE for cont linesearch -0.407E-03
 trial: gam= 0.00000 g(F)=  0.182E-03 g(S)=  0.000E+00 ort =-0.803E-04 (trialstep = 0.263E+02)
 search vector abs. value=  0.182E-03
 bond charge predicted
       N       E                     dE             d eps       ncg     rms          rms(c)
DAV:   1    -0.934656597551E+02    0.31226E-02   -0.84238E+00  1232   0.448E+00    0.152E-01
DAV:   2    -0.934694289881E+02   -0.37692E-02   -0.38572E-02  1272   0.419E-01    0.116E-01
DAV:   3    -0.934693580261E+02    0.70962E-04   -0.62774E-04  1304   0.514E-02
  45 F= -.93469358E+02 E0= -.93469358E+02  d E =-.573090E-03  mag=     1.0000
 trial-energy change:   -0.000573  1 .order   -0.000480   -0.004768    0.003807
 step:  14.6024(harm= 14.6024)  dis= 0.00529  next Energy=   -93.470110 (dE=-0.133E-02)
 bond charge predicted
       N       E                     dE             d eps       ncg     rms          rms(c)
DAV:   1    -0.934693561011E+02    0.72887E-04   -0.16526E+00  1248   0.198E+00    0.542E-02
DAV:   2    -0.934701093252E+02   -0.75322E-03   -0.75508E-03  1292   0.188E-01    0.446E-02
DAV:   3    -0.934701017818E+02    0.75434E-05   -0.10883E-04   768   0.233E-02
  46 F= -.93470102E+02 E0= -.93470102E+02  d E =-.131685E-02  mag=     1.0000
 curvature:  -7.30 expect dE=-0.526E-03 dE for cont linesearch -0.716E-04
 trial: gam= 0.16442 g(F)=  0.720E-04 g(S)=  0.000E+00 ort = 0.422E-04 (trialstep = 0.239E+02)
 search vector abs. value=  0.908E-04
 bond charge predicted
       N       E                     dE             d eps       ncg     rms          rms(c)
DAV:   1    -0.934695689806E+02    0.54034E-03   -0.34662E+00  1244   0.287E+00    0.677E-02
DAV:   2    -0.934711740697E+02   -0.16051E-02   -0.15849E-02  1304   0.273E-01    0.648E-02
DAV:   3    -0.934711529271E+02    0.21143E-04   -0.21384E-04   760   0.333E-02
  47 F= -.93471153E+02 E0= -.93471153E+02  d E =-.105115E-02  mag=     1.0000
 trial-energy change:   -0.001051  1 .order   -0.000698   -0.001890    0.000494
 step:  18.9688(harm= 18.9688)  dis= 0.00345  next Energy=   -93.470851 (dE=-0.749E-03)
 bond charge predicted
       N       E                     dE             d eps       ncg     rms          rms(c)
DAV:   1    -0.934709106629E+02    0.26341E-03   -0.14583E-01  1268   0.588E-01    0.204E-02
DAV:   2    -0.934709883425E+02   -0.77680E-04   -0.76113E-04  1232   0.595E-02
  48 F= -.93470988E+02 E0= -.93470988E+02  d E =-.886561E-03  mag=     1.0000
 curvature: -10.91 expect dE=-0.629E-03 dE for cont linesearch -0.373E-03
 trial: gam= 0.04954 g(F)=  0.577E-04 g(S)=  0.000E+00 ort = 0.558E-04 (trialstep = 0.229E+02)
 search vector abs. value=  0.634E-04
 reached required accuracy - stopping structural energy minimisation
Application 91045486 resources: utime ~124036s, stime ~698s, Rss ~69880, inblocks ~2602475, outblocks ~1032415
