  44  44   0   0
  0.2736836E+03  0.2292101E-08  0.2292101E-08  0.2292101E-08  0.1000000E-15
  1.000000000000000E-004
  CAR 
 unknown system                          
      1.95891952    -10.25940678  301     -3.32550660      1.00000000
    -10.259  0.0000E+00  0.0000E+00  0.0000E+00  0.0000E+00
    -10.219  0.0000E+00  0.0000E+00  0.0000E+00  0.0000E+00
    -10.178  0.0000E+00  0.0000E+00  0.0000E+00  0.0000E+00
    -10.137  0.0000E+00  0.0000E+00  0.0000E+00  0.0000E+00
    -10.096  0.0000E+00  0.0000E+00  0.0000E+00  0.0000E+00
    -10.056  0.0000E+00  0.0000E+00  0.0000E+00  0.0000E+00
    -10.015  0.0000E+00  0.0000E+00  0.0000E+00  0.0000E+00
     -9.974  0.0000E+00  0.0000E+00  0.0000E+00  0.0000E+00
     -9.934  0.0000E+00  0.0000E+00  0.0000E+00  0.0000E+00
     -9.893  0.0000E+00  0.0000E+00  0.0000E+00  0.0000E+00
     -9.852  0.0000E+00  0.0000E+00  0.0000E+00  0.0000E+00
     -9.811  0.0000E+00  0.0000E+00  0.0000E+00  0.0000E+00
     -9.771  0.0000E+00  0.0000E+00  0.0000E+00  0.0000E+00
     -9.730  0.0000E+00  0.0000E+00  0.0000E+00  0.0000E+00
     -9.689  0.0000E+00  0.0000E+00  0.1000E-02  0.1000E-02
     -9.648  0.0000E+00  0.0000E+00  0.1000E-02  0.1000E-02
     -9.608  0.0000E+00  0.0000E+00  0.1000E-02  0.1000E-02
     -9.567  0.0000E+00  0.0000E+00  0.1000E-02  0.1000E-02
     -9.526  0.0000E+00  0.0000E+00  0.1000E-02  0.1000E-02
     -9.486  0.0000E+00  0.0000E+00  0.1000E-02  0.1000E-02
     -9.445  0.0000E+00  0.0000E+00  0.1000E-02  0.1000E-02
     -9.404  0.0000E+00  0.0000E+00  0.1000E-02  0.1000E-02
     -9.363  0.0000E+00  0.0000E+00  0.1000E-02  0.1000E-02
     -9.323  0.0000E+00  0.0000E+00  0.1000E-02  0.1000E-02
     -9.282  0.0000E+00  0.0000E+00  0.1000E-02  0.1000E-02
     -9.241  0.0000E+00  0.0000E+00  0.1000E-02  0.1000E-02
     -9.200  0.0000E+00  0.0000E+00  0.2000E-02  0.2000E-02
     -9.160  0.0000E+00  0.0000E+00  0.2000E-02  0.2000E-02
     -9.119  0.0000E+00  0.0000E+00  0.3000E-02  0.3000E-02
     -9.078  0.0000E+00  0.0000E+00  0.4000E-02  0.4000E-02
     -9.038  0.0000E+00  0.0000E+00  0.5000E-02  0.5000E-02
     -8.997  0.0000E+00  0.0000E+00  0.7000E-02  0.7000E-02
     -8.956  0.0000E+00  0.0000E+00  0.9000E-02  0.9000E-02
     -8.915  0.0000E+00  0.0000E+00  0.1000E-01  0.1000E-01
     -8.875  0.0000E+00  0.0000E+00  0.1200E-01  0.1200E-01
     -8.834  0.0000E+00  0.0000E+00  0.1400E-01  0.1400E-01
     -8.793  0.0000E+00  0.0000E+00  0.1500E-01  0.1500E-01
     -8.752  0.0000E+00  0.0000E+00  0.1600E-01  0.1600E-01
     -8.712  0.0000E+00  0.0000E+00  0.1800E-01  0.1800E-01
     -8.671  0.0000E+00  0.0000E+00  0.1900E-01  0.1900E-01
     -8.630  0.0000E+00  0.0000E+00  0.2100E-01  0.2100E-01
     -8.590  0.0000E+00  0.0000E+00  0.2200E-01  0.2200E-01
     -8.549  0.0000E+00  0.0000E+00  0.2500E-01  0.2500E-01
     -8.508  0.0000E+00  0.0000E+00  0.2800E-01  0.2800E-01
     -8.467  0.0000E+00  0.0000E+00  0.3000E-01  0.3000E-01
     -8.427  0.0000E+00  0.0000E+00  0.3100E-01  0.3100E-01
     -8.386  0.0000E+00  0.0000E+00  0.3400E-01  0.3400E-01
     -8.345  0.2455E-01  0.2455E-01  0.3700E-01  0.3700E-01
     -8.304  0.0000E+00  0.0000E+00  0.4000E-01  0.4000E-01
     -8.264  0.0000E+00  0.0000E+00  0.4300E-01  0.4300E-01
     -8.223  0.0000E+00  0.0000E+00  0.4400E-01  0.4400E-01
     -8.182  0.0000E+00  0.0000E+00  0.4600E-01  0.4600E-01
     -8.142  0.0000E+00  0.0000E+00  0.5000E-01  0.5000E-01
     -8.101  0.0000E+00  0.0000E+00  0.5200E-01  0.5200E-01
     -8.060  0.0000E+00  0.0000E+00  0.5600E-01  0.5600E-01
     -8.019  0.0000E+00  0.0000E+00  0.5800E-01  0.5800E-01
     -7.979  0.0000E+00  0.0000E+00  0.6100E-01  0.6100E-01
     -7.938  0.7835E-02  0.7834E-02  0.6532E-01  0.6532E-01
     -7.897  0.0000E+00  0.0000E+00  0.6800E-01  0.6800E-01
     -7.856  0.0000E+00  0.0000E+00  0.7100E-01  0.7100E-01
     -7.816  0.0000E+00  0.0000E+00  0.7300E-01  0.7300E-01
     -7.775  0.0000E+00  0.0000E+00  0.7700E-01  0.7700E-01
     -7.734  0.1453E-02  0.1453E-02  0.7806E-01  0.7806E-01
     -7.694  0.0000E+00  0.0000E+00  0.8100E-01  0.8100E-01
     -7.653  0.2455E-01  0.2455E-01  0.8500E-01  0.8500E-01
     -7.612  0.0000E+00  0.0000E+00  0.8700E-01  0.8700E-01
     -7.571  0.0000E+00  0.0000E+00  0.9200E-01  0.9200E-01
     -7.531  0.0000E+00  0.0000E+00  0.9400E-01  0.9400E-01
     -7.490  0.0000E+00  0.0000E+00  0.9700E-01  0.9700E-01
     -7.449  0.0000E+00  0.0000E+00  0.9900E-01  0.9900E-01
     -7.408  0.2455E-01  0.2455E-01  0.1030E+00  0.1030E+00
     -7.368  0.0000E+00  0.0000E+00  0.1050E+00  0.1050E+00
     -7.327  0.0000E+00  0.0000E+00  0.1080E+00  0.1080E+00
     -7.286  0.0000E+00  0.0000E+00  0.1110E+00  0.1110E+00
     -7.246  0.0000E+00  0.0000E+00  0.1130E+00  0.1130E+00
     -7.205  0.0000E+00  0.0000E+00  0.1170E+00  0.1170E+00
     -7.164  0.0000E+00  0.0000E+00  0.1180E+00  0.1180E+00
     -7.123  0.0000E+00  0.0000E+00  0.1210E+00  0.1210E+00
     -7.083  0.0000E+00  0.0000E+00  0.1240E+00  0.1240E+00
     -7.042  0.0000E+00  0.0000E+00  0.1280E+00  0.1280E+00
     -7.001  0.0000E+00  0.0000E+00  0.1310E+00  0.1310E+00
     -6.960  0.0000E+00  0.0000E+00  0.1350E+00  0.1350E+00
     -6.920  0.0000E+00  0.0000E+00  0.1390E+00  0.1390E+00
     -6.879  0.0000E+00  0.0000E+00  0.1430E+00  0.1430E+00
     -6.838  0.0000E+00  0.0000E+00  0.1460E+00  0.1460E+00
     -6.798  0.0000E+00  0.0000E+00  0.1500E+00  0.1500E+00
     -6.757  0.0000E+00  0.0000E+00  0.1540E+00  0.1540E+00
     -6.716  0.0000E+00  0.0000E+00  0.1580E+00  0.1580E+00
     -6.675  0.2321E-01  0.2321E-01  0.1629E+00  0.1629E+00
     -6.635  0.0000E+00  0.0000E+00  0.1670E+00  0.1670E+00
     -6.594  0.2455E-01  0.2455E-01  0.1720E+00  0.1720E+00
     -6.553  0.0000E+00  0.0000E+00  0.1750E+00  0.1750E+00
     -6.512  0.0000E+00  0.0000E+00  0.1800E+00  0.1800E+00
     -6.472  0.0000E+00  0.0000E+00  0.1860E+00  0.1860E+00
     -6.431  0.0000E+00  0.0000E+00  0.1900E+00  0.1900E+00
     -6.390  0.0000E+00  0.0000E+00  0.1950E+00  0.1950E+00
     -6.350  0.0000E+00  0.0000E+00  0.2000E+00  0.2000E+00
     -6.309  0.0000E+00  0.0000E+00  0.2040E+00  0.2040E+00
     -6.268  0.0000E+00  0.0000E+00  0.2070E+00  0.2070E+00
     -6.227  0.0000E+00  0.0000E+00  0.2100E+00  0.2100E+00
     -6.187  0.2455E-01  0.2455E-01  0.2140E+00  0.2140E+00
     -6.146  0.0000E+00  0.0000E+00  0.2170E+00  0.2170E+00
     -6.105  0.0000E+00  0.0000E+00  0.2210E+00  0.2210E+00
     -6.064  0.0000E+00  0.0000E+00  0.2220E+00  0.2220E+00
     -6.024  0.0000E+00  0.0000E+00  0.2240E+00  0.2240E+00
     -5.983  0.0000E+00  0.0000E+00  0.2260E+00  0.2260E+00
     -5.942  0.0000E+00  0.0000E+00  0.2260E+00  0.2260E+00
     -5.902  0.0000E+00  0.0000E+00  0.2260E+00  0.2260E+00
     -5.861  0.0000E+00  0.0000E+00  0.2260E+00  0.2260E+00
     -5.820  0.0000E+00  0.0000E+00  0.2270E+00  0.2270E+00
     -5.779  0.0000E+00  0.0000E+00  0.2280E+00  0.2280E+00
     -5.739  0.0000E+00  0.0000E+00  0.2280E+00  0.2280E+00
     -5.698  0.0000E+00  0.0000E+00  0.2280E+00  0.2280E+00
     -5.657  0.0000E+00  0.0000E+00  0.2280E+00  0.2280E+00
     -5.616  0.0000E+00  0.0000E+00  0.2280E+00  0.2280E+00
     -5.576  0.0000E+00  0.0000E+00  0.2290E+00  0.2290E+00
     -5.535  0.0000E+00  0.0000E+00  0.2290E+00  0.2290E+00
     -5.494  0.0000E+00  0.0000E+00  0.2290E+00  0.2290E+00
     -5.454  0.0000E+00  0.0000E+00  0.2290E+00  0.2290E+00
     -5.413  0.0000E+00  0.0000E+00  0.2290E+00  0.2290E+00
     -5.372  0.0000E+00  0.0000E+00  0.2290E+00  0.2290E+00
     -5.331  0.0000E+00  0.0000E+00  0.2300E+00  0.2300E+00
     -5.291  0.0000E+00  0.0000E+00  0.2300E+00  0.2300E+00
     -5.250  0.0000E+00  0.0000E+00  0.2300E+00  0.2300E+00
     -5.209  0.0000E+00  0.0000E+00  0.2300E+00  0.2300E+00
     -5.168  0.0000E+00  0.0000E+00  0.2300E+00  0.2300E+00
     -5.128  0.0000E+00  0.0000E+00  0.2300E+00  0.2300E+00
     -5.087  0.0000E+00  0.0000E+00  0.2300E+00  0.2300E+00
     -5.046  0.0000E+00  0.0000E+00  0.2300E+00  0.2300E+00
     -5.006  0.0000E+00  0.0000E+00  0.2310E+00  0.2310E+00
     -4.965  0.0000E+00  0.0000E+00  0.2310E+00  0.2310E+00
     -4.924  0.0000E+00  0.0000E+00  0.2310E+00  0.2310E+00
     -4.883  0.0000E+00  0.0000E+00  0.2310E+00  0.2310E+00
     -4.843  0.0000E+00  0.0000E+00  0.2310E+00  0.2310E+00
     -4.802  0.0000E+00  0.0000E+00  0.2320E+00  0.2320E+00
     -4.761  0.0000E+00  0.0000E+00  0.2320E+00  0.2320E+00
     -4.720  0.0000E+00  0.0000E+00  0.2320E+00  0.2320E+00
     -4.680  0.0000E+00  0.0000E+00  0.2330E+00  0.2330E+00
     -4.639  0.0000E+00  0.0000E+00  0.2330E+00  0.2330E+00
     -4.598  0.0000E+00  0.0000E+00  0.2340E+00  0.2340E+00
     -4.558  0.0000E+00  0.0000E+00  0.2340E+00  0.2340E+00
     -4.517  0.0000E+00  0.0000E+00  0.2340E+00  0.2340E+00
     -4.476  0.0000E+00  0.0000E+00  0.2350E+00  0.2350E+00
     -4.435  0.0000E+00  0.0000E+00  0.2350E+00  0.2350E+00
     -4.395  0.0000E+00  0.0000E+00  0.2350E+00  0.2350E+00
     -4.354  0.0000E+00  0.0000E+00  0.2350E+00  0.2350E+00
     -4.313  0.0000E+00  0.0000E+00  0.2350E+00  0.2350E+00
     -4.272  0.0000E+00  0.0000E+00  0.2350E+00  0.2350E+00
     -4.232  0.0000E+00  0.0000E+00  0.2350E+00  0.2350E+00
     -4.191  0.0000E+00  0.0000E+00  0.2360E+00  0.2360E+00
     -4.150  0.0000E+00  0.0000E+00  0.2360E+00  0.2360E+00
     -4.110  0.0000E+00  0.0000E+00  0.2360E+00  0.2360E+00
     -4.069  0.0000E+00  0.0000E+00  0.2360E+00  0.2360E+00
     -4.028  0.0000E+00  0.0000E+00  0.2360E+00  0.2360E+00
     -3.987  0.0000E+00  0.0000E+00  0.2370E+00  0.2370E+00
     -3.947  0.0000E+00  0.0000E+00  0.2370E+00  0.2370E+00
     -3.906  0.0000E+00  0.0000E+00  0.2370E+00  0.2370E+00
     -3.865  0.0000E+00  0.0000E+00  0.2380E+00  0.2380E+00
     -3.824  0.0000E+00  0.0000E+00  0.2390E+00  0.2390E+00
     -3.784  0.0000E+00  0.0000E+00  0.2390E+00  0.2390E+00
     -3.743  0.0000E+00  0.0000E+00  0.2390E+00  0.2390E+00
     -3.702  0.0000E+00  0.0000E+00  0.2390E+00  0.2390E+00
     -3.662  0.0000E+00  0.0000E+00  0.2400E+00  0.2400E+00
     -3.621  0.0000E+00  0.0000E+00  0.2400E+00  0.2400E+00
     -3.580  0.0000E+00  0.0000E+00  0.2410E+00  0.2410E+00
     -3.539  0.0000E+00  0.0000E+00  0.2410E+00  0.2410E+00
     -3.499  0.0000E+00  0.0000E+00  0.2410E+00  0.2410E+00
     -3.458  0.0000E+00  0.0000E+00  0.2410E+00  0.2410E+00
     -3.417  0.0000E+00  0.0000E+00  0.2410E+00  0.2410E+00
     -3.376  0.0000E+00  0.0000E+00  0.2410E+00  0.2410E+00
     -3.336  0.0000E+00  0.0000E+00  0.2420E+00  0.2420E+00
     -3.295  0.0000E+00  0.0000E+00  0.2420E+00  0.2420E+00
     -3.254  0.0000E+00  0.0000E+00  0.2420E+00  0.2420E+00
     -3.214  0.0000E+00  0.0000E+00  0.2420E+00  0.2420E+00
     -3.173  0.0000E+00  0.0000E+00  0.2420E+00  0.2420E+00
     -3.132  0.0000E+00  0.0000E+00  0.2420E+00  0.2420E+00
     -3.091  0.0000E+00  0.0000E+00  0.2420E+00  0.2420E+00
     -3.051  0.0000E+00  0.0000E+00  0.2430E+00  0.2430E+00
     -3.010  0.0000E+00  0.0000E+00  0.2430E+00  0.2430E+00
     -2.969  0.0000E+00  0.0000E+00  0.2430E+00  0.2430E+00
     -2.928  0.0000E+00  0.0000E+00  0.2440E+00  0.2440E+00
     -2.888  0.0000E+00  0.0000E+00  0.2440E+00  0.2440E+00
     -2.847  0.0000E+00  0.0000E+00  0.2440E+00  0.2440E+00
     -2.806  0.0000E+00  0.0000E+00  0.2440E+00  0.2440E+00
     -2.765  0.0000E+00  0.0000E+00  0.2450E+00  0.2450E+00
     -2.725  0.0000E+00  0.0000E+00  0.2450E+00  0.2450E+00
     -2.684  0.0000E+00  0.0000E+00  0.2450E+00  0.2450E+00
     -2.643  0.0000E+00  0.0000E+00  0.2450E+00  0.2450E+00
     -2.603  0.2455E-01  0.2455E-01  0.2470E+00  0.2470E+00
     -2.562  0.0000E+00  0.0000E+00  0.2470E+00  0.2470E+00
     -2.521  0.0000E+00  0.0000E+00  0.2470E+00  0.2470E+00
     -2.480  0.0000E+00  0.0000E+00  0.2470E+00  0.2470E+00
     -2.440  0.0000E+00  0.0000E+00  0.2480E+00  0.2480E+00
     -2.399  0.0000E+00  0.0000E+00  0.2480E+00  0.2480E+00
     -2.358  0.0000E+00  0.0000E+00  0.2490E+00  0.2490E+00
     -2.317  0.0000E+00  0.0000E+00  0.2490E+00  0.2490E+00
     -2.277  0.0000E+00  0.0000E+00  0.2500E+00  0.2500E+00
     -2.236  0.0000E+00  0.0000E+00  0.2500E+00  0.2500E+00
     -2.195  0.0000E+00  0.0000E+00  0.2510E+00  0.2510E+00
     -2.155  0.0000E+00  0.0000E+00  0.2510E+00  0.2510E+00
     -2.114  0.0000E+00  0.0000E+00  0.2510E+00  0.2510E+00
     -2.073  0.0000E+00  0.0000E+00  0.2510E+00  0.2510E+00
     -2.032  0.0000E+00  0.0000E+00  0.2510E+00  0.2510E+00
     -1.992  0.0000E+00  0.0000E+00  0.2530E+00  0.2530E+00
     -1.951  0.0000E+00  0.0000E+00  0.2530E+00  0.2530E+00
     -1.910  0.0000E+00  0.0000E+00  0.2530E+00  0.2530E+00
     -1.869  0.0000E+00  0.0000E+00  0.2540E+00  0.2540E+00
     -1.829  0.0000E+00  0.0000E+00  0.2550E+00  0.2550E+00
     -1.788  0.0000E+00  0.0000E+00  0.2550E+00  0.2550E+00
     -1.747  0.0000E+00  0.0000E+00  0.2560E+00  0.2560E+00
     -1.707  0.0000E+00  0.0000E+00  0.2560E+00  0.2560E+00
     -1.666  0.0000E+00  0.0000E+00  0.2570E+00  0.2570E+00
     -1.625  0.0000E+00  0.0000E+00  0.2570E+00  0.2570E+00
     -1.584  0.0000E+00  0.0000E+00  0.2570E+00  0.2570E+00
     -1.544  0.0000E+00  0.0000E+00  0.2570E+00  0.2570E+00
     -1.503  0.0000E+00  0.0000E+00  0.2570E+00  0.2570E+00
     -1.462  0.0000E+00  0.0000E+00  0.2580E+00  0.2580E+00
     -1.421  0.0000E+00  0.0000E+00  0.2580E+00  0.2580E+00
     -1.381  0.0000E+00  0.0000E+00  0.2590E+00  0.2590E+00
     -1.340  0.0000E+00  0.0000E+00  0.2590E+00  0.2590E+00
     -1.299  0.0000E+00  0.0000E+00  0.2600E+00  0.2600E+00
     -1.259  0.0000E+00  0.0000E+00  0.2600E+00  0.2600E+00
     -1.218  0.0000E+00  0.0000E+00  0.2600E+00  0.2600E+00
     -1.177  0.0000E+00  0.0000E+00  0.2610E+00  0.2610E+00
     -1.136  0.0000E+00  0.0000E+00  0.2620E+00  0.2620E+00
     -1.096  0.0000E+00  0.0000E+00  0.2620E+00  0.2620E+00
     -1.055  0.0000E+00  0.0000E+00  0.2620E+00  0.2620E+00
     -1.014  0.0000E+00  0.0000E+00  0.2620E+00  0.2620E+00
     -0.973  0.0000E+00  0.0000E+00  0.2640E+00  0.2640E+00
     -0.933  0.0000E+00  0.0000E+00  0.2650E+00  0.2650E+00
     -0.892  0.0000E+00  0.0000E+00  0.2660E+00  0.2660E+00
     -0.851  0.0000E+00  0.0000E+00  0.2670E+00  0.2670E+00
     -0.811  0.0000E+00  0.0000E+00  0.2670E+00  0.2670E+00
     -0.770  0.0000E+00  0.0000E+00  0.2670E+00  0.2670E+00
     -0.729  0.0000E+00  0.0000E+00  0.2680E+00  0.2680E+00
     -0.688  0.0000E+00  0.0000E+00  0.2680E+00  0.2680E+00
     -0.648  0.0000E+00  0.0000E+00  0.2690E+00  0.2690E+00
     -0.607  0.0000E+00  0.0000E+00  0.2690E+00  0.2690E+00
     -0.566  0.0000E+00  0.0000E+00  0.2700E+00  0.2700E+00
     -0.525  0.0000E+00  0.0000E+00  0.2700E+00  0.2700E+00
     -0.485  0.0000E+00  0.0000E+00  0.2700E+00  0.2700E+00
     -0.444  0.0000E+00  0.0000E+00  0.2710E+00  0.2710E+00
     -0.403  0.0000E+00  0.0000E+00  0.2710E+00  0.2710E+00
     -0.363  0.0000E+00  0.0000E+00  0.2720E+00  0.2720E+00
     -0.322  0.0000E+00  0.0000E+00  0.2730E+00  0.2730E+00
     -0.281  0.0000E+00  0.0000E+00  0.2740E+00  0.2740E+00
     -0.240  0.0000E+00  0.0000E+00  0.2740E+00  0.2740E+00
     -0.200  0.0000E+00  0.0000E+00  0.2750E+00  0.2750E+00
     -0.159  0.0000E+00  0.0000E+00  0.2750E+00  0.2750E+00
     -0.118  0.0000E+00  0.0000E+00  0.2760E+00  0.2760E+00
     -0.077  0.0000E+00  0.0000E+00  0.2760E+00  0.2760E+00
     -0.037  0.0000E+00  0.0000E+00  0.2770E+00  0.2770E+00
      0.004  0.0000E+00  0.0000E+00  0.2770E+00  0.2770E+00
      0.045  0.0000E+00  0.0000E+00  0.2770E+00  0.2770E+00
      0.085  0.0000E+00  0.0000E+00  0.2780E+00  0.2780E+00
      0.126  0.0000E+00  0.0000E+00  0.2780E+00  0.2780E+00
      0.167  0.0000E+00  0.0000E+00  0.2780E+00  0.2780E+00
      0.208  0.0000E+00  0.0000E+00  0.2790E+00  0.2790E+00
      0.248  0.0000E+00  0.0000E+00  0.2790E+00  0.2790E+00
      0.289  0.0000E+00  0.0000E+00  0.2790E+00  0.2790E+00
      0.330  0.0000E+00  0.0000E+00  0.2810E+00  0.2810E+00
      0.371  0.0000E+00  0.0000E+00  0.2810E+00  0.2810E+00
      0.411  0.0000E+00  0.0000E+00  0.2810E+00  0.2810E+00
      0.452  0.0000E+00  0.0000E+00  0.2820E+00  0.2820E+00
      0.493  0.0000E+00  0.0000E+00  0.2830E+00  0.2830E+00
      0.533  0.0000E+00  0.0000E+00  0.2830E+00  0.2830E+00
      0.574  0.0000E+00  0.0000E+00  0.2830E+00  0.2830E+00
      0.615  0.0000E+00  0.0000E+00  0.2840E+00  0.2840E+00
      0.656  0.0000E+00  0.0000E+00  0.2840E+00  0.2840E+00
      0.696  0.0000E+00  0.0000E+00  0.2850E+00  0.2850E+00
      0.737  0.0000E+00  0.0000E+00  0.2870E+00  0.2870E+00
      0.778  0.0000E+00  0.0000E+00  0.2880E+00  0.2880E+00
      0.819  0.0000E+00  0.0000E+00  0.2890E+00  0.2890E+00
      0.859  0.0000E+00  0.0000E+00  0.2890E+00  0.2890E+00
      0.900  0.0000E+00  0.0000E+00  0.2910E+00  0.2910E+00
      0.941  0.0000E+00  0.0000E+00  0.2920E+00  0.2920E+00
      0.981  0.0000E+00  0.0000E+00  0.2940E+00  0.2940E+00
      1.022  0.0000E+00  0.0000E+00  0.2950E+00  0.2950E+00
      1.063  0.0000E+00  0.0000E+00  0.2970E+00  0.2970E+00
      1.104  0.0000E+00  0.0000E+00  0.2990E+00  0.2990E+00
      1.144  0.0000E+00  0.0000E+00  0.3010E+00  0.3010E+00
      1.185  0.0000E+00  0.0000E+00  0.3030E+00  0.3030E+00
      1.226  0.0000E+00  0.0000E+00  0.3040E+00  0.3040E+00
      1.267  0.0000E+00  0.0000E+00  0.3050E+00  0.3050E+00
      1.307  0.0000E+00  0.0000E+00  0.3070E+00  0.3070E+00
      1.348  0.2455E-01  0.2455E-01  0.3100E+00  0.3100E+00
      1.389  0.0000E+00  0.0000E+00  0.3110E+00  0.3110E+00
      1.429  0.0000E+00  0.0000E+00  0.3120E+00  0.3120E+00
      1.470  0.0000E+00  0.0000E+00  0.3120E+00  0.3120E+00
      1.511  0.0000E+00  0.0000E+00  0.3120E+00  0.3120E+00
      1.552  0.0000E+00  0.0000E+00  0.3120E+00  0.3120E+00
      1.592  0.0000E+00  0.0000E+00  0.3120E+00  0.3120E+00
      1.633  0.0000E+00  0.0000E+00  0.3120E+00  0.3120E+00
      1.674  0.0000E+00  0.0000E+00  0.3120E+00  0.3120E+00
      1.715  0.0000E+00  0.0000E+00  0.3120E+00  0.3120E+00
      1.755  0.0000E+00  0.0000E+00  0.3120E+00  0.3120E+00
      1.796  0.0000E+00  0.0000E+00  0.3120E+00  0.3120E+00
      1.837  0.0000E+00  0.0000E+00  0.3120E+00  0.3120E+00
      1.877  0.0000E+00  0.0000E+00  0.3120E+00  0.3120E+00
      1.918  0.0000E+00  0.0000E+00  0.3120E+00  0.3120E+00
      1.959  0.0000E+00  0.0000E+00  0.3120E+00  0.3120E+00
