 running on   64 total cores
 distrk:  each k-point on   64 cores,    1 groups
 distr:  one band on   16 cores,    4 groups
 using from now: INCAR     
 vasp.5.3.5 31Mar14 (build Feb 01 2018 12:10:03) gamma-only                     
  
 POSCAR found type information on POSCAR  Ag
 POSCAR found :  1 types and      51 ions
 scaLAPACK will be used

 ----------------------------------------------------------------------------- 
|                                                                             |
|  ADVICE TO THIS USER RUNNING 'VASP/VAMP'   (HEAR YOUR MASTER'S VOICE ...):  |
|                                                                             |
|      You have a (more or less) 'large supercell' and for larger cells       |
|      it might be more efficient to use real space projection opertators     |
|      So try LREAL= Auto  in the INCAR   file.                               |
|      Mind: At the moment your POTCAR file does not contain real space       |
|       projectors, and has to be modified,  BUT if you                       |
|      want to do an extremely  accurate calculation you might also keep the  |
|      reciprocal projection scheme          (i.e. LREAL=.FALSE.)             |
|                                                                             |
 ----------------------------------------------------------------------------- 

 LDA part: xc-table for Pade appr. of Perdew
 POSCAR, INCAR and KPOINTS ok, starting setup
 WARNING: small aliasing (wrap around) errors must be expected
 FFT: planning ...
 WAVECAR not read
 entering main loop
       N       E                     dE             d eps       ncg     rms          rms(c)
DAV:   1     0.472011056195E+04    0.47201E+04   -0.11394E+05  1488   0.615E+02
DAV:   2     0.807913356731E+03   -0.39122E+04   -0.35106E+04  2376   0.163E+02
DAV:   3    -0.738501911430E+02   -0.88176E+03   -0.81236E+03  1848   0.836E+01
DAV:   4    -0.109904439398E+03   -0.36054E+02   -0.35707E+02  1568   0.183E+01
DAV:   5    -0.110449036854E+03   -0.54460E+00   -0.54380E+00  1648   0.262E+00    0.414E+01
DAV:   6    -0.506959837989E+02    0.59753E+02   -0.19172E+02  1476   0.164E+01    0.221E+01
DAV:   7    -0.427638710119E+02    0.79321E+01   -0.10258E+01  1536   0.479E+00    0.135E+01
DAV:   8    -0.383683207963E+02    0.43956E+01   -0.28603E+00  1564   0.264E+00    0.772E+00
DAV:   9    -0.408090141847E+02   -0.24407E+01   -0.70442E-01  1616   0.112E+00    0.543E+00
DAV:  10    -0.453080426083E+02   -0.44990E+01   -0.10341E+00  1532   0.225E+00    0.459E+00
DAV:  11    -0.597224828564E+02   -0.14414E+02   -0.45008E+00  1504   0.252E+00    0.396E+00
DAV:  12    -0.726863310961E+02   -0.12964E+02   -0.56480E+00  1528   0.294E+00    0.264E+00
DAV:  13    -0.843483492051E+02   -0.11662E+02   -0.44763E+00  1504   0.202E+00    0.237E+00
DAV:  14    -0.888019740520E+02   -0.44536E+01   -0.95305E-01  1584   0.130E+00    0.232E+00
DAV:  15    -0.913503111902E+02   -0.25483E+01   -0.36482E-01  1520   0.790E-01    0.238E+00
DAV:  16    -0.926223485087E+02   -0.12720E+01   -0.11945E-01  1576   0.539E-01    0.200E+00
DAV:  17    -0.987442445564E+02   -0.61219E+01   -0.16110E+00  1488   0.128E+00    0.116E+00
DAV:  18    -0.102924284558E+03   -0.41800E+01   -0.79229E-01  1488   0.806E-01    0.134E+00
DAV:  19    -0.103359320312E+03   -0.43504E+00   -0.30980E-02  1608   0.392E-01    0.108E+00
DAV:  20    -0.104553647689E+03   -0.11943E+01   -0.94831E-02  1504   0.570E-01    0.734E-01
DAV:  21    -0.106663644907E+03   -0.21100E+01   -0.19563E-01  1496   0.613E-01    0.390E-01
DAV:  22    -0.107684356470E+03   -0.10207E+01   -0.47291E-02  1536   0.235E-01    0.335E-01
DAV:  23    -0.108155520618E+03   -0.47116E+00   -0.12321E-02  1544   0.157E-01    0.194E-01
DAV:  24    -0.108472447960E+03   -0.31693E+00   -0.92901E-03  1524   0.132E-01    0.987E-02
DAV:  25    -0.108581098441E+03   -0.10865E+00   -0.12776E-03  1480   0.491E-02    0.696E-02
DAV:  26    -0.108655774596E+03   -0.74676E-01   -0.98539E-04  1144   0.499E-02    0.363E-02
DAV:  27    -0.108677081841E+03   -0.21307E-01   -0.47675E-04  1040   0.276E-02    0.251E-02
DAV:  28    -0.108689858462E+03   -0.12777E-01   -0.14161E-04  1032   0.146E-02    0.176E-02
DAV:  29    -0.108699109565E+03   -0.92511E-02   -0.11772E-04  1032   0.116E-02    0.119E-02
DAV:  30    -0.108705881554E+03   -0.67720E-02   -0.84601E-05  1008   0.931E-03    0.810E-03
DAV:  31    -0.108709701392E+03   -0.38198E-02   -0.28247E-05  1000   0.592E-03    0.708E-03
DAV:  32    -0.108711827606E+03   -0.21262E-02   -0.11489E-05   976   0.470E-03    0.583E-03
DAV:  33    -0.108712908547E+03   -0.10809E-02   -0.77802E-06   968   0.392E-03    0.308E-03
DAV:  34    -0.108713228778E+03   -0.32023E-03   -0.20929E-06   960   0.236E-03    0.159E-03
DAV:  35    -0.108713436948E+03   -0.20817E-03   -0.95082E-07   928   0.138E-03    0.119E-03
DAV:  36    -0.108713576609E+03   -0.13966E-03   -0.69694E-07   952   0.941E-04    0.878E-04
DAV:  37    -0.108713667010E+03   -0.90401E-04   -0.41438E-07   936   0.727E-04
   1 F= -.10871367E+03 E0= -.10871367E+03  d E =-.108714E+03  mag=     1.0014
 curvature:   0.00 expect dE= 0.000E+00 dE for cont linesearch  0.000E+00
 trial: gam= 0.00000 g(F)=  0.442E-01 g(S)=  0.000E+00 ort = 0.000E+00 (trialstep = 0.100E+01)
 search vector abs. value=  0.442E-01
 bond charge predicted
       N       E                     dE             d eps       ncg     rms          rms(c)
DAV:   1    -0.108755502914E+03   -0.41926E-01   -0.29630E+00  1496   0.246E+00    0.101E-01
DAV:   2    -0.108756851319E+03   -0.13484E-02   -0.13444E-02  1552   0.232E-01    0.769E-02
DAV:   3    -0.108756822034E+03    0.29285E-04   -0.20318E-04   888   0.305E-02
   2 F= -.10875682E+03 E0= -.10875682E+03  d E =-.431550E-01  mag=     1.0009
 ZBRENT: can't locate minimum, use default step
 trial-energy change:   -0.043155  1 .order   -0.042619   -0.044200   -0.041037
 step:   4.0000(harm= 13.9755)  dis= 0.01768  next Energy=  -109.022525 (dE=-0.309E+00)
 bond charge predicted
       N       E                     dE             d eps       ncg     rms          rms(c)
DAV:   1    -0.108860745828E+03   -0.10389E+00   -0.26725E+01  1464   0.738E+00    0.300E-01
DAV:   2    -0.108872798385E+03   -0.12053E-01   -0.12110E-01  1512   0.695E-01    0.231E-01
DAV:   3    -0.108872533644E+03    0.26474E-03   -0.19840E-03  1536   0.908E-02    0.155E-01
DAV:   4    -0.108872287217E+03    0.24643E-03   -0.11325E-03  1528   0.537E-02    0.359E-02
DAV:   5    -0.108872295693E+03   -0.84754E-05   -0.32823E-05   928   0.163E-02
   3 F= -.10887230E+03 E0= -.10887230E+03  d E =-.158629E+00  mag=     1.0004
 curvature:  -2.86 expect dE=-0.836E-01 dE for cont linesearch -0.804E-01
 ZBRENT: increasing intervall
 opt :  10.0000  next Energy=  -109.049361 (dE=-0.336E+00)
 bond charge predicted
       N       E                     dE             d eps       ncg     rms          rms(c)
DAV:   1    -0.108997167351E+03   -0.12488E+00   -0.10680E+02  1456   0.148E+01    0.563E-01
DAV:   2    -0.109045561267E+03   -0.48394E-01   -0.48458E-01  1512   0.139E+00    0.444E-01
DAV:   3    -0.109044599643E+03    0.96162E-03   -0.77858E-03  1536   0.179E-01    0.307E-01
DAV:   4    -0.109043476842E+03    0.11228E-02   -0.43697E-03  1504   0.104E-01    0.837E-02
DAV:   5    -0.109043521518E+03   -0.44676E-04   -0.19742E-04   984   0.351E-02
   4 F= -.10904352E+03 E0= -.10904352E+03  d E =-.329855E+00  mag=     1.0002
 curvature:  -6.29 expect dE=-0.113E+00 dE for cont linesearch -0.712E-01
 ZBRENT: increasing intervall
 opt :  22.0000  next Energy=  -109.157047 (dE=-0.443E+00)
 bond charge predicted
       N       E                     dE             d eps       ncg     rms          rms(c)
DAV:   1    -0.108972001390E+03    0.71475E-01   -0.42920E+02  1456   0.297E+01    0.109E+00
DAV:   2    -0.109168473031E+03   -0.19647E+00   -0.19612E+00  1504   0.281E+00    0.857E-01
DAV:   3    -0.109165169755E+03    0.33033E-02   -0.30839E-02  1528   0.357E-01    0.603E-01
DAV:   4    -0.109160459204E+03    0.47106E-02   -0.15088E-02  1520   0.194E-01    0.198E-01
DAV:   5    -0.109160648739E+03   -0.18954E-03   -0.14251E-03  1568   0.752E-02    0.739E-02
DAV:   6    -0.109160539502E+03    0.10924E-03   -0.29132E-04  1056   0.273E-02    0.358E-02
DAV:   7    -0.109160571018E+03   -0.31517E-04   -0.11575E-04   976   0.188E-02
   5 F= -.10916057E+03 E0= -.10916057E+03  d E =-.446904E+00  mag=     1.0001
 curvature: -10.03 expect dE=-0.292E+00 dE for cont linesearch -0.147E-02
 trial: gam= 0.71682 g(F)=  0.291E-01 g(S)=  0.000E+00 ort =-0.254E-02 (trialstep = 0.477E+01)
 search vector abs. value=  0.482E-01
 bond charge predicted
       N       E                     dE             d eps       ncg     rms          rms(c)
DAV:   1    -0.109239717032E+03   -0.79178E-01   -0.73478E+01  1456   0.122E+01    0.397E-01
DAV:   2    -0.109273317079E+03   -0.33600E-01   -0.33547E-01  1504   0.117E+00    0.366E-01
DAV:   3    -0.109272825075E+03    0.49200E-03   -0.53499E-03  1524   0.151E-01    0.267E-01
DAV:   4    -0.109271729239E+03    0.10958E-02   -0.26210E-03  1536   0.800E-02    0.114E-01
DAV:   5    -0.109271754402E+03   -0.25163E-04   -0.71250E-04  1536   0.448E-02
   6 F= -.10927175E+03 E0= -.10927175E+03  d E =-.111183E+00  mag=     1.0000
 trial-energy change:   -0.111183  1 .order   -0.111408   -0.130248   -0.092569
 step:  16.4810(harm= 16.4810)  dis= 0.07195  next Energy=  -109.385693 (dE=-0.225E+00)
 bond charge predicted
       N       E                     dE             d eps       ncg     rms          rms(c)
DAV:   1    -0.109190174921E+03    0.81554E-01   -0.44612E+02  1456   0.302E+01    0.881E-01
DAV:   2    -0.109392912467E+03   -0.20274E+00   -0.20353E+00  1520   0.289E+00    0.883E-01
DAV:   3    -0.109390840713E+03    0.20718E-02   -0.31876E-02  1540   0.362E-01    0.664E-01
DAV:   4    -0.109384365549E+03    0.64752E-02   -0.10592E-02  1536   0.164E-01    0.369E-01
DAV:   5    -0.109383830555E+03    0.53499E-03   -0.77243E-03  1544   0.137E-01    0.123E-01
DAV:   6    -0.109383715625E+03    0.11493E-03   -0.28301E-04  1032   0.291E-02    0.677E-02
DAV:   7    -0.109383704832E+03    0.10792E-04   -0.23644E-04   968   0.257E-02
   7 F= -.10938370E+03 E0= -.10938370E+03  d E =-.223134E+00  mag=     1.0000
 curvature: -14.54 expect dE=-0.162E+00 dE for cont linesearch -0.237E-06
 trial: gam= 0.28445 g(F)=  0.112E-01 g(S)=  0.000E+00 ort = 0.280E-04 (trialstep = 0.711E+01)
 search vector abs. value=  0.151E-01
 bond charge predicted
       N       E                     dE             d eps       ncg     rms          rms(c)
DAV:   1    -0.109429342325E+03   -0.45627E-01   -0.51100E+01  1456   0.102E+01    0.312E-01
DAV:   2    -0.109452226430E+03   -0.22884E-01   -0.22973E-01  1520   0.963E-01    0.270E-01
DAV:   3    -0.109451821800E+03    0.40463E-03   -0.36241E-03  1568   0.124E-01    0.194E-01
DAV:   4    -0.109451109195E+03    0.71261E-03   -0.16038E-03  1536   0.619E-02    0.807E-02
DAV:   5    -0.109451113236E+03   -0.40413E-05   -0.47932E-04  1552   0.357E-02
   8 F= -.10945111E+03 E0= -.10945111E+03  d E =-.674084E-01  mag=     1.0000
 trial-energy change:   -0.067408  1 .order   -0.067456   -0.079510   -0.055402
 step:  23.4502(harm= 23.4502)  dis= 0.06648  next Energy=  -109.514818 (dE=-0.131E+00)
 bond charge predicted
       N       E                     dE             d eps       ncg     rms          rms(c)
DAV:   1    -0.109394367347E+03    0.56742E-01   -0.27093E+02  1456   0.235E+01    0.728E-01
DAV:   2    -0.109516501685E+03   -0.12213E+00   -0.12340E+00  1528   0.224E+00    0.625E-01
DAV:   3    -0.109514514580E+03    0.19871E-02   -0.19795E-02  1552   0.299E-01    0.441E-01
DAV:   4    -0.109510881115E+03    0.36335E-02   -0.68072E-03  1536   0.130E-01    0.211E-01
DAV:   5    -0.109510645759E+03    0.23536E-03   -0.31269E-03  1568   0.900E-02    0.693E-02
DAV:   6    -0.109510631632E+03    0.14127E-04   -0.13436E-04   984   0.190E-02
   9 F= -.10951063E+03 E0= -.10951063E+03  d E =-.126927E+00  mag=     1.0000
 curvature: -15.82 expect dE=-0.111E+00 dE for cont linesearch -0.706E-04
 trial: gam= 0.69428 g(F)=  0.702E-02 g(S)=  0.000E+00 ort =-0.260E-03 (trialstep = 0.104E+02)
 search vector abs. value=  0.139E-01
 bond charge predicted
       N       E                     dE             d eps       ncg     rms          rms(c)
DAV:   1    -0.109527976064E+03   -0.17330E-01   -0.10032E+02  1456   0.143E+01    0.373E-01
DAV:   2    -0.109573560284E+03   -0.45584E-01   -0.45829E-01  1496   0.139E+00    0.351E-01
DAV:   3    -0.109572858759E+03    0.70153E-03   -0.80587E-03  1560   0.203E-01    0.249E-01
DAV:   4    -0.109571436907E+03    0.14219E-02   -0.15457E-03  1528   0.613E-02    0.152E-01
DAV:   5    -0.109570991483E+03    0.44542E-03   -0.27737E-03  1520   0.783E-02    0.461E-02
DAV:   6    -0.109571066073E+03   -0.74589E-04   -0.47574E-05   992   0.133E-02
  10 F= -.10957107E+03 E0= -.10957107E+03  d E =-.604344E-01  mag=     1.0000
 trial-energy change:   -0.060434  1 .order   -0.061361   -0.071002   -0.051719
 step:  38.2138(harm= 38.2138)  dis= 0.12162  next Energy=  -109.641350 (dE=-0.131E+00)
 bond charge predicted
       N       E                     dE             d eps       ncg     rms          rms(c)
DAV:   1    -0.109308938859E+03    0.26205E+00   -0.72942E+02  1456   0.388E+01    0.125E+00
DAV:   2    -0.109650934736E+03   -0.34200E+00   -0.34314E+00  1512   0.381E+00    0.947E-01
DAV:   3    -0.109644755153E+03    0.61796E-02   -0.61172E-02  1584   0.564E-01    0.634E-01
DAV:   4    -0.109635183711E+03    0.95714E-02   -0.13379E-02  1536   0.184E-01    0.345E-01
DAV:   5    -0.109633206099E+03    0.19776E-02   -0.11301E-02  1528   0.160E-01    0.927E-02
DAV:   6    -0.109633585725E+03   -0.37963E-03   -0.27214E-04  1096   0.302E-02    0.568E-02
DAV:   7    -0.109634162620E+03   -0.57690E-03   -0.15813E-04  1000   0.187E-02    0.215E-02
DAV:   8    -0.109634675907E+03   -0.51329E-03   -0.33109E-05  1016   0.924E-03    0.840E-03
DAV:   9    -0.109635095147E+03   -0.41924E-03   -0.10226E-05  1016   0.431E-03    0.548E-03
DAV:  10    -0.109635503201E+03   -0.40805E-03   -0.73778E-06  1000   0.244E-03    0.368E-03
DAV:  11    -0.109636100751E+03   -0.59755E-03   -0.15023E-05   992   0.276E-03    0.272E-03
DAV:  12    -0.109636454173E+03   -0.35342E-03   -0.56615E-06  1032   0.169E-03    0.184E-03
DAV:  13    -0.109636739843E+03   -0.28567E-03   -0.40004E-06   984   0.138E-03    0.117E-03
DAV:  14    -0.109636931903E+03   -0.19206E-03   -0.18016E-06  1000   0.997E-04    0.751E-04
DAV:  15    -0.109637052741E+03   -0.12084E-03   -0.67160E-07   944   0.675E-04    0.506E-04
DAV:  16    -0.109637153144E+03   -0.10040E-03   -0.49339E-07   960   0.621E-04    0.351E-04
DAV:  17    -0.109637203510E+03   -0.50366E-04   -0.25888E-07   944   0.451E-04
  11 F= -.10963720E+03 E0= -.10963720E+03  d E =-.126572E+00  mag=     1.0000
 curvature: -38.92 expect dE=-0.315E+00 dE for cont linesearch -0.661E-04
 trial: gam= 1.12788 g(F)=  0.810E-02 g(S)=  0.000E+00 ort =-0.154E-03 (trialstep = 0.872E+01)
 search vector abs. value=  0.255E-01
 bond charge predicted
       N       E                     dE             d eps       ncg     rms          rms(c)
DAV:   1    -0.109638544815E+03   -0.13917E-02   -0.12967E+02  1456   0.162E+01    0.450E-01
DAV:   2    -0.109698951246E+03   -0.60406E-01   -0.60134E-01  1496   0.158E+00    0.410E-01
DAV:   3    -0.109698027454E+03    0.92379E-03   -0.10355E-02  1592   0.225E-01    0.293E-01
DAV:   4    -0.109695981919E+03    0.20455E-02   -0.25168E-03  1552   0.762E-02    0.161E-01
DAV:   5    -0.109695405959E+03    0.57596E-03   -0.27994E-03  1520   0.797E-02    0.503E-02
DAV:   6    -0.109695475716E+03   -0.69756E-04   -0.60458E-05  1016   0.136E-02
  12 F= -.10969548E+03 E0= -.10969548E+03  d E =-.582722E-01  mag=     1.0000
 trial-energy change:   -0.058272  1 .order   -0.059256   -0.069122   -0.049390
 step:  30.5482(harm= 30.5482)  dis= 0.10439  next Energy=  -109.758269 (dE=-0.121E+00)
 bond charge predicted
       N       E                     dE             d eps       ncg     rms          rms(c)
DAV:   1    -0.109364176215E+03    0.33123E+00   -0.82082E+02  1456   0.411E+01    0.137E+00
DAV:   2    -0.109755491464E+03   -0.39132E+00   -0.38905E+00  1504   0.403E+00    0.103E+00
DAV:   3    -0.109748285429E+03    0.72060E-02   -0.65174E-02  1568   0.559E-01    0.695E-01
DAV:   4    -0.109737030707E+03    0.11255E-01   -0.18241E-02  1536   0.207E-01    0.341E-01
DAV:   5    -0.109735597239E+03    0.14335E-02   -0.94942E-03  1544   0.148E-01    0.100E-01
DAV:   6    -0.109735698658E+03   -0.10142E-03   -0.40067E-04  1320   0.307E-02    0.536E-02
DAV:   7    -0.109735950909E+03   -0.25225E-03   -0.80092E-05  1016   0.145E-02    0.205E-02
DAV:   8    -0.109736226137E+03   -0.27523E-03   -0.21430E-05   976   0.712E-03    0.691E-03
DAV:   9    -0.109736474450E+03   -0.24831E-03   -0.56161E-06   992   0.332E-03    0.425E-03
DAV:  10    -0.109736734564E+03   -0.26011E-03   -0.43007E-06   968   0.198E-03    0.297E-03
DAV:  11    -0.109737083345E+03   -0.34878E-03   -0.68751E-06  1008   0.184E-03    0.216E-03
DAV:  12    -0.109737412071E+03   -0.32873E-03   -0.60367E-06   968   0.155E-03    0.136E-03
DAV:  13    -0.109737596753E+03   -0.18468E-03   -0.22082E-06  1008   0.975E-04    0.856E-04
DAV:  14    -0.109737723109E+03   -0.12636E-03   -0.84960E-07   936   0.696E-04    0.552E-04
DAV:  15    -0.109737828993E+03   -0.10588E-03   -0.60447E-07   968   0.605E-04    0.351E-04
DAV:  16    -0.109737889745E+03   -0.60752E-04   -0.28411E-07   944   0.466E-04
  13 F= -.10973789E+03 E0= -.10973789E+03  d E =-.100686E+00  mag=     1.0000
 curvature: -49.10 expect dE=-0.480E+00 dE for cont linesearch -0.747E-02
 ZBRENT: interpolating
 opt :  24.9171  next Energy=  -109.743434 (dE=-0.106E+00)
 bond charge predicted
       N       E                     dE             d eps       ncg     rms          rms(c)
DAV:   1    -0.109719724518E+03    0.18104E-01   -0.53995E+01  1456   0.105E+01    0.263E-01
DAV:   2    -0.109744438087E+03   -0.24714E-01   -0.24471E-01  1516   0.100E+00    0.271E-01
DAV:   3    -0.109744142262E+03    0.29583E-03   -0.39046E-03  1616   0.128E-01    0.208E-01
DAV:   4    -0.109743257999E+03    0.88426E-03   -0.10867E-03  1528   0.502E-02    0.121E-01
DAV:   5    -0.109743054584E+03    0.20341E-03   -0.14932E-03  1544   0.577E-02    0.432E-02
DAV:   6    -0.109743040199E+03    0.14385E-04   -0.37482E-05   952   0.988E-03
  14 F= -.10974304E+03 E0= -.10974304E+03  d E =-.105837E+00  mag=     1.0000
 curvature: -36.43 expect dE=-0.240E+00 dE for cont linesearch -0.231E-05
 trial: gam= 0.62607 g(F)=  0.659E-02 g(S)=  0.000E+00 ort = 0.402E-04 (trialstep = 0.120E+02)
 search vector abs. value=  0.166E-01
 bond charge predicted
       N       E                     dE             d eps       ncg     rms          rms(c)
DAV:   1    -0.109738195963E+03    0.48586E-02   -0.15917E+02  1456   0.180E+01    0.477E-01
DAV:   2    -0.109811008901E+03   -0.72813E-01   -0.72323E-01  1520   0.172E+00    0.456E-01
DAV:   3    -0.109809960384E+03    0.10485E-02   -0.11301E-02  1576   0.225E-01    0.338E-01
DAV:   4    -0.109807499190E+03    0.24612E-02   -0.32828E-03  1528   0.874E-02    0.186E-01
DAV:   5    -0.109806935222E+03    0.56397E-03   -0.33704E-03  1544   0.877E-02    0.617E-02
DAV:   6    -0.109806944743E+03   -0.95209E-05   -0.86081E-05   984   0.153E-02
  15 F= -.10980694E+03 E0= -.10980694E+03  d E =-.639045E-01  mag=     1.0000
 trial-energy change:   -0.063905  1 .order   -0.064774   -0.079083   -0.050465
 step:  33.0503(harm= 33.0503)  dis= 0.10160  next Energy=  -109.852309 (dE=-0.109E+00)
 bond charge predicted
       N       E                     dE             d eps       ncg     rms          rms(c)
DAV:   1    -0.109624933802E+03    0.18200E+00   -0.49753E+02  1456   0.319E+01    0.908E-01
DAV:   2    -0.109855884747E+03   -0.23095E+00   -0.22864E+00  1520   0.307E+00    0.806E-01
DAV:   3    -0.109852357982E+03    0.35268E-02   -0.35306E-02  1544   0.395E-01    0.583E-01
DAV:   4    -0.109845130437E+03    0.72275E-02   -0.10355E-02  1552   0.156E-01    0.312E-01
DAV:   5    -0.109843916758E+03    0.12137E-02   -0.79186E-03  1552   0.135E-01    0.983E-02
DAV:   6    -0.109843950055E+03   -0.33297E-04   -0.21990E-04  1032   0.240E-02
  16 F= -.10984395E+03 E0= -.10984395E+03  d E =-.100910E+00  mag=     1.0000
 curvature: -41.55 expect dE=-0.316E+00 dE for cont linesearch -0.482E-03
 trial: gam= 1.16902 g(F)=  0.760E-02 g(S)=  0.000E+00 ort =-0.439E-03 (trialstep = 0.918E+01)
 search vector abs. value=  0.293E-01
 bond charge predicted
       N       E                     dE             d eps       ncg     rms          rms(c)
DAV:   1    -0.109826402924E+03    0.17514E-01   -0.16506E+02  1456   0.183E+01    0.419E-01
DAV:   2    -0.109902104918E+03   -0.75702E-01   -0.74022E-01  1520   0.174E+00    0.412E-01
DAV:   3    -0.109901103717E+03    0.10012E-02   -0.11308E-02  1568   0.217E-01    0.320E-01
DAV:   4    -0.109898896557E+03    0.22072E-02   -0.21752E-03  1568   0.724E-02    0.199E-01
DAV:   5    -0.109898166041E+03    0.73052E-03   -0.47752E-03  1512   0.103E-01    0.579E-02
DAV:   6    -0.109898272750E+03   -0.10671E-03   -0.52458E-05  1000   0.137E-02    0.371E-02
DAV:   7    -0.109898409330E+03   -0.13658E-03   -0.48497E-05   952   0.108E-02    0.137E-02
DAV:   8    -0.109898530465E+03   -0.12114E-03   -0.15941E-05   976   0.683E-03    0.448E-03
DAV:   9    -0.109898679176E+03   -0.14871E-03   -0.40956E-06   944   0.322E-03    0.243E-03
DAV:  10    -0.109898842745E+03   -0.16357E-03   -0.19435E-06   976   0.167E-03    0.158E-03
DAV:  11    -0.109898965562E+03   -0.12282E-03   -0.10279E-06   976   0.873E-04    0.114E-03
DAV:  12    -0.109899212009E+03   -0.24645E-03   -0.36474E-06   968   0.128E-03    0.833E-04
DAV:  13    -0.109899273021E+03   -0.61012E-04   -0.66715E-07   992   0.635E-04
  17 F= -.10989927E+03 E0= -.10989927E+03  d E =-.553230E-01  mag=     1.0000
 trial-energy change:   -0.055323  1 .order   -0.054944   -0.065090   -0.044798
 step:  29.4486(harm= 29.4486)  dis= 0.13764  next Energy=  -109.948343 (dE=-0.104E+00)
 bond charge predicted
       N       E                     dE             d eps       ncg     rms          rms(c)
DAV:   1    -0.109589620882E+03    0.30959E+00   -0.81503E+02  1456   0.411E+01    0.113E+00
DAV:   2    -0.109973790221E+03   -0.38417E+00   -0.37558E+00  1512   0.394E+00    0.946E-01
DAV:   3    -0.109967983192E+03    0.58070E-02   -0.58537E-02  1568   0.505E-01    0.693E-01
DAV:   4    -0.109957701720E+03    0.10281E-01   -0.11462E-02  1536   0.168E-01    0.418E-01
DAV:   5    -0.109954244950E+03    0.34568E-02   -0.14686E-02  1544   0.182E-01    0.109E-01
DAV:   6    -0.109954327882E+03   -0.82931E-04   -0.18069E-04  1032   0.266E-02
  18 F= -.10995433E+03 E0= -.10995433E+03  d E =-.110378E+00  mag=     1.0000
 curvature: -60.84 expect dE=-0.472E+00 dE for cont linesearch -0.291E-02
 trial: gam= 0.58316 g(F)=  0.775E-02 g(S)=  0.000E+00 ort = 0.118E-02 (trialstep = 0.132E+02)
 search vector abs. value=  0.191E-01
 bond charge predicted
       N       E                     dE             d eps       ncg     rms          rms(c)
DAV:   1    -0.109944605994E+03    0.96390E-02   -0.22422E+02  1456   0.214E+01    0.556E-01
DAV:   2    -0.110047118167E+03   -0.10251E+00   -0.10047E+00  1536   0.202E+00    0.510E-01
DAV:   3    -0.110045447868E+03    0.16703E-02   -0.14772E-02  1552   0.247E-01    0.380E-01
DAV:   4    -0.110042071744E+03    0.33761E-02   -0.50513E-03  1540   0.108E-01    0.197E-01
DAV:   5    -0.110041686849E+03    0.38489E-03   -0.39114E-03  1560   0.960E-02    0.666E-02
DAV:   6    -0.110041740445E+03   -0.53596E-04   -0.94920E-05  1000   0.174E-02
  19 F= -.11004174E+03 E0= -.11004174E+03  d E =-.874126E-01  mag=     1.0000
 trial-energy change:   -0.087413  1 .order   -0.090753   -0.111745   -0.069761
 step:  35.2240(harm= 35.2240)  dis= 0.13543  next Energy=  -110.103037 (dE=-0.149E+00)
 bond charge predicted
       N       E                     dE             d eps       ncg     rms          rms(c)
DAV:   1    -0.109824836083E+03    0.21685E+00   -0.62506E+02  1456   0.359E+01    0.105E+00
DAV:   2    -0.110113676881E+03   -0.28884E+00   -0.28588E+00  1520   0.342E+00    0.855E-01
DAV:   3    -0.110108150177E+03    0.55267E-02   -0.44557E-02  1568   0.432E-01    0.612E-01
DAV:   4    -0.110099288871E+03    0.88613E-02   -0.13557E-02  1528   0.180E-01    0.313E-01
DAV:   5    -0.110098067063E+03    0.12218E-02   -0.81054E-03  1560   0.140E-01    0.935E-02
DAV:   6    -0.110098165866E+03   -0.98803E-04   -0.20577E-04  1024   0.268E-02
  20 F= -.11009817E+03 E0= -.11009817E+03  d E =-.143838E+00  mag=     1.0000
 curvature: -39.83 expect dE=-0.336E+00 dE for cont linesearch -0.225E-03
 trial: gam= 1.06873 g(F)=  0.843E-02 g(S)=  0.000E+00 ort = 0.329E-03 (trialstep = 0.109E+02)
 search vector abs. value=  0.309E-01
 bond charge predicted
       N       E                     dE             d eps       ncg     rms          rms(c)
DAV:   1    -0.110067984162E+03    0.30083E-01   -0.24528E+02  1456   0.224E+01    0.523E-01
DAV:   2    -0.110179268307E+03   -0.11128E+00   -0.10948E+00  1512   0.212E+00    0.532E-01
DAV:   3    -0.110177726929E+03    0.15414E-02   -0.16960E-02  1560   0.262E-01    0.404E-01
DAV:   4    -0.110173981409E+03    0.37455E-02   -0.39477E-03  1512   0.972E-02    0.250E-01
DAV:   5    -0.110172894681E+03    0.10867E-02   -0.67071E-03  1508   0.122E-01    0.814E-02
DAV:   6    -0.110173015114E+03   -0.12043E-03   -0.82839E-05  1000   0.161E-02    0.509E-02
DAV:   7    -0.110173183003E+03   -0.16789E-03   -0.71470E-05   984   0.134E-02    0.180E-02
DAV:   8    -0.110173328148E+03   -0.14515E-03   -0.22604E-05   992   0.806E-03    0.523E-03
DAV:   9    -0.110173485250E+03   -0.15710E-03   -0.59614E-06   960   0.387E-03    0.259E-03
DAV:  10    -0.110173617669E+03   -0.13242E-03   -0.23983E-06   968   0.189E-03    0.155E-03
DAV:  11    -0.110173724469E+03   -0.10680E-03   -0.14229E-06   976   0.104E-03    0.110E-03
DAV:  12    -0.110173901014E+03   -0.17655E-03   -0.40461E-06   968   0.134E-03    0.772E-04
DAV:  13    -0.110173960250E+03   -0.59236E-04   -0.10956E-06   992   0.787E-04
  21 F= -.11017396E+03 E0= -.11017396E+03  d E =-.757944E-01  mag=     1.0000
 trial-energy change:   -0.075794  1 .order   -0.076436   -0.095545   -0.057327
 step:  35.0400(harm= 27.2044)  dis= 0.14628  next Energy=  -110.230575 (dE=-0.132E+00)
 bond charge predicted
       N       E                     dE             d eps       ncg     rms          rms(c)
DAV:   1    -0.109654491158E+03    0.51941E+00   -0.12351E+03  1456   0.508E+01    0.157E+00
DAV:   2    -0.110240384143E+03   -0.58589E+00   -0.57723E+00  1520   0.491E+00    0.124E+00
DAV:   3    -0.110230478232E+03    0.99059E-02   -0.92182E-02  1560   0.632E-01    0.858E-01
DAV:   4    -0.110214449565E+03    0.16029E-01   -0.20451E-02  1528   0.225E-01    0.507E-01
DAV:   5    -0.110210367875E+03    0.40817E-02   -0.18118E-02  1528   0.205E-01    0.143E-01
DAV:   6    -0.110210593531E+03   -0.22566E-03   -0.25504E-04  1104   0.303E-02    0.821E-02
DAV:   7    -0.110210839696E+03   -0.24616E-03   -0.86575E-05   992   0.180E-02    0.294E-02
DAV:   8    -0.110210992006E+03   -0.15231E-03   -0.22867E-05   992   0.769E-03    0.110E-02
DAV:   9    -0.110211157902E+03   -0.16590E-03   -0.71631E-06   976   0.413E-03    0.436E-03
DAV:  10    -0.110211293224E+03   -0.13532E-03   -0.36729E-06   976   0.231E-03    0.203E-03
DAV:  11    -0.110211365093E+03   -0.71869E-04   -0.12648E-06   968   0.117E-03
  22 F= -.11021137E+03 E0= -.11021137E+03  d E =-.113199E+00  mag=     1.0000
 curvature: -36.89 expect dE=-0.332E+00 dE for cont linesearch -0.619E-02
 ZBRENT: interpolating
 opt :  27.7444  next Energy=  -110.219679 (dE=-0.122E+00)
 bond charge predicted
       N       E                     dE             d eps       ncg     rms          rms(c)
DAV:   1    -0.110172490572E+03    0.38803E-01   -0.10998E+02  1456   0.150E+01    0.329E-01
DAV:   2    -0.110222063764E+03   -0.49573E-01   -0.48390E-01  1512   0.140E+00    0.351E-01
DAV:   3    -0.110221534848E+03    0.52892E-03   -0.73459E-03  1568   0.168E-01    0.278E-01
DAV:   4    -0.110219855590E+03    0.16793E-02   -0.17603E-03  1520   0.648E-02    0.172E-01
DAV:   5    -0.110219380725E+03    0.47486E-03   -0.35286E-03  1528   0.876E-02    0.599E-02
DAV:   6    -0.110219406668E+03   -0.25943E-04   -0.43364E-05   968   0.115E-02
  23 F= -.11021941E+03 E0= -.11021941E+03  d E =-.121241E+00  mag=     1.0000
 curvature: -49.52 expect dE=-0.292E+00 dE for cont linesearch -0.204E-04
 trial: gam= 0.52757 g(F)=  0.589E-02 g(S)=  0.000E+00 ort =-0.113E-03 (trialstep = 0.143E+02)
 search vector abs. value=  0.144E-01
 bond charge predicted
       N       E                     dE             d eps       ncg     rms          rms(c)
DAV:   1    -0.110189719599E+03    0.29661E-01   -0.19587E+02  1456   0.200E+01    0.527E-01
DAV:   2    -0.110279058329E+03   -0.89339E-01   -0.88451E-01  1512   0.189E+00    0.492E-01
DAV:   3    -0.110277756578E+03    0.13018E-02   -0.13914E-02  1568   0.235E-01    0.367E-01
DAV:   4    -0.110274767039E+03    0.29895E-02   -0.44716E-03  1512   0.104E-01    0.191E-01
DAV:   5    -0.110274388931E+03    0.37811E-03   -0.34979E-03  1552   0.897E-02    0.663E-02
DAV:   6    -0.110274362274E+03    0.26657E-04   -0.10647E-04   936   0.163E-02
  24 F= -.11027436E+03 E0= -.11027436E+03  d E =-.549556E-01  mag=     1.0000
 trial-energy change:   -0.054956  1 .order   -0.054875   -0.083096   -0.026654
 step:  20.9857(harm= 20.9857)  dis= 0.06607  next Energy=  -110.280575 (dE=-0.612E-01)
 bond charge predicted
       N       E                     dE             d eps       ncg     rms          rms(c)
DAV:   1    -0.110260887179E+03    0.13502E-01   -0.43524E+01  1456   0.941E+00    0.242E-01
DAV:   2    -0.110280659255E+03   -0.19772E-01   -0.19575E-01  1528   0.889E-01    0.230E-01
DAV:   3    -0.110280400357E+03    0.25890E-03   -0.30458E-03  1552   0.109E-01    0.172E-01
DAV:   4    -0.110279756935E+03    0.64342E-03   -0.98940E-04  1536   0.489E-02    0.906E-02
DAV:   5    -0.110279708446E+03    0.48490E-04   -0.82490E-04  1520   0.435E-02
  25 F= -.11027971E+03 E0= -.11027971E+03  d E =-.603018E-01  mag=     1.0000
 curvature: -25.89 expect dE=-0.629E-01 dE for cont linesearch -0.350E-05
 trial: gam= 0.40304 g(F)=  0.243E-02 g(S)=  0.000E+00 ort =-0.441E-04 (trialstep = 0.156E+02)
 search vector abs. value=  0.473E-02
 bond charge predicted
       N       E                     dE             d eps       ncg     rms          rms(c)
DAV:   1    -0.110270748667E+03    0.90083E-02   -0.77038E+01  1456   0.125E+01    0.326E-01
DAV:   2    -0.110306196805E+03   -0.35448E-01   -0.34781E-01  1524   0.118E+00    0.302E-01
DAV:   3    -0.110305738911E+03    0.45789E-03   -0.51033E-03  1544   0.141E-01    0.227E-01
DAV:   4    -0.110304639243E+03    0.10997E-02   -0.18877E-03  1528   0.670E-02    0.113E-01
DAV:   5    -0.110304588286E+03    0.50957E-04   -0.12018E-03  1536   0.535E-02    0.428E-02
DAV:   6    -0.110304579673E+03    0.86127E-05   -0.50214E-05   920   0.113E-02
  26 F= -.11030458E+03 E0= -.11030458E+03  d E =-.248712E-01  mag=     1.0000
 trial-energy change:   -0.024871  1 .order   -0.025408   -0.037636   -0.013180
 step:  26.4231(harm= 24.0080)  dis= 0.03600  next Energy=  -110.308972 (dE=-0.293E-01)
 bond charge predicted
       N       E                     dE             d eps       ncg     rms          rms(c)
DAV:   1    -0.110291495208E+03    0.13093E-01   -0.37050E+01  1456   0.868E+00    0.224E-01
DAV:   2    -0.110308407144E+03   -0.16912E-01   -0.16669E-01  1528   0.817E-01    0.209E-01
DAV:   3    -0.110308167042E+03    0.24010E-03   -0.24322E-03  1544   0.971E-02    0.158E-01
DAV:   4    -0.110307618130E+03    0.54891E-03   -0.93865E-04  1520   0.471E-02    0.778E-02
DAV:   5    -0.110307591608E+03    0.26523E-04   -0.59048E-04  1544   0.375E-02
  27 F= -.11030759E+03 E0= -.11030759E+03  d E =-.278832E-01  mag=     1.0000
 curvature: -21.60 expect dE=-0.373E-01 dE for cont linesearch -0.194E-03
 trial: gam= 0.70320 g(F)=  0.173E-02 g(S)=  0.000E+00 ort =-0.206E-03 (trialstep = 0.178E+02)
 search vector abs. value=  0.378E-02
 bond charge predicted
       N       E                     dE             d eps       ncg     rms          rms(c)
DAV:   1    -0.110290090701E+03    0.17527E-01   -0.79580E+01  1456   0.127E+01    0.310E-01
DAV:   2    -0.110325989802E+03   -0.35899E-01   -0.35350E-01  1524   0.119E+00    0.305E-01
DAV:   3    -0.110325515637E+03    0.47416E-03   -0.53231E-03  1560   0.142E-01    0.234E-01
DAV:   4    -0.110324272096E+03    0.12435E-02   -0.17849E-03  1504   0.645E-02    0.127E-01
DAV:   5    -0.110324127731E+03    0.14436E-03   -0.16328E-03  1544   0.614E-02    0.474E-02
DAV:   6    -0.110324125502E+03    0.22288E-05   -0.41309E-05   912   0.106E-02
  28 F= -.11032413E+03 E0= -.11032413E+03  d E =-.165339E-01  mag=     1.0000
 trial-energy change:   -0.016534  1 .order   -0.017282   -0.028089   -0.006474
 step:  25.3221(harm= 23.0860)  dis= 0.02833  next Energy=  -110.325445 (dE=-0.179E-01)
 bond charge predicted
       N       E                     dE             d eps       ncg     rms          rms(c)
DAV:   1    -0.110318535681E+03    0.55920E-02   -0.14378E+01  1456   0.541E+00    0.130E-01
DAV:   2    -0.110325012299E+03   -0.64766E-02   -0.63757E-02  1528   0.506E-01    0.130E-01
DAV:   3    -0.110324933924E+03    0.78375E-04   -0.95291E-04  1552   0.600E-02
  29 F= -.11032493E+03 E0= -.11032493E+03  d E =-.173423E-01  mag=     1.0000
 curvature: -22.70 expect dE=-0.210E-01 dE for cont linesearch -0.107E-03
 trial: gam= 0.44220 g(F)=  0.924E-03 g(S)=  0.000E+00 ort =-0.133E-03 (trialstep = 0.193E+02)
 search vector abs. value=  0.154E-02
 bond charge predicted
       N       E                     dE             d eps       ncg     rms          rms(c)
DAV:   1    -0.110319473213E+03    0.55391E-02   -0.38310E+01  1456   0.884E+00    0.221E-01
DAV:   2    -0.110336521208E+03   -0.17048E-01   -0.16765E-01  1508   0.824E-01    0.225E-01
DAV:   3    -0.110336250176E+03    0.27103E-03   -0.24417E-03  1576   0.962E-02    0.177E-01
DAV:   4    -0.110335549831E+03    0.70035E-03   -0.11448E-03  1536   0.513E-02    0.895E-02
DAV:   5    -0.110335504450E+03    0.45381E-04   -0.82441E-04  1544   0.436E-02
  30 F= -.11033550E+03 E0= -.11033550E+03  d E =-.105705E-01  mag=     1.0000
 trial-energy change:   -0.010571  1 .order   -0.011540   -0.016675   -0.006406
 step:  31.3018(harm= 31.3018)  dis= 0.02222  next Energy=  -110.338472 (dE=-0.135E-01)
 bond charge predicted
       N       E                     dE             d eps       ncg     rms          rms(c)
DAV:   1    -0.110330320558E+03    0.52293E-02   -0.14877E+01  1456   0.550E+00    0.141E-01
DAV:   2    -0.110337062911E+03   -0.67424E-02   -0.66519E-02  1536   0.517E-01    0.129E-01
DAV:   3    -0.110336985427E+03    0.77483E-04   -0.97863E-04  1552   0.620E-02
  31 F= -.11033699E+03 E0= -.11033699E+03  d E =-.120515E-01  mag=     1.0000
 curvature: -27.94 expect dE=-0.203E-01 dE for cont linesearch -0.558E-04
 trial: gam= 0.77903 g(F)=  0.727E-03 g(S)=  0.000E+00 ort =-0.555E-04 (trialstep = 0.212E+02)
 search vector abs. value=  0.158E-02
 bond charge predicted
       N       E                     dE             d eps       ncg     rms          rms(c)
DAV:   1    -0.110325614257E+03    0.11449E-01   -0.47460E+01  1456   0.982E+00    0.242E-01
DAV:   2    -0.110346820899E+03   -0.21207E-01   -0.21003E-01  1500   0.924E-01    0.248E-01
DAV:   3    -0.110346501197E+03    0.31970E-03   -0.32484E-03  1584   0.113E-01    0.192E-01
DAV:   4    -0.110345650180E+03    0.85102E-03   -0.11786E-03  1536   0.521E-02    0.106E-01
DAV:   5    -0.110345514411E+03    0.13577E-03   -0.12363E-03  1544   0.530E-02    0.397E-02
DAV:   6    -0.110345514681E+03   -0.27088E-06   -0.28758E-05   944   0.876E-03
  32 F= -.11034551E+03 E0= -.11034551E+03  d E =-.852925E-02  mag=     1.0000
 trial-energy change:   -0.008529  1 .order   -0.009229   -0.014507   -0.003952
 step:  29.1769(harm= 29.1769)  dis= 0.02705  next Energy=  -110.346955 (dE=-0.997E-02)
 bond charge predicted
       N       E                     dE             d eps       ncg     rms          rms(c)
DAV:   1    -0.110343210295E+03    0.23041E-02   -0.66394E+00  1456   0.367E+00    0.908E-02
DAV:   2    -0.110346222898E+03   -0.30126E-02   -0.29744E-02  1520   0.347E-01    0.883E-02
DAV:   3    -0.110346185954E+03    0.36945E-04   -0.45897E-04  1488   0.435E-02
  33 F= -.11034619E+03 E0= -.11034619E+03  d E =-.920053E-02  mag=     1.0000
 curvature: -33.67 expect dE=-0.209E-01 dE for cont linesearch -0.839E-05
 trial: gam= 0.78453 g(F)=  0.620E-03 g(S)=  0.000E+00 ort =-0.198E-04 (trialstep = 0.228E+02)
 search vector abs. value=  0.156E-02
 bond charge predicted
       N       E                     dE             d eps       ncg     rms          rms(c)
DAV:   1    -0.110331616549E+03    0.14606E-01   -0.54171E+01  1456   0.105E+01    0.236E-01
DAV:   2    -0.110355964121E+03   -0.24348E-01   -0.24004E-01  1520   0.986E-01    0.257E-01
DAV:   3    -0.110355662541E+03    0.30158E-03   -0.35266E-03  1560   0.117E-01    0.203E-01
DAV:   4    -0.110354711948E+03    0.95059E-03   -0.10387E-03  1544   0.497E-02    0.125E-01
DAV:   5    -0.110354454658E+03    0.25729E-03   -0.17972E-03  1544   0.628E-02    0.461E-02
DAV:   6    -0.110354464454E+03   -0.97962E-05   -0.24893E-05   928   0.842E-03
  34 F= -.11035446E+03 E0= -.11035446E+03  d E =-.827850E-02  mag=     1.0000
 trial-energy change:   -0.008279  1 .order   -0.008983   -0.013786   -0.004181
 step:  32.7508(harm= 32.7508)  dis= 0.02830  next Energy=  -110.356079 (dE=-0.989E-02)
 bond charge predicted
       N       E                     dE             d eps       ncg     rms          rms(c)
DAV:   1    -0.110350557654E+03    0.38970E-02   -0.10243E+01  1456   0.456E+00    0.102E-01
DAV:   2    -0.110355213092E+03   -0.46554E-02   -0.45863E-02  1536   0.430E-01    0.107E-01
DAV:   3    -0.110355164191E+03    0.48901E-04   -0.67339E-04  1536   0.516E-02
  35 F= -.11035516E+03 E0= -.11035516E+03  d E =-.897824E-02  mag=     1.0000
 curvature: -42.27 expect dE=-0.217E-01 dE for cont linesearch -0.162E-04
 trial: gam= 0.87733 g(F)=  0.513E-03 g(S)=  0.000E+00 ort =-0.245E-04 (trialstep = 0.232E+02)
 search vector abs. value=  0.167E-02
 bond charge predicted
       N       E                     dE             d eps       ncg     rms          rms(c)
DAV:   1    -0.110335673473E+03    0.19540E-01   -0.59813E+01  1456   0.110E+01    0.267E-01
DAV:   2    -0.110362515450E+03   -0.26842E-01   -0.26416E-01  1528   0.103E+00    0.267E-01
DAV:   3    -0.110362050753E+03    0.46470E-03   -0.38282E-03  1560   0.121E-01    0.210E-01
DAV:   4    -0.110360914880E+03    0.11359E-02   -0.16211E-03  1540   0.608E-02    0.108E-01
DAV:   5    -0.110360756368E+03    0.15851E-03   -0.13752E-03  1544   0.553E-02    0.404E-02
DAV:   6    -0.110360768568E+03   -0.12200E-04   -0.27754E-05   904   0.867E-03
  36 F= -.11036077E+03 E0= -.11036077E+03  d E =-.560438E-02  mag=     1.0000
 trial-energy change:   -0.005604  1 .order   -0.006455   -0.011378   -0.001532
 step:  26.7646(harm= 26.7646)  dis= 0.03356  next Energy=  -110.361738 (dE=-0.657E-02)
 bond charge predicted
       N       E                     dE             d eps       ncg     rms          rms(c)
DAV:   1    -0.110360185785E+03    0.57058E-03   -0.14421E+00  1500   0.171E+00    0.424E-02
DAV:   2    -0.110360871346E+03   -0.68556E-03   -0.65091E-03  1560   0.161E-01    0.387E-02
DAV:   3    -0.110360874739E+03   -0.33925E-05   -0.83952E-05   880   0.194E-02
  37 F= -.11036087E+03 E0= -.11036087E+03  d E =-.571055E-02  mag=     1.0000
 curvature: -45.50 expect dE=-0.187E-01 dE for cont linesearch -0.477E-03
 trial: gam= 0.00000 g(F)=  0.410E-03 g(S)=  0.000E+00 ort =-0.132E-03 (trialstep = 0.239E+02)
 search vector abs. value=  0.410E-03
 bond charge predicted
       N       E                     dE             d eps       ncg     rms          rms(c)
DAV:   1    -0.110356986196E+03    0.38852E-02   -0.15693E+01  1456   0.565E+00    0.191E-01
DAV:   2    -0.110363944714E+03   -0.69585E-02   -0.70638E-02  1512   0.527E-01    0.148E-01
DAV:   3    -0.110363842395E+03    0.10232E-03   -0.11692E-03  1576   0.665E-02    0.103E-01
DAV:   4    -0.110363719291E+03    0.12310E-03   -0.50619E-04  1536   0.355E-02    0.341E-02
DAV:   5    -0.110363754469E+03   -0.35178E-04   -0.50865E-05   968   0.143E-02
  38 F= -.11036375E+03 E0= -.11036375E+03  d E =-.287973E-02  mag=     1.0000
 trial-energy change:   -0.002880  1 .order   -0.003057   -0.009792    0.003678
 step:  17.3611(harm= 17.3611)  dis= 0.00834  next Energy=  -110.364434 (dE=-0.356E-02)
 bond charge predicted
       N       E                     dE             d eps       ncg     rms          rms(c)
DAV:   1    -0.110363862370E+03   -0.14308E-03   -0.11725E+00  1492   0.155E+00    0.517E-02
DAV:   2    -0.110364399518E+03   -0.53715E-03   -0.52056E-03  1520   0.144E-01    0.419E-02
DAV:   3    -0.110364400911E+03   -0.13934E-05   -0.79180E-05   944   0.181E-02
  39 F= -.11036440E+03 E0= -.11036440E+03  d E =-.352617E-02  mag=     1.0000
 curvature:  -8.68 expect dE=-0.192E-02 dE for cont linesearch -0.328E-04
 trial: gam= 0.44444 g(F)=  0.222E-03 g(S)=  0.000E+00 ort = 0.394E-04 (trialstep = 0.226E+02)
 search vector abs. value=  0.338E-03
 bond charge predicted
       N       E                     dE             d eps       ncg     rms          rms(c)
DAV:   1    -0.110362304688E+03    0.20948E-02   -0.11481E+01  1456   0.483E+00    0.120E-01
DAV:   2    -0.110367495111E+03   -0.51904E-02   -0.51678E-02  1508   0.459E-01    0.121E-01
DAV:   3    -0.110367437873E+03    0.57238E-04   -0.84082E-04  1568   0.589E-02
  40 F= -.11036744E+03 E0= -.11036744E+03  d E =-.303696E-02  mag=     1.0000
 trial-energy change:   -0.003037  1 .order   -0.003122   -0.005398   -0.000847
 step:  26.7783(harm= 26.7783)  dis= 0.00951  next Energy=  -110.367602 (dE=-0.320E-02)
 bond charge predicted
       N       E                     dE             d eps       ncg     rms          rms(c)
DAV:   1    -0.110367224024E+03    0.27109E-03   -0.40218E-01  1496   0.906E-01    0.640E-02
DAV:   2    -0.110367337927E+03   -0.11390E-03   -0.15601E-03  1584   0.808E-02    0.482E-02
DAV:   3    -0.110367304698E+03    0.33228E-04   -0.14682E-04   912   0.187E-02
  41 F= -.11036730E+03 E0= -.11036730E+03  d E =-.290379E-02  mag=     1.0000
 curvature: -18.90 expect dE=-0.264E-02 dE for cont linesearch -0.156E-06
 trial: gam= 0.56460 g(F)=  0.140E-03 g(S)=  0.000E+00 ort =-0.167E-05 (trialstep = 0.234E+02)
 search vector abs. value=  0.245E-03
 bond charge predicted
       N       E                     dE             d eps       ncg     rms          rms(c)
DAV:   1    -0.110365523505E+03    0.18144E-02   -0.89705E+00  1456   0.427E+00    0.100E-01
DAV:   2    -0.110369570096E+03   -0.40466E-02   -0.39754E-02  1520   0.401E-01    0.977E-02
DAV:   3    -0.110369521451E+03    0.48645E-04   -0.58825E-04  1536   0.486E-02
  42 F= -.11036952E+03 E0= -.11036952E+03  d E =-.221675E-02  mag=     1.0000
 trial-energy change:   -0.002217  1 .order   -0.002123   -0.003248   -0.000998
 step:  33.8008(harm= 33.8008)  dis= 0.01018  next Energy=  -110.369649 (dE=-0.234E-02)
 bond charge predicted
       N       E                     dE             d eps       ncg     rms          rms(c)
DAV:   1    -0.110368897561E+03    0.67253E-03   -0.17706E+00  1472   0.190E+00    0.680E-02
DAV:   2    -0.110369595067E+03   -0.69751E-03   -0.73274E-03  1560   0.174E-01    0.639E-02
DAV:   3    -0.110369552190E+03    0.42878E-04   -0.98583E-05   880   0.198E-02
  43 F= -.11036955E+03 E0= -.11036955E+03  d E =-.224749E-02  mag=     1.0000
 curvature: -29.90 expect dE=-0.415E-02 dE for cont linesearch -0.247E-03
 trial: gam= 0.00000 g(F)=  0.139E-03 g(S)=  0.000E+00 ort =-0.450E-04 (trialstep = 0.255E+02)
 search vector abs. value=  0.139E-03
 bond charge predicted
       N       E                     dE             d eps       ncg     rms          rms(c)
DAV:   1    -0.110367219196E+03    0.23759E-02   -0.60692E+00  1464   0.352E+00    0.126E-01
DAV:   2    -0.110369921803E+03   -0.27026E-02   -0.27480E-02  1516   0.328E-01    0.947E-02
DAV:   3    -0.110369880874E+03    0.40929E-04   -0.44274E-04  1504   0.405E-02
  44 F= -.11036988E+03 E0= -.11036988E+03  d E =-.328685E-03  mag=     1.0000
 trial-energy change:   -0.000329  1 .order   -0.000296   -0.003538    0.002946
 step:  13.9101(harm= 13.9101)  dis= 0.00279  next Energy=  -110.370517 (dE=-0.965E-03)
 bond charge predicted
       N       E                     dE             d eps       ncg     rms          rms(c)
DAV:   1    -0.110369900418E+03    0.21385E-04   -0.12471E+00  1488   0.159E+00    0.475E-02
DAV:   2    -0.110370475752E+03   -0.57533E-03   -0.56528E-03  1536   0.150E-01    0.375E-02
DAV:   3    -0.110370473305E+03    0.24473E-05   -0.81896E-05   920   0.191E-02
  45 F= -.11037047E+03 E0= -.11037047E+03  d E =-.921115E-03  mag=     1.0000
 curvature:  -6.96 expect dE=-0.371E-03 dE for cont linesearch -0.575E-04
 trial: gam= 0.14073 g(F)=  0.534E-04 g(S)=  0.000E+00 ort = 0.339E-04 (trialstep = 0.232E+02)
 search vector abs. value=  0.657E-04
 reached required accuracy - stopping structural energy minimisation
Application 91139514 resources: utime ~185972s, stime ~893s, Rss ~81176, inblocks ~2436993, outblocks ~1508091
