3
Energy = -0.60101138 eV
Ca 4.927594161871634 9.08393542800958 9.25066583997514
Ca 9.067684855168356 9.06678061358315 9.064090700567355
Ca 13.207034982960009 9.051598282804674 8.887557783854788
