4
Energy = -1.60621238 eV
Ca 14.028280978409242 11.181069258425183 11.25747313122392
Ca 9.037277493797854 12.251190921167796 11.58732344918833
Ca 10.935818550921221 9.72143303072119 10.2073220544883
Ca 12.014161044755497 13.100517066446825 13.200112131703147
