4
Energy = -1.45227586 eV
Ca 11.450923106609302 14.45911731813256 12.367635415223628
Ca 13.845919059761734 7.460016552113145 12.422518745013765
Ca 9.201417931871468 12.976248595283057 9.677756463090548
Ca 11.76165128049921 10.760555671577663 11.469376233949573
