4
Energy = -2.57334288 eV
Ca 10.342092894569586 12.128486441549919 11.963171620869812
Ca 8.50522186925228 9.99647401281778 9.565639793980955
Ca 11.865482747957605 11.266876928158467 8.71766346088075
Ca 11.467546823578145 8.672553821340134 11.316130127885137
