4
Energy = -1.01037965 eV
Ca 11.199598678355573 12.2338372231954 9.622694525502636
Ca 14.330758615964841 8.333485567603118 12.88606435101852
Ca 11.502779713546015 10.981865335755067 13.135422541220002
Ca 8.902914499795413 14.821815762000696 10.124827865489381
