10
Energy = -2.40265453 eV
Cd 12.377329412149956 12.689969456982823 9.35269538740432
Cd 9.57952171168939 10.157664365248841 9.679526966360733
Cd 11.826791216271179 15.424694270544599 11.064325729658103
Cd 12.57583450947812 9.574313205175981 8.912461175304706
Cd 10.588613892051747 7.114551538005782 9.81791749271329
Cd 9.533587612628162 13.25995616918308 10.570360770411188
Cd 12.0388919035171 12.63147722637474 12.50531576754896
Cd 11.800751091380864 9.184351360147463 11.886140461396103
Cd 9.264726550898267 10.931229317438563 12.97322750682824
Cd 11.8487203190791 10.466561310042284 14.672796961518614
