12
Energy = -3.25045421 eV
Cd 10.844427733819177 10.035716920166285 9.256133383754028
Cd 8.11690706937645 13.10601105139871 9.225621236987886
Cd 6.3908328148873 10.637699474818762 9.00133755174763
Cd 13.276671658574653 11.687278660482514 8.70232371786825
Cd 8.243831577708367 8.59021067740346 10.206497427455666
Cd 13.618831545808822 12.187959623338951 11.695456655149963
Cd 10.87449962740373 13.029821462287076 10.345038852815986
Cd 13.811274087009933 9.230579728127571 10.655695029925607
Cd 11.082063890717153 7.992405746974831 11.518503844700936
Cd 9.660128477529026 10.643933790088498 12.085145397655022
Cd 11.236823136905144 12.743972340256866 13.518076220377752
Cd 12.586074542177395 9.856776686573454 13.532536843478857
