17
Energy = -5.32096775 eV
Cd 9.083816806495244 12.687541860696205 8.155381376473914
Cd 7.634054812692424 9.049740619653754 11.552256342008778
Cd 13.137653004960649 9.025335846981523 12.611186456694972
Cd 7.078969366504023 10.455222109011428 8.984530153499753
Cd 14.073967228980575 11.869348594354188 8.528724958086695
Cd 10.475995530194382 9.854069330782426 11.176735786220412
Cd 8.712332548919184 12.027669869177934 14.189194855521446
Cd 8.793030631448593 10.136472967263794 6.454691916875473
Cd 9.291924220070127 8.218780852016502 8.830164775750246
Cd 11.393754418533037 10.558082039341814 8.032666754669163
Cd 11.349274153290782 12.688967556418214 10.236777056288567
Cd 14.897197045125116 9.396792834867899 10.05827167487578
Cd 8.376185291526367 12.372389687524278 11.15108828369259
Cd 12.26321950838867 7.99184586089114 9.635142275900812
Cd 11.595968285492349 11.572964627532125 13.498833900099276
Cd 7.1539942355412816 9.416918763307761 14.549862505574323
Cd 13.999031761853969 11.988225430195941 11.664859777784876
