16
Energy = -4.99833061 eV
Cd 11.252587539447939 8.721006518757079 13.901835209507775
Cd 10.717468295282133 6.660560027823793 11.472896983857284
Cd 12.362509584924764 11.480277190337214 12.916509683584064
Cd 13.110306734282911 8.818983295853796 11.448738268898913
Cd 8.422713995361537 7.821687151045774 13.131762571756186
Cd 9.277460396406854 10.81406982357143 12.677508352739254
Cd 11.200757518826716 8.103141049056736 8.807689956765621
Cd 12.636864785883319 14.175650604858852 11.414254517729052
Cd 8.522625171356317 8.878944535234247 10.25496812268516
Cd 11.160365115498713 10.743325260164834 10.144454971142396
Cd 8.263353433898917 11.983008736140075 10.087883574994098
Cd 11.666425874313193 11.080021217517292 7.133254314883885
Cd 10.762895567567634 13.565335442775888 8.989235043457477
Cd 9.265446995139685 9.054496186913084 6.6403791219482455
Cd 8.760211814749981 12.185378841447804 7.046363772369084
Cd 6.742550747357229 10.038657688799946 8.056809103979495
