19
Energy = -5.83581215 eV
Cd 11.238581037134884 13.286753637878325 9.783386010300438
Cd 11.638169482709584 16.33825223699694 10.140567698335316
Cd 12.493762604197721 12.713152384693839 12.73593153145881
Cd 12.632478944493448 10.591642409963585 9.933855455664625
Cd 17.792510965146775 11.700004029472332 10.400408838715173
Cd 14.74023970119803 12.780972756758695 10.418898000879963
Cd 13.94804566074644 15.562139982810024 11.861869728347786
Cd 16.455494194873108 14.052313717034336 12.596054516594263
Cd 10.150911760970706 14.823194609552822 12.360582680018844
Cd 13.036288043468888 11.218530873834249 15.330720528999372
Cd 16.628959976279614 11.13499714726586 13.412431104142403
Cd 13.920495504355834 10.085617709200868 12.727019654563017
Cd 14.265415953765398 14.113843120679778 14.792038117601427
Cd 9.693403413040853 11.946583891433338 13.562615025500362
Cd 16.913591365183148 13.205827275879521 15.733837890896819
Cd 10.228118382873442 11.588516284686763 16.558291641479947
Cd 9.494738754149026 14.437129035927267 15.4428766695574
Cd 12.004561882137931 16.088036990887783 14.73170988633726
Cd 12.26306448564757 13.871324017416189 17.01573713297859
