15
Energy = -4.135102 eV
Cd 8.647516299085185 15.038375056076754 7.830643212701102
Cd 11.254604195850531 13.342776970857495 8.45738485594563
Cd 8.659346513172824 11.844357007534285 7.631168165607398
Cd 10.45249996133246 10.504921797606395 10.241183774247952
Cd 10.766818215687605 7.499775264597906 9.651853032080535
Cd 14.234861389315395 14.22092672905466 8.867770908514848
Cd 12.995308694341727 8.882460520487856 11.272670996456423
Cd 13.387465296548081 11.909044899235482 10.783654576313863
Cd 8.809288014791939 13.255174798940592 10.490330683197902
Cd 11.09592165991159 12.407053332477773 12.744016058607114
Cd 8.520945734205 10.776115345849272 12.867004342867807
Cd 12.922924592204602 7.735515922089934 14.38523555059552
Cd 10.212682543491301 8.199664285852613 12.577290007045335
Cd 13.657575281845268 10.737116507124277 13.676230337516673
Cd 10.819670922681135 10.084150876678361 14.960992812766161
