21
Energy = -7.1080825 eV
Cd 13.840879378612145 14.412207622909941 11.662161618780807
Cd 13.929630486364045 12.111502453699513 9.533172241175356
Cd 12.95160932307988 9.805871588967184 7.5568397346191345
Cd 12.429025885766801 13.061923145858435 6.966939801856269
Cd 11.563492471010457 14.072625973810236 9.738461911036856
Cd 13.65024165918415 11.181762779432763 12.590402639402727
Cd 13.403746336184987 9.02547923836923 10.511834468927718
Cd 12.883958328933648 13.564901810950406 14.374719443268246
Cd 9.9367487612411 11.603998740576966 6.347751757949271
Cd 10.996087253275032 11.125029874430618 10.442892379611818
Cd 12.695932742688582 10.706959762601608 15.550114175151633
Cd 8.957804140981475 13.425113203852373 11.203391793871152
Cd 13.054025169107401 8.242709362616818 13.607749133250202
Cd 10.11447232567634 9.011987877266616 8.420527173321709
Cd 10.610513408191268 12.015683621425532 13.294835250025919
Cd 10.506511225838395 8.406104810830614 11.947402448335643
Cd 8.221490809310101 11.572217651699114 8.814413009226747
Cd 10.37200066739696 8.9042003782034 15.19787372981582
Cd 6.588335080997251 11.600149181109902 11.375254156760086
Cd 8.330999539831904 10.109131804280194 13.327533959384443
Cd 7.901007598976946 8.978951709757713 10.474241766877475
