33
Energy = -10.36076872 eV
Cd 14.262657619328754 17.474245854914038 13.8196939427337
Cd 15.58018402583877 13.765933782929254 16.595255365318934
Cd 14.842038947196176 12.899618631078436 7.7171764504670355
Cd 8.88684282413825 10.4006222326981 13.301918354737094
Cd 11.083992848309249 18.20238362521622 10.850234580528408
Cd 16.761887540416414 11.165013051870197 11.862982908332953
Cd 13.584701549801407 9.343405998617332 14.895158288166245
Cd 15.716141347073524 11.350731974902867 14.628995927199279
Cd 18.011165143307835 14.025884336247039 12.100448818886747
Cd 11.421770692434274 10.122154376428552 10.646147335480036
Cd 9.66399835650782 19.485821579445798 13.221882792563127
Cd 18.26490375695204 13.06885005746891 15.0563766759408
Cd 12.653292224054976 11.572838926891746 13.104449641612172
Cd 11.551170072247627 14.81938025592313 14.273743098129424
Cd 10.613847235985087 12.077130572684036 15.327915235581214
Cd 14.35841994132678 14.028485564287388 13.759002330960122
Cd 7.687199817058472 10.394040840557585 9.347501164824978
Cd 10.666547384096882 17.476936088574327 15.26743117798262
Cd 9.188141968798568 13.342816714370288 12.807736214024755
Cd 11.089981922323139 8.449414732995095 13.579863793336745
Cd 15.312739176103412 14.320102288245407 10.842896421594817
Cd 16.80877974280471 15.788537025238723 14.497543545431911
Cd 15.34153238803269 7.8701252884861255 16.835133363470582
Cd 14.018817143468036 11.543266712800055 10.320349861484793
Cd 11.356240790680888 13.136335238774722 10.677592801552185
Cd 13.82573811647264 7.921001307495092 12.283019090507347
Cd 9.595660929540943 16.054119683452484 9.200687686235874
Cd 8.441220580203959 13.24860621566397 9.83767025243851
Cd 7.92062046332919 5.988993929046 9.663872586077458
Cd 9.15628822978095 8.392457800092659 11.099045268240525
Cd 15.55360603431537 8.933920210837828 10.106011399441945
Cd 8.649188657368079 14.816317722737285 15.545636092629183
Cd 12.613076295392148 15.775436716521725 11.617302343691877
