34
Energy = -12.28545931 eV
Cd 14.629531277447633 12.479672725024779 7.779502221152287
Cd 17.4947694902983 13.853664980245771 8.261484121236085
Cd 16.116732115663197 11.97371140719188 10.403359781448732
Cd 15.561632178698773 15.200148960680181 10.5185206084889
Cd 12.884042198358403 13.918551620397967 9.713374412770477
Cd 12.427551148659111 16.365707764375568 11.468505041173287
Cd 12.872220048328055 11.021978464367114 10.579729071853013
Cd 18.437179299359848 14.119202435991411 11.188498791824236
Cd 10.915022857955393 11.767651095919529 12.913342719572492
Cd 16.234790998007405 12.368097431475652 13.441764890035886
Cd 10.509601831210606 14.915895723280014 13.137520070572851
Cd 17.296796251421352 16.630945293188116 12.492368363848476
Cd 13.445402848384923 13.618941200101135 12.67581919942722
Cd 14.405468950697054 17.74735268715644 13.083420788113708
Cd 15.116660652623882 9.779607068579503 12.177203009290293
Cd 18.987695683853357 13.188227296612277 14.088579143120205
Cd 15.384186923702822 15.179772578874974 14.36352537250561
Cd 18.265532571613996 18.75368476717523 14.355166165622858
Cd 15.495316778677005 19.93590196013397 14.826584271980975
Cd 18.26977572506893 15.823998600023499 15.364963208743868
Cd 10.279867614866344 10.00143945762154 15.405007521307276
Cd 9.283852803013389 13.13395912770332 15.17848698670907
Cd 16.277575253173858 14.606675343345422 17.316384737509125
Cd 13.149764977186113 10.203365078241516 14.35852481509429
Cd 13.587149499648149 13.108633044611436 15.60763332025447
Cd 11.372332636332432 15.328578720067705 16.06089028520771
Cd 13.459689250514357 17.454713275348436 15.898730517744719
Cd 16.30204202103026 17.717837013753094 16.8077051119363
Cd 7.840319547213942 10.971777794082051 17.016549332402345
Cd 14.379878672890019 12.73062641246457 18.552083050149548
Cd 10.520758069140834 12.471352467520173 17.95629979680414
Cd 13.392587907599218 15.583660702373994 18.47099293779805
Cd 12.815328650649406 10.529025228883125 17.319528620619185
Cd 10.375899050842152 15.302598057319424 19.004907497812965
