36
Energy = -14.11091649 eV
Cd 10.331702533508373 11.729537933740058 7.4237400201108095
Cd 12.459466434926702 13.559562141114363 8.890782095239672
Cd 12.28187082984176 16.21104901948539 10.091671874981296
Cd 11.593879700802598 13.703500878434328 11.84604280134701
Cd 12.035117636950945 10.752783700707344 10.036611770965239
Cd 14.719004563754678 12.050449328627508 10.106055752204059
Cd 16.88884078816959 12.021462862287706 12.070972316482166
Cd 14.564495897640782 17.558307661736112 11.316600983280791
Cd 18.255498131623487 14.522378385168611 12.792015759167043
Cd 14.40766634953017 19.75919564716168 13.312132707681737
Cd 15.454529322983406 14.734177874559505 11.27907926347403
Cd 14.065165529822117 12.531715685438863 13.215014682373583
Cd 11.499054043463316 10.766060850744598 12.850878373167774
Cd 10.513222343735084 15.70931848683845 13.727326885791575
Cd 16.847567902726038 9.529965546578262 13.757143514024824
Cd 16.633189463944408 16.949463542827843 13.368919599733522
Cd 11.713149779845528 18.113012345012987 12.474917554275045
Cd 20.351501550771808 13.959702147999586 14.993977643473029
Cd 18.197500400390393 11.97906366818058 14.947191833307702
Cd 10.363041557710748 12.846226882710873 14.643906916924108
Cd 13.674734126753469 15.683139637900243 13.726475986263717
Cd 14.210605390434356 18.58274665599789 15.955619856103414
Cd 11.74135830932241 16.949595146967066 15.99042313214567
Cd 15.646308703087147 10.830393056612332 16.226795671526816
Cd 12.797445039881502 10.72808966825264 15.518414339323101
Cd 13.167801254542947 13.756122286608372 15.91021508137385
Cd 16.00860724586572 14.01100021831453 14.996066559719594
Cd 19.10898772904434 16.64427613641274 15.145396293879406
Cd 16.462078639845537 16.62917100640971 16.41127276437491
Cd 18.361520676241998 14.201332223548862 17.239614926765363
Cd 10.321366736983153 13.518460939745522 17.472186134236992
Cd 10.996641930225561 16.092163536710757 18.698614067203852
Cd 11.33441023293029 10.776334914850993 18.116492953459762
Cd 15.691346458451918 13.2510592908126 18.077750966523215
Cd 14.027076062369163 15.920397566619496 17.952595466967463
Cd 12.946622005677995 13.111158428682455 19.089458755928078
