31
Energy = -11.24379258 eV
Cd 14.189290492670928 11.02647560878975 14.944125785403521
Cd 10.140016708742882 11.044032436717808 12.342924658300456
Cd 15.1616997953365 17.477142275677398 9.624305456776456
Cd 7.247443996469559 10.581101884172178 11.059693115120593
Cd 15.871733182578758 13.26819025819688 13.715461605186613
Cd 12.828577080281505 12.925982421196867 12.728755535803721
Cd 14.75390052545245 11.100278753761497 7.774149737670327
Cd 11.99594965343207 12.250893991224675 7.5305202721526205
Cd 8.862816674853594 11.3096000904477 15.164166465215523
Cd 6.339156971496718 11.831477135565807 13.709142049233586
Cd 14.276782021093148 14.062138923391004 8.388086609198258
Cd 11.550254970183548 12.306043452587636 15.956696248565342
Cd 14.694507856532706 16.080563459372286 14.435468822033016
Cd 10.636901814374381 13.54727345808464 10.063958307046912
Cd 13.65450740881004 8.977085934022423 12.755469496721057
Cd 7.937241667578763 13.487312694045114 11.399186408184741
Cd 9.944684377063036 13.917701344336242 13.543824031569079
Cd 14.703953635882357 15.154304615634892 11.53192343119576
Cd 13.003042505147452 9.016835292303629 16.96552953821214
Cd 11.119004746711923 9.346449754228539 14.658731746634645
Cd 15.202188561646865 9.394615230486005 10.173415201919253
Cd 15.427858526499435 12.344669839002645 10.781182418257501
Cd 11.843937078278392 15.349912450228807 15.431748969804955
Cd 9.25308833752701 8.390884330589218 11.042542627560369
Cd 12.345516283265042 15.94213460202069 9.643795012935167
Cd 11.787132869016158 16.09044997945273 12.533739188379789
Cd 16.399174867505362 10.338119624096727 12.960763641007432
Cd 12.553592209532138 10.893333817752548 10.488903990183527
Cd 11.542330510725446 7.005302573342558 12.30135126304602
Cd 14.228263592937695 13.730264620568358 16.407659003647545
Cd 9.843042002020699 10.599606752688489 8.976422612742098
