35
Energy = -13.868044 eV
Cd 16.457391006198364 15.442632805222443 9.087878070943237
Cd 12.94921611946312 11.657782729551519 10.449507608922065
Cd 13.601312691224622 14.725635114725115 9.655921747830106
Cd 11.080536028954349 13.956270408919865 10.938818552121917
Cd 10.096136609877172 16.971755347953035 11.404479666608038
Cd 15.911826362096127 12.559600019938634 9.861472234165886
Cd 15.247559703613764 9.743170275672506 10.657515177607364
Cd 17.130854008717016 16.891483446375698 11.54273921407279
Cd 9.14304669522199 14.716674482605914 13.053201956768762
Cd 14.700659361803503 7.86592419993415 12.826465866001294
Cd 10.865569524605482 11.325781520427999 12.552102881642394
Cd 14.936108693145183 14.421187537901464 12.402133384997935
Cd 12.91976426286464 16.62277957321577 12.078240472433029
Cd 15.12707545954016 17.731683576727185 13.571805984101399
Cd 12.119054795893106 8.880498833900374 13.728285307064453
Cd 17.269134587767716 12.317377359659979 12.496576094367988
Cd 17.596629618791436 15.021296275566142 13.940509621461766
Cd 9.139898365657645 12.327510845356894 14.785664721973673
Cd 13.571211589825019 20.480812371650615 14.013120133936019
Cd 16.24996022924477 17.026723713191842 16.123948950943692
Cd 16.407894671782014 9.913435633040265 14.09836434154166
Cd 14.04407874078224 11.686941970168549 13.353841635929973
Cd 17.514036419000046 12.369129904541236 15.505858077550519
Cd 12.321388903209881 14.101721368982801 13.906922205173437
Cd 11.82015196875394 11.201147138140662 15.702795269545481
Cd 14.959236795153735 14.150700481570377 15.36339225149319
Cd 10.84717975361437 16.866500044026985 14.656088644358917
Cd 13.294336483041716 16.391676554895678 16.260425769163444
Cd 8.513938767969492 15.221301061928877 15.925257160174407
Cd 14.71767840696863 11.302853942207715 16.351404203744416
Cd 11.15365761279147 14.042807544053446 16.672607149620628
Cd 18.15837180548513 15.000807406181135 16.984735089278065
Cd 16.40968596207511 12.964219633107172 18.31566836724119
Cd 13.496843342712491 13.565291776647214 18.314465286193972
Cd 15.480868356581844 15.787178806437893 18.67008060545451
