45
Energy = -19.47792558 eV
Cd 12.686745979193718 17.019872202820522 10.611017334529919
Cd 17.50891031527924 15.68806760976473 10.07043280124213
Cd 14.75693745498156 14.704772611126241 10.155768185251763
Cd 12.001222708071001 14.082568002202116 10.875495939019737
Cd 11.236539308082595 17.04621920996595 13.135869810941022
Cd 15.495912286844696 17.514153970793448 11.314435642886664
Cd 17.41373153378633 12.860705128618184 10.784332037913098
Cd 19.348146183625996 15.169746636447293 12.385530544108693
Cd 16.314125202790777 15.113451633079952 13.32853459668805
Cd 14.683733345600416 12.342402827500576 11.99870224205331
Cd 17.281684144881996 10.926016738967295 12.977121336136724
Cd 12.04986657181011 19.018304584672112 15.534068966636998
Cd 18.39176673344095 17.994915563934903 11.70255582081316
Cd 10.129811291930256 13.241264947801653 12.915634502154365
Cd 13.346644816681625 10.126713096543584 13.368543011507759
Cd 13.500980665506455 19.04598596064319 12.828243190557691
Cd 18.27502277746731 17.430175591707698 14.560280800184037
Cd 14.816388387147263 16.993830955680824 15.084171602655848
Cd 20.557535147668215 15.539152168621365 15.064370880874202
Cd 13.314567058246226 14.680024749446526 13.686658796775605
Cd 11.95992954689832 12.218694335002558 14.97331253478646
Cd 18.792205344023504 13.091880788624492 14.403632076540983
Cd 15.288552234438354 12.739517776350109 15.120589795925396
Cd 11.755630742872613 16.128926175546418 16.01713862282876
Cd 15.834668392257097 9.23404931974781 14.918954010374842
Cd 19.22883226569961 17.05584436934727 17.35965352680682
Cd 16.590844614160996 19.65873210734664 13.402507544568907
Cd 9.184061129515037 15.533135101723223 14.551816575675813
Cd 13.439499477755934 10.082732161075807 16.44417735530041
Cd 19.63003261254021 13.935647828738205 17.33132293316902
Cd 16.87407482701543 15.027658605556809 16.411149169842247
Cd 14.07317492880152 14.628058771960989 17.19754994223027
Cd 10.024146515222998 13.637782311324807 16.704443304640915
Cd 14.645874377970708 20.399748946272535 15.472898064818127
Cd 17.197060956702686 19.269512387132067 16.662035758694525
Cd 14.563406629478461 18.42410535349029 17.7865098382002
Cd 17.763334487679963 11.00516536153259 16.230890091709977
Cd 15.098882471801751 11.764821824498192 18.230430895421986
Cd 11.730894049447237 17.88513531406757 18.46235414238167
Cd 16.834768513083013 16.950454475923845 19.022937278203635
Cd 16.02356918451697 14.224529584946325 19.931058462647535
Cd 12.152249488064735 12.166788809149319 18.21140297667328
Cd 17.896669961457423 12.251341859359275 18.880836180535884
Cd 11.459276460315435 14.94850150218605 19.10131430912105
Cd 13.97962711410857 16.330428977624443 19.920854804835816
