45
Energy = -18.30548026 eV
Cd 14.1328337227833 17.755432501925185 10.67565268725489
Cd 16.05133723166869 15.530821263855778 10.353981603690263
Cd 17.589203615046202 13.32808427315623 8.951456652429368
Cd 13.176423470663115 14.958626322165829 11.502395531659912
Cd 18.282271461863612 16.16474416312424 12.327989743801393
Cd 12.23913901768346 12.134740972004497 11.288144645306994
Cd 19.927527847749634 14.0879189740775 10.86255911797709
Cd 15.221681776644758 12.499856328167441 10.656972166553032
Cd 15.949947473445693 17.939441310452064 13.10421616636677
Cd 19.01419316493379 11.242566352776636 10.686551612066463
Cd 16.11449998833379 14.008312689226862 13.124869264866078
Cd 20.42927648131067 18.314426495027593 11.715782002510158
Cd 10.322038437854925 12.596389965410838 13.536632336045063
Cd 11.42787559051167 17.72546516013748 12.14508853521575
Cd 14.282876559189353 10.283475921684802 12.620477788784237
Cd 10.505446125716107 15.522421228283502 13.70027727550982
Cd 13.426766403428717 19.815051872704938 12.720285468489434
Cd 13.398922783795166 13.026791623649641 14.151055861479914
Cd 17.195344777833057 11.198956648786806 12.950109476410582
Cd 19.20534928426967 13.541000237995743 13.801083211832566
Cd 13.75641619591552 16.094644136697223 14.186804855351445
Cd 16.67298196195343 15.744414139823727 15.4478089395928
Cd 9.895024383834718 11.421193804729844 16.14915298791427
Cd 13.869846811900379 18.84055437815588 15.45525862530234
Cd 18.581913436887554 18.591382904363936 14.401566125904788
Cd 15.459786246509651 10.635874723714585 15.32786167538923
Cd 20.297222271625706 16.258155716916004 14.85119127295611
Cd 17.699777110363595 12.375095148611118 16.091294925309196
Cd 14.27499408761301 16.343555061699018 17.198326187429387
Cd 14.933027990122905 13.408701877680556 16.76594248641739
Cd 8.612877559407078 15.723208679837388 15.965393401515032
Cd 12.600580315829795 10.430460248862465 15.699671021779162
Cd 9.36964873926711 13.547824763766565 18.030442478362367
Cd 11.95419461687649 14.620151090673588 16.34466566130311
Cd 14.377240904315064 19.805655381688446 18.376048318827042
Cd 19.35622361990111 14.678518761854106 17.04884435262475
Cd 16.704544497809326 18.79421242578846 16.688064742081686
Cd 12.32363161700417 12.096472268362177 18.17376409865748
Cd 17.482724058672048 13.42772278585109 18.996272970200213
Cd 12.660120129325986 17.667167413634843 19.419132996188665
Cd 14.747396105803139 12.893059822749539 19.810167563701345
Cd 10.115045771209475 16.37178555936896 18.587866197481524
Cd 12.320406958285695 14.64084012556059 19.835817271317012
Cd 15.157421453440913 15.955868373193843 20.330511476971626
Cd 17.358365493239837 16.433323653639032 18.416915771009656
