48
Energy = -20.18995428 eV
Cd 14.823563956192068 17.537274800328934 10.1624369783241
Cd 10.951166334997227 13.755260199173494 10.420249968969438
Cd 13.393048241627898 15.131432611577457 9.26357730538504
Cd 13.853556203736723 13.436421056087278 11.66658808283579
Cd 14.313594385003 16.363802231118342 12.87487213220075
Cd 11.85685066424189 17.280663270545563 10.898466870570553
Cd 14.556626645248391 19.6947973048945 12.245007722327315
Cd 17.37628630966124 18.026569185505885 11.502332400944665
Cd 20.9742409880106 16.63779544456484 13.781208900159788
Cd 9.426426759990099 15.704429914465194 12.051654354599377
Cd 9.572427258705027 18.637581508888147 12.483432147668706
Cd 11.43436243214409 13.725690268221953 13.56409990948491
Cd 12.040674651110415 19.57305835407812 13.796451368637497
Cd 14.54369237695837 15.196169925033901 15.546105478345947
Cd 14.011702760335027 12.280438148598398 14.483395780088431
Cd 16.78009656058629 20.20367649719395 14.139717807523683
Cd 16.411530585273507 14.081389657671163 13.014548300472365
Cd 19.455108974521657 19.073472291121774 13.31782677707097
Cd 18.935613046779977 14.53885587317799 14.488973875783246
Cd 17.044785728272327 16.92036643852274 14.398811907979256
Cd 11.482469656122763 16.59238602502101 14.25599509950378
Cd 11.857204105596047 14.070223058331802 16.580133125137348
Cd 23.45913529009836 16.74705075059083 15.604372614264662
Cd 21.396823548252517 14.637697254431687 16.26294838077979
Cd 22.098794163440544 17.441341712692854 18.17761930883917
Cd 11.955096593158993 17.173861081339638 17.024426631608204
Cd 19.005419904366946 20.609092173740095 16.106587702801797
Cd 14.353545854543443 18.394210609242766 15.297012082962555
Cd 19.135316568890858 17.395776379313602 16.59889616031885
Cd 21.53101908646709 19.156255752971948 15.685062431214202
Cd 17.135744342242596 15.150951834201 16.977565265121175
Cd 16.982843457783765 12.381334833718288 15.42418201609897
Cd 19.37709275979147 12.82237700992156 17.350453364933053
Cd 12.481452895840015 11.209016470855424 16.986787194089224
Cd 20.00896791414395 15.543888120890504 18.944115158685314
Cd 15.209706518923685 10.285668716608622 16.43414214498757
Cd 14.741805504930745 17.150115107147574 18.129941172093712
Cd 16.61808463525785 19.27719404247882 17.18343241528009
Cd 17.63956695901141 17.304651015308117 19.324941430455226
Cd 14.832310867032357 13.67169304320646 18.02336655815408
Cd 17.066173612783892 11.409646134423493 18.505341900873127
Cd 17.779418390780815 13.969474684530116 19.938279820354676
Cd 12.388025055395797 12.566864579669875 19.60949100417302
Cd 14.346022536458376 10.260816086807406 19.375266957758797
Cd 12.402773617256479 15.565364994566176 19.396429762251017
Cd 15.389104355332572 15.624617426375698 20.592323309557308
Cd 13.077952839127411 14.19817910504635 22.018063623680607
Cd 15.40182870930501 12.500161621531726 21.00211990038255
