49
Energy = -21.86597897 eV
Cd 18.17111774584459 16.446009008388547 9.466863725486409
Cd 11.892463428127519 15.114344172792329 10.770238271959217
Cd 18.3652957971639 11.538165412834795 12.5683148432905
Cd 16.247999929536846 18.65194490338482 9.766744720256884
Cd 17.670079691924393 13.932087099703072 10.946729844746095
Cd 13.767310861188236 17.35507263167265 10.707775900874397
Cd 12.702915625225836 12.394234681264138 11.840410758840559
Cd 15.604122294785233 19.844610350482007 12.567718456878948
Cd 15.604531474914204 11.459771088548289 11.646128888544137
Cd 20.50601050092299 16.865753264491378 11.373665405556265
Cd 14.795884994619227 14.353634594982257 10.928092859388425
Cd 11.142549494363848 17.042797784797845 12.880999379229515
Cd 10.37732275509902 14.074221569985795 13.184216669599126
Cd 18.293083489641056 18.7086328171534 12.205753697258581
Cd 19.245857817352444 12.36961537136056 15.269242786981787
Cd 13.864266401370985 17.819747281504043 13.756461356127947
Cd 19.59457312622369 14.46535743296269 13.173206046632975
Cd 16.398243561290105 16.34592423473217 12.497626759697846
Cd 11.941492144362659 9.267892557121797 15.851910998765918
Cd 9.60117065712625 16.095217537527223 15.3331929122741
Cd 13.656916403105456 9.857359389877967 13.190071162612618
Cd 14.435553195628032 20.063962379980435 15.683228530551942
Cd 16.330971507539683 13.754653779129981 14.0723539717524
Cd 10.873451840726691 11.284621857875269 14.01609485790864
Cd 16.01756294992981 16.630288034455013 15.477348208455254
Cd 11.462720853062667 13.734629488572068 15.962757860309601
Cd 13.510501351809493 14.867700577294995 13.856301029841706
Cd 17.25646518056946 19.468248297227507 15.134392197013952
Cd 15.390029920780071 14.192023985442964 17.09030911264679
Cd 14.036158994879555 12.263420672023555 15.174690364812372
Cd 14.803987279114592 8.554150193914307 15.58992970411119
Cd 11.44514441426823 18.61871479252902 15.456111113909628
Cd 17.798360716410563 12.29365673667936 17.853721924375375
Cd 16.813179247471975 10.660248277818855 15.020338963875234
Cd 15.231139582836958 10.76679290058206 17.637815706503467
Cd 12.774624411302533 19.338451475548077 17.96864621747333
Cd 18.63997754805675 18.069094158510048 17.326381123208616
Cd 19.296477683224293 17.13297591339911 14.510987499638118
Cd 13.227216951355452 16.19746064793031 16.595587540578734
Cd 11.835848651939246 14.464443016697498 18.90474666053448
Cd 18.45962975446769 14.963338181274532 16.452306075666
Cd 14.125981070395744 12.69883364531539 19.654440400312343
Cd 10.173666978326853 16.923270144686242 18.044638945592197
Cd 15.547283637766473 18.127365278370856 18.240305141192074
Cd 12.194476782366804 11.435303892293256 17.769866066762432
Cd 14.777837591854615 15.624892806721133 19.848197601582925
Cd 17.645808216063596 16.029258834233044 19.173460563271558
Cd 16.907046995399654 13.408113545131686 20.4623046668007
Cd 12.41167350065552 17.29767830318665 19.96335750870801
