49
Energy = -20.73587311 eV
Cd 13.725160804265025 16.4433580518338 9.907721604943745
Cd 12.285985707229031 17.845577093921374 12.130664949463847
Cd 14.654734137911506 11.56322258072902 11.143482882152727
Cd 18.59626149855848 18.57057192646225 10.901686066438186
Cd 15.755421592363351 18.4627524217853 10.311518719000198
Cd 20.726470756029602 16.781641802368437 11.778995325836053
Cd 17.461389343915425 12.494138382165465 13.363396755317726
Cd 12.79676126278531 14.023045277598213 11.542939010543044
Cd 14.534854718750156 20.29078768227572 12.324844324160926
Cd 10.68148202702014 15.484469335746333 12.919804859975706
Cd 19.848170071688745 14.314247224504031 13.337076806901148
Cd 20.207372608373635 19.33039605666545 13.45991336920956
Cd 15.601440939247485 14.155946076290947 10.227554591874062
Cd 15.503029390473566 10.30188039518313 13.558888111997513
Cd 17.282052002988333 20.16467574472743 13.29777373067132
Cd 17.593430554634626 15.694627549307858 11.730607126010336
Cd 12.842343798373356 12.378779353668213 14.240432886932835
Cd 12.910754893430616 16.02327265321563 14.953658075111507
Cd 20.941058267648696 14.464326520591015 16.564118580416775
Cd 12.923052664514355 19.510920599714343 14.578466073318658
Cd 15.17137548556367 14.359413357777225 13.466966950935927
Cd 17.923346852865688 17.19675022604088 14.419810618323972
Cd 15.198446186789031 17.279288814029933 13.272685986359853
Cd 19.483977419062725 11.983897489290856 15.972589587042414
Cd 17.715417678744263 14.534679673688276 15.67025869205328
Cd 12.503709174157047 11.575600703495546 18.05309832713704
Cd 21.372170423793875 16.70179540614347 14.681150313711134
Cd 9.465278948702302 16.837709349044815 15.243790237345616
Cd 15.14669782956335 13.113645422329766 16.20670222732493
Cd 14.422834371691549 19.15294451931149 17.136865580677973
Cd 15.455849275026129 16.32269061159872 16.368924695865598
Cd 13.974667551599655 10.099906109745822 16.03113833145036
Cd 17.20605912075918 19.561761789938046 16.22597058288849
Cd 15.269126696675668 10.168494846562762 18.810535344382444
Cd 10.522029477146434 13.870104381576652 15.45164970220417
Cd 18.747892578720446 14.950808984489113 18.67131294024909
Cd 11.427444757838135 18.398433784690518 16.79096412982567
Cd 17.10785033746747 17.658367066399663 18.544528914519358
Cd 19.533801552531852 17.311137355949345 16.924674758061172
Cd 10.289758718380906 16.009149269659396 18.17923600709602
Cd 17.015275358456872 10.48940921865494 16.180498237002105
Cd 13.061915097770079 14.596073235671442 17.604842967100705
Cd 14.351468741786089 12.56310208574557 20.31516111278033
Cd 17.156575944621302 12.51189470899226 18.476621058068773
Cd 9.913223382506878 13.093061385443841 18.193145514649647
Cd 15.720245901292605 15.125295074779862 19.3974557756286
Cd 13.033435721365809 17.285140150169646 19.068507535524272
Cd 11.323907271945846 13.203583441460509 20.719010527444613
Cd 13.2367237065604 15.368957412152032 21.270092097657603
