45
Energy = -19.3187124 eV
Cd 17.50315903761998 15.216709681402122 8.980350016189304
Cd 15.297804094274285 13.533466462181282 9.87534945492484
Cd 20.48107427731355 16.080962474473385 13.335988992573725
Cd 19.41994206991951 13.820948365208414 10.773282088244274
Cd 16.370705562276626 17.39788546422265 10.80854200975762
Cd 18.59876783140368 18.380604171716946 12.861863729664922
Cd 14.69816183207563 15.77187061263971 13.8298685175215
Cd 11.017240997150441 13.444691828143853 13.105749722286312
Cd 16.89828508937845 12.153179615312515 11.996936778307646
Cd 13.861712891022181 18.186293124607975 12.113022774676
Cd 17.378286464270225 15.234064166596141 12.786491563855293
Cd 13.513548231021725 15.69280477899372 10.58105267141764
Cd 14.032499922717022 12.973194750120058 12.582151088845267
Cd 11.690913374369401 16.26118575412973 13.029912111065585
Cd 12.09899742958213 10.706590221164351 13.394778876974005
Cd 16.464401486291884 13.49523714180504 15.102016045432535
Cd 19.53395052389914 12.897392728953276 13.571461539598504
Cd 13.240515999796994 13.640697016175853 15.4548492355646
Cd 15.982445174487852 19.121484867139515 13.92511456141152
Cd 16.953140070512642 16.93694208029826 15.735533572182527
Cd 12.908154901634717 19.83309552936059 14.329211170326062
Cd 19.5507711632978 16.831302870062572 10.48107753136252
Cd 11.53026532145144 19.621972007797392 17.059382900799633
Cd 14.930141024311864 10.647604361551428 14.463456333893756
Cd 19.54167048000441 11.621367590583521 16.368062201002928
Cd 10.375923443361819 14.939578477125268 15.740027763331115
Cd 15.120617785880146 15.033855860173169 17.406428313959
Cd 10.134372903921939 11.930538549105556 15.584992914611151
Cd 13.006504641771887 16.64040932660306 16.022609606239023
Cd 10.346481674307766 18.219330007525237 14.689177281412169
Cd 17.83452997854449 10.388196721051665 14.29819073677134
Cd 11.934226873819998 15.283163854707956 18.606008567883432
Cd 19.35737383069713 14.836132677843663 15.852386485551738
Cd 9.726977292675695 17.25084679637367 17.53204924670279
Cd 14.704940289322126 19.08061283869093 16.623560613974934
Cd 17.598944419919807 12.876546000367238 18.11802066532643
Cd 12.555439163337534 10.227565931075299 16.279802940107103
Cd 14.938289208229207 11.869465406057415 17.305069840856195
Cd 13.086020543895332 18.11181054217216 19.0156016901237
Cd 16.178508566773655 17.83441166705126 18.743817477668397
Cd 11.838738941075974 12.38438957075741 18.151559122490106
Cd 18.213753846282874 15.817608208761385 18.33660554634271
Cd 14.111366663320204 13.183196349412787 19.89130984843705
Cd 16.830642946865122 14.359802674013913 20.583393312568987
Cd 14.508163208129627 16.129362348705424 20.57225400998006
