42
Energy = -17.28492957 eV
Cd 14.795446841543523 13.478885082326153 11.16818508091211
Cd 17.678523352962284 12.729829054730406 11.59479257475747
Cd 17.642044471868548 20.47476040618179 13.106886429703103
Cd 17.844026469148353 15.33003496515206 13.172391763561272
Cd 14.948251082362129 15.048333410303076 13.812847848893195
Cd 15.318200666306831 11.302890784724495 13.197759176491155
Cd 12.654341721938835 16.981673622664182 13.715394461170591
Cd 15.279154605123322 21.028194111568034 14.78094422448032
Cd 15.726891818696192 17.94182875754087 13.586430954961212
Cd 18.949404548947943 17.906583253254436 13.844590046455151
Cd 20.222380347206133 15.763099085894176 15.490016947044124
Cd 16.94966584720995 13.082398836248672 15.232131095779359
Cd 19.473295780157947 10.68135311091291 12.738061093689941
Cd 12.756986733416094 19.809694858537476 14.18919361306213
Cd 17.547138630097677 9.798028627335068 14.706211055909026
Cd 20.076404274103197 20.624675853206302 14.866580397016774
Cd 11.213744986654685 18.209561869032246 16.26590528870246
Cd 13.071131663472046 11.780486542376712 15.266846874522864
Cd 12.048796516332702 14.422916506089177 14.897896667450892
Cd 19.93110873237272 13.144320746444341 14.263494529224452
Cd 17.76137626001316 22.519801546493763 15.509471436821844
Cd 14.452664132337427 17.228248861390938 16.44463249659759
Cd 20.249705517367207 16.110340154728764 18.666892168230838
Cd 15.419064550082595 10.547994255894553 16.54889006362238
Cd 17.16482754800572 15.926754717702018 16.402863055964346
Cd 14.644312892469914 14.284014320486575 16.879598488582694
Cd 19.19724787243363 13.568221120447474 17.280278028900643
Cd 16.917246059541753 18.902505751867686 16.343301534729882
Cd 11.268426265582503 12.789304759672936 17.613894672133654
Cd 11.806527425515684 15.695371922451159 17.61543373127651
Cd 18.955551384822183 20.985232510180985 17.8412056684019
Cd 16.066036488760552 21.638547572131912 17.88940757363956
Cd 13.538281521401826 20.136528080702483 17.13135074614342
Cd 16.694070330456245 12.433398751295423 18.499300198936663
Cd 19.921472973867242 18.36566158476624 16.82636727685199
Cd 13.831090016163213 11.741229331867675 18.797308756576534
Cd 12.420485617541802 18.072846592795486 19.190675296535076
Cd 12.9608347640264 14.231887132990323 20.06166236800187
Cd 17.830113339731547 17.953965324594698 19.144458188630434
Cd 15.079509499245988 16.28311457675274 19.419782194217262
Cd 15.181558068798171 19.301268907986948 19.52668540086627
Cd 17.68908574142873 14.920640097790892 19.646407890065472
