49
Energy = -21.56933592 eV
Cd 20.66791317497306 17.253040806924183 9.614052619352771
Cd 17.94560307531002 14.471719481136374 11.885972208820492
Cd 22.030475476062442 14.779696920188114 10.559637644967951
Cd 20.56838662276745 12.944345580939354 12.347521688415847
Cd 13.013737638460332 13.110429333857715 12.209875014673543
Cd 21.32263927712964 16.288579571250303 13.266645704338778
Cd 18.836806704130453 17.465618432121673 11.903979992126446
Cd 15.128374579704865 14.651855948644714 10.96359816466789
Cd 15.93628511621567 17.091823823867472 12.407818284989055
Cd 10.87034245876246 17.958909895279234 13.818962398601919
Cd 12.893027811810192 16.17419656228527 12.374813698739878
Cd 12.177253787891294 14.205432750227844 14.733988223624982
Cd 18.432406347687465 15.449756802945679 14.637005826181007
Cd 13.858651973166173 19.111068677590026 12.897852037075282
Cd 13.85950279431731 11.612964956644172 14.678518030306542
Cd 18.400748869126303 12.352295643460957 14.335227190452299
Cd 17.29770539392827 19.73206348411171 13.198836912538034
Cd 15.988215065993879 12.175402996618304 12.721860333840064
Cd 19.73140613424318 18.61984422620256 14.660797918407187
Cd 15.411291892702085 14.801171382661728 14.522524973652137
Cd 12.423794427962285 19.98351622264075 15.38687164933051
Cd 10.94013536487513 13.297608109181349 17.251813345184
Cd 21.794785949522083 13.763438922191149 14.881943578777145
Cd 13.588245919869445 17.000578172802488 15.498387957652762
Cd 14.055238650595285 14.615675236044682 17.316511494599833
Cd 15.349634391758618 20.717614605140035 15.153466321214312
Cd 16.545703961607412 17.716482044256498 15.557547145268881
Cd 16.284019439523217 12.428934031341969 16.54111509621608
Cd 17.00150387060754 15.315699583073158 17.30243161269772
Cd 13.359610259248583 11.362897360593918 17.509446879705298
Cd 11.977998523368086 18.319618204354146 17.842668491703613
Cd 18.973407611144527 18.222171466336977 17.53900265856498
Cd 20.713848889293548 16.080839686134347 16.46828750179378
Cd 13.692024664898428 20.820675923850445 17.922408531349433
Cd 10.36962172913563 16.158686220349857 16.192258834026077
Cd 19.62981052306003 13.183644404328522 16.936905457755536
Cd 16.545879527158995 19.891350468717363 17.79219015550616
Cd 19.45427321935722 15.700203935887338 19.154971643728075
Cd 12.341881489108664 12.84932815029817 19.86122547573986
Cd 14.960711513561876 17.317249267689448 18.318706068260607
Cd 15.393635001289985 12.665046766828196 19.558058518816548
Cd 18.26200254334194 12.919868127263832 19.476444272501634
Cd 11.386604945080325 15.721190901485011 19.08873563922301
Cd 14.961867104331953 20.07741853024583 20.4557454456897
Cd 16.8424234896021 15.424969023997026 20.489360388339154
Cd 13.970573376486573 15.125868533363755 20.711061325642472
Cd 17.67481389118701 18.423723529402142 20.235482193950727
Cd 15.350593326351431 17.553232210304834 22.01242997489839
Cd 12.69550840851856 18.003179291168575 20.71595968232047
