4
Energy = -0.27949286 eV
Cd 10.361232973472745 12.341228782565265 10.597741410340404
Cd 7.758591800509138 10.237004114674626 10.638843487422184
Cd 13.047048459562172 10.488088471888684 9.462152556634054
Cd 9.57134448491531 7.422796510112145 9.758873561347192
