47
Energy = -20.55507913 eV
Cd 16.325830671919444 12.162346591540295 10.19542689265286
Cd 13.187823908796688 17.7379401229853 11.133442659396358
Cd 15.120021632789221 15.201747854803752 10.650171455932721
Cd 11.818478825262098 15.16153978784492 10.58826349994162
Cd 13.324590180298005 12.735512797356835 10.294923347385934
Cd 10.098465571498796 12.53075382113408 9.926645394198493
Cd 14.393360195034333 10.084632916575858 11.052115261071283
Cd 15.985224284015427 18.24415107936919 10.778973397546265
Cd 18.055757028741127 14.44675395110935 10.233108235311887
Cd 10.871489810926649 16.793346535149528 12.887636111968842
Cd 11.540058865730337 10.77693844806479 11.960128474988554
Cd 18.635486180088666 17.315245815406808 10.114839611928572
Cd 18.400846473374546 18.29074378320532 13.013256754551605
Cd 16.823823915394332 10.492750396115254 12.797816500448702
Cd 15.12704434453561 13.089175352904807 13.129978220127407
Cd 9.287307163226066 12.022684913862292 13.660655711879109
Cd 18.619424940332213 12.808770897228666 12.811494003598582
Cd 9.114499226585364 14.43448924151917 11.997233373174012
Cd 12.64516046792114 19.0646610048417 13.79872027411938
Cd 16.69799857908171 15.605594152233744 13.468378665452484
Cd 15.575197785272568 18.87005149013806 13.76507844927215
Cd 19.677623417821053 15.702024050726457 12.485655156152358
Cd 12.17857049952587 13.42289987950735 13.493592828025998
Cd 13.796229460803469 15.959075353343152 13.671139373954711
Cd 17.23181124955503 12.739662485165226 15.651303233640686
Cd 19.694558483515713 14.513355986232105 15.108325664828111
Cd 9.711403615094962 14.977850645665193 14.939831805931647
Cd 13.814615235529965 10.13030471187363 13.913422090852748
Cd 10.817521828201146 17.818305690844852 15.737620311608715
Cd 15.51643422414979 15.342440897631615 16.38100428141839
Cd 14.029815163812962 12.692155577717715 15.83651622254793
Cd 17.507260707021313 17.65040385534858 15.820784074091575
Cd 12.473499461941563 15.222848726803873 16.26310118826391
Cd 11.193025620694955 10.494134105799137 15.234893990250406
Cd 16.25910452876248 9.799380969739707 15.585159356585047
Cd 14.05897738363701 18.078051950970522 16.234490882595264
Cd 18.86465122457292 15.720536063717644 17.52798950436877
Cd 10.504216035809979 12.850557422542051 16.882582345504304
Cd 13.453173018267126 9.560137493599084 16.918648412010008
Cd 17.534143914602232 13.35329174370805 18.71796702154779
Cd 11.491344179718947 17.42591979340815 18.572157516812705
Cd 15.648705381226947 11.21707846514955 18.166596182851467
Cd 12.686373014783117 11.783056808513434 18.749069534696698
Cd 11.681742120859425 14.595235999808443 19.252326020929903
Cd 16.62083189502759 16.14779265734093 19.384901562652562
Cd 14.426825711805826 17.946850451907963 19.16413060452992
Cd 14.555203954356616 14.062368641469337 19.124055920323578
