47
Energy = -19.82501399 eV
Cd 15.938131773325926 16.16151322245701 10.180113257943164
Cd 15.011417043324462 13.469337352816998 10.261875417918263
Cd 13.401884477087716 17.353041054006138 11.331224670259965
Cd 14.309841518376036 20.750581887728046 10.525359387588562
Cd 12.544268484001194 14.362354072168927 11.969891998740001
Cd 15.087048424353647 12.141887358165286 12.791874208249807
Cd 16.878372060086484 10.22733308074787 14.448645373612598
Cd 16.14746985962317 18.578334679425755 11.827728588848547
Cd 17.802341939275987 15.971089826086464 12.481200777005165
Cd 10.933284251443942 16.855287855866568 12.779806449141866
Cd 20.706920820873805 16.5455604265235 13.170627502804287
Cd 17.308579542087095 13.60405621217631 14.4823210097934
Cd 13.761763120468105 18.361499681633255 14.194885178680249
Cd 11.931237023232866 12.013302383465694 13.665813091793721
Cd 14.926992215606735 15.429899116877397 13.539592720424329
Cd 13.883360764915881 9.773157223951541 14.156626241553505
Cd 18.613440318439444 19.163485928091863 13.309890510395324
Cd 14.506319710295775 13.296443863328232 15.68031746789588
Cd 19.724242390868298 10.580470039839302 13.77352120138272
Cd 8.348989165867064 16.440089820438025 14.26354465620463
Cd 16.759858311475067 17.115698780932494 15.223173360720493
Cd 20.21892459585039 18.222913652234066 15.542042299954291
Cd 20.066192996908196 13.673559222745926 13.223001964827937
Cd 19.453948315815268 15.365499814476047 16.271256359478187
Cd 15.912498922153507 20.42656869388703 14.147937774407437
Cd 11.048297994573064 17.816797768286325 15.617346653764335
Cd 9.423223129204573 15.384706948401492 16.823672020271182
Cd 17.81493393764048 20.09646796054488 16.42476208243704
Cd 20.117296738382212 12.463762253606554 16.103801156922984
Cd 13.91594209459927 16.228626814968948 16.43810311092875
Cd 15.061543428728765 9.693529551951325 16.898355775717793
Cd 12.330137759597203 11.100519303302642 16.47514796306714
Cd 11.726935401446603 14.703164739110841 14.936272496562541
Cd 16.508790071266876 14.95298448532568 17.27712616493655
Cd 18.71320268580866 17.748670689329998 18.047256132650862
Cd 12.8854268853714 18.897535699266445 17.67268710222461
Cd 14.730411665834547 21.006422847795427 16.809374049371076
Cd 15.788050483409735 18.267691110890297 18.1616976108882
Cd 17.061492245089358 11.827053574335652 17.132242483185593
Cd 11.109237536751802 16.82776195138449 18.794366546973027
Cd 18.675945542267993 15.40439106726045 19.638541669727342
Cd 11.551714949658878 13.635331302405032 17.897390190567478
Cd 19.256770289046827 12.674998202723797 18.930432328696373
Cd 13.653453518179111 15.128288709864526 19.451174897124744
Cd 15.927284478680773 16.62253234886596 20.56596808142415
Cd 14.226790135417138 12.10060555609102 18.622114512625856
Cd 16.310938668546182 13.550339549476071 20.0550431855663
