54
Energy = -22.67142177 eV
Cd 17.45692799889451 19.711208939749433 9.572093353659044
Cd 15.025589369956956 15.102480829809641 9.31498021150221
Cd 14.756633502844354 18.13618955911637 9.915816516227808
Cd 17.562736336932545 16.748606145146205 9.74832997061875
Cd 14.897497472428714 21.073597210627113 10.286832383131246
Cd 18.41748928487837 16.207196216204306 12.549558399549626
Cd 17.918660707092883 20.952334682516614 12.26706232733882
Cd 17.49772181945737 13.798462408273227 10.75392046380065
Cd 13.539226467791277 16.01346982685455 11.748952952454822
Cd 12.75494490289757 18.93565253012772 12.232368849911307
Cd 14.666714597404491 22.15778540454786 12.92833002968779
Cd 19.691485755703727 18.631960751606808 11.267398446296486
Cd 16.028386477944913 18.242840864080243 12.686751296427003
Cd 18.68201664430802 13.209765656131662 13.415851987970273
Cd 15.765802024185922 15.424073271516422 13.763600556633707
Cd 14.791150597210832 13.175281804050577 11.590004404611124
Cd 18.94003033776374 18.672861266922066 14.303324971613458
Cd 12.389109038135866 16.183477676499137 14.405743872827578
Cd 15.484204923001831 12.425232160350657 14.498880372232733
Cd 19.973148136141713 15.643170064793377 14.922789071175483
Cd 16.3771693972978 20.526813308186135 14.716397511376757
Cd 12.639536981035322 13.186884425983703 13.444519151338737
Cd 10.530116321559365 18.69679902359013 14.423874505641738
Cd 18.04139458758198 11.437072965680231 15.752020798027623
Cd 10.454267527332489 16.461873166670188 16.691859812735718
Cd 14.422522543601463 15.145129377034369 16.455362158963354
Cd 14.640909180715209 18.021859503349543 15.38171665915259
Cd 17.01964973460722 21.91829216866169 17.28751536950048
Cd 11.48861768379023 13.672270683896755 16.027524634097148
Cd 11.12144591000225 14.27516442579842 18.863153206720565
Cd 15.359117576896717 10.213884237817878 16.632104157416816
Cd 13.028954488811264 20.563155605975023 14.723779745439007
Cd 17.5383925712334 18.844721918070857 17.025695073090514
Cd 11.813767205455273 19.27020337851836 17.158067835956498
Cd 20.795253291798794 15.233822016552088 17.68803277166311
Cd 19.82845088773757 12.468564034014793 17.822222370936075
Cd 16.664237650330524 13.070484011744469 18.74305596483155
Cd 12.514171552512146 16.899011435921565 18.74915299193662
Cd 17.421270693441798 14.600786320019083 16.2443982820233
Cd 14.412677845375 20.457693162796296 17.811481265728585
Cd 17.662049220226525 10.02001932395258 18.593030334990807
Cd 15.361599556552292 17.506526881422133 18.380225123037608
Cd 20.329984043204636 18.05718395585398 17.0366139338023
Cd 20.038479244120346 14.491575443440585 20.42109636586216
Cd 13.670219913693632 12.383005554495812 17.54576585962593
Cd 18.99644011274798 11.73758704497271 20.71395970900152
Cd 14.42959434250998 14.879739431217072 19.596980010261085
Cd 18.00075849643613 16.25814724044911 18.7217268298654
Cd 17.12293999192907 14.744179645825106 21.319042777412864
Cd 14.77497778599842 10.74983565769855 19.936964064579442
Cd 12.225002008146536 12.226150062876442 20.574112734661547
Cd 17.21830162277196 12.366846851495781 23.29801131346318
Cd 14.585754047024853 13.166025172943641 22.108950912541516
Cd 16.98208825784808 9.752633963454313 21.688583995952904
