7
Energy = -1.11975988 eV
Cd 13.229432248377492 11.543837057819049 13.937144409264338
Cd 10.763339439902849 9.702721058980865 12.847794119936776
Cd 13.769424801473182 8.938585194269095 11.92664824925877
Cd 9.732847218890418 9.448403705725784 9.786530005240738
Cd 8.771416473245038 12.335182296207169 10.562867861979118
Cd 10.872887633405787 11.91949173380005 8.175831066164811
Cd 7.847446365515614 11.057061617994655 7.7633449280269105
