52
Energy = -166.43089636 eV
Al 13.448739525725653 9.300450281243842 16.633320573322525
Al 11.726025360376681 8.016459372486791 14.933315557219366
Al 10.335274721699097 7.680747533347533 12.522662357006569
Al 13.237785239403882 7.468072141534335 12.832577250911847
Al 11.339995820318908 10.58787809335084 15.764506106526637
Al 11.98980810218661 7.005168699993984 10.513515083561588
Al 9.27961282329814 9.231256342486391 14.577408723475246
Al 9.022149564536743 10.077471682875448 12.086390815488057
Al 8.838937883630875 11.313281378026453 16.25854511799449
Al 13.35339511168651 12.068038097009717 16.904801320133295
Al 15.411297023864272 10.701694510043554 15.550486305116314
Al 14.47956500068639 9.793310385415255 13.171815135879418
Al 7.483159134272315 11.539068888988064 13.807299457529725
Al 10.658777327716473 9.316695334709323 10.195994350502872
Al 11.732199169904764 10.034688295401267 12.943966848411138
Al 13.181849491039598 11.954861642813933 14.16774578149626
Al 13.399986774139004 9.369529495337472 10.736530220471009
Al 10.894033488252466 13.148845279212754 16.392259413030935
Al 8.323345672285072 10.429715516109555 9.487884745962363
Al 12.387897355673566 8.384248831024811 8.299962166400734
Al 10.210928528606328 12.293468910058099 13.72970033697796
Al 10.892681029503548 11.953184128242121 11.084111212729754
Al 8.181237138726413 13.778890328403527 15.372777883364828
Al 15.40115044432099 13.424005501564269 15.635196481663264
Al 16.18289382111224 11.832892695277202 13.280355671268204
Al 15.866521254831492 10.59031617697177 10.808938082421797
Al 14.731706206838085 10.018579158206103 8.337827442847958
Al 12.98300639132751 14.48493654983342 15.30877398280873
Al 8.256648163746348 14.557889961428147 12.823402914419702
Al 10.460501704474943 15.037588332595389 14.612419956959227
Al 12.341058837915162 11.199193777807617 8.884606682487627
Al 10.202242389989355 10.119078353178947 7.567731962117504
Al 8.035453593090539 12.471350634202741 11.19915111560759
Al 17.273551656690756 14.295688153310877 13.87300978427289
Al 13.63723869109282 12.147410168157535 11.34528870829357
Al 11.897325114963756 14.104761244265525 12.377985634425448
Al 9.661146465376651 12.6598853609766 8.582350139715247
Al 12.668491692168121 10.090551585715486 6.302610258875665
Al 14.538211943397446 14.129619320366048 12.98206777954469
Al 16.373792913224346 13.279271022117703 10.976549899617998
Al 15.190246392164994 16.16032588156561 14.609605032300303
Al 12.41106835516273 16.734077012368363 13.955522244190881
Al 9.77983757805254 14.49842878482995 10.444220740170499
Al 12.144932965510876 13.836976910105992 8.976925299149654
Al 10.112404157763358 16.427302302813473 12.333208724988669
Al 14.708307274798353 12.661593132884684 8.782812928220988
Al 11.436773581589625 12.474575927808825 6.59569095384337
Al 16.54336127958578 15.927818856975394 11.921246317581955
Al 14.270648729886124 14.771815129701455 10.297324133145985
Al 11.956793350003657 16.183760062502362 10.305733507754102
Al 14.096320705538119 16.869287448886094 11.924892357873425
Al 11.883057717088542 18.417370044706097 11.840349159159215
