  15  15   0   0
  0.5218795E+03  0.1985579E-08  0.1985579E-08  0.1985579E-08  0.1000000E-15
  1.000000000000000E-004
  CAR 
 unknown system                          
      1.24605996     -9.92147662  301     -3.50944937      1.00000000
     -9.921  0.0000E+00  0.0000E+00  0.0000E+00  0.0000E+00
     -9.884  0.0000E+00  0.0000E+00  0.0000E+00  0.0000E+00
     -9.847  0.0000E+00  0.0000E+00  0.0000E+00  0.0000E+00
     -9.810  0.0000E+00  0.0000E+00  0.0000E+00  0.0000E+00
     -9.773  0.0000E+00  0.0000E+00  0.0000E+00  0.0000E+00
     -9.735  0.0000E+00  0.0000E+00  0.0000E+00  0.0000E+00
     -9.698  0.0000E+00  0.0000E+00  0.0000E+00  0.0000E+00
     -9.661  0.0000E+00  0.0000E+00  0.0000E+00  0.0000E+00
     -9.624  0.0000E+00  0.0000E+00  0.0000E+00  0.0000E+00
     -9.586  0.0000E+00  0.0000E+00  0.0000E+00  0.0000E+00
     -9.549  0.0000E+00  0.0000E+00  0.0000E+00  0.0000E+00
     -9.512  0.0000E+00  0.0000E+00  0.0000E+00  0.0000E+00
     -9.475  0.0000E+00  0.0000E+00  0.0000E+00  0.0000E+00
     -9.438  0.0000E+00  0.0000E+00  0.0000E+00  0.0000E+00
     -9.400  0.0000E+00  0.0000E+00  0.1000E-02  0.0000E+00
     -9.363  0.0000E+00  0.0000E+00  0.1000E-02  0.1000E-02
     -9.326  0.0000E+00  0.0000E+00  0.1000E-02  0.1000E-02
     -9.289  0.0000E+00  0.0000E+00  0.1000E-02  0.1000E-02
     -9.251  0.0000E+00  0.0000E+00  0.1000E-02  0.1000E-02
     -9.214  0.0000E+00  0.0000E+00  0.1000E-02  0.1000E-02
     -9.177  0.0000E+00  0.0000E+00  0.1000E-02  0.1000E-02
     -9.140  0.0000E+00  0.0000E+00  0.2000E-02  0.2000E-02
     -9.103  0.0000E+00  0.0000E+00  0.3000E-02  0.3000E-02
     -9.065  0.0000E+00  0.0000E+00  0.3000E-02  0.3000E-02
     -9.028  0.0000E+00  0.0000E+00  0.3000E-02  0.3000E-02
     -8.991  0.0000E+00  0.0000E+00  0.5000E-02  0.4000E-02
     -8.954  0.0000E+00  0.0000E+00  0.5000E-02  0.5000E-02
     -8.916  0.0000E+00  0.0000E+00  0.6000E-02  0.6000E-02
     -8.879  0.0000E+00  0.0000E+00  0.6000E-02  0.6000E-02
     -8.842  0.2686E-01  0.0000E+00  0.7000E-02  0.6000E-02
     -8.805  0.0000E+00  0.0000E+00  0.7000E-02  0.7000E-02
     -8.767  0.0000E+00  0.0000E+00  0.8000E-02  0.8000E-02
     -8.730  0.0000E+00  0.0000E+00  0.9000E-02  0.8000E-02
     -8.693  0.0000E+00  0.0000E+00  0.9000E-02  0.9000E-02
     -8.656  0.0000E+00  0.0000E+00  0.1000E-01  0.1000E-01
     -8.619  0.0000E+00  0.0000E+00  0.1000E-01  0.1000E-01
     -8.581  0.0000E+00  0.0000E+00  0.1100E-01  0.1100E-01
     -8.544  0.0000E+00  0.0000E+00  0.1200E-01  0.1200E-01
     -8.507  0.0000E+00  0.0000E+00  0.1300E-01  0.1300E-01
     -8.470  0.0000E+00  0.0000E+00  0.1400E-01  0.1300E-01
     -8.432  0.0000E+00  0.0000E+00  0.1500E-01  0.1500E-01
     -8.395  0.0000E+00  0.0000E+00  0.1500E-01  0.1500E-01
     -8.358  0.0000E+00  0.0000E+00  0.1600E-01  0.1600E-01
     -8.321  0.0000E+00  0.6978E-07  0.1800E-01  0.1600E-01
     -8.284  0.0000E+00  0.0000E+00  0.1900E-01  0.1900E-01
     -8.246  0.0000E+00  0.0000E+00  0.1900E-01  0.1900E-01
     -8.209  0.0000E+00  0.0000E+00  0.1900E-01  0.1900E-01
     -8.172  0.0000E+00  0.0000E+00  0.2000E-01  0.2000E-01
     -8.135  0.0000E+00  0.0000E+00  0.2000E-01  0.2000E-01
     -8.097  0.0000E+00  0.0000E+00  0.2100E-01  0.2000E-01
     -8.060  0.0000E+00  0.0000E+00  0.2300E-01  0.2300E-01
     -8.023  0.0000E+00  0.0000E+00  0.2500E-01  0.2500E-01
     -7.986  0.2686E-01  0.0000E+00  0.2600E-01  0.2500E-01
     -7.949  0.0000E+00  0.0000E+00  0.2700E-01  0.2700E-01
     -7.911  0.0000E+00  0.0000E+00  0.2800E-01  0.2700E-01
     -7.874  0.0000E+00  0.0000E+00  0.2800E-01  0.2800E-01
     -7.837  0.0000E+00  0.0000E+00  0.2800E-01  0.2800E-01
     -7.800  0.0000E+00  0.0000E+00  0.3000E-01  0.2900E-01
     -7.762  0.0000E+00  0.0000E+00  0.3100E-01  0.3100E-01
     -7.725  0.0000E+00  0.0000E+00  0.3200E-01  0.3200E-01
     -7.688  0.0000E+00  0.0000E+00  0.3200E-01  0.3200E-01
     -7.651  0.0000E+00  0.2686E-01  0.3300E-01  0.3300E-01
     -7.614  0.0000E+00  0.0000E+00  0.3400E-01  0.3400E-01
     -7.576  0.0000E+00  0.0000E+00  0.3500E-01  0.3500E-01
     -7.539  0.0000E+00  0.0000E+00  0.3500E-01  0.3500E-01
     -7.502  0.0000E+00  0.0000E+00  0.3600E-01  0.3500E-01
     -7.465  0.0000E+00  0.0000E+00  0.3800E-01  0.3800E-01
     -7.427  0.0000E+00  0.0000E+00  0.4000E-01  0.3900E-01
     -7.390  0.0000E+00  0.0000E+00  0.4100E-01  0.4000E-01
     -7.353  0.0000E+00  0.0000E+00  0.4200E-01  0.4200E-01
     -7.316  0.0000E+00  0.0000E+00  0.4300E-01  0.4300E-01
     -7.278  0.0000E+00  0.0000E+00  0.4400E-01  0.4400E-01
     -7.241  0.0000E+00  0.0000E+00  0.4500E-01  0.4400E-01
     -7.204  0.0000E+00  0.0000E+00  0.4600E-01  0.4500E-01
     -7.167  0.0000E+00  0.0000E+00  0.4800E-01  0.4700E-01
     -7.130  0.0000E+00  0.0000E+00  0.4900E-01  0.4800E-01
     -7.092  0.0000E+00  0.0000E+00  0.5100E-01  0.5000E-01
     -7.055  0.0000E+00  0.0000E+00  0.5300E-01  0.5200E-01
     -7.018  0.0000E+00  0.0000E+00  0.5300E-01  0.5300E-01
     -6.981  0.0000E+00  0.0000E+00  0.5500E-01  0.5400E-01
     -6.943  0.0000E+00  0.0000E+00  0.5700E-01  0.5500E-01
     -6.906  0.0000E+00  0.0000E+00  0.5800E-01  0.5700E-01
     -6.869  0.0000E+00  0.3229E-13  0.5900E-01  0.5800E-01
     -6.832  0.0000E+00  0.0000E+00  0.6100E-01  0.6100E-01
     -6.795  0.0000E+00  0.0000E+00  0.6200E-01  0.6200E-01
     -6.757  0.0000E+00  0.0000E+00  0.6200E-01  0.6200E-01
     -6.720  0.0000E+00  0.2684E-16  0.6500E-01  0.6300E-01
     -6.683  0.0000E+00  0.0000E+00  0.6600E-01  0.6600E-01
     -6.646  0.0000E+00  0.0000E+00  0.6700E-01  0.6700E-01
     -6.608  0.0000E+00  0.0000E+00  0.6900E-01  0.6800E-01
     -6.571  0.0000E+00  0.2662E-01  0.7100E-01  0.7099E-01
     -6.534  0.0000E+00  0.0000E+00  0.7300E-01  0.7300E-01
     -6.497  0.0000E+00  0.0000E+00  0.7300E-01  0.7300E-01
     -6.460  0.0000E+00  0.1545E-03  0.7400E-01  0.7301E-01
     -6.422  0.0000E+00  0.0000E+00  0.7400E-01  0.7400E-01
     -6.385  0.0000E+00  0.0000E+00  0.7500E-01  0.7500E-01
     -6.348  0.0000E+00  0.0000E+00  0.7500E-01  0.7500E-01
     -6.311  0.0000E+00  0.0000E+00  0.7600E-01  0.7500E-01
     -6.273  0.0000E+00  0.0000E+00  0.7700E-01  0.7600E-01
     -6.236  0.0000E+00  0.0000E+00  0.7700E-01  0.7700E-01
     -6.199  0.0000E+00  0.0000E+00  0.7700E-01  0.7700E-01
     -6.162  0.0000E+00  0.0000E+00  0.7700E-01  0.7700E-01
     -6.125  0.0000E+00  0.0000E+00  0.7700E-01  0.7700E-01
     -6.087  0.0000E+00  0.0000E+00  0.7700E-01  0.7700E-01
     -6.050  0.0000E+00  0.0000E+00  0.7700E-01  0.7700E-01
     -6.013  0.0000E+00  0.0000E+00  0.7700E-01  0.7700E-01
     -5.976  0.0000E+00  0.0000E+00  0.7700E-01  0.7700E-01
     -5.938  0.0000E+00  0.0000E+00  0.7700E-01  0.7700E-01
     -5.901  0.0000E+00  0.0000E+00  0.7700E-01  0.7700E-01
     -5.864  0.0000E+00  0.0000E+00  0.7700E-01  0.7700E-01
     -5.827  0.0000E+00  0.0000E+00  0.7700E-01  0.7700E-01
     -5.789  0.0000E+00  0.0000E+00  0.7800E-01  0.7700E-01
     -5.752  0.0000E+00  0.0000E+00  0.7900E-01  0.7800E-01
     -5.715  0.0000E+00  0.0000E+00  0.7900E-01  0.7800E-01
     -5.678  0.0000E+00  0.0000E+00  0.7900E-01  0.7900E-01
     -5.641  0.0000E+00  0.0000E+00  0.7900E-01  0.7900E-01
     -5.603  0.0000E+00  0.0000E+00  0.7900E-01  0.7900E-01
     -5.566  0.0000E+00  0.0000E+00  0.7900E-01  0.7900E-01
     -5.529  0.0000E+00  0.0000E+00  0.7900E-01  0.7900E-01
     -5.492  0.0000E+00  0.0000E+00  0.7900E-01  0.7900E-01
     -5.454  0.0000E+00  0.0000E+00  0.7900E-01  0.7900E-01
     -5.417  0.0000E+00  0.0000E+00  0.7900E-01  0.7900E-01
     -5.380  0.0000E+00  0.0000E+00  0.7900E-01  0.7900E-01
     -5.343  0.0000E+00  0.0000E+00  0.7900E-01  0.7900E-01
     -5.306  0.0000E+00  0.0000E+00  0.7900E-01  0.7900E-01
     -5.268  0.0000E+00  0.0000E+00  0.7900E-01  0.7900E-01
     -5.231  0.0000E+00  0.0000E+00  0.7900E-01  0.7900E-01
     -5.194  0.0000E+00  0.0000E+00  0.7900E-01  0.7900E-01
     -5.157  0.0000E+00  0.0000E+00  0.7900E-01  0.7900E-01
     -5.119  0.0000E+00  0.0000E+00  0.7900E-01  0.7900E-01
     -5.082  0.0000E+00  0.0000E+00  0.7900E-01  0.7900E-01
     -5.045  0.1578E-01  0.0000E+00  0.7959E-01  0.7900E-01
     -5.008  0.0000E+00  0.0000E+00  0.8000E-01  0.7900E-01
     -4.971  0.0000E+00  0.0000E+00  0.8000E-01  0.7900E-01
     -4.933  0.0000E+00  0.0000E+00  0.8000E-01  0.8000E-01
     -4.896  0.0000E+00  0.0000E+00  0.8000E-01  0.8000E-01
     -4.859  0.0000E+00  0.0000E+00  0.8000E-01  0.8000E-01
     -4.822  0.0000E+00  0.0000E+00  0.8000E-01  0.8000E-01
     -4.784  0.0000E+00  0.0000E+00  0.8000E-01  0.8000E-01
     -4.747  0.0000E+00  0.0000E+00  0.8000E-01  0.8000E-01
     -4.710  0.0000E+00  0.0000E+00  0.8000E-01  0.8000E-01
     -4.673  0.0000E+00  0.0000E+00  0.8000E-01  0.8000E-01
     -4.636  0.0000E+00  0.0000E+00  0.8000E-01  0.8000E-01
     -4.598  0.0000E+00  0.0000E+00  0.8000E-01  0.8000E-01
     -4.561  0.0000E+00  0.0000E+00  0.8000E-01  0.8000E-01
     -4.524  0.0000E+00  0.0000E+00  0.8000E-01  0.8000E-01
     -4.487  0.0000E+00  0.0000E+00  0.8000E-01  0.8000E-01
     -4.449  0.0000E+00  0.0000E+00  0.8000E-01  0.8000E-01
     -4.412  0.0000E+00  0.0000E+00  0.8000E-01  0.8000E-01
     -4.375  0.0000E+00  0.0000E+00  0.8000E-01  0.8000E-01
     -4.338  0.0000E+00  0.0000E+00  0.8000E-01  0.8000E-01
     -4.300  0.0000E+00  0.0000E+00  0.8000E-01  0.8000E-01
     -4.263  0.0000E+00  0.0000E+00  0.8000E-01  0.8000E-01
     -4.226  0.0000E+00  0.0000E+00  0.8000E-01  0.8000E-01
     -4.189  0.0000E+00  0.0000E+00  0.8000E-01  0.8000E-01
     -4.152  0.0000E+00  0.0000E+00  0.8000E-01  0.8000E-01
     -4.114  0.0000E+00  0.0000E+00  0.8000E-01  0.8000E-01
     -4.077  0.0000E+00  0.0000E+00  0.8000E-01  0.8000E-01
     -4.040  0.0000E+00  0.0000E+00  0.8000E-01  0.8000E-01
     -4.003  0.0000E+00  0.0000E+00  0.8100E-01  0.8000E-01
     -3.965  0.0000E+00  0.0000E+00  0.8100E-01  0.8000E-01
     -3.928  0.0000E+00  0.0000E+00  0.8200E-01  0.8100E-01
     -3.891  0.0000E+00  0.0000E+00  0.8200E-01  0.8200E-01
     -3.854  0.0000E+00  0.0000E+00  0.8200E-01  0.8200E-01
     -3.817  0.0000E+00  0.0000E+00  0.8200E-01  0.8200E-01
     -3.779  0.0000E+00  0.0000E+00  0.8200E-01  0.8200E-01
     -3.742  0.0000E+00  0.0000E+00  0.8200E-01  0.8200E-01
     -3.705  0.0000E+00  0.0000E+00  0.8200E-01  0.8200E-01
     -3.668  0.0000E+00  0.0000E+00  0.8200E-01  0.8200E-01
     -3.630  0.0000E+00  0.0000E+00  0.8200E-01  0.8200E-01
     -3.593  0.0000E+00  0.0000E+00  0.8200E-01  0.8200E-01
     -3.556  0.0000E+00  0.0000E+00  0.8200E-01  0.8200E-01
     -3.519  0.0000E+00  0.0000E+00  0.8300E-01  0.8200E-01
     -3.482  0.0000E+00  0.0000E+00  0.8300E-01  0.8200E-01
     -3.444  0.0000E+00  0.0000E+00  0.8300E-01  0.8200E-01
     -3.407  0.0000E+00  0.0000E+00  0.8300E-01  0.8200E-01
     -3.370  0.0000E+00  0.0000E+00  0.8300E-01  0.8300E-01
     -3.333  0.0000E+00  0.0000E+00  0.8300E-01  0.8300E-01
     -3.295  0.0000E+00  0.0000E+00  0.8300E-01  0.8300E-01
     -3.258  0.0000E+00  0.0000E+00  0.8400E-01  0.8300E-01
     -3.221  0.0000E+00  0.0000E+00  0.8400E-01  0.8400E-01
     -3.184  0.0000E+00  0.0000E+00  0.8500E-01  0.8400E-01
     -3.147  0.0000E+00  0.0000E+00  0.8500E-01  0.8500E-01
     -3.109  0.0000E+00  0.0000E+00  0.8500E-01  0.8500E-01
     -3.072  0.0000E+00  0.0000E+00  0.8500E-01  0.8500E-01
     -3.035  0.0000E+00  0.0000E+00  0.8600E-01  0.8500E-01
     -2.998  0.0000E+00  0.0000E+00  0.8600E-01  0.8600E-01
     -2.960  0.0000E+00  0.0000E+00  0.8600E-01  0.8600E-01
     -2.923  0.0000E+00  0.0000E+00  0.8600E-01  0.8600E-01
     -2.886  0.0000E+00  0.0000E+00  0.8600E-01  0.8600E-01
     -2.849  0.0000E+00  0.0000E+00  0.8600E-01  0.8600E-01
     -2.811  0.0000E+00  0.0000E+00  0.8600E-01  0.8600E-01
     -2.774  0.0000E+00  0.0000E+00  0.8600E-01  0.8600E-01
     -2.737  0.0000E+00  0.0000E+00  0.8600E-01  0.8600E-01
     -2.700  0.0000E+00  0.0000E+00  0.8600E-01  0.8600E-01
     -2.663  0.0000E+00  0.0000E+00  0.8600E-01  0.8600E-01
     -2.625  0.0000E+00  0.0000E+00  0.8600E-01  0.8600E-01
     -2.588  0.0000E+00  0.0000E+00  0.8600E-01  0.8600E-01
     -2.551  0.0000E+00  0.0000E+00  0.8600E-01  0.8600E-01
     -2.514  0.0000E+00  0.0000E+00  0.8600E-01  0.8600E-01
     -2.476  0.0000E+00  0.0000E+00  0.8600E-01  0.8600E-01
     -2.439  0.0000E+00  0.0000E+00  0.8600E-01  0.8600E-01
     -2.402  0.0000E+00  0.0000E+00  0.8600E-01  0.8600E-01
     -2.365  0.0000E+00  0.0000E+00  0.8600E-01  0.8600E-01
     -2.328  0.0000E+00  0.0000E+00  0.8600E-01  0.8600E-01
     -2.290  0.0000E+00  0.0000E+00  0.8600E-01  0.8600E-01
     -2.253  0.0000E+00  0.0000E+00  0.8600E-01  0.8600E-01
     -2.216  0.0000E+00  0.0000E+00  0.8600E-01  0.8600E-01
     -2.179  0.0000E+00  0.0000E+00  0.8600E-01  0.8600E-01
     -2.141  0.0000E+00  0.0000E+00  0.8700E-01  0.8600E-01
     -2.104  0.0000E+00  0.0000E+00  0.8700E-01  0.8700E-01
     -2.067  0.0000E+00  0.0000E+00  0.8800E-01  0.8700E-01
     -2.030  0.0000E+00  0.0000E+00  0.8800E-01  0.8700E-01
     -1.993  0.0000E+00  0.0000E+00  0.8800E-01  0.8800E-01
     -1.955  0.0000E+00  0.0000E+00  0.8800E-01  0.8800E-01
     -1.918  0.0000E+00  0.0000E+00  0.8800E-01  0.8800E-01
     -1.881  0.0000E+00  0.0000E+00  0.8800E-01  0.8800E-01
     -1.844  0.0000E+00  0.0000E+00  0.8800E-01  0.8800E-01
     -1.806  0.0000E+00  0.0000E+00  0.8800E-01  0.8800E-01
     -1.769  0.0000E+00  0.0000E+00  0.8800E-01  0.8800E-01
     -1.732  0.0000E+00  0.0000E+00  0.8800E-01  0.8800E-01
     -1.695  0.0000E+00  0.0000E+00  0.8900E-01  0.8800E-01
     -1.657  0.0000E+00  0.0000E+00  0.8900E-01  0.8800E-01
     -1.620  0.0000E+00  0.0000E+00  0.8900E-01  0.8900E-01
     -1.583  0.0000E+00  0.0000E+00  0.8900E-01  0.8900E-01
     -1.546  0.0000E+00  0.0000E+00  0.8900E-01  0.8900E-01
     -1.509  0.0000E+00  0.0000E+00  0.8900E-01  0.8900E-01
     -1.471  0.0000E+00  0.0000E+00  0.9000E-01  0.8900E-01
     -1.434  0.0000E+00  0.0000E+00  0.9100E-01  0.9000E-01
     -1.397  0.0000E+00  0.0000E+00  0.9100E-01  0.9000E-01
     -1.360  0.0000E+00  0.0000E+00  0.9100E-01  0.9100E-01
     -1.322  0.0000E+00  0.0000E+00  0.9200E-01  0.9100E-01
     -1.285  0.0000E+00  0.0000E+00  0.9200E-01  0.9100E-01
     -1.248  0.0000E+00  0.2686E-01  0.9200E-01  0.9200E-01
     -1.211  0.0000E+00  0.0000E+00  0.9200E-01  0.9200E-01
     -1.174  0.0000E+00  0.0000E+00  0.9200E-01  0.9200E-01
     -1.136  0.0000E+00  0.0000E+00  0.9300E-01  0.9200E-01
     -1.099  0.0000E+00  0.0000E+00  0.9300E-01  0.9300E-01
     -1.062  0.0000E+00  0.0000E+00  0.9400E-01  0.9300E-01
     -1.025  0.0000E+00  0.0000E+00  0.9400E-01  0.9300E-01
     -0.987  0.0000E+00  0.0000E+00  0.9400E-01  0.9400E-01
     -0.950  0.0000E+00  0.0000E+00  0.9400E-01  0.9400E-01
     -0.913  0.0000E+00  0.0000E+00  0.9400E-01  0.9400E-01
     -0.876  0.0000E+00  0.0000E+00  0.9400E-01  0.9400E-01
     -0.839  0.0000E+00  0.0000E+00  0.9400E-01  0.9400E-01
     -0.801  0.0000E+00  0.0000E+00  0.9400E-01  0.9400E-01
     -0.764  0.0000E+00  0.0000E+00  0.9600E-01  0.9400E-01
     -0.727  0.0000E+00  0.0000E+00  0.9600E-01  0.9500E-01
     -0.690  0.0000E+00  0.0000E+00  0.9600E-01  0.9600E-01
     -0.652  0.0000E+00  0.0000E+00  0.9600E-01  0.9600E-01
     -0.615  0.0000E+00  0.0000E+00  0.9600E-01  0.9600E-01
     -0.578  0.0000E+00  0.0000E+00  0.9600E-01  0.9600E-01
     -0.541  0.0000E+00  0.0000E+00  0.9700E-01  0.9600E-01
     -0.504  0.0000E+00  0.0000E+00  0.9700E-01  0.9600E-01
     -0.466  0.0000E+00  0.0000E+00  0.9800E-01  0.9600E-01
     -0.429  0.0000E+00  0.0000E+00  0.9800E-01  0.9800E-01
     -0.392  0.0000E+00  0.0000E+00  0.9800E-01  0.9800E-01
     -0.355  0.0000E+00  0.0000E+00  0.9800E-01  0.9800E-01
     -0.317  0.0000E+00  0.0000E+00  0.9800E-01  0.9800E-01
     -0.280  0.0000E+00  0.0000E+00  0.9800E-01  0.9800E-01
     -0.243  0.0000E+00  0.0000E+00  0.9800E-01  0.9800E-01
     -0.206  0.0000E+00  0.0000E+00  0.9800E-01  0.9800E-01
     -0.168  0.0000E+00  0.0000E+00  0.9800E-01  0.9800E-01
     -0.131  0.0000E+00  0.0000E+00  0.9800E-01  0.9800E-01
     -0.094  0.0000E+00  0.0000E+00  0.9900E-01  0.9800E-01
     -0.057  0.0000E+00  0.0000E+00  0.9900E-01  0.9800E-01
     -0.020  0.0000E+00  0.0000E+00  0.9900E-01  0.9800E-01
      0.018  0.0000E+00  0.0000E+00  0.9900E-01  0.9800E-01
      0.055  0.0000E+00  0.0000E+00  0.9900E-01  0.9900E-01
      0.092  0.0000E+00  0.0000E+00  0.9900E-01  0.9900E-01
      0.129  0.0000E+00  0.0000E+00  0.9900E-01  0.9900E-01
      0.167  0.0000E+00  0.0000E+00  0.9900E-01  0.9900E-01
      0.204  0.0000E+00  0.0000E+00  0.9900E-01  0.9900E-01
      0.241  0.0000E+00  0.0000E+00  0.1000E+00  0.9900E-01
      0.278  0.0000E+00  0.0000E+00  0.1000E+00  0.1000E+00
      0.315  0.0000E+00  0.0000E+00  0.1000E+00  0.1000E+00
      0.353  0.0000E+00  0.0000E+00  0.1000E+00  0.1000E+00
      0.390  0.0000E+00  0.0000E+00  0.1000E+00  0.1000E+00
      0.427  0.0000E+00  0.0000E+00  0.1010E+00  0.1000E+00
      0.464  0.0000E+00  0.0000E+00  0.1020E+00  0.1010E+00
      0.502  0.0000E+00  0.0000E+00  0.1030E+00  0.1020E+00
      0.539  0.0000E+00  0.2686E-01  0.1030E+00  0.1030E+00
      0.576  0.0000E+00  0.0000E+00  0.1040E+00  0.1030E+00
      0.613  0.0000E+00  0.0000E+00  0.1050E+00  0.1040E+00
      0.650  0.0000E+00  0.0000E+00  0.1050E+00  0.1050E+00
      0.688  0.0000E+00  0.0000E+00  0.1060E+00  0.1050E+00
      0.725  0.0000E+00  0.0000E+00  0.1080E+00  0.1070E+00
      0.762  0.0000E+00  0.0000E+00  0.1080E+00  0.1080E+00
      0.799  0.0000E+00  0.0000E+00  0.1080E+00  0.1080E+00
      0.837  0.0000E+00  0.0000E+00  0.1080E+00  0.1080E+00
      0.874  0.0000E+00  0.0000E+00  0.1080E+00  0.1080E+00
      0.911  0.0000E+00  0.0000E+00  0.1080E+00  0.1080E+00
      0.948  0.0000E+00  0.0000E+00  0.1080E+00  0.1080E+00
      0.985  0.0000E+00  0.0000E+00  0.1080E+00  0.1080E+00
      1.023  0.0000E+00  0.0000E+00  0.1080E+00  0.1080E+00
      1.060  0.0000E+00  0.0000E+00  0.1080E+00  0.1080E+00
      1.097  0.0000E+00  0.0000E+00  0.1080E+00  0.1080E+00
      1.134  0.0000E+00  0.0000E+00  0.1080E+00  0.1080E+00
      1.172  0.0000E+00  0.0000E+00  0.1080E+00  0.1080E+00
      1.209  0.0000E+00  0.0000E+00  0.1080E+00  0.1080E+00
      1.246  0.0000E+00  0.0000E+00  0.1080E+00  0.1080E+00
