unknown system                          
           1
    21.434872    0.000000    0.000000
     0.000000   21.434872    0.000000
     0.000000    0.000000   21.434872
   Ag
  22
Direct configuration=     1
   0.38676634  0.44068507  0.50000000
   0.50001209  0.48350408  0.56623380
   0.49997574  0.49031826  0.30324417
   0.49999459  0.36549227  0.50000000
   0.43012126  0.38950809  0.37954470
   0.43012126  0.38950809  0.62045530
   0.56984180  0.38945477  0.37955879
   0.56984180  0.38945477  0.62044121
   0.61760761  0.52046581  0.61192607
   0.50003308  0.60527052  0.61508774
   0.38239240  0.52048401  0.61190508
   0.56901222  0.58298734  0.50000000
   0.43099492  0.58298366  0.50000000
   0.50001209  0.48350408  0.43376620
   0.38239240  0.52048401  0.38809492
   0.61324369  0.44073158  0.50000000
   0.50003308  0.60527052  0.38491226
   0.61760761  0.52046581  0.38807393
   0.49998171  0.69267519  0.50000000
   0.69212618  0.54819590  0.50000000
   0.30791241  0.54823794  0.50000000
   0.49997574  0.49031826  0.69675583
Direct configuration=     2
   0.38687337  0.44076904  0.50000000
   0.50001164  0.48349712  0.56625593
   0.49997597  0.49030461  0.30337316
   0.49999482  0.36565418  0.50000000
   0.43019176  0.38963158  0.37964163
   0.43019176  0.38963158  0.62035837
   0.56977179  0.38957893  0.37965582
   0.56977179  0.38957893  0.62034418
   0.61751797  0.52043566  0.61178603
   0.50003257  0.60514693  0.61499986
   0.38248222  0.52045372  0.61176513
   0.56896478  0.58290729  0.50000000
   0.43104355  0.58290379  0.50000000
   0.50001164  0.48349712  0.43374407
   0.38248222  0.52045372  0.38823487
   0.61313608  0.44081390  0.50000000
   0.50003257  0.60514693  0.38500014
   0.61751797  0.52043566  0.38821397
   0.49998210  0.69252816  0.50000000
   0.69196774  0.54814268  0.50000000
   0.30806974  0.54818384  0.50000000
   0.49997597  0.49030461  0.69662684
Direct configuration=     3
   0.38719444  0.44102094  0.50000000
   0.50001031  0.48347624  0.56632233
   0.49997664  0.49026367  0.30376011
   0.49999553  0.36613991  0.50000000
   0.43040326  0.39000205  0.37993242
   0.43040326  0.39000205  0.62006758
   0.56956176  0.38995144  0.37994691
   0.56956176  0.38995144  0.62005309
   0.61724906  0.52034521  0.61136589
   0.50003102  0.60477618  0.61473623
   0.38275169  0.52036287  0.61134527
   0.56882246  0.58266714  0.50000000
   0.43118944  0.58266421  0.50000000
   0.50001031  0.48347624  0.43367767
   0.38275169  0.52036287  0.38865473
   0.61281325  0.44106087  0.50000000
   0.50003102  0.60477618  0.38526377
   0.61724906  0.52034521  0.38863411
   0.49998326  0.69208705  0.50000000
   0.69149241  0.54798300  0.50000000
   0.30854172  0.54802156  0.50000000
   0.49997664  0.49026367  0.69623989
Direct configuration=     4
   0.38783660  0.44152473  0.50000000
   0.50000765  0.48343449  0.56645513
   0.49997800  0.49018179  0.30453402
   0.49999694  0.36711137  0.50000000
   0.43082627  0.39074299  0.38051400
   0.43082627  0.39074299  0.61948600
   0.56914170  0.39069646  0.38052909
   0.56914170  0.39069646  0.61947091
   0.61671123  0.52016431  0.61052563
   0.50002794  0.60403466  0.61420897
   0.38329062  0.52018116  0.61050557
   0.56853782  0.58218685  0.50000000
   0.43148122  0.58218503  0.50000000
   0.50000765  0.48343449  0.43354487
   0.38329062  0.52018116  0.38949443
   0.61216758  0.44155480  0.50000000
   0.50002794  0.60403466  0.38579103
   0.61671123  0.52016431  0.38947437
   0.49998557  0.69120484  0.50000000
   0.69054177  0.54766364  0.50000000
   0.30948570  0.54769698  0.50000000
   0.49997800  0.49018179  0.69546598
Direct configuration=     5
   0.38912090  0.44253233  0.50000000
   0.50000232  0.48335098  0.56672073
   0.49998070  0.49001804  0.30608183
   0.49999975  0.36905429  0.50000000
   0.43167228  0.39222488  0.38167717
   0.43167228  0.39222488  0.61832283
   0.56830158  0.39218649  0.38169346
   0.56830158  0.39218649  0.61830654
   0.61563558  0.51980251  0.60884510
   0.50002177  0.60255164  0.61315445
   0.38436850  0.51981775  0.60882615
   0.56796853  0.58122626  0.50000000
   0.43206478  0.58122668  0.50000000
   0.50000232  0.48335098  0.43327927
   0.38436850  0.51981775  0.39117385
   0.61087624  0.44254267  0.50000000
   0.50002177  0.60255164  0.38684555
   0.61563558  0.51980251  0.39115490
   0.49999020  0.68944042  0.50000000
   0.68864048  0.54702493  0.50000000
   0.31137365  0.54704784  0.50000000
   0.49998070  0.49001804  0.69391817
Direct configuration=     6
   0.38876583  0.44225376  0.50000000
   0.50000380  0.48337407  0.56664730
   0.49997995  0.49006331  0.30565391
   0.49999897  0.36851713  0.50000000
   0.43143838  0.39181518  0.38135559
   0.43143838  0.39181518  0.61864441
   0.56853385  0.39177454  0.38137154
   0.56853385  0.39177454  0.61862846
   0.61593296  0.51990254  0.60930972
   0.50002348  0.60296166  0.61344600
   0.38407050  0.51991822  0.60929046
   0.56812592  0.58149184  0.50000000
   0.43190344  0.58149164  0.50000000
   0.50000380  0.48337407  0.43335270
   0.38407050  0.51991822  0.39070954
   0.61123326  0.44226955  0.50000000
   0.50002348  0.60296166  0.38655400
   0.61593296  0.51990254  0.39069028
   0.49998892  0.68992823  0.50000000
   0.68916613  0.54720152  0.50000000
   0.31085168  0.54722731  0.50000000
   0.49997995  0.49006331  0.69434609
Direct configuration=     7
   0.38903176  0.44223535  0.50000000
   0.50000390  0.48365465  0.56615058
   0.49998127  0.49004368  0.30581331
   0.49999863  0.36867181  0.50000000
   0.43131790  0.39178679  0.38140491
   0.43131790  0.39178679  0.61859509
   0.56865582  0.39174937  0.38142043
   0.56865582  0.39174937  0.61857957
   0.61596687  0.51995473  0.60920168
   0.50002203  0.60290926  0.61335441
   0.38403603  0.51997104  0.60918451
   0.56791356  0.58140027  0.50000000
   0.43211387  0.58139912  0.50000000
   0.50000390  0.48365465  0.43384942
   0.38403603  0.51997104  0.39081549
   0.61096600  0.44224685  0.50000000
   0.50002203  0.60290926  0.38664559
   0.61596687  0.51995473  0.39079832
   0.49999121  0.68960491  0.50000000
   0.68909637  0.54713921  0.50000000
   0.31092096  0.54716346  0.50000000
   0.49998127  0.49004368  0.69418669
Direct configuration=     8
   0.38932247  0.44221522  0.50000000
   0.50000401  0.48396136  0.56560759
   0.49998272  0.49002221  0.30598756
   0.49999826  0.36884091  0.50000000
   0.43118618  0.39175576  0.38145884
   0.43118618  0.39175576  0.61854116
   0.56878915  0.39172187  0.38147387
   0.56878915  0.39172187  0.61852613
   0.61600392  0.52001178  0.60908358
   0.50002045  0.60285198  0.61325430
   0.38399836  0.52002877  0.60906868
   0.56768142  0.58130018  0.50000000
   0.43234390  0.58129797  0.50000000
   0.50000401  0.48396136  0.43439241
   0.38399836  0.52002877  0.39093132
   0.61067384  0.44222203  0.50000000
   0.50002045  0.60285198  0.38674570
   0.61600392  0.52001178  0.39091642
   0.49999372  0.68925148  0.50000000
   0.68902010  0.54707111  0.50000000
   0.31099669  0.54709366  0.50000000
   0.49998272  0.49002221  0.69401244
Direct configuration=     9
   0.38939659  0.44213008  0.50000000
   0.50000350  0.48396270  0.56557858
   0.49998401  0.48999281  0.30619388
   0.49999739  0.36878936  0.50000000
   0.43114475  0.39179084  0.38151673
   0.43114475  0.39179084  0.61848327
   0.56883218  0.39175934  0.38153067
   0.56883218  0.39175934  0.61846933
   0.61607146  0.52006206  0.60907872
   0.50001913  0.60291975  0.61330260
   0.38393071  0.52007922  0.60906600
   0.56775688  0.58129521  0.50000000
   0.43226656  0.58129291  0.50000000
   0.50000350  0.48396270  0.43442142
   0.38393071  0.52007922  0.39093400
   0.61059998  0.44213433  0.50000000
   0.50001913  0.60291975  0.38669740
   0.61607146  0.52006206  0.39092128
   0.49999556  0.68913927  0.50000000
   0.68899821  0.54703177  0.50000000
   0.31101736  0.54705364  0.50000000
   0.49998401  0.48999281  0.69380612
Direct configuration=    10
   0.38957075  0.44193000  0.50000000
   0.50000228  0.48396587  0.56551040
   0.49998704  0.48992372  0.30667873
   0.49999533  0.36866821  0.50000000
   0.43104739  0.39187329  0.38165277
   0.43104739  0.39187329  0.61834723
   0.56893329  0.39184740  0.38166414
   0.56893329  0.39184740  0.61833586
   0.61623018  0.52018021  0.60906731
   0.50001604  0.60307900  0.61341610
   0.38377173  0.52019775  0.60905969
   0.56793421  0.58128352  0.50000000
   0.43208482  0.58128102  0.50000000
   0.50000228  0.48396587  0.43448960
   0.38377173  0.52019775  0.39094031
   0.61042641  0.44192825  0.50000000
   0.50001604  0.60307900  0.38658390
   0.61623018  0.52018021  0.39093269
   0.49999989  0.68887561  0.50000000
   0.68894677  0.54693932  0.50000000
   0.31106592  0.54695959  0.50000000
   0.49998704  0.48992372  0.69332127
Direct configuration=    11
   0.38953813  0.44192209  0.50000000
   0.50000193  0.48407665  0.56548742
   0.49998852  0.48991086  0.30678713
   0.49999484  0.36856416  0.50000000
   0.43100522  0.39188695  0.38168455
   0.43100522  0.39188695  0.61831545
   0.56897683  0.39186315  0.38169481
   0.56897683  0.39186315  0.61830519
   0.61625592  0.52020949  0.60903879
   0.50001472  0.60308285  0.61339545
   0.38374600  0.52022649  0.60903280
   0.56789358  0.58127357  0.50000000
   0.43212415  0.58127249  0.50000000
   0.50000193  0.48407665  0.43451258
   0.38374600  0.52022649  0.39096720
   0.61045886  0.44191854  0.50000000
   0.50001472  0.60308285  0.38660455
   0.61625592  0.52020949  0.39096121
   0.50000108  0.68881218  0.50000000
   0.68900173  0.54685225  0.50000000
   0.31100936  0.54687183  0.50000000
   0.49998852  0.48991086  0.69321287
Direct configuration=    12
   0.38951464  0.44191638  0.50000000
   0.50000167  0.48415646  0.56547087
   0.49998959  0.48990160  0.30686523
   0.49999448  0.36848920  0.50000000
   0.43097485  0.39189679  0.38170744
   0.43097485  0.39189679  0.61829256
   0.56900820  0.39187450  0.38171690
   0.56900820  0.39187450  0.61828310
   0.61627446  0.52023059  0.60901824
   0.50001376  0.60308563  0.61338057
   0.38372746  0.52024719  0.60901343
   0.56786430  0.58126641  0.50000000
   0.43215249  0.58126634  0.50000000
   0.50000167  0.48415646  0.43452913
   0.38372746  0.52024719  0.39098657
   0.61048224  0.44191155  0.50000000
   0.50001376  0.60308563  0.38661943
   0.61627446  0.52023059  0.39098176
   0.50000193  0.68876649  0.50000000
   0.68904133  0.54678952  0.50000000
   0.31096862  0.54680861  0.50000000
   0.49998959  0.48990160  0.69313477
