29
Energy = -59.79773236 eV
Ag 11.110395908419926 9.017222591843709 8.833077532675844
Ag 12.291090076256422 9.056054098720404 11.448946973628209
Ag 8.631307417084585 8.060502241106082 9.944605230070149
Ag 9.722997198614433 10.44018826125373 10.87964843171033
Ag 15.601899773865158 12.846461189680785 13.335647564055861
Ag 12.797744539999865 13.174468077078137 8.590261835641785
Ag 8.412038440428494 8.888712334609473 12.818011562306742
Ag 13.0741837385615 9.12294601332402 14.190251599177516
Ag 10.875383826953428 7.5732871838328535 13.30867360866233
Ag 6.91075242131625 10.232536439993199 10.832491180712744
Ag 14.531581915336256 10.548503299964086 12.180432751473893
Ag 15.584824939988467 15.206360223206842 11.78532777470887
Ag 10.68829055494243 13.32861895108339 13.403310432017628
Ag 8.557655970339786 14.56306745010921 12.109380132224905
Ag 13.036120098056562 11.913535502854739 14.166432470048031
Ag 13.096418664300488 15.192778081841121 10.42968712237873
Ag 10.666353924010796 10.48224034336135 13.595049672987004
Ag 13.259113108016809 14.470627338396568 13.137113672603892
Ag 8.850407285066533 6.214214075419363 12.095506795775666
Ag 11.01943913792596 15.90407754908469 12.224722518607726
Ag 8.258591211185724 11.825175896049574 12.833116053934413
Ag 8.087547111445632 12.630027327167415 10.109810027998373
Ag 10.506264550154517 14.162386559483895 10.117022723939005
Ag 12.0538231651855 11.999777137956118 11.318487455193404
Ag 14.727592744724411 12.881234736102135 10.630604626059531
Ag 10.373271820509398 11.81107025801925 8.609443785821586
Ag 11.04689909560765 6.758098259422767 10.482360421894041
Ag 13.544034364667068 10.543746775228515 9.435991638217798
Ag 12.353358749910274 10.82716592659316 6.978868069589354
