12
Energy = -21.24520155 eV
Tl 10.38724541666758 13.1607036022576 8.13171880315144
Tl 10.842316016855863 10.208041774826045 9.088454684806077
Tl 11.486953333947074 9.435418214348731 12.120892381568451
Tl 13.694737570592412 11.384683337556819 9.780420880130634
Tl 13.194688909954536 14.195880481233644 8.883036856054613
Tl 10.98600234822545 12.745075133842695 11.418465374828234
Tl 13.767675310976935 14.68294965663258 11.999783058678844
Tl 13.983113659323516 11.329529411202689 12.818296658301646
Tl 9.313482367041086 11.369538365817856 13.576900058941163
Tl 12.271395670596407 9.802796167448784 15.106609848448437
Tl 11.950900968563998 13.247440724268428 14.391014060304101
Tl 10.368631905755812 11.72168979702148 16.8141593442556
