3
Energy = -3.13660506 eV
Tl 6.110671543766688 6.390406544405011 7.5553105
Tl 7.307309549245074 9.464737155369779 7.5553105
Tl 9.247950666435273 6.810787800225211 7.5553105
