5
Energy = -6.94955533 eV
Tl 7.355342517844019 8.837023544274597 9.741076622386217
Tl 13.092157407595872 12.370790919644765 11.259573692657618
Tl 10.312897056294972 12.342424583256985 12.556957296018796
Tl 12.56000024017457 10.061267481825578 9.313827866422972
Tl 9.941665982908152 10.033210002050492 10.724571504900277
