   25   25 1000    2
  0.3040152E+03  0.1966128E-08  0.1966128E-08  0.1966128E-08  0.1000000E-15
  1.000000000000000E-004
  CAR 
 unknown system                          
    275      1    180
 
  0.0000000E+00  0.0000000E+00  0.0000000E+00  0.1000000E+01
    1       -9.357506     -9.343989
    2       -9.037004     -9.028946
    3       -8.994853     -8.983081
    4       -8.944644     -8.934977
    5       -8.892609     -8.877940
    6       -8.857825     -8.852673
    7       -8.787717     -8.777823
    8       -8.748975     -8.737374
    9       -8.705653     -8.686072
   10       -8.688614     -8.675273
   11       -8.637956     -8.628526
   12       -8.594826     -8.585346
   13       -8.560713     -8.550110
   14       -8.522142     -8.510118
   15       -8.457681     -8.445144
   16       -8.412344     -8.402658
   17       -8.394736     -8.384617
   18       -8.373606     -8.363208
   19       -8.343825     -8.332317
   20       -8.308237     -8.296312
   21       -8.276383     -8.264797
   22       -8.249705     -8.238498
   23       -8.234025     -8.221898
   24       -8.216560     -8.201202
   25       -8.202447     -8.190424
   26       -8.173511     -8.161644
   27       -8.141156     -8.126186
   28       -8.132758     -8.116504
   29       -8.083395     -8.069693
   30       -8.070893     -8.058470
   31       -8.060773     -8.046825
   32       -8.035935     -8.025349
   33       -8.021694     -8.013137
   34       -7.990047     -7.977601
   35       -7.945931     -7.932285
   36       -7.934277     -7.923443
   37       -7.895012     -7.885200
   38       -7.862325     -7.852487
   39       -7.851834     -7.835172
   40       -7.813182     -7.801231
   41       -7.801622     -7.787643
   42       -7.760721     -7.745525
   43       -7.750267     -7.740742
   44       -7.724919     -7.713820
   45       -7.702030     -7.687593
   46       -7.658333     -7.644227
   47       -7.632145     -7.617817
   48       -7.613446     -7.601395
   49       -7.600869     -7.589853
   50       -7.591566     -7.575572
   51       -7.581331     -7.568519
   52       -7.550261     -7.539856
   53       -7.493808     -7.482399
   54       -7.467783     -7.457633
   55       -7.392101     -7.380430
   56       -7.378762     -7.369364
   57       -7.359747     -7.346665
   58       -7.328027     -7.316152
   59       -7.294386     -7.284805
   60       -7.273976     -7.262331
   61       -7.265497     -7.252399
   62       -7.250627     -7.241531
   63       -7.221647     -7.210352
   64       -7.186489     -7.174470
   65       -7.148475     -7.139088
   66       -7.120631     -7.112396
   67       -7.095855     -7.087342
   68       -7.086126     -7.077618
   69       -7.075433     -7.066581
   70       -7.059763     -7.048418
   71       -7.021685     -7.011597
   72       -7.005500     -6.995878
   73       -6.971067     -6.961442
   74       -6.957153     -6.948450
   75       -6.950785     -6.940802
   76       -6.914991     -6.905397
   77       -6.904990     -6.896556
   78       -6.896316     -6.885179
   79       -6.885876     -6.876921
   80       -6.877342     -6.869701
   81       -6.858793     -6.850899
   82       -6.853706     -6.846620
   83       -6.840161     -6.832047
   84       -6.813532     -6.804646
   85       -6.803141     -6.795406
   86       -6.799210     -6.790096
   87       -6.768352     -6.760140
   88       -6.758900     -6.748200
   89       -6.746531     -6.734177
   90       -6.729166     -6.715515
   91       -6.718895     -6.709957
   92       -6.712275     -6.702379
   93       -6.690188     -6.679813
   94       -6.677168     -6.667922
   95       -6.652759     -6.644545
   96       -6.644048     -6.634297
   97       -6.615796     -6.604678
   98       -6.590722     -6.579976
   99       -6.586468     -6.572490
  100       -6.576525     -6.567475
  101       -6.558649     -6.548576
  102       -6.544330     -6.536807
  103       -6.527693     -6.519189
  104       -6.507655     -6.499587
  105       -6.490718     -6.477402
  106       -6.480141     -6.470397
  107       -6.463863     -6.456196
  108       -6.442154     -6.434483
  109       -6.428541     -6.419924
  110       -6.423175     -6.413004
  111       -6.413855     -6.402947
  112       -6.386303     -6.374064
  113       -6.374636     -6.362113
  114       -6.362400     -6.351200
  115       -6.349171     -6.336984
  116       -6.338850     -6.327437
  117       -6.313840     -6.303520
  118       -6.301369     -6.288491
  119       -6.276273     -6.266074
  120       -6.271575     -6.261704
  121       -6.252718     -6.240175
  122       -6.233245     -6.222798
  123       -6.210211     -6.197948
  124       -6.172996     -6.165258
  125       -6.151042     -6.141284
  126       -6.133638     -6.112230
  127       -6.091736     -6.078894
  128       -6.065639     -6.053391
  129       -6.002544     -5.995677
  130       -5.351813     -5.323389
  131       -5.231898     -5.207560
  132       -4.790989     -4.755147
  133       -4.759506     -4.699368
  134       -4.441994     -4.402954
  135       -4.328070     -4.300352
  136       -3.871310     -3.843963
  137       -3.389637     -3.363413
  138       -3.028925     -2.917834
  139       -2.945575     -2.892958
  140       -2.885524     -2.856868
  141       -2.666105     -2.632506
  142       -2.465163     -2.440074
  143       -2.392691     -2.341276
  144       -2.242204     -2.204094
  145       -2.115618     -2.077541
  146       -1.790826     -1.758204
  147       -1.436780     -1.398528
  148       -1.387454     -1.358854
  149       -1.228645     -1.179610
  150       -1.122391     -1.064598
  151       -1.064258     -1.035481
  152       -0.880415     -0.845431
  153       -0.865155     -0.817725
  154       -0.788016     -0.723247
  155       -0.701160     -0.655296
  156       -0.564052     -0.533450
  157       -0.487428     -0.442794
  158       -0.402639     -0.372149
  159       -0.240970     -0.209713
  160       -0.143373     -0.113654
  161       -0.020668      0.026703
  162        0.204504      0.240415
  163        0.371815      0.398553
  164        0.509782      0.544293
  165        0.606534      0.641038
  166        0.693907      0.723074
  167        0.733933      0.780762
  168        0.754665      0.824867
  169        0.855591      0.899769
  170        0.888400      0.911562
  171        0.909267      0.937044
  172        0.935115      0.971123
  173        0.957451      0.981962
  174        1.049471      1.078496
  175        1.107674      1.134356
  176        1.145257      1.176718
  177        1.188904      1.226743
  178        1.214423      1.247630
  179        1.245983      1.293818
  180        1.256411      1.296049
