 vasp.5.3.5 31Mar14 (build Feb 01 2018 12:10:03) gamma-only                     
  
 executed on             LinuxIFC date 2019.03.23  00:49:06
 running on   64 total cores
 distrk:  each k-point on   64 cores,    1 groups
 distr:  one band on NCORES_PER_BAND=  16 cores,    4 groups


--------------------------------------------------------------------------------------------------------


 INCAR:
 POTCAR:    PAW_PBE Ag 02Apr2005                  
 POTCAR:    PAW_PBE Ag 02Apr2005                  
   VRHFIN =Ag : s1 d10                                                          
   LEXCH  = PE                                                                  
   EATOM  =  1037.2675 eV,   76.2370 Ry                                         
                                                                                
   TITEL  = PAW_PBE Ag 02Apr2005                                                
   LULTRA =        F    use ultrasoft PP ?                                      
   IUNSCR =        1    unscreen: 0-lin 1-nonlin 2-no                           
   RPACOR =    2.000    partial core radius                                     
   POMASS =  107.868; ZVAL   =   11.000    mass and valenz                      
   RCORE  =    2.500    outmost cutoff radius                                   
   RWIGS  =    2.840; RWIGS  =    1.503    wigner-seitz radius (au A)           
   ENMAX  =  249.844; ENMIN  =  187.383 eV                                      
   ICORE  =        3    local potential                                         
   LCOR   =        T    correct aug charges                                     
   LPAW   =        T    paw PP                                                  
   EAUG   =  412.496                                                            
   DEXC   =    0.000                                                            
   RMAX   =    2.560    core radius for proj-oper                               
   RAUG   =    1.300    factor for augmentation sphere                          
   RDEP   =    2.576    radius for radial grids                                 
   RDEPT  =    2.072    core radius for aug-charge                              
                                                                                
   Atomic configuration                                                         
   12 entries                                                                   
     n  l   j            E        occ.                                          
     1  0  0.50    -25324.9161   2.0000                                         
     2  0  0.50     -3728.5341   2.0000                                         
     2  1  1.50     -3344.0404   6.0000                                         
     3  0  0.50      -683.5581   2.0000                                         
     3  1  1.50      -557.3225   6.0000                                         
     3  2  2.50      -358.3853  10.0000                                         
     4  0  0.50       -95.0341   2.0000                                         
     4  1  1.50       -58.5511   6.0000                                         
     4  2  2.50        -7.4440  10.0000                                         
     5  0  0.50        -4.4045   1.0000                                         
     5  1  0.50        -1.3606   0.0000                                         
     4  3  2.50        -1.3606   0.0000                                         
   Description                                                                  
     l       E           TYP  RCUT    TYP  RCUT                                 
     2     -7.4439781     23  2.400                                             
     2     -8.8045607     23  2.400                                             
     0     -4.4044681     23  2.400                                             
     0      1.9520038     23  2.400                                             
     1     -1.3605826     23  2.500                                             
     1     27.2116520     23  2.500                                             
     3     -4.0817478     23  2.400                                             
  local pseudopotential read in
  partial core-charges read in
  partial kinetic energy density read in
  atomic valenz-charges read in
  non local Contribution for L=           2  read in
    real space projection operators read in
  non local Contribution for L=           2  read in
    real space projection operators read in
  non local Contribution for L=           0  read in
    real space projection operators read in
  non local Contribution for L=           0  read in
    real space projection operators read in
  non local Contribution for L=           1  read in
    real space projection operators read in
  non local Contribution for L=           1  read in
    real space projection operators read in
    PAW grid and wavefunctions read in
 
   number of l-projection  operators is LMAX  =           6
   number of lm-projection operators is LMMAX =          18
 

 ----------------------------------------------------------------------------- 
|                                                                             |
|  ADVICE TO THIS USER RUNNING 'VASP/VAMP'   (HEAR YOUR MASTER'S VOICE ...):  |
|                                                                             |
|      You have a (more or less) 'large supercell' and for larger cells       |
|      it might be more efficient to use real space projection opertators     |
|      So try LREAL= Auto  in the INCAR   file.                               |
|      Mind: At the moment your POTCAR file does not contain real space       |
|       projectors, and has to be modified,  BUT if you                       |
|      want to do an extremely  accurate calculation you might also keep the  |
|      reciprocal projection scheme          (i.e. LREAL=.FALSE.)             |
|                                                                             |
 ----------------------------------------------------------------------------- 

  PAW_PBE Ag 02Apr2005                  :
 energy of atom  1       EATOM=-1037.2675
 kinetic energy error for atom=    0.0689 (will be added to EATOM!!)
 
 
 POSCAR: Al34, -106.98831223 <s> Ag </s>         
  positions in direct lattice
  No initial velocities read in
 exchange correlation table for  LEXCH =        8
   RHO(1)=    0.500       N(1)  =     2000
   RHO(2)=  100.500       N(2)  =     4000
 


--------------------------------------------------------------------------------------------------------


 ion  position               nearest neighbor table
   1  0.633  0.558  0.286-   3 2.75   6 2.79   9 2.86   2 2.88
   2  0.526  0.487  0.321-   8 2.74   3 2.83   6 2.84   1 2.88  11 2.91  14 2.92   5 3.06
   3  0.528  0.618  0.325-   4 2.69   5 2.70   1 2.75   2 2.83   9 2.83  11 3.07
   4  0.505  0.669  0.437-   3 2.69  13 2.71   7 2.76  11 2.84  10 2.97   9 3.06   5 3.12  20 3.37

   5  0.423  0.569  0.373-   3 2.70  12 2.71   7 2.76  11 2.84   8 2.97   2 3.06   4 3.12  15 3.37

   6  0.636  0.485  0.392-  17 2.77  14 2.77   1 2.79   2 2.84  11 2.84  21 2.85   9 2.85
   7  0.404  0.613  0.491-   4 2.76   5 2.76  18 2.76  22 2.76  15 2.91  20 2.92  12 2.96  13 2.96
                            11 3.29
   8  0.427  0.432  0.377-  16 2.74   2 2.74  14 2.78  15 2.88  19 2.96   5 2.97  12 3.17  11 3.54

   9  0.632  0.617  0.404-  10 2.73   3 2.83   6 2.85   1 2.86  11 2.91  17 2.92   4 3.06
  10  0.612  0.658  0.522-  24 2.73   9 2.73  17 2.79  20 2.88  27 2.96   4 2.97  13 3.17  11 3.53

  11  0.529  0.541  0.444-  15 2.83  20 2.83   4 2.84   5 2.84   6 2.84   9 2.91   2 2.91  14 2.92
                            17 2.92  23 2.98   3 3.07   7 3.29  10 3.53   8 3.54
  12  0.323  0.521  0.430-   5 2.71  16 2.75  18 2.78  15 2.84   7 2.96   8 3.17
  13  0.479  0.710  0.552-   4 2.71  24 2.75  22 2.77  20 2.84   7 2.96  10 3.17
  14  0.542  0.407  0.429-  21 2.77   6 2.77  19 2.78   8 2.78  23 2.92  11 2.92   2 2.92  26 2.93
                            15 3.34
  15  0.427  0.481  0.501-  18 2.82  23 2.83  11 2.83  25 2.84  12 2.84  19 2.88   8 2.88   7 2.91
                            28 2.92  16 3.03  20 3.20  29 3.34  14 3.34   5 3.37
  16  0.329  0.396  0.449-  19 2.73   8 2.74  12 2.75  25 2.75  15 3.03
  17  0.646  0.534  0.510-   6 2.77  21 2.77  27 2.78  10 2.79  23 2.92  11 2.92   9 2.92  30 2.93
                            20 3.35
  18  0.325  0.539  0.557-   7 2.76  28 2.77  12 2.78  25 2.78  15 2.82  22 2.91
  19  0.441  0.350  0.485-  16 2.73  26 2.74  14 2.78  15 2.88   8 2.96  29 2.98  25 3.18  23 3.55

  20  0.511  0.583  0.567-  22 2.82  23 2.82  11 2.83  31 2.84  13 2.84  10 2.88  27 2.88   7 2.92
                            28 2.92  24 3.02  15 3.20  33 3.33  17 3.35   4 3.37
  21  0.650  0.407  0.497-  14 2.77  17 2.77  32 2.81  23 2.83  26 2.84  30 2.85   6 2.85
  22  0.401  0.632  0.617-   7 2.76  28 2.76  13 2.77  31 2.78  20 2.82  18 2.91
  23  0.544  0.458  0.554-  20 2.82  15 2.83  33 2.83  21 2.83  29 2.83  26 2.91  30 2.91  17 2.92
                            14 2.92  11 2.98  34 3.06  28 3.32  27 3.54  19 3.55
  24  0.571  0.688  0.637-  10 2.73  27 2.73  13 2.75  31 2.76  20 3.02
  25  0.342  0.413  0.574-  29 2.71  16 2.75  18 2.78  15 2.84  28 2.96  19 3.18
  26  0.555  0.325  0.536-  19 2.74  34 2.83  21 2.84  32 2.89  23 2.91  14 2.93  29 3.06
  27  0.628  0.576  0.630-  24 2.73  30 2.74  17 2.78  20 2.88  10 2.96  33 2.97  31 3.20  23 3.54

  28  0.422  0.507  0.633-  29 2.76  22 2.76  18 2.77  33 2.77  20 2.92  15 2.92  25 2.96  31 2.96
                            23 3.32
  29  0.456  0.385  0.618-  34 2.70  25 2.71  28 2.76  23 2.83  19 2.98  26 3.06  33 3.12  15 3.34

  30  0.662  0.454  0.619-  27 2.74  34 2.83  21 2.85  32 2.89  23 2.91  17 2.93  33 3.06
  31  0.498  0.602  0.696-  33 2.71  24 2.76  22 2.78  20 2.84  28 2.96  27 3.20
  32  0.675  0.324  0.593-  34 2.77  21 2.81  26 2.89  30 2.89
  33  0.539  0.485  0.681-  34 2.70  31 2.71  28 2.77  23 2.83  27 2.97  30 3.06  29 3.12  20 3.33

  34  0.573  0.367  0.658-  29 2.70  33 2.70  32 2.77  26 2.83  30 2.83  23 3.06
 
  LATTYP: Found a simple cubic cell.
 ALAT       =    21.6511899409
  
  Lattice vectors:
  
 A1 = (  21.6511899409,   0.0000000000,   0.0000000000)
 A2 = (   0.0000000000,  21.6511899409,   0.0000000000)
 A3 = (   0.0000000000,   0.0000000000,  21.6511899409)


Analysis of symmetry for initial positions (statically):
=====================================================================
 Subroutine PRICEL returns:
 Original cell was already a primitive cell.
 

 Routine SETGRP: Setting up the symmetry group for a 
 simple cubic supercell.


 Subroutine GETGRP returns: Found  1 space group operations
 (whereof  1 operations were pure point group operations)
 out of a pool of 48 trial point group operations.


The static configuration has the point symmetry C_1 .


Analysis of symmetry for dynamics (positions and initial velocities):
=====================================================================
 Subroutine PRICEL returns:
 Original cell was already a primitive cell.
 

 Routine SETGRP: Setting up the symmetry group for a 
 simple cubic supercell.


 Subroutine GETGRP returns: Found  1 space group operations
 (whereof  1 operations were pure point group operations)
 out of a pool of 48 trial point group operations.


The dynamic configuration has the point symmetry C_1 .


Analysis of magnetic symmetry:
=====================================================================
 Subroutine PRICEL returns:
 Original cell was already a primitive cell.
 

 Subroutine MAGSYM returns: Found  1 space group operations
 (whereof  1 operations were pure point group operations)
 out of a pool of  1 trial space group operations
 (whereof  1 operations were pure point group operations)
 and found also     1 'primitive' translations


The magnetic configuration has the point symmetry C_1 .
 
 
 KPOINTS: Gamma-point only                        
  k-points in reciprocal lattice
Space group operators:
 irot       det(A)        alpha          n_x          n_y          n_z        tau_x        tau_y        tau_z
    1     1.000000     0.000000     1.000000     0.000000     0.000000     0.000000     0.000000     0.000000


--------------------------------------------------------------------------------------------------------




 Dimension of arrays:
   k-points           NKPTS =      1   k-points in BZ     NKDIM =      1   number of bands    NBANDS=    244
   number of dos      NEDOS =    301   number of ions     NIONS =     34
   non local maximal  LDIM  =      6   non local SUM 2l+1 LMDIM =     18
   total plane-waves  NPLWV = 592704
   max r-space proj   IRMAX =      1   max aug-charges    IRDMAX=   3070
   dimension x,y,z NGX =    84 NGY =   84 NGZ =   84
   dimension x,y,z NGXF=   168 NGYF=  168 NGZF=  168
   support grid    NGXF=   168 NGYF=  168 NGZF=  168
   ions per type =              34
 NGX,Y,Z   is equivalent  to a cutoff of   6.45,  6.45,  6.45 a.u.
 NGXF,Y,Z  is equivalent  to a cutoff of  12.90, 12.90, 12.90 a.u.


 I would recommend the setting:
   dimension x,y,z NGX =    84 NGY =   84 NGZ =   84
 SYSTEM =  unknown system                          
 POSCAR =  Al34, -106.98831223 <s> Ag </s>         

 Startparameter for this run:
   NWRITE =      2    write-flag & timer
   PREC   = normal    normal or accurate (medium, high low for compatibility)
   ISTART =      0    job   : 0-new  1-cont  2-samecut
   ICHARG =      2    charge: 1-file 2-atom 10-const
   ISPIN  =      2    spin polarized calculation?
   LNONCOLLINEAR =      F non collinear calculations
   LSORBIT =      F    spin-orbit coupling
   INIWAV =      1    electr: 0-lowe 1-rand  2-diag
   LASPH  =      F    aspherical Exc in radial PAW
   METAGGA=      F    non-selfconsistent MetaGGA calc.

 Electronic Relaxation 1
   ENCUT  =  249.8 eV  18.36 Ry    4.29 a.u.  27.90 27.90 27.90*2*pi/ulx,y,z
   ENINI  =  249.8     initial cutoff
   ENAUG  =  412.5 eV  augmentation charge cutoff
   NELM   =     60;   NELMIN=  2; NELMDL= -5     # of ELM steps 
   EDIFF  = 0.1E-03   stopping-criterion for ELM
   LREAL  =      F    real-space projection
   NLSPLINE    = F    spline interpolate recip. space projectors
   LCOMPAT=      F    compatible to vasp.4.4
   GGA_COMPAT  = T    GGA compatible to vasp.4.4-vasp.4.6
   LMAXPAW     = -100 max onsite density
   LMAXMIX     =    2 max onsite mixed and CHGCAR
   VOSKOWN=      0    Vosko Wilk Nusair interpolation
   ROPT   =    0.00000
 Ionic relaxation
   EDIFFG = 0.1E-02   stopping-criterion for IOM
   NSW    =   1000    number of steps for IOM
   NBLOCK =      1;   KBLOCK =   1000    inner block; outer block 
   IBRION =      2    ionic relax: 0-MD 1-quasi-New 2-CG
   NFREE  =      1    steps in history (QN), initial steepest desc. (CG)
   ISIF   =      2    stress and relaxation
   IWAVPR =     11    prediction:  0-non 1-charg 2-wave 3-comb
   ISYM   =      2    0-nonsym 1-usesym 2-fastsym
   LCORR  =      T    Harris-Foulkes like correction to forces

   POTIM  = 0.1000    time-step for ionic-motion
   TEIN   =    0.0    initial temperature
   TEBEG  =    0.0;   TEEND  =   0.0 temperature during run
   SMASS  =  -3.00    Nose mass-parameter (am)
   estimated Nose-frequenzy (Omega)   =  0.10E-29 period in steps =****** mass=  -0.107E-25a.u.
   SCALEE = 1.0000    scale energy and forces
   NPACO  =    256;   APACO  = 16.0  distance and # of slots for P.C.
   PSTRESS=    0.0 pullay stress

  Mass of Ions in am
   POMASS = 107.87
  Ionic Valenz
   ZVAL   =  11.00
  Atomic Wigner-Seitz radii
   RWIGS  =  -1.00
  virtual crystal weights 
   VCA    =   1.00
   NELECT =     374.0000    total number of electrons
   NUPDOWN=      -1.0000    fix difference up-down

 DOS related values:
   EMIN   =  10.00;   EMAX   =-10.00  energy-range for DOS
   EFERMI =   0.00
   ISMEAR =     0;   SIGMA  =   0.00  broadening in eV -4-tet -1-fermi 0-gaus

 Electronic relaxation 2 (details)
   IALGO  =     38    algorithm
   LDIAG  =      T    sub-space diagonalisation (order eigenvalues)
   LSUBROT=      F    optimize rotation matrix (better conditioning)
   TURBO    =      0    0=normal 1=particle mesh
   IRESTART =      0    0=no restart 2=restart with 2 vectors
   NREBOOT  =      0    no. of reboots
   NMIN     =      0    reboot dimension
   EREF     =   0.00    reference energy to select bands
   IMIX   =      4    mixing-type and parameters
     AMIX     =   0.40;   BMIX     =  1.00
     AMIX_MAG =   1.60;   BMIX_MAG =  1.00
     AMIN     =   0.10
     WC   =   100.;   INIMIX=   1;  MIXPRE=   1;  MAXMIX= -45

 Intra band minimization:
   WEIMIN = 0.0010     energy-eigenvalue tresh-hold
   EBREAK =  0.10E-06  absolut break condition
   DEPER  =   0.30     relativ break condition  

   TIME   =   0.40     timestep for ELM

  volume/ion in A,a.u.               =     298.52      2014.48
  Fermi-wavevector in a.u.,A,eV,Ry     =   0.544775  1.029475  4.037930  0.296779
  Thomas-Fermi vector in A             =   1.573846
 
 Write flags
   LWAVE  =      F    write WAVECAR
   LCHARG =      F    write CHGCAR
   LVTOT  =      F    write LOCPOT, total local potential
   LVHAR  =      F    write LOCPOT, Hartree potential only
   LELF   =      F    write electronic localiz. function (ELF)
   LORBIT =      0    0 simple, 1 ext, 2 COOP (PROOUT)


 Dipole corrections
   LMONO  =      F    monopole corrections only (constant potential shift)
   LDIPOL =      F    correct potential (dipole corrections)
   IDIPOL =      0    1-x, 2-y, 3-z, 4-all directions 
   EPSILON=  1.0000000 bulk dielectric constant

 Exchange correlation treatment:
   GGA     =    PE    GGA type
   LEXCH   =     8    internal setting for exchange type
   VOSKOWN=      0    Vosko Wilk Nusair interpolation
   LHFCALC =     F    Hartree Fock is set to
   LHFONE  =     F    Hartree Fock one center treatment
   AEXX    =    0.0000 exact exchange contribution

 Linear response parameters
   LEPSILON=     F    determine dielectric tensor
   LRPA    =     F    only Hartree local field effects (RPA)
   LNABLA  =     F    use nabla operator in PAW spheres
   LVEL    =     F    velocity operator in full k-point grid
   LINTERFAST=   F  fast interpolation
   KINTER  =     0    interpolate to denser k-point grid
   CSHIFT  =0.1000    complex shift for real part using Kramers Kronig
   OMEGAMAX=  -1.0    maximum frequency
   DEG_THRESHOLD= 0.2000000E-02 threshold for treating states as degnerate
   RTIME   =    0.100 relaxation time in fs

 Orbital magnetization related:
   ORBITALMAG=     F  switch on orbital magnetization
   LCHIMAG   =     F  perturbation theory with respect to B field
   DQ        =  0.001000  dq finite difference perturbation B field



--------------------------------------------------------------------------------------------------------


 conjugate gradient relaxation of ions
 charge density and potential will be updated during run
 spin polarized calculation
 Variant of blocked Davidson
 Davidson routine will perform the subspace rotation
 perform sub-space diagonalisation
    after iterative eigenvector-optimisation
 modified Broyden-mixing scheme, WC =      100.0
 initial mixing is a Kerker type mixing with AMIX =  0.4000 and BMIX =      1.0000
 Hartree-type preconditioning will be used
 using additional bands           57
 reciprocal scheme for non local part
 use partial core corrections
 calculate Harris-corrections to forces 
   (improved forces if not selfconsistent)
 use gradient corrections 
 use of overlap-Matrix (Vanderbilt PP)
 Gauss-broadening in eV      SIGMA  =   0.00


--------------------------------------------------------------------------------------------------------


  energy-cutoff  :      249.84
  volume of cell :    10149.52
      direct lattice vectors                 reciprocal lattice vectors
    21.651189941  0.000000000  0.000000000     0.046186838  0.000000000  0.000000000
     0.000000000 21.651189941  0.000000000     0.000000000  0.046186838  0.000000000
     0.000000000  0.000000000 21.651189941     0.000000000  0.000000000  0.046186838

  length of vectors
    21.651189941 21.651189941 21.651189941     0.046186838  0.046186838  0.046186838


 
 k-points in units of 2pi/SCALE and weight: Gamma-point only                        
   0.00000000  0.00000000  0.00000000       1.000
 
 k-points in reciprocal lattice and weights: Gamma-point only                        
   0.00000000  0.00000000  0.00000000       1.000
 
 position of ions in fractional coordinates (direct lattice) 
   0.63284325  0.55833034  0.28584713
   0.52588426  0.48721515  0.32118803
   0.52769485  0.61784354  0.32542634
   0.50513539  0.66913563  0.43653119
   0.42316682  0.56936946  0.37255937
   0.63596935  0.48547562  0.39233185
   0.40395155  0.61347233  0.49072776
   0.42662688  0.43230941  0.37704317
   0.63210885  0.61650063  0.40436995
   0.61218413  0.65752727  0.52186668
   0.52890278  0.54057946  0.44436297
   0.32338747  0.52110847  0.43027367
   0.47907982  0.71004760  0.55178000
   0.54167405  0.40726515  0.42881746
   0.42687307  0.48144601  0.50080543
   0.32937979  0.39561691  0.44883716
   0.64649021  0.53381579  0.51013189
   0.32460641  0.53897405  0.55738483
   0.44127646  0.35021758  0.48543274
   0.51111176  0.58348656  0.56658047
   0.64998261  0.40656188  0.49665293
   0.40132598  0.63184816  0.61704267
   0.54401242  0.45800168  0.55362336
   0.57087307  0.68826476  0.63688311
   0.34233893  0.41293329  0.57415326
   0.55457406  0.32525968  0.53554408
   0.62772268  0.57565660  0.63021178
   0.42238749  0.50695396  0.63314276
   0.45626885  0.38485493  0.61757956
   0.66170952  0.45440645  0.61852886
   0.49816247  0.60213862  0.69597234
   0.67470697  0.32397849  0.59348197
   0.53859426  0.48465735  0.68141229
   0.57281913  0.36718350  0.65785442
 
 position of ions in cartesian coordinates  (Angst):
  13.70180949 12.08851625  6.18893043
  11.38602006 10.54878786  6.95410306
  11.42522141 13.37704785  7.04586750
  10.93678218 14.48758253  9.45141977
   9.16206526 12.32752639  8.06635368
  13.76949324 10.51112486  8.49445138
   8.74603181 13.28240598 10.62483988
   9.23697953  9.36001308  8.16343328
  13.68590875 13.34797229  8.75509054
  13.25451482 14.23624778 11.29903456
  11.45137451 11.70418861  9.62098713
   7.00172358 11.28261856  9.31593701
  10.37264823 15.37337556 11.94669366
  11.72788776  8.81777522  9.28440821
   9.24230993 10.42387894 10.84303349
   7.13146432  8.56557691  9.71785866
  13.99728243 11.55774705 11.04496244
   7.02811497 11.66942949 12.06804473
   9.55416043  7.58262728 10.51019649
  11.06617788 12.63317828 12.26714140
  14.07289694  8.80254838 10.75312690
   8.68918512 13.68026454 13.35970811
  11.77851633  9.91628132 11.98660449
  12.36008120 14.90175108 13.78927720
   7.41204526  8.94049704 12.43110134
  12.00718822  7.04225913 11.59516655
  13.59094289 12.46365041 13.64483497
   9.14519181 10.97615652 13.70829425
   9.87876357  8.33256717 13.37133233
  14.32679859  9.83844037 13.39188581
  10.78581031 13.03701760 15.06862934
  14.60820877  7.01451976 12.84959081
  11.66120652 10.49340838 14.75338687
  12.40221587  7.94995976 14.24333104
 


--------------------------------------------------------------------------------------------------------


 use parallel FFT for wavefunctions z direction half grid
 k-point  1 :   0.0000 0.0000 0.0000  plane waves:   45524

 maximum and minimum number of plane-waves per node :      2853     2841

 maximum number of plane-waves:     45524
 maximum index in each direction: 
   IXMAX=   27   IYMAX=   27   IZMAX=   27
   IXMIN=  -27   IYMIN=  -27   IZMIN=    0

 WARNING: aliasing errors must be expected set NGX to 110 to avoid them
 WARNING: aliasing errors must be expected set NGY to 110 to avoid them
 WARNING: aliasing errors must be expected set NGZ to 110 to avoid them
 aliasing errors are usually negligible using standard VASP settings
 and one can safely disregard these warnings

 parallel 3D FFT for wavefunctions:
    minimum data exchange during FFTs selected (reduces bandwidth)
 parallel 3D FFT for charge:
    minimum data exchange during FFTs selected (reduces bandwidth)


 total amount of memory used by VASP on root node    50932. kBytes
========================================================================

   base      :      30000. kBytes
   nonl-proj :       1964. kBytes
   fftplans  :       3738. kBytes
   grid      :       9555. kBytes
   one-center:         46. kBytes
   wavefun   :       5629. kBytes
 
     INWAV:  cpu time    0.00: real time    0.00
 Broyden mixing: mesh for mixing (old mesh)
   NGX = 55   NGY = 55   NGZ = 55
  (NGX  =168   NGY  =168   NGZ  =168)
  gives a total of 166375 points

 initial charge density was supplied:
 charge density of overlapping atoms calculated
 number of electron     374.0000000 magnetization      34.0000000
 keeping initial charge density in first step


--------------------------------------------------------------------------------------------------------


 Maximum index for augmentation-charges          203 (set IRDMAX)


--------------------------------------------------------------------------------------------------------


 First call to EWALD:  gamma=   0.082
 Maximum number of real-space cells 3x 3x 3
 Maximum number of reciprocal cells 3x 3x 3

 FEWALD executed in parallel
    FEWALD:  cpu time    0.00: real time    0.00


----------------------------------------- Iteration    1(   1)  ---------------------------------------


    POTLOK:  cpu time    0.20: real time    0.20
    SETDIJ:  cpu time    0.01: real time    0.01
     EDDAV:  cpu time    2.64: real time    2.64
       DOS:  cpu time    0.00: real time    0.00
    --------------------------------------------
      LOOP:  cpu time    2.85: real time    2.87

 eigenvalue-minimisations  :   992
 total energy-change (2. order) : 0.3160387E+04  (-0.7415556E+04)
 number of electron     374.0000000 magnetization      34.0000000
 augmentation part      374.0000000 magnetization      34.0000000

 Free energy of the ion-electron system (eV)
  ---------------------------------------------------
  alpha Z        PSCENC =        96.87834364
  Ewald energy   TEWEN  =     80876.09404456
  -Hartree energ DENC   =   -114748.84996553
  -exchange      EXHF   =         0.00000000
  -V(xc)+E(xc)   XCENC  =      -371.30219909
  PAW double counting   =     34114.65405437   -32546.99670188
  entropy T*S    EENTRO =        -0.00000000
  eigenvalues    EBANDS =       475.15622409
  atomic energy  EATOM  =     35264.75342294
  ---------------------------------------------------
  free energy    TOTEN  =      3160.38722309 eV

  energy without entropy =     3160.38722309  energy(sigma->0) =     3160.38722309


--------------------------------------------------------------------------------------------------------




----------------------------------------- Iteration    1(   2)  ---------------------------------------


     EDDAV:  cpu time    3.90: real time    3.90
       DOS:  cpu time    0.00: real time    0.00
    --------------------------------------------
      LOOP:  cpu time    3.90: real time    3.91

 eigenvalue-minimisations  :  1616
 total energy-change (2. order) :-0.2596499E+04  (-0.2333608E+04)
 number of electron     374.0000000 magnetization      34.0000000
 augmentation part      374.0000000 magnetization      34.0000000

 Free energy of the ion-electron system (eV)
  ---------------------------------------------------
  alpha Z        PSCENC =        96.87834364
  Ewald energy   TEWEN  =     80876.09404456
  -Hartree energ DENC   =   -114748.84996553
  -exchange      EXHF   =         0.00000000
  -V(xc)+E(xc)   XCENC  =      -371.30219909
  PAW double counting   =     34114.65405437   -32546.99670188
  entropy T*S    EENTRO =        -0.00000000
  eigenvalues    EBANDS =     -2121.34270962
  atomic energy  EATOM  =     35264.75342294
  ---------------------------------------------------
  free energy    TOTEN  =       563.88828938 eV

  energy without entropy =      563.88828938  energy(sigma->0) =      563.88828938


--------------------------------------------------------------------------------------------------------




----------------------------------------- Iteration    1(   3)  ---------------------------------------


     EDDAV:  cpu time    3.15: real time    3.16
       DOS:  cpu time    0.00: real time    0.00
    --------------------------------------------
      LOOP:  cpu time    3.16: real time    3.17

 eigenvalue-minimisations  :  1248
 total energy-change (2. order) :-0.6109548E+03  (-0.5588512E+03)
 number of electron     374.0000000 magnetization      34.0000000
 augmentation part      374.0000000 magnetization      34.0000000

 Free energy of the ion-electron system (eV)
  ---------------------------------------------------
  alpha Z        PSCENC =        96.87834364
  Ewald energy   TEWEN  =     80876.09404456
  -Hartree energ DENC   =   -114748.84996553
  -exchange      EXHF   =         0.00000000
  -V(xc)+E(xc)   XCENC  =      -371.30219909
  PAW double counting   =     34114.65405437   -32546.99670188
  entropy T*S    EENTRO =         0.00000000
  eigenvalues    EBANDS =     -2732.29748334
  atomic energy  EATOM  =     35264.75342294
  ---------------------------------------------------
  free energy    TOTEN  =       -47.06648435 eV

  energy without entropy =      -47.06648435  energy(sigma->0) =      -47.06648435


--------------------------------------------------------------------------------------------------------




----------------------------------------- Iteration    1(   4)  ---------------------------------------


     EDDAV:  cpu time    2.76: real time    2.76
       DOS:  cpu time    0.00: real time    0.00
    --------------------------------------------
      LOOP:  cpu time    2.76: real time    2.77

 eigenvalue-minimisations  :  1048
 total energy-change (2. order) :-0.2497589E+02  (-0.2478609E+02)
 number of electron     374.0000000 magnetization      34.0000000
 augmentation part      374.0000000 magnetization      34.0000000

 Free energy of the ion-electron system (eV)
  ---------------------------------------------------
  alpha Z        PSCENC =        96.87834364
  Ewald energy   TEWEN  =     80876.09404456
  -Hartree energ DENC   =   -114748.84996553
  -exchange      EXHF   =         0.00000000
  -V(xc)+E(xc)   XCENC  =      -371.30219909
  PAW double counting   =     34114.65405437   -32546.99670188
  entropy T*S    EENTRO =         0.00000000
  eigenvalues    EBANDS =     -2757.27337750
  atomic energy  EATOM  =     35264.75342294
  ---------------------------------------------------
  free energy    TOTEN  =       -72.04237851 eV

  energy without entropy =      -72.04237851  energy(sigma->0) =      -72.04237851


--------------------------------------------------------------------------------------------------------




----------------------------------------- Iteration    1(   5)  ---------------------------------------


     EDDAV:  cpu time    2.88: real time    2.88
       DOS:  cpu time    0.00: real time    0.00
    CHARGE:  cpu time    0.09: real time    0.09
    MIXING:  cpu time    0.00: real time    0.00
    --------------------------------------------
      LOOP:  cpu time    2.98: real time    2.98

 eigenvalue-minimisations  :  1112
 total energy-change (2. order) :-0.3588240E+00  (-0.3585170E+00)
 number of electron     374.0001013 magnetization      30.0230492
 augmentation part      175.5119417 magnetization      28.8267450

 Broyden mixing:
  rms(total) = 0.33603E+01    rms(broyden)= 0.33596E+01
  rms(prec ) = 0.34188E+01
  weight for this iteration     100.00

 Free energy of the ion-electron system (eV)
  ---------------------------------------------------
  alpha Z        PSCENC =        96.87834364
  Ewald energy   TEWEN  =     80876.09404456
  -Hartree energ DENC   =   -114748.84996553
  -exchange      EXHF   =         0.00000000
  -V(xc)+E(xc)   XCENC  =      -371.30219909
  PAW double counting   =     34114.65405437   -32546.99670188
  entropy T*S    EENTRO =         0.00000000
  eigenvalues    EBANDS =     -2757.63220148
  atomic energy  EATOM  =     35264.75342294
  ---------------------------------------------------
  free energy    TOTEN  =       -72.40120249 eV

  energy without entropy =      -72.40120249  energy(sigma->0) =      -72.40120249


--------------------------------------------------------------------------------------------------------




----------------------------------------- Iteration    1(   6)  ---------------------------------------


    POTLOK:  cpu time    0.19: real time    0.19
    SETDIJ:  cpu time    0.01: real time    0.01
     EDDAV:  cpu time    2.61: real time    2.61
       DOS:  cpu time    0.00: real time    0.00
    CHARGE:  cpu time    0.09: real time    0.09
    MIXING:  cpu time    0.00: real time    0.00
    --------------------------------------------
      LOOP:  cpu time    2.90: real time    2.91

 eigenvalue-minimisations  :   980
 total energy-change (2. order) : 0.4142230E+02  (-0.1276954E+02)
 number of electron     374.0001034 magnetization      27.2306710
 augmentation part      179.6970174 magnetization      18.6929826

 Broyden mixing:
  rms(total) = 0.18123E+01    rms(broyden)= 0.18121E+01
  rms(prec ) = 0.18336E+01
  weight for this iteration     100.00

 eigenvalues of (default mixing * dielectric matrix)
  average eigenvalue GAMMA=   0.8525
  0.8525

 Free energy of the ion-electron system (eV)
  ---------------------------------------------------
  alpha Z        PSCENC =        96.87834364
  Ewald energy   TEWEN  =     80876.09404456
  -Hartree energ DENC   =   -114605.80698498
  -exchange      EXHF   =         0.00000000
  -V(xc)+E(xc)   XCENC  =      -353.40424309
  PAW double counting   =     35262.11830698   -33719.77746637
  entropy T*S    EENTRO =         0.00000000
  eigenvalues    EBANDS =     -2851.83432515
  atomic energy  EATOM  =     35264.75342294
  ---------------------------------------------------
  free energy    TOTEN  =       -30.97890148 eV

  energy without entropy =      -30.97890148  energy(sigma->0) =      -30.97890148


--------------------------------------------------------------------------------------------------------




----------------------------------------- Iteration    1(   7)  ---------------------------------------


    POTLOK:  cpu time    0.19: real time    0.19
    SETDIJ:  cpu time    0.01: real time    0.01
     EDDAV:  cpu time    2.68: real time    2.69
       DOS:  cpu time    0.00: real time    0.00
    CHARGE:  cpu time    0.09: real time    0.09
    MIXING:  cpu time    0.00: real time    0.00
    --------------------------------------------
      LOOP:  cpu time    2.98: real time    3.06

 eigenvalue-minimisations  :  1016
 total energy-change (2. order) : 0.8847736E+01  (-0.7702574E+00)
 number of electron     374.0001034 magnetization      22.8846774
 augmentation part      179.6808129 magnetization      14.6938732

 Broyden mixing:
  rms(total) = 0.11146E+01    rms(broyden)= 0.11146E+01
  rms(prec ) = 0.11270E+01
  weight for this iteration     100.00

 eigenvalues of (default mixing * dielectric matrix)
  average eigenvalue GAMMA=   0.9962
  0.7584  1.2340

 Free energy of the ion-electron system (eV)
  ---------------------------------------------------
  alpha Z        PSCENC =        96.87834364
  Ewald energy   TEWEN  =     80876.09404456
  -Hartree energ DENC   =   -114682.70698205
  -exchange      EXHF   =         0.00000000
  -V(xc)+E(xc)   XCENC  =      -345.84176028
  PAW double counting   =     35961.59940825   -34435.48157138
  entropy T*S    EENTRO =        -0.00000000
  eigenvalues    EBANDS =     -2757.42607066
  atomic energy  EATOM  =     35264.75342294
  ---------------------------------------------------
  free energy    TOTEN  =       -22.13116500 eV

  energy without entropy =      -22.13116500  energy(sigma->0) =      -22.13116500


--------------------------------------------------------------------------------------------------------




----------------------------------------- Iteration    1(   8)  ---------------------------------------


    POTLOK:  cpu time    0.19: real time    0.19
    SETDIJ:  cpu time    0.01: real time    0.01
     EDDAV:  cpu time    2.66: real time    2.66
       DOS:  cpu time    0.00: real time    0.00
    CHARGE:  cpu time    0.09: real time    0.09
    MIXING:  cpu time    0.00: real time    0.00
    --------------------------------------------
      LOOP:  cpu time    2.95: real time    3.75

 eigenvalue-minimisations  :  1036
 total energy-change (2. order) :-0.6629831E+00  (-0.2077993E+00)
 number of electron     374.0001030 magnetization      19.8206718
 augmentation part      179.4729544 magnetization      11.8847215

 Broyden mixing:
  rms(total) = 0.61057E+00    rms(broyden)= 0.61055E+00
  rms(prec ) = 0.61426E+00
  weight for this iteration     100.00

 eigenvalues of (default mixing * dielectric matrix)
  average eigenvalue GAMMA=   1.2670
  2.2807  0.9055  0.6147

 Free energy of the ion-electron system (eV)
  ---------------------------------------------------
  alpha Z        PSCENC =        96.87834364
  Ewald energy   TEWEN  =     80876.09404456
  -Hartree energ DENC   =   -114777.60140105
  -exchange      EXHF   =         0.00000000
  -V(xc)+E(xc)   XCENC  =      -345.80285770
  PAW double counting   =     36783.90371471   -35275.00978104
  entropy T*S    EENTRO =         0.00000000
  eigenvalues    EBANDS =     -2646.00963416
  atomic energy  EATOM  =     35264.75342294
  ---------------------------------------------------
  free energy    TOTEN  =       -22.79414812 eV

  energy without entropy =      -22.79414812  energy(sigma->0) =      -22.79414812


--------------------------------------------------------------------------------------------------------




----------------------------------------- Iteration    1(   9)  ---------------------------------------


    POTLOK:  cpu time    0.19: real time    0.19
    SETDIJ:  cpu time    0.01: real time    0.01
     EDDAV:  cpu time    2.73: real time    2.73
       DOS:  cpu time    0.00: real time    0.00
    CHARGE:  cpu time    0.09: real time    0.09
    MIXING:  cpu time    0.00: real time    0.00
    --------------------------------------------
      LOOP:  cpu time    3.02: real time    3.08

 eigenvalue-minimisations  :  1040
 total energy-change (2. order) :-0.4588857E+01  (-0.1024992E+00)
 number of electron     374.0001030 magnetization      16.5819422
 augmentation part      179.3973579 magnetization       8.8908525

 Broyden mixing:
  rms(total) = 0.37085E+00    rms(broyden)= 0.37084E+00
  rms(prec ) = 0.37464E+00
  weight for this iteration     100.00

 eigenvalues of (default mixing * dielectric matrix)
  average eigenvalue GAMMA=   1.2583
  2.2683  0.6152  0.8213  1.3285

 Free energy of the ion-electron system (eV)
  ---------------------------------------------------
  alpha Z        PSCENC =        96.87834364
  Ewald energy   TEWEN  =     80876.09404456
  -Hartree energ DENC   =   -114813.79945828
  -exchange      EXHF   =         0.00000000
  -V(xc)+E(xc)   XCENC  =      -348.96458423
  PAW double counting   =     37103.18971244   -35600.83617944
  entropy T*S    EENTRO =         0.00000000
  eigenvalues    EBANDS =     -2604.69830657
  atomic energy  EATOM  =     35264.75342294
  ---------------------------------------------------
  free energy    TOTEN  =       -27.38300495 eV

  energy without entropy =      -27.38300495  energy(sigma->0) =      -27.38300495


--------------------------------------------------------------------------------------------------------




----------------------------------------- Iteration    1(  10)  ---------------------------------------


    POTLOK:  cpu time    0.19: real time    0.19
    SETDIJ:  cpu time    0.01: real time    0.01
     EDDAV:  cpu time    2.67: real time    2.68
       DOS:  cpu time    0.00: real time    0.00
    CHARGE:  cpu time    0.09: real time    0.09
    MIXING:  cpu time    0.00: real time    0.00
    --------------------------------------------
      LOOP:  cpu time    2.96: real time    2.97

 eigenvalue-minimisations  :  1008
 total energy-change (2. order) :-0.1224262E+02  (-0.3867155E+00)
 number of electron     374.0001030 magnetization      12.2280521
 augmentation part      179.3878386 magnetization       5.0480406

 Broyden mixing:
  rms(total) = 0.26002E+00    rms(broyden)= 0.26000E+00
  rms(prec ) = 0.26204E+00
  weight for this iteration     100.00

 eigenvalues of (default mixing * dielectric matrix)
  average eigenvalue GAMMA=   1.5019
  2.9576  2.1148  0.9028  0.9028  0.6317

 Free energy of the ion-electron system (eV)
  ---------------------------------------------------
  alpha Z        PSCENC =        96.87834364
  Ewald energy   TEWEN  =     80876.09404456
  -Hartree energ DENC   =   -114812.64704759
  -exchange      EXHF   =         0.00000000
  -V(xc)+E(xc)   XCENC  =      -358.33598622
  PAW double counting   =     37084.32051404   -35581.83060134
  entropy T*S    EENTRO =         0.00000000
  eigenvalues    EBANDS =     -2608.85831212
  atomic energy  EATOM  =     35264.75342294
  ---------------------------------------------------
  free energy    TOTEN  =       -39.62562210 eV

  energy without entropy =      -39.62562210  energy(sigma->0) =      -39.62562210


--------------------------------------------------------------------------------------------------------




----------------------------------------- Iteration    1(  11)  ---------------------------------------


    POTLOK:  cpu time    0.19: real time    0.19
    SETDIJ:  cpu time    0.01: real time    0.01
     EDDAV:  cpu time    2.64: real time    2.64
       DOS:  cpu time    0.00: real time    0.00
    CHARGE:  cpu time    0.08: real time    0.09
    MIXING:  cpu time    0.01: real time    0.00
    --------------------------------------------
      LOOP:  cpu time    2.93: real time    2.93

 eigenvalue-minimisations  :   992
 total energy-change (2. order) :-0.1548247E+02  (-0.8001112E+00)
 number of electron     374.0001030 magnetization      11.2214176
 augmentation part      179.3441492 magnetization       6.5180325

 Broyden mixing:
  rms(total) = 0.22970E+00    rms(broyden)= 0.22952E+00
  rms(prec ) = 0.24098E+00
  weight for this iteration     100.00

 eigenvalues of (default mixing * dielectric matrix)
  average eigenvalue GAMMA=   1.3690
  3.3225  2.1330  0.9006  0.9006  0.6295  0.3276

 Free energy of the ion-electron system (eV)
  ---------------------------------------------------
  alpha Z        PSCENC =        96.87834364
  Ewald energy   TEWEN  =     80876.09404456
  -Hartree energ DENC   =   -114808.73954511
  -exchange      EXHF   =         0.00000000
  -V(xc)+E(xc)   XCENC  =      -370.02528159
  PAW double counting   =     37049.03913644   -35546.63108166
  entropy T*S    EENTRO =        -0.00000000
  eigenvalues    EBANDS =     -2616.47712721
  atomic energy  EATOM  =     35264.75342294
  ---------------------------------------------------
  free energy    TOTEN  =       -55.10808800 eV

  energy without entropy =      -55.10808800  energy(sigma->0) =      -55.10808800


--------------------------------------------------------------------------------------------------------




----------------------------------------- Iteration    1(  12)  ---------------------------------------


    POTLOK:  cpu time    0.19: real time    0.19
    SETDIJ:  cpu time    0.01: real time    0.01
     EDDAV:  cpu time    2.78: real time    2.78
       DOS:  cpu time    0.00: real time    0.00
    CHARGE:  cpu time    0.09: real time    0.09
    MIXING:  cpu time    0.00: real time    0.00
    --------------------------------------------
      LOOP:  cpu time    3.06: real time    3.20

 eigenvalue-minimisations  :  1064
 total energy-change (2. order) :-0.2122631E+01  (-0.4050423E-01)
 number of electron     374.0001030 magnetization      11.1811067
 augmentation part      179.3219266 magnetization       8.5416538

 Broyden mixing:
  rms(total) = 0.25710E+00    rms(broyden)= 0.25698E+00
  rms(prec ) = 0.26845E+00
  weight for this iteration     100.00

 eigenvalues of (default mixing * dielectric matrix)
  average eigenvalue GAMMA=   1.1738
  3.3212  2.1330  0.9006  0.9006  0.6295  0.3288  0.0029

 Free energy of the ion-electron system (eV)
  ---------------------------------------------------
  alpha Z        PSCENC =        96.87834364
  Ewald energy   TEWEN  =     80876.09404456
  -Hartree energ DENC   =   -114807.09903227
  -exchange      EXHF   =         0.00000000
  -V(xc)+E(xc)   XCENC  =      -371.57398755
  PAW double counting   =     37039.02305938   -35536.67082948
  entropy T*S    EENTRO =         0.00000000
  eigenvalues    EBANDS =     -2618.63574031
  atomic energy  EATOM  =     35264.75342294
  ---------------------------------------------------
  free energy    TOTEN  =       -57.23071911 eV

  energy without entropy =      -57.23071911  energy(sigma->0) =      -57.23071911


--------------------------------------------------------------------------------------------------------




----------------------------------------- Iteration    1(  13)  ---------------------------------------


    POTLOK:  cpu time    0.19: real time    0.19
    SETDIJ:  cpu time    0.01: real time    0.01
     EDDAV:  cpu time    2.82: real time    2.83
       DOS:  cpu time    0.00: real time    0.00
    CHARGE:  cpu time    0.09: real time    0.09
    MIXING:  cpu time    0.00: real time    0.00
    --------------------------------------------
      LOOP:  cpu time    3.12: real time    3.18

 eigenvalue-minimisations  :  1088
 total energy-change (2. order) : 0.3810094E-01  (-0.1235714E-02)
 number of electron     374.0001030 magnetization      11.0205179
 augmentation part      179.3202206 magnetization       8.3908260

 Broyden mixing:
  rms(total) = 0.25467E+00    rms(broyden)= 0.25467E+00
  rms(prec ) = 0.26609E+00
  weight for this iteration     100.00

 eigenvalues of (default mixing * dielectric matrix)
  average eigenvalue GAMMA=   1.0785
  3.3642  2.1407  0.8992  0.8992  0.6288  0.3502  0.1728  0.1728

 Free energy of the ion-electron system (eV)
  ---------------------------------------------------
  alpha Z        PSCENC =        96.87834364
  Ewald energy   TEWEN  =     80876.09404456
  -Hartree energ DENC   =   -114807.14890728
  -exchange      EXHF   =         0.00000000
  -V(xc)+E(xc)   XCENC  =      -371.51858025
  PAW double counting   =     37038.82661531   -35536.48189716
  entropy T*S    EENTRO =         0.00000000
  eigenvalues    EBANDS =     -2618.59565992
  atomic energy  EATOM  =     35264.75342294
  ---------------------------------------------------
  free energy    TOTEN  =       -57.19261816 eV

  energy without entropy =      -57.19261816  energy(sigma->0) =      -57.19261816


--------------------------------------------------------------------------------------------------------




----------------------------------------- Iteration    1(  14)  ---------------------------------------


    POTLOK:  cpu time    0.19: real time    0.19
    SETDIJ:  cpu time    0.01: real time    0.01
     EDDAV:  cpu time    2.68: real time    2.68
       DOS:  cpu time    0.00: real time    0.00
    CHARGE:  cpu time    0.09: real time    0.09
    MIXING:  cpu time    0.00: real time    0.01
    --------------------------------------------
      LOOP:  cpu time    2.97: real time    3.52

 eigenvalue-minimisations  :  1016
 total energy-change (2. order) :-0.2232099E+00  (-0.7036829E-03)
 number of electron     374.0001030 magnetization       9.0873611
 augmentation part      179.3211187 magnetization       6.4764141

 Broyden mixing:
  rms(total) = 0.24880E+00    rms(broyden)= 0.24880E+00
  rms(prec ) = 0.25985E+00
  weight for this iteration     100.00

 eigenvalues of (default mixing * dielectric matrix)
  average eigenvalue GAMMA=   1.1490
  3.6263  2.1408  0.7037  0.7037  0.9076  0.9076  0.6350  0.3582  0.3582

 Free energy of the ion-electron system (eV)
  ---------------------------------------------------
  alpha Z        PSCENC =        96.87834364
  Ewald energy   TEWEN  =     80876.09404456
  -Hartree energ DENC   =   -114807.00849025
  -exchange      EXHF   =         0.00000000
  -V(xc)+E(xc)   XCENC  =      -371.68802422
  PAW double counting   =     37029.89843008   -35527.56287160
  entropy T*S    EENTRO =         0.00000000
  eigenvalues    EBANDS =     -2618.78068318
  atomic energy  EATOM  =     35264.75342294
  ---------------------------------------------------
  free energy    TOTEN  =       -57.41582804 eV

  energy without entropy =      -57.41582804  energy(sigma->0) =      -57.41582804


--------------------------------------------------------------------------------------------------------




----------------------------------------- Iteration    1(  15)  ---------------------------------------


    POTLOK:  cpu time    0.18: real time    0.19
    SETDIJ:  cpu time    0.01: real time    0.01
     EDDAV:  cpu time    2.66: real time    2.66
       DOS:  cpu time    0.00: real time    0.00
    CHARGE:  cpu time    0.09: real time    0.09
    MIXING:  cpu time    0.01: real time    0.01
    --------------------------------------------
      LOOP:  cpu time    2.95: real time    2.98

 eigenvalue-minimisations  :  1000
 total energy-change (2. order) :-0.3326337E+01  (-0.8726983E-01)
 number of electron     374.0001029 magnetization       2.8992950
 augmentation part      179.2920548 magnetization       0.4648436

 Broyden mixing:
  rms(total) = 0.19485E+00    rms(broyden)= 0.19484E+00
  rms(prec ) = 0.20151E+00
  weight for this iteration     100.00

 eigenvalues of (default mixing * dielectric matrix)
  average eigenvalue GAMMA=   1.5009
  6.4832  2.3131  1.6058  0.7029  0.7029  0.9056  0.6700  0.6700  0.4776  0.4776

 Free energy of the ion-electron system (eV)
  ---------------------------------------------------
  alpha Z        PSCENC =        96.87834364
  Ewald energy   TEWEN  =     80876.09404456
  -Hartree energ DENC   =   -114805.67551548
  -exchange      EXHF   =         0.00000000
  -V(xc)+E(xc)   XCENC  =      -374.21804316
  PAW double counting   =     36923.10065305   -35420.95120739
  entropy T*S    EENTRO =         0.00000000
  eigenvalues    EBANDS =     -2620.72386272
  atomic energy  EATOM  =     35264.75342294
  ---------------------------------------------------
  free energy    TOTEN  =       -60.74216455 eV

  energy without entropy =      -60.74216455  energy(sigma->0) =      -60.74216455


--------------------------------------------------------------------------------------------------------




----------------------------------------- Iteration    1(  16)  ---------------------------------------


    POTLOK:  cpu time    0.19: real time    0.19
    SETDIJ:  cpu time    0.01: real time    0.01
     EDDAV:  cpu time    2.62: real time    2.62
       DOS:  cpu time    0.00: real time    0.00
    CHARGE:  cpu time    0.09: real time    0.09
    MIXING:  cpu time    0.00: real time    0.01
    --------------------------------------------
      LOOP:  cpu time    2.90: real time    2.92

 eigenvalue-minimisations  :   980
 total energy-change (2. order) :-0.6251074E+01  (-0.3685546E+00)
 number of electron     374.0001029 magnetization       2.3046330
 augmentation part      179.3694590 magnetization       2.2589391

 Broyden mixing:
  rms(total) = 0.29562E+00    rms(broyden)= 0.29554E+00
  rms(prec ) = 0.30350E+00
  weight for this iteration     100.00

 eigenvalues of (default mixing * dielectric matrix)
  average eigenvalue GAMMA=   1.4175
  6.8558  2.2173  1.7181  0.6767  0.6767  0.8821  0.7197  0.6744  0.4690  0.4690
  0.2339

 Free energy of the ion-electron system (eV)
  ---------------------------------------------------
  alpha Z        PSCENC =        96.87834364
  Ewald energy   TEWEN  =     80876.09404456
  -Hartree energ DENC   =   -114783.62604377
  -exchange      EXHF   =         0.00000000
  -V(xc)+E(xc)   XCENC  =      -379.72292565
  PAW double counting   =     36658.98269726   -35156.57439273
  entropy T*S    EENTRO =        -0.00000000
  eigenvalues    EBANDS =     -2643.77838475
  atomic energy  EATOM  =     35264.75342294
  ---------------------------------------------------
  free energy    TOTEN  =       -66.99323852 eV

  energy without entropy =      -66.99323852  energy(sigma->0) =      -66.99323852


--------------------------------------------------------------------------------------------------------




----------------------------------------- Iteration    1(  17)  ---------------------------------------


    POTLOK:  cpu time    0.18: real time    0.19
    SETDIJ:  cpu time    0.01: real time    0.01
     EDDAV:  cpu time    2.85: real time    2.86
       DOS:  cpu time    0.00: real time    0.00
    CHARGE:  cpu time    0.09: real time    0.09
    MIXING:  cpu time    0.01: real time    0.01
    --------------------------------------------
      LOOP:  cpu time    3.15: real time    3.15

 eigenvalue-minimisations  :  1096
 total energy-change (2. order) :-0.3941192E+00  (-0.1084154E-01)
 number of electron     374.0001028 magnetization       1.9647516
 augmentation part      179.3557631 magnetization       1.9689454

 Broyden mixing:
  rms(total) = 0.27513E+00    rms(broyden)= 0.27512E+00
  rms(prec ) = 0.28292E+00
  weight for this iteration     100.00

 eigenvalues of (default mixing * dielectric matrix)
  average eigenvalue GAMMA=   1.4315
  7.5062  2.2312  1.6493  0.7402  0.7402  0.9075  0.7733  0.6315  0.5476  0.5476
  0.4517  0.4517

 Free energy of the ion-electron system (eV)
  ---------------------------------------------------
  alpha Z        PSCENC =        96.87834364
  Ewald energy   TEWEN  =     80876.09404456
  -Hartree energ DENC   =   -114783.79842519
  -exchange      EXHF   =         0.00000000
  -V(xc)+E(xc)   XCENC  =      -380.06667898
  PAW double counting   =     36673.53405686   -35171.27198045
  entropy T*S    EENTRO =         0.00000000
  eigenvalues    EBANDS =     -2643.51014107
  atomic energy  EATOM  =     35264.75342294
  ---------------------------------------------------
  free energy    TOTEN  =       -67.38735770 eV

  energy without entropy =      -67.38735770  energy(sigma->0) =      -67.38735770


--------------------------------------------------------------------------------------------------------




----------------------------------------- Iteration    1(  18)  ---------------------------------------


    POTLOK:  cpu time    0.19: real time    0.19
    SETDIJ:  cpu time    0.01: real time    0.01
     EDDAV:  cpu time    2.73: real time    2.73
       DOS:  cpu time    0.00: real time    0.00
    CHARGE:  cpu time    0.09: real time    0.09
    MIXING:  cpu time    0.00: real time    0.01
    --------------------------------------------
      LOOP:  cpu time    3.02: real time    3.28

 eigenvalue-minimisations  :  1028
 total energy-change (2. order) :-0.4949412E+00  (-0.2908728E-02)
 number of electron     374.0001028 magnetization       1.4230898
 augmentation part      179.3482207 magnetization       1.4411895

 Broyden mixing:
  rms(total) = 0.23869E+00    rms(broyden)= 0.23869E+00
  rms(prec ) = 0.24514E+00
  weight for this iteration     100.00

 eigenvalues of (default mixing * dielectric matrix)
  average eigenvalue GAMMA=   1.4915
  7.7424  2.2773  1.4195  1.4195  1.2184  1.0826  0.7013  0.7013  0.7635  0.6340
  0.5296  0.4501  0.4501

 Free energy of the ion-electron system (eV)
  ---------------------------------------------------
  alpha Z        PSCENC =        96.87834364
  Ewald energy   TEWEN  =     80876.09404456
  -Hartree energ DENC   =   -114782.16646436
  -exchange      EXHF   =         0.00000000
  -V(xc)+E(xc)   XCENC  =      -380.53483591
  PAW double counting   =     36707.62980566   -35205.23276271
  entropy T*S    EENTRO =         0.00000000
  eigenvalues    EBANDS =     -2645.30385276
  atomic energy  EATOM  =     35264.75342294
  ---------------------------------------------------
  free energy    TOTEN  =       -67.88229895 eV

  energy without entropy =      -67.88229895  energy(sigma->0) =      -67.88229895


--------------------------------------------------------------------------------------------------------




----------------------------------------- Iteration    1(  19)  ---------------------------------------


    POTLOK:  cpu time    0.19: real time    0.19
    SETDIJ:  cpu time    0.01: real time    0.01
     EDDAV:  cpu time    2.66: real time    2.67
       DOS:  cpu time    0.00: real time    0.00
    CHARGE:  cpu time    0.08: real time    0.09
    MIXING:  cpu time    0.00: real time    0.01
    --------------------------------------------
      LOOP:  cpu time    2.96: real time    4.40

 eigenvalue-minimisations  :  1004
 total energy-change (2. order) :-0.1698454E+01  (-0.3911209E-01)
 number of electron     374.0001028 magnetization       0.7489457
 augmentation part      179.2962662 magnetization       0.7338673

 Broyden mixing:
  rms(total) = 0.67814E-01    rms(broyden)= 0.67793E-01
  rms(prec ) = 0.73347E-01
  weight for this iteration     100.00

 eigenvalues of (default mixing * dielectric matrix)
  average eigenvalue GAMMA=   1.5908
  9.1843  2.6330  1.6854  1.4621  1.4621  0.9760  0.7336  0.7336  0.7298  0.6277
  0.5671  0.5671  0.4550  0.4550

 Free energy of the ion-electron system (eV)
  ---------------------------------------------------
  alpha Z        PSCENC =        96.87834364
  Ewald energy   TEWEN  =     80876.09404456
  -Hartree energ DENC   =   -114769.03564139
  -exchange      EXHF   =         0.00000000
  -V(xc)+E(xc)   XCENC  =      -382.22730093
  PAW double counting   =     36870.48104252   -35367.37231029
  entropy T*S    EENTRO =         0.00000000
  eigenvalues    EBANDS =     -2659.15235385
  atomic energy  EATOM  =     35264.75342294
  ---------------------------------------------------
  free energy    TOTEN  =       -69.58075281 eV

  energy without entropy =      -69.58075281  energy(sigma->0) =      -69.58075281


--------------------------------------------------------------------------------------------------------




----------------------------------------- Iteration    1(  20)  ---------------------------------------


    POTLOK:  cpu time    0.19: real time    0.19
    SETDIJ:  cpu time    0.00: real time    0.01
     EDDAV:  cpu time    2.72: real time    2.72
       DOS:  cpu time    0.00: real time    0.00
    CHARGE:  cpu time    0.09: real time    0.09
    MIXING:  cpu time    0.01: real time    0.01
    --------------------------------------------
      LOOP:  cpu time    3.01: real time    3.01

 eigenvalue-minimisations  :  1024
 total energy-change (2. order) :-0.7628659E+00  (-0.6787126E-02)
 number of electron     374.0001028 magnetization       0.8362456
 augmentation part      179.3244415 magnetization       0.8426406

 Broyden mixing:
  rms(total) = 0.51346E-01    rms(broyden)= 0.51336E-01
  rms(prec ) = 0.57141E-01
  weight for this iteration     100.00

 eigenvalues of (default mixing * dielectric matrix)
  average eigenvalue GAMMA=   1.5394
  8.9643  2.2667  2.2667  1.4546  1.4546  0.8278  0.8278  0.9635  0.7730  0.6317
  0.6317  0.6235  0.4447  0.4447  0.5155

 Free energy of the ion-electron system (eV)
  ---------------------------------------------------
  alpha Z        PSCENC =        96.87834364
  Ewald energy   TEWEN  =     80876.09404456
  -Hartree energ DENC   =   -114755.80373420
  -exchange      EXHF   =         0.00000000
  -V(xc)+E(xc)   XCENC  =      -383.09447076
  PAW double counting   =     36885.73244006   -35382.27908345
  entropy T*S    EENTRO =         0.00000000
  eigenvalues    EBANDS =     -2672.62458144
  atomic energy  EATOM  =     35264.75342294
  ---------------------------------------------------
  free energy    TOTEN  =       -70.34361867 eV

  energy without entropy =      -70.34361867  energy(sigma->0) =      -70.34361867


--------------------------------------------------------------------------------------------------------




----------------------------------------- Iteration    1(  21)  ---------------------------------------


    POTLOK:  cpu time    0.19: real time    0.19
    SETDIJ:  cpu time    0.01: real time    0.01
     EDDAV:  cpu time    2.78: real time    2.79
       DOS:  cpu time    0.00: real time    0.00
    CHARGE:  cpu time    0.09: real time    0.09
    MIXING:  cpu time    0.01: real time    0.01
    --------------------------------------------
      LOOP:  cpu time    3.08: real time    3.09

 eigenvalue-minimisations  :  1064
 total energy-change (2. order) :-0.3138515E+00  (-0.1281363E-02)
 number of electron     374.0001028 magnetization       0.4913512
 augmentation part      179.3142718 magnetization       0.4753287

 Broyden mixing:
  rms(total) = 0.39583E-01    rms(broyden)= 0.39580E-01
  rms(prec ) = 0.45478E-01
  weight for this iteration     100.00

 eigenvalues of (default mixing * dielectric matrix)
  average eigenvalue GAMMA=   1.6472
  9.5316  3.4331  2.2968  1.6089  1.6089  1.1714  0.8651  0.8651  0.7287  0.7287
  0.7853  0.4489  0.4489  0.6722  0.6190  0.5417

 Free energy of the ion-electron system (eV)
  ---------------------------------------------------
  alpha Z        PSCENC =        96.87834364
  Ewald energy   TEWEN  =     80876.09404456
  -Hartree energ DENC   =   -114746.19548907
  -exchange      EXHF   =         0.00000000
  -V(xc)+E(xc)   XCENC  =      -383.47005282
  PAW double counting   =     36915.09600471   -35411.74838823
  entropy T*S    EENTRO =         0.00000000
  eigenvalues    EBANDS =     -2682.06535591
  atomic energy  EATOM  =     35264.75342294
  ---------------------------------------------------
  free energy    TOTEN  =       -70.65747018 eV

  energy without entropy =      -70.65747018  energy(sigma->0) =      -70.65747018


--------------------------------------------------------------------------------------------------------




----------------------------------------- Iteration    1(  22)  ---------------------------------------


    POTLOK:  cpu time    0.19: real time    0.19
    SETDIJ:  cpu time    0.01: real time    0.05
     EDDAV:  cpu time    2.70: real time    2.71
       DOS:  cpu time    0.00: real time    0.00
    CHARGE:  cpu time    0.09: real time    0.09
    MIXING:  cpu time    0.01: real time    0.01
    --------------------------------------------
      LOOP:  cpu time    3.00: real time    3.12

 eigenvalue-minimisations  :  1020
 total energy-change (2. order) :-0.5432097E+00  (-0.3095327E-02)
 number of electron     374.0001028 magnetization       0.4805370
 augmentation part      179.3491506 magnetization       0.4668912

 Broyden mixing:
  rms(total) = 0.32653E-01    rms(broyden)= 0.32649E-01
  rms(prec ) = 0.34514E-01
  weight for this iteration     100.00

 eigenvalues of (default mixing * dielectric matrix)
  average eigenvalue GAMMA=   1.6417
  9.4537  4.0210  2.3683  1.6068  1.6068  1.3871  0.8499  0.8499  0.9166  0.6966
  0.6966  0.7023  0.7023  0.4482  0.4482  0.6274  0.5270

 Free energy of the ion-electron system (eV)
  ---------------------------------------------------
  alpha Z        PSCENC =        96.87834364
  Ewald energy   TEWEN  =     80876.09404456
  -Hartree energ DENC   =   -114725.23109734
  -exchange      EXHF   =         0.00000000
  -V(xc)+E(xc)   XCENC  =      -384.18250527
  PAW double counting   =     36904.47671184   -35400.82780206
  entropy T*S    EENTRO =         0.00000000
  eigenvalues    EBANDS =     -2703.16179817
  atomic energy  EATOM  =     35264.75342294
  ---------------------------------------------------
  free energy    TOTEN  =       -71.20067988 eV

  energy without entropy =      -71.20067988  energy(sigma->0) =      -71.20067988


--------------------------------------------------------------------------------------------------------




----------------------------------------- Iteration    1(  23)  ---------------------------------------


    POTLOK:  cpu time    0.19: real time    0.19
    SETDIJ:  cpu time    0.00: real time    0.01
     EDDAV:  cpu time    2.74: real time    2.74
       DOS:  cpu time    0.00: real time    0.00
    CHARGE:  cpu time    0.09: real time    0.09
    MIXING:  cpu time    0.01: real time    0.01
    --------------------------------------------
      LOOP:  cpu time    3.03: real time    3.12

 eigenvalue-minimisations  :  1036
 total energy-change (2. order) :-0.1071439E+00  (-0.2694274E-03)
 number of electron     374.0001028 magnetization       0.2573826
 augmentation part      179.3503228 magnetization       0.2383758

 Broyden mixing:
  rms(total) = 0.27348E-01    rms(broyden)= 0.27347E-01
  rms(prec ) = 0.28634E-01
  weight for this iteration     100.00

 eigenvalues of (default mixing * dielectric matrix)
  average eigenvalue GAMMA=   1.6344
  9.7256  4.0184  2.3218  1.6952  1.6952  1.4527  0.9169  0.9169  0.8847  0.8203
  0.8203  0.7348  0.7348  0.4484  0.4484  0.6303  0.6276  0.5262

 Free energy of the ion-electron system (eV)
  ---------------------------------------------------
  alpha Z        PSCENC =        96.87834364
  Ewald energy   TEWEN  =     80876.09404456
  -Hartree energ DENC   =   -114719.11700728
  -exchange      EXHF   =         0.00000000
  -V(xc)+E(xc)   XCENC  =      -384.32544102
  PAW double counting   =     36902.19431469   -35398.56940128
  entropy T*S    EENTRO =         0.00000000
  eigenvalues    EBANDS =     -2709.21610000
  atomic energy  EATOM  =     35264.75342294
  ---------------------------------------------------
  free energy    TOTEN  =       -71.30782376 eV

  energy without entropy =      -71.30782376  energy(sigma->0) =      -71.30782376


--------------------------------------------------------------------------------------------------------




----------------------------------------- Iteration    1(  24)  ---------------------------------------


    POTLOK:  cpu time    0.19: real time    0.19
    SETDIJ:  cpu time    0.01: real time    0.01
     EDDAV:  cpu time    2.72: real time    2.72
       DOS:  cpu time    0.00: real time    0.00
    CHARGE:  cpu time    0.09: real time    0.09
    MIXING:  cpu time    0.01: real time    0.01
    --------------------------------------------
      LOOP:  cpu time    3.02: real time    3.02

 eigenvalue-minimisations  :  1028
 total energy-change (2. order) :-0.6283920E-01  (-0.3445140E-03)
 number of electron     374.0001028 magnetization       0.0909237
 augmentation part      179.3551571 magnetization       0.0837785

 Broyden mixing:
  rms(total) = 0.75269E-02    rms(broyden)= 0.75253E-02
  rms(prec ) = 0.90474E-02
  weight for this iteration     100.00

 eigenvalues of (default mixing * dielectric matrix)
  average eigenvalue GAMMA=   1.6956
 10.0536  4.2850  2.6027  2.2512  1.7490  1.7490  1.0225  1.0225  0.8554  0.8554
  0.8554  0.8554  0.7006  0.7006  0.4484  0.4484  0.6360  0.5968  0.5279

 Free energy of the ion-electron system (eV)
  ---------------------------------------------------
  alpha Z        PSCENC =        96.87834364
  Ewald energy   TEWEN  =     80876.09404456
  -Hartree energ DENC   =   -114713.90424371
  -exchange      EXHF   =         0.00000000
  -V(xc)+E(xc)   XCENC  =      -384.41591003
  PAW double counting   =     36888.81477854   -35385.23177483
  entropy T*S    EENTRO =         0.00000000
  eigenvalues    EBANDS =     -2714.35932407
  atomic energy  EATOM  =     35264.75342294
  ---------------------------------------------------
  free energy    TOTEN  =       -71.37066297 eV

  energy without entropy =      -71.37066297  energy(sigma->0) =      -71.37066297


--------------------------------------------------------------------------------------------------------




----------------------------------------- Iteration    1(  25)  ---------------------------------------


    POTLOK:  cpu time    0.19: real time    0.19
    SETDIJ:  cpu time    0.01: real time    0.01
     EDDAV:  cpu time    2.73: real time    2.73
       DOS:  cpu time    0.00: real time    0.00
    CHARGE:  cpu time    0.09: real time    0.09
    MIXING:  cpu time    0.01: real time    0.01
    --------------------------------------------
      LOOP:  cpu time    3.02: real time    3.03

 eigenvalue-minimisations  :  1028
 total energy-change (2. order) :-0.2089188E-01  (-0.1859106E-03)
 number of electron     374.0001028 magnetization       0.0329157
 augmentation part      179.3551750 magnetization       0.0333249

 Broyden mixing:
  rms(total) = 0.97993E-02    rms(broyden)= 0.97985E-02
  rms(prec ) = 0.10409E-01
  weight for this iteration     100.00

 eigenvalues of (default mixing * dielectric matrix)
  average eigenvalue GAMMA=   1.6847
 10.1913  4.3374  2.8987  2.2513  1.7348  1.7348  1.1284  1.1284  0.8595  0.8595
  0.9892  0.7154  0.7154  0.4484  0.4484  0.7663  0.7086  0.6270  0.6270  0.5249

 Free energy of the ion-electron system (eV)
  ---------------------------------------------------
  alpha Z        PSCENC =        96.87834364
  Ewald energy   TEWEN  =     80876.09404456
  -Hartree energ DENC   =   -114709.63409752
  -exchange      EXHF   =         0.00000000
  -V(xc)+E(xc)   XCENC  =      -384.45587212
  PAW double counting   =     36885.50750194   -35381.97570361
  entropy T*S    EENTRO =         0.00000000
  eigenvalues    EBANDS =     -2718.55919466
  atomic energy  EATOM  =     35264.75342294
  ---------------------------------------------------
  free energy    TOTEN  =       -71.39155485 eV

  energy without entropy =      -71.39155485  energy(sigma->0) =      -71.39155485


--------------------------------------------------------------------------------------------------------




----------------------------------------- Iteration    1(  26)  ---------------------------------------


    POTLOK:  cpu time    0.19: real time    0.19
    SETDIJ:  cpu time    0.00: real time    0.01
     EDDAV:  cpu time    2.10: real time    2.10
       DOS:  cpu time    0.00: real time    0.00
    CHARGE:  cpu time    0.09: real time    0.09
    MIXING:  cpu time    0.01: real time    0.01
    --------------------------------------------
      LOOP:  cpu time    2.40: real time    2.40

 eigenvalue-minimisations  :   712
 total energy-change (2. order) :-0.4320076E-02  (-0.3292630E-04)
 number of electron     374.0001028 magnetization       0.0198541
 augmentation part      179.3548771 magnetization       0.0216427

 Broyden mixing:
  rms(total) = 0.74736E-02    rms(broyden)= 0.74734E-02
  rms(prec ) = 0.79689E-02
  weight for this iteration     100.00

 eigenvalues of (default mixing * dielectric matrix)
  average eigenvalue GAMMA=   1.6915
 10.1581  4.5808  3.1455  2.1724  1.8001  1.8001  1.3054  1.3054  1.1621  0.8534
  0.8534  0.7091  0.7091  0.7934  0.7934  0.4484  0.4484  0.7153  0.6246  0.6176
  0.5255

 Free energy of the ion-electron system (eV)
  ---------------------------------------------------
  alpha Z        PSCENC =        96.87834364
  Ewald energy   TEWEN  =     80876.09404456
  -Hartree energ DENC   =   -114708.07862519
  -exchange      EXHF   =         0.00000000
  -V(xc)+E(xc)   XCENC  =      -384.46573228
  PAW double counting   =     36888.97133280   -35385.45471208
  entropy T*S    EENTRO =         0.00000000
  eigenvalues    EBANDS =     -2720.09394930
  atomic energy  EATOM  =     35264.75342294
  ---------------------------------------------------
  free energy    TOTEN  =       -71.39587492 eV

  energy without entropy =      -71.39587492  energy(sigma->0) =      -71.39587492


--------------------------------------------------------------------------------------------------------




----------------------------------------- Iteration    1(  27)  ---------------------------------------


    POTLOK:  cpu time    0.19: real time    0.19
    SETDIJ:  cpu time    0.01: real time    0.01
     EDDAV:  cpu time    2.04: real time    2.04
       DOS:  cpu time    0.00: real time    0.00
    CHARGE:  cpu time    0.09: real time    0.09
    MIXING:  cpu time    0.01: real time    0.01
    --------------------------------------------
      LOOP:  cpu time    2.34: real time    2.34

 eigenvalue-minimisations  :   680
 total energy-change (2. order) :-0.6446296E-02  (-0.3039483E-04)
 number of electron     374.0001028 magnetization       0.0092698
 augmentation part      179.3538241 magnetization       0.0098587

 Broyden mixing:
  rms(total) = 0.31226E-02    rms(broyden)= 0.31223E-02
  rms(prec ) = 0.35904E-02
  weight for this iteration     100.00

 eigenvalues of (default mixing * dielectric matrix)
  average eigenvalue GAMMA=   1.7103
 10.1680  4.9029  3.0940  2.7179  1.8095  1.8095  1.3773  1.3773  1.3726  0.8550
  0.8550  0.9896  0.7124  0.7124  0.7881  0.7881  0.4484  0.4484  0.5252  0.6439
  0.6157  0.6157

 Free energy of the ion-electron system (eV)
  ---------------------------------------------------
  alpha Z        PSCENC =        96.87834364
  Ewald energy   TEWEN  =     80876.09404456
  -Hartree energ DENC   =   -114706.32961141
  -exchange      EXHF   =         0.00000000
  -V(xc)+E(xc)   XCENC  =      -384.47645676
  PAW double counting   =     36894.28558983   -35390.76863984
  entropy T*S    EENTRO =         0.00000000
  eigenvalues    EBANDS =     -2721.83901416
  atomic energy  EATOM  =     35264.75342294
  ---------------------------------------------------
  free energy    TOTEN  =       -71.40232122 eV

  energy without entropy =      -71.40232122  energy(sigma->0) =      -71.40232122


--------------------------------------------------------------------------------------------------------




----------------------------------------- Iteration    1(  28)  ---------------------------------------


    POTLOK:  cpu time    0.19: real time    0.19
    SETDIJ:  cpu time    0.00: real time    0.01
     EDDAV:  cpu time    2.06: real time    2.06
       DOS:  cpu time    0.00: real time    0.00
    CHARGE:  cpu time    0.09: real time    0.09
    MIXING:  cpu time    0.01: real time    0.01
    --------------------------------------------
      LOOP:  cpu time    2.35: real time    2.36

 eigenvalue-minimisations  :   688
 total energy-change (2. order) :-0.2892619E-02  (-0.1306704E-04)
 number of electron     374.0001028 magnetization       0.0106222
 augmentation part      179.3548528 magnetization       0.0108141

 Broyden mixing:
  rms(total) = 0.11120E-02    rms(broyden)= 0.11116E-02
  rms(prec ) = 0.15964E-02
  weight for this iteration     100.00

 eigenvalues of (default mixing * dielectric matrix)
  average eigenvalue GAMMA=   1.7234
 10.1242  5.2986  3.4147  2.5224  1.8091  1.8091  1.9062  1.3913  1.3913  1.1366
  0.8561  0.8561  0.7139  0.7139  0.8415  0.7825  0.7825  0.4484  0.4484  0.5253
  0.6325  0.6165  0.6165

 Free energy of the ion-electron system (eV)
  ---------------------------------------------------
  alpha Z        PSCENC =        96.87834364
  Ewald energy   TEWEN  =     80876.09404456
  -Hartree energ DENC   =   -114704.66870553
  -exchange      EXHF   =         0.00000000
  -V(xc)+E(xc)   XCENC  =      -384.48657813
  PAW double counting   =     36895.46908655   -35391.93931780
  entropy T*S    EENTRO =         0.00000000
  eigenvalues    EBANDS =     -2723.50551006
  atomic energy  EATOM  =     35264.75342294
  ---------------------------------------------------
  free energy    TOTEN  =       -71.40521384 eV

  energy without entropy =      -71.40521384  energy(sigma->0) =      -71.40521384


--------------------------------------------------------------------------------------------------------




----------------------------------------- Iteration    1(  29)  ---------------------------------------


    POTLOK:  cpu time    0.19: real time    0.19
    SETDIJ:  cpu time    0.00: real time    0.01
     EDDAV:  cpu time    2.01: real time    2.02
       DOS:  cpu time    0.00: real time    0.00
    CHARGE:  cpu time    0.08: real time    0.09
    MIXING:  cpu time    0.01: real time    0.01
    --------------------------------------------
      LOOP:  cpu time    2.31: real time    2.32

 eigenvalue-minimisations  :   668
 total energy-change (2. order) :-0.2810246E-02  (-0.5777696E-05)
 number of electron     374.0001028 magnetization       0.0051254
 augmentation part      179.3552612 magnetization       0.0047980

 Broyden mixing:
  rms(total) = 0.95509E-03    rms(broyden)= 0.95485E-03
  rms(prec ) = 0.11861E-02
  weight for this iteration     100.00

 eigenvalues of (default mixing * dielectric matrix)
  average eigenvalue GAMMA=   1.7556
 10.0887  5.9172  3.4697  2.6519  2.6519  1.8131  1.8131  1.4083  1.4083  1.1712
  0.8563  0.8563  0.9116  0.7119  0.7119  0.8119  0.8119  0.4484  0.4484  0.7736
  0.5253  0.6440  0.6149  0.6149

 Free energy of the ion-electron system (eV)
  ---------------------------------------------------
  alpha Z        PSCENC =        96.87834364
  Ewald energy   TEWEN  =     80876.09404456
  -Hartree energ DENC   =   -114703.45195157
  -exchange      EXHF   =         0.00000000
  -V(xc)+E(xc)   XCENC  =      -384.49433692
  PAW double counting   =     36896.03530795   -35392.50974037
  entropy T*S    EENTRO =         0.00000000
  eigenvalues    EBANDS =     -2724.71311430
  atomic energy  EATOM  =     35264.75342294
  ---------------------------------------------------
  free energy    TOTEN  =       -71.40802408 eV

  energy without entropy =      -71.40802408  energy(sigma->0) =      -71.40802408


--------------------------------------------------------------------------------------------------------




----------------------------------------- Iteration    1(  30)  ---------------------------------------


    POTLOK:  cpu time    0.18: real time    0.19
    SETDIJ:  cpu time    0.01: real time    0.01
     EDDAV:  cpu time    2.02: real time    2.02
       DOS:  cpu time    0.00: real time    0.00
    CHARGE:  cpu time    0.09: real time    0.09
    MIXING:  cpu time    0.01: real time    0.01
    --------------------------------------------
      LOOP:  cpu time    2.32: real time    2.32

 eigenvalue-minimisations  :   668
 total energy-change (2. order) :-0.1463666E-02  (-0.3283600E-05)
 number of electron     374.0001028 magnetization       0.0038799
 augmentation part      179.3558650 magnetization       0.0035776

 Broyden mixing:
  rms(total) = 0.90760E-03    rms(broyden)= 0.90740E-03
  rms(prec ) = 0.10031E-02
  weight for this iteration     100.00

 eigenvalues of (default mixing * dielectric matrix)
  average eigenvalue GAMMA=   1.7699
 10.0244  6.5374  3.5712  3.0719  2.5298  1.8163  1.8163  1.4393  1.4393  1.2834
  0.8560  0.8560  1.0129  1.0129  0.4484  0.4484  0.7127  0.7127  0.7760  0.7760
  0.7212  0.5252  0.6339  0.6123  0.6123

 Free energy of the ion-electron system (eV)
  ---------------------------------------------------
  alpha Z        PSCENC =        96.87834364
  Ewald energy   TEWEN  =     80876.09404456
  -Hartree energ DENC   =   -114702.60620099
  -exchange      EXHF   =         0.00000000
  -V(xc)+E(xc)   XCENC  =      -384.49958832
  PAW double counting   =     36895.64068827   -35392.11150754
  entropy T*S    EENTRO =         0.00000000
  eigenvalues    EBANDS =     -2725.55869031
  atomic energy  EATOM  =     35264.75342294
  ---------------------------------------------------
  free energy    TOTEN  =       -71.40948775 eV

  energy without entropy =      -71.40948775  energy(sigma->0) =      -71.40948775


--------------------------------------------------------------------------------------------------------




----------------------------------------- Iteration    1(  31)  ---------------------------------------


[...]
 total charge-density along one line
 
 soft charge-density along one line, spin component           2
         0         1         2         3         4         5         6         7         8         9
 total charge-density along one line
 
 pseudopotential strength for first ion, spin component:           1
-10.259   0.008  -0.003   0.003  -0.001 -10.236   0.008  -0.003
  0.008 -10.263   0.002   0.003  -0.003   0.008 -10.240   0.002
 -0.003   0.002 -10.266   0.003   0.007  -0.003   0.002 -10.242
  0.003   0.003   0.003 -10.261   0.009   0.003   0.003   0.003
 -0.001  -0.003   0.007   0.009 -10.253  -0.001  -0.003   0.007
-10.236   0.008  -0.003   0.003  -0.001 -10.189   0.008  -0.003
  0.008 -10.240   0.002   0.003  -0.003   0.008 -10.192   0.002
 -0.003   0.002 -10.242   0.003   0.007  -0.003   0.002 -10.195
  0.003   0.003   0.003 -10.237   0.008   0.003   0.002   0.003
 -0.001  -0.003   0.007   0.008 -10.231  -0.001  -0.002   0.007
 -0.002  -0.002   0.002  -0.004   0.001  -0.002  -0.001   0.002
 -0.003  -0.002   0.003  -0.006   0.002  -0.003  -0.002   0.003
  0.020  -0.026  -0.000  -0.000   0.000   0.020  -0.025  -0.000
 -0.000  -0.001  -0.030   0.020  -0.000  -0.000  -0.001  -0.029
  0.000  -0.000  -0.012  -0.026   0.020   0.000  -0.000  -0.011
  0.025  -0.031  -0.000  -0.000   0.001   0.024  -0.030  -0.000
 -0.000  -0.001  -0.036   0.025  -0.000  -0.000  -0.001  -0.035
  0.000  -0.000  -0.014  -0.031   0.025   0.000  -0.000  -0.014
 pseudopotential strength for first ion, spin component:           2
-10.259   0.008  -0.003   0.003  -0.001 -10.236   0.008  -0.003
  0.008 -10.263   0.002   0.003  -0.003   0.008 -10.240   0.002
 -0.003   0.002 -10.266   0.003   0.007  -0.003   0.002 -10.242
  0.003   0.003   0.003 -10.261   0.009   0.003   0.003   0.003
 -0.001  -0.003   0.007   0.009 -10.253  -0.001  -0.003   0.007
-10.236   0.008  -0.003   0.003  -0.001 -10.189   0.008  -0.003
  0.008 -10.240   0.002   0.003  -0.003   0.008 -10.192   0.002
 -0.003   0.002 -10.242   0.003   0.007  -0.003   0.002 -10.195
  0.003   0.003   0.003 -10.237   0.008   0.003   0.002   0.003
 -0.001  -0.003   0.007   0.008 -10.231  -0.001  -0.002   0.007
 -0.002  -0.002   0.002  -0.004   0.001  -0.002  -0.001   0.002
 -0.003  -0.002   0.003  -0.006   0.002  -0.003  -0.002   0.003
  0.020  -0.026  -0.000  -0.000   0.000   0.020  -0.025  -0.000
 -0.000  -0.001  -0.030   0.020  -0.000  -0.000  -0.001  -0.029
  0.000  -0.000  -0.012  -0.026   0.020   0.000  -0.000  -0.011
  0.025  -0.031  -0.000  -0.000   0.001   0.024  -0.030  -0.000
 -0.000  -0.001  -0.036   0.025  -0.000  -0.000  -0.001  -0.035
  0.000  -0.000  -0.014  -0.031   0.025   0.000  -0.000  -0.014
 total augmentation occupancy for first ion, spin component:           1
  2.458  -0.168   0.014   0.013  -0.042  -0.507   0.186  -0.029   0.002   0.031   0.126  -0.018   0.081   0.005  -0.013   0.008
 -0.168   2.545  -0.033  -0.016   0.047   0.186  -0.606   0.038   0.028  -0.057   0.126  -0.019  -0.110   0.020   0.008  -0.010
  0.014  -0.033   2.653   0.037  -0.063  -0.029   0.037  -0.674  -0.047   0.120  -0.138   0.047   0.010  -0.098  -0.067  -0.002
  0.013  -0.016   0.037   2.539  -0.067   0.002   0.028  -0.047  -0.504   0.097   0.273  -0.084   0.006   0.035  -0.083  -0.000
 -0.042   0.047  -0.063  -0.067   2.543   0.031  -0.057   0.120   0.097  -0.488  -0.101   0.034  -0.018   0.011   0.068  -0.001
 -0.507   0.186  -0.029   0.002   0.031   0.526  -0.200   0.041  -0.015  -0.023  -0.111   0.015  -0.109  -0.005   0.014   0.006
  0.186  -0.606   0.037   0.028  -0.057  -0.200   0.634  -0.042  -0.039   0.067  -0.113   0.016   0.145  -0.022  -0.008  -0.009
 -0.029   0.038  -0.674  -0.047   0.120   0.041  -0.042   0.665   0.055  -0.167   0.109  -0.033  -0.011   0.132   0.087   0.001
  0.002   0.028  -0.047  -0.504   0.097  -0.015  -0.039   0.055   0.453  -0.124  -0.224   0.064  -0.006  -0.049   0.105   0.000
  0.031  -0.057   0.120   0.097  -0.488  -0.023   0.067  -0.167  -0.124   0.415   0.080  -0.025   0.019  -0.018  -0.091  -0.001
  0.126   0.126  -0.138   0.273  -0.101  -0.111  -0.113   0.109  -0.224   0.080   1.797  -0.200  -0.004   0.204  -0.160   0.000
 -0.018  -0.019   0.047  -0.084   0.034   0.015   0.016  -0.033   0.064  -0.025  -0.200   0.041   0.001  -0.038   0.029  -0.000
  0.081  -0.110   0.010   0.006  -0.018  -0.109   0.145  -0.011  -0.006   0.019  -0.004   0.001   0.050  -0.004  -0.005  -0.003
  0.005   0.020  -0.098   0.035   0.011  -0.005  -0.022   0.132  -0.049  -0.018   0.204  -0.038  -0.004   0.058  -0.007   0.000
 -0.013   0.008  -0.067  -0.083   0.068   0.014  -0.008   0.087   0.105  -0.091  -0.160   0.029  -0.005  -0.007   0.055   0.000
  0.008  -0.010  -0.002  -0.000  -0.001   0.006  -0.009   0.001   0.000  -0.001   0.000  -0.000  -0.003   0.000   0.000   0.000
 -0.000  -0.002  -0.013   0.009  -0.000   0.000   0.002  -0.008   0.004   0.001  -0.018   0.003   0.000  -0.005   0.001  -0.000
  0.001  -0.000  -0.004  -0.010   0.008  -0.001   0.000  -0.005  -0.007   0.006   0.014  -0.002   0.000   0.001  -0.004  -0.000
 total augmentation occupancy for first ion, spin component:           2
  0.000   0.000  -0.000   0.000   0.000  -0.000  -0.000   0.000  -0.000  -0.000  -0.000   0.000  -0.000  -0.000  -0.000  -0.000
  0.000   0.000  -0.000  -0.000  -0.000  -0.000  -0.000   0.000   0.000   0.000   0.000  -0.000   0.000  -0.000  -0.000  -0.000
 -0.000  -0.000   0.000   0.000  -0.000   0.000   0.000  -0.000  -0.000   0.000   0.000  -0.000  -0.000   0.000   0.000   0.000
  0.000  -0.000   0.000   0.000  -0.000  -0.000   0.000  -0.000  -0.000   0.000   0.000   0.000  -0.000   0.000  -0.000   0.000
  0.000  -0.000  -0.000  -0.000  -0.000  -0.000   0.000   0.000   0.000   0.000   0.000  -0.000  -0.000  -0.000  -0.000   0.000
 -0.000  -0.000   0.000  -0.000  -0.000   0.000   0.000   0.000   0.000   0.000   0.000  -0.000   0.000   0.000   0.000  -0.000
 -0.000  -0.000   0.000   0.000   0.000   0.000  -0.000  -0.000  -0.000  -0.000  -0.000   0.000  -0.000  -0.000  -0.000   0.000
  0.000   0.000  -0.000  -0.000   0.000   0.000  -0.000   0.000   0.000  -0.000  -0.000   0.000   0.000  -0.000  -0.000  -0.000
 -0.000   0.000  -0.000  -0.000   0.000   0.000  -0.000   0.000  -0.000  -0.000  -0.000  -0.000   0.000   0.000   0.000  -0.000
 -0.000   0.000   0.000   0.000   0.000   0.000  -0.000  -0.000  -0.000  -0.000  -0.000   0.000   0.000   0.000  -0.000  -0.000
 -0.000   0.000   0.000   0.000   0.000   0.000  -0.000  -0.000  -0.000  -0.000  -0.000   0.000   0.000   0.000   0.000  -0.000
  0.000  -0.000  -0.000   0.000  -0.000  -0.000   0.000   0.000  -0.000   0.000   0.000  -0.000  -0.000  -0.000  -0.000   0.000
 -0.000   0.000  -0.000  -0.000  -0.000   0.000  -0.000   0.000   0.000   0.000   0.000  -0.000  -0.000  -0.000   0.000   0.000
 -0.000  -0.000   0.000   0.000  -0.000   0.000  -0.000  -0.000   0.000   0.000   0.000  -0.000  -0.000   0.000  -0.000   0.000
 -0.000  -0.000   0.000  -0.000  -0.000   0.000  -0.000  -0.000   0.000  -0.000   0.000  -0.000   0.000  -0.000   0.000  -0.000
 -0.000  -0.000   0.000   0.000   0.000  -0.000   0.000  -0.000  -0.000  -0.000  -0.000   0.000   0.000   0.000  -0.000  -0.000
  0.000   0.000  -0.000  -0.000  -0.000  -0.000  -0.000   0.000   0.000   0.000  -0.000   0.000   0.000  -0.000  -0.000  -0.000
  0.000   0.000  -0.000   0.000   0.000   0.000  -0.000   0.000   0.000   0.000  -0.000   0.000  -0.000  -0.000  -0.000   0.000


------------------------ aborting loop because EDIFF is reached ----------------------------------------


    CHARGE:  cpu time    0.09: real time    0.09
    FORLOC:  cpu time    0.01: real time    0.01
    FORNL :  cpu time    1.83: real time    1.83
    STRESS:  cpu time    2.12: real time    2.12
    FORCOR:  cpu time    0.19: real time    0.19
    FORHAR:  cpu time    0.03: real time    0.03
    MIXING:  cpu time    0.00: real time    0.00
    OFIELD:  cpu time    0.00: real time    0.00

  FORCE on cell =-STRESS in cart. coord.  units (eV):
  Direction    XX          YY          ZZ          XY          YZ          ZX
  --------------------------------------------------------------------------------------
  Alpha Z    96.87834    96.87834    96.87834
  Ewald   25812.71998 25409.54902 28352.52037 -2317.49946 -2275.19467 -1307.87541
  Hartree 37133.77371 36764.99263 39522.57889 -2136.51618 -2083.17180 -1210.24474
  E(xc)   -1971.76543 -1971.87133 -1971.53221    -0.34617    -0.35198    -0.17673
  Local  -68507.71582-67735.44144-73434.69179  4455.36885  4356.81476  2519.52391
  n-local  -355.03837  -354.95815  -354.38292    -1.10157    -1.23619    -0.72253
  augment  3123.78194  3123.74976  3123.15648     0.02423     0.73868    -0.11606
  Kinetic  4655.90953  4655.41641  4653.88551    -0.16506     1.67499    -0.60527
  Fock        0.00000     0.00000     0.00000     0.00000     0.00000     0.00000
  -------------------------------------------------------------------------------------
  Total     -11.45612   -11.68476   -11.58733    -0.23536    -0.72621    -0.21683
  in kB      -1.80843    -1.84453    -1.82915    -0.03715    -0.11464    -0.03423
  external pressure =       -1.83 kB  Pullay stress =        0.00 kB


 VOLUME and BASIS-vectors are now :
 -----------------------------------------------------------------------------
  energy-cutoff  :      249.84
  volume of cell :    10149.52
      direct lattice vectors                 reciprocal lattice vectors
    21.651189941  0.000000000  0.000000000     0.046186838  0.000000000  0.000000000
     0.000000000 21.651189941  0.000000000     0.000000000  0.046186838  0.000000000
     0.000000000  0.000000000 21.651189941     0.000000000  0.000000000  0.046186838

  length of vectors
    21.651189941 21.651189941 21.651189941     0.046186838  0.046186838  0.046186838


 FORCES acting on ions
    electron-ion (+dipol)            ewald-force                    non-local-force                 convergence-correction
 -----------------------------------------------------------------------------------------------
   -.808E+03 -.134E+03 0.120E+04   0.804E+03 0.134E+03 -.120E+04   0.401E+01 -.280E-01 -.500E+01   0.957E-02 0.428E-01 0.317E-01
   -.665E+01 0.430E+03 0.142E+04   0.590E+01 -.429E+03 -.142E+04   0.665E+00 -.104E+00 -.371E+01   0.936E-01 0.161E-01 0.535E-01
   -.101E+02 -.823E+03 0.128E+04   0.101E+02 0.821E+03 -.127E+04   0.134E-01 0.224E+01 -.351E+01   -.226E-01 0.168E-01 -.633E-01
   0.746E+02 -.136E+04 0.641E+03   -.742E+02 0.136E+04 -.640E+03   -.456E+00 0.191E+01 -.718E+00   0.271E-01 0.399E-01 -.622E-01
   0.779E+03 -.508E+03 0.118E+04   -.778E+03 0.507E+03 -.118E+04   -.140E+01 0.829E+00 -.130E+01   0.631E-02 0.156E-01 -.343E-01
   -.113E+04 0.401E+03 0.829E+03   0.113E+04 -.401E+03 -.827E+03   0.159E+01 -.258E+00 -.162E+01   0.115E+00 -.494E-01 -.635E-01
   0.982E+03 -.101E+04 0.300E+03   -.981E+03 0.101E+04 -.299E+03   -.718E+00 0.101E+01 -.619E+00   0.450E-01 0.185E-01 -.383E-01
   0.644E+03 0.692E+03 0.116E+04   -.642E+03 -.691E+03 -.116E+04   -.206E+01 -.932E+00 -.145E+01   0.721E-01 0.791E-01 0.469E-01
   -.107E+04 -.864E+03 0.610E+03   0.107E+04 0.862E+03 -.607E+03   0.231E+01 0.182E+01 -.257E+01   -.443E-01 -.395E-01 -.310E-01
   -.909E+03 -.118E+04 -.504E+02   0.908E+03 0.118E+04 0.498E+02   0.895E+00 0.227E+01 0.679E+00   -.481E-01 -.208E-01 0.167E-02
   -.161E+03 -.176E+03 0.476E+03   0.160E+03 0.176E+03 -.474E+03   0.104E+01 0.245E+00 -.188E+01   -.235E-01 -.132E-01 0.270E-01
   0.140E+04 -.217E+03 0.718E+03   -.139E+04 0.217E+03 -.716E+03   -.436E+01 -.671E+00 -.232E+01   -.121E-01 0.691E-01 -.103E-01
   0.288E+03 -.154E+04 -.149E+03   -.288E+03 0.154E+04 0.148E+03   0.116E+00 0.475E+01 0.124E+01   0.671E-01 -.190E-01 -.196E-01
   -.251E+03 0.112E+04 0.887E+03   0.251E+03 -.112E+04 -.886E+03   -.202E+00 -.115E+01 -.847E+00   0.495E-01 -.769E-01 -.450E-01
   0.658E+03 0.196E+03 0.513E+02   -.656E+03 -.195E+03 -.509E+02   -.165E+01 -.899E+00 -.449E+00   -.451E-01 0.788E-01 0.550E-01
   0.125E+04 0.854E+03 0.483E+03   -.125E+04 -.852E+03 -.482E+03   -.558E+01 -.204E+01 -.783E+00   -.646E-01 0.587E-01 -.471E-01
   -.141E+04 -.297E+03 -.207E+02   0.141E+04 0.296E+03 0.203E+02   0.139E+01 0.761E+00 0.443E+00   -.123E+00 -.700E-01 -.388E-01
   0.150E+04 -.286E+03 -.405E+03   -.150E+04 0.285E+03 0.404E+03   -.388E+01 0.272E+00 0.680E+00   0.115E-01 0.675E-01 0.371E-01
   0.524E+03 0.138E+04 0.260E+03   -.523E+03 -.138E+04 -.260E+03   -.180E+01 -.201E+01 -.165E+00   0.624E-01 0.987E-01 0.171E-01
   0.545E+02 -.532E+03 -.433E+03   -.548E+02 0.530E+03 0.432E+03   0.307E+00 0.153E+01 0.113E+01   -.491E-01 -.327E-01 0.266E-01
   -.119E+04 0.762E+03 0.368E+03   0.119E+04 -.760E+03 -.368E+03   0.192E+01 -.145E+01 -.110E+00   0.118E-01 -.922E-01 -.101E-01
   0.956E+03 -.967E+03 -.832E+03   -.954E+03 0.964E+03 0.830E+03   -.196E+01 0.255E+01 0.214E+01   0.612E-02 0.477E-01 -.109E-01
   -.275E+03 0.390E+03 -.256E+03   0.274E+03 -.388E+03 0.256E+03   0.140E+01 -.151E+01 0.410E+00   -.418E-01 -.344E-01 0.381E-01
   -.480E+03 -.123E+04 -.887E+03   0.480E+03 0.123E+04 0.883E+03   0.114E+00 0.469E+01 0.363E+01   0.281E-02 -.161E-01 0.440E-01
   0.123E+04 0.802E+03 -.624E+03   -.122E+04 -.799E+03 0.624E+03   -.403E+01 -.295E+01 0.620E+00   -.448E-01 0.105E-01 -.105E-01
   -.191E+03 0.148E+04 0.394E+02   0.190E+03 -.148E+04 -.400E+02   0.126E+01 -.355E+01 0.658E+00   -.460E-01 0.198E-01 -.200E-03
   -.105E+04 -.500E+03 -.960E+03   0.105E+04 0.498E+03 0.958E+03   0.109E+01 0.142E+01 0.209E+01   -.389E-01 -.263E-01 -.347E-01
   0.804E+03 0.129E+03 -.120E+04   -.804E+03 -.129E+03 0.120E+04   -.537E+00 -.384E+00 0.138E+01   -.318E-03 -.577E-01 0.691E-01
   0.497E+03 0.108E+04 -.915E+03   -.496E+03 -.108E+04 0.913E+03   -.102E+01 -.107E+01 0.131E+01   -.697E-02 -.310E-01 0.425E-01
   -.127E+04 0.202E+03 -.789E+03   0.127E+04 -.200E+03 0.787E+03   0.299E+01 -.155E+01 0.207E+01   -.120E-02 -.293E-01 -.256E-01
   0.129E+03 -.545E+03 -.148E+04   -.130E+03 0.542E+03 0.147E+04   0.592E+00 0.253E+01 0.438E+01   -.309E-01 -.207E-01 -.917E-02
   -.996E+03 0.103E+04 -.314E+03   0.992E+03 -.103E+04 0.314E+03   0.460E+01 -.434E+01 0.648E+00   0.241E-01 -.151E-01 0.146E-01
   -.214E+03 0.233E+03 -.146E+04   0.213E+03 -.233E+03 0.146E+04   0.200E-01 -.101E+00 0.194E+01   0.312E-01 -.354E-01 0.687E-01
   -.340E+03 0.987E+03 -.112E+04   0.339E+03 -.985E+03 0.112E+04   0.994E+00 -.255E+01 0.295E+01   -.165E-01 -.586E-02 0.879E-02
 -----------------------------------------------------------------------------------------------
   0.240E+01 -.135E+01 -.143E+01   -.125E-11 0.227E-11 -.136E-11   -.234E+01 0.129E+01 0.133E+01   -.243E-01 -.577E-02 0.279E-01
 
 
 POSITION                                       TOTAL-FORCE (eV/Angst)
 -----------------------------------------------------------------------------------
     13.87298     11.91531      6.16688         0.005031      0.002031     -0.006263
     11.52011     10.58326      7.02137         0.005458      0.003685     -0.001628
     11.60848     13.38635      6.77711         0.002036      0.000977     -0.006988
     10.97562     14.46481      9.24611         0.003382     -0.000579     -0.006877
      9.30601     12.41888      7.96113         0.003331      0.004990     -0.001745
     13.95360     10.38306      8.45197         0.005473     -0.010988      0.008828
      8.57747     13.47365     10.57871         0.002555      0.006743     -0.000615
      9.31468      9.63806      8.35917        -0.000033      0.003228      0.008613
     13.66188     13.19857      8.71353        -0.007391     -0.004881      0.001181
     12.93237     14.06893     11.23153        -0.003249     -0.004402     -0.000035
     11.47030     11.65327      9.71318        -0.004407     -0.000200      0.002176
      7.03258     11.54173      9.31848         0.000594      0.005503      0.000779
     10.24074     15.35461     11.78813         0.003751     -0.000485     -0.001054
     11.84203      8.58089      9.08271         0.008957      0.001839     -0.002435
      9.12985     10.62645     11.03284        -0.008492     -0.001020     -0.000380
      7.15401      8.79831      9.87815         0.015999      0.002168     -0.001770
     14.28434     11.57019     11.01146        -0.015388     -0.007751     -0.005876
      6.84545     11.82446     12.19588         0.002149      0.003486      0.005434
      9.61822      7.83731     10.68295        -0.012728      0.014429     -0.002243
     10.77259     12.59994     12.35162        -0.000134     -0.000012      0.004422
     14.24793      8.73871     10.59989        -0.002365      0.001300     -0.008859
      8.46775     13.78684     13.45387         0.004224      0.007013      0.001078
     11.81080      9.95546     11.91484        -0.004977     -0.000720      0.002821
     12.09786     14.76381     13.79363         0.000014     -0.003561      0.003796
      7.46512      9.02520     12.65559         0.003977      0.002098     -0.001989
     12.11719      7.12063     11.56061         0.009164     -0.005086      0.004982
     13.32552     12.29437     13.58122        -0.000274     -0.004563      0.002027
      8.96709     10.96675     13.95314        -0.002913     -0.000204      0.000695
     10.02752      8.28443     13.43215        -0.005469      0.000222      0.003622
     14.34826      9.75935     13.24860        -0.001796     -0.004292     -0.005568
     10.59040     12.85872     15.17567        -0.001738     -0.003017      0.003947
     14.72878      6.98501     12.66770        -0.006151     -0.003837      0.003119
     11.67996     10.32935     14.75980        -0.002645      0.000505      0.000359
     12.60951      7.78026     14.24942         0.004053     -0.004619     -0.003556
 -----------------------------------------------------------------------------------
    total drift:                                0.033423     -0.068841     -0.068695


--------------------------------------------------------------------------------------------------------



  FREE ENERGIE OF THE ION-ELECTRON SYSTEM (eV)
  ---------------------------------------------------
  free  energy   TOTEN  =       -72.08065583 eV

  energy  without entropy=      -72.08065583  energy(sigma->0) =      -72.08065583
 
 d Force = 0.4809361E-03[ 0.298E-03, 0.664E-03]  d Energy = 0.8841614E-03-0.403E-03
 d Force = 0.5789069E+01[ 0.581E+01, 0.577E+01]  d Ewald  = 0.5789064E+01 0.456E-05


--------------------------------------------------------------------------------------------------------


    POTLOK:  cpu time    0.20: real time    0.20


--------------------------------------------------------------------------------------------------------




--------------------------------------------------------------------------------------------------------


  
 reached required accuracy - stopping structural energy minimisation
     LOOP+:  cpu time   12.44: real time   12.52
    4ORBIT:  cpu time    0.00: real time    0.00

 total amount of memory used by VASP on root node    50932. kBytes
========================================================================

   base      :      30000. kBytes
   nonl-proj :       1964. kBytes
   fftplans  :       3738. kBytes
   grid      :       9555. kBytes
   one-center:         46. kBytes
   wavefun   :       5629. kBytes
 
  
  
 General timing and accounting informations for this job:
 ========================================================
  
                  Total CPU time used (sec):      653.349
                            User time (sec):      648.273
                          System time (sec):        5.076
                         Elapsed time (sec):      686.390
  
                   Maximum memory used (kb):       61864.
                   Average memory used (kb):           0.
  
                          Minor page faults:       448913
                          Major page faults:            0
                 Voluntary context switches:        24884
