  22  22   0   0
  0.5110709E+03  0.2240275E-08  0.2240275E-08  0.2240275E-08  0.1000000E-15
  1.000000000000000E-004
  CAR 
 unknown system                          
      1.32521015    -10.49123331  301     -3.62784907      1.00000000
    -10.491  0.0000E+00  0.0000E+00  0.0000E+00  0.0000E+00
    -10.452  0.0000E+00  0.0000E+00  0.0000E+00  0.0000E+00
    -10.412  0.0000E+00  0.0000E+00  0.0000E+00  0.0000E+00
    -10.373  0.0000E+00  0.0000E+00  0.0000E+00  0.0000E+00
    -10.334  0.0000E+00  0.0000E+00  0.0000E+00  0.0000E+00
    -10.294  0.0000E+00  0.0000E+00  0.0000E+00  0.0000E+00
    -10.255  0.0000E+00  0.0000E+00  0.0000E+00  0.0000E+00
    -10.216  0.0000E+00  0.0000E+00  0.0000E+00  0.0000E+00
    -10.176  0.0000E+00  0.0000E+00  0.0000E+00  0.0000E+00
    -10.137  0.0000E+00  0.0000E+00  0.0000E+00  0.0000E+00
    -10.097  0.0000E+00  0.0000E+00  0.0000E+00  0.0000E+00
    -10.058  0.0000E+00  0.0000E+00  0.0000E+00  0.0000E+00
    -10.019  0.0000E+00  0.0000E+00  0.0000E+00  0.0000E+00
     -9.979  0.0000E+00  0.0000E+00  0.0000E+00  0.0000E+00
     -9.940  0.0000E+00  0.0000E+00  0.1000E-02  0.1000E-02
     -9.900  0.0000E+00  0.0000E+00  0.1000E-02  0.1000E-02
     -9.861  0.0000E+00  0.0000E+00  0.1000E-02  0.1000E-02
     -9.822  0.0000E+00  0.0000E+00  0.1000E-02  0.1000E-02
     -9.782  0.0000E+00  0.0000E+00  0.1000E-02  0.1000E-02
     -9.743  0.0000E+00  0.0000E+00  0.1000E-02  0.1000E-02
     -9.703  0.0000E+00  0.0000E+00  0.1000E-02  0.1000E-02
     -9.664  0.0000E+00  0.0000E+00  0.1000E-02  0.1000E-02
     -9.625  0.0000E+00  0.0000E+00  0.1000E-02  0.1000E-02
     -9.585  0.0000E+00  0.0000E+00  0.1000E-02  0.1000E-02
     -9.546  0.0000E+00  0.0000E+00  0.1000E-02  0.1000E-02
     -9.507  0.0000E+00  0.0000E+00  0.2000E-02  0.2000E-02
     -9.467  0.0000E+00  0.0000E+00  0.3000E-02  0.3000E-02
     -9.428  0.0000E+00  0.0000E+00  0.5000E-02  0.5000E-02
     -9.388  0.0000E+00  0.0000E+00  0.6000E-02  0.6000E-02
     -9.349  0.0000E+00  0.0000E+00  0.7000E-02  0.7000E-02
     -9.310  0.0000E+00  0.0000E+00  0.7000E-02  0.7000E-02
     -9.270  0.0000E+00  0.0000E+00  0.7000E-02  0.7000E-02
     -9.231  0.0000E+00  0.0000E+00  0.7000E-02  0.7000E-02
     -9.191  0.0000E+00  0.0000E+00  0.8000E-02  0.8000E-02
     -9.152  0.0000E+00  0.0000E+00  0.9000E-02  0.9000E-02
     -9.113  0.0000E+00  0.0000E+00  0.9000E-02  0.9000E-02
     -9.073  0.0000E+00  0.0000E+00  0.9000E-02  0.9000E-02
     -9.034  0.0000E+00  0.0000E+00  0.9000E-02  0.9000E-02
     -8.994  0.0000E+00  0.0000E+00  0.9000E-02  0.9000E-02
     -8.955  0.0000E+00  0.0000E+00  0.1100E-01  0.1100E-01
     -8.916  0.0000E+00  0.0000E+00  0.1200E-01  0.1200E-01
     -8.876  0.0000E+00  0.0000E+00  0.1200E-01  0.1200E-01
     -8.837  0.0000E+00  0.0000E+00  0.1200E-01  0.1200E-01
     -8.798  0.0000E+00  0.0000E+00  0.1300E-01  0.1300E-01
     -8.758  0.0000E+00  0.0000E+00  0.1500E-01  0.1500E-01
     -8.719  0.2539E-01  0.2539E-01  0.1600E-01  0.1600E-01
     -8.679  0.0000E+00  0.0000E+00  0.1600E-01  0.1600E-01
     -8.640  0.0000E+00  0.0000E+00  0.1700E-01  0.1700E-01
     -8.601  0.0000E+00  0.0000E+00  0.1800E-01  0.1800E-01
     -8.561  0.0000E+00  0.0000E+00  0.1900E-01  0.1900E-01
     -8.522  0.0000E+00  0.0000E+00  0.2100E-01  0.2100E-01
     -8.482  0.0000E+00  0.0000E+00  0.2200E-01  0.2200E-01
     -8.443  0.0000E+00  0.0000E+00  0.2400E-01  0.2400E-01
     -8.404  0.0000E+00  0.0000E+00  0.2500E-01  0.2500E-01
     -8.364  0.0000E+00  0.0000E+00  0.2600E-01  0.2600E-01
     -8.325  0.0000E+00  0.0000E+00  0.2700E-01  0.2700E-01
     -8.285  0.0000E+00  0.0000E+00  0.2900E-01  0.2900E-01
     -8.246  0.0000E+00  0.0000E+00  0.3000E-01  0.3000E-01
     -8.207  0.0000E+00  0.0000E+00  0.3100E-01  0.3100E-01
     -8.167  0.0000E+00  0.0000E+00  0.3400E-01  0.3400E-01
     -8.128  0.0000E+00  0.0000E+00  0.3500E-01  0.3500E-01
     -8.089  0.0000E+00  0.0000E+00  0.3600E-01  0.3600E-01
     -8.049  0.0000E+00  0.0000E+00  0.3700E-01  0.3700E-01
     -8.010  0.0000E+00  0.0000E+00  0.3800E-01  0.3800E-01
     -7.970  0.0000E+00  0.0000E+00  0.3900E-01  0.3900E-01
     -7.931  0.0000E+00  0.0000E+00  0.4100E-01  0.4100E-01
     -7.892  0.0000E+00  0.0000E+00  0.4300E-01  0.4300E-01
     -7.852  0.0000E+00  0.0000E+00  0.4400E-01  0.4400E-01
     -7.813  0.0000E+00  0.0000E+00  0.4600E-01  0.4600E-01
     -7.773  0.0000E+00  0.0000E+00  0.4700E-01  0.4700E-01
     -7.734  0.0000E+00  0.0000E+00  0.4900E-01  0.4900E-01
     -7.695  0.0000E+00  0.0000E+00  0.5100E-01  0.5100E-01
     -7.655  0.0000E+00  0.0000E+00  0.5100E-01  0.5100E-01
     -7.616  0.0000E+00  0.0000E+00  0.5400E-01  0.5400E-01
     -7.577  0.0000E+00  0.0000E+00  0.5600E-01  0.5600E-01
     -7.537  0.0000E+00  0.0000E+00  0.5800E-01  0.5800E-01
     -7.498  0.0000E+00  0.0000E+00  0.5900E-01  0.5900E-01
     -7.458  0.0000E+00  0.0000E+00  0.6000E-01  0.6000E-01
     -7.419  0.0000E+00  0.0000E+00  0.6100E-01  0.6100E-01
     -7.380  0.0000E+00  0.0000E+00  0.6200E-01  0.6200E-01
     -7.340  0.0000E+00  0.0000E+00  0.6300E-01  0.6300E-01
     -7.301  0.0000E+00  0.0000E+00  0.6500E-01  0.6500E-01
     -7.261  0.0000E+00  0.0000E+00  0.6600E-01  0.6600E-01
     -7.222  0.0000E+00  0.0000E+00  0.6900E-01  0.6900E-01
     -7.183  0.0000E+00  0.0000E+00  0.7200E-01  0.7200E-01
     -7.143  0.0000E+00  0.0000E+00  0.7300E-01  0.7300E-01
     -7.104  0.0000E+00  0.0000E+00  0.7500E-01  0.7500E-01
     -7.064  0.0000E+00  0.0000E+00  0.7700E-01  0.7700E-01
     -7.025  0.0000E+00  0.0000E+00  0.7900E-01  0.7900E-01
     -6.986  0.0000E+00  0.0000E+00  0.8100E-01  0.8100E-01
     -6.946  0.0000E+00  0.0000E+00  0.8400E-01  0.8400E-01
     -6.907  0.0000E+00  0.0000E+00  0.8600E-01  0.8600E-01
     -6.868  0.0000E+00  0.0000E+00  0.9000E-01  0.9000E-01
     -6.828  0.0000E+00  0.0000E+00  0.9200E-01  0.9200E-01
     -6.789  0.0000E+00  0.0000E+00  0.9400E-01  0.9400E-01
     -6.749  0.0000E+00  0.0000E+00  0.9700E-01  0.9700E-01
     -6.710  0.0000E+00  0.0000E+00  0.9900E-01  0.9900E-01
     -6.671  0.0000E+00  0.0000E+00  0.1010E+00  0.1010E+00
     -6.631  0.0000E+00  0.0000E+00  0.1030E+00  0.1030E+00
     -6.592  0.0000E+00  0.0000E+00  0.1050E+00  0.1050E+00
     -6.552  0.0000E+00  0.0000E+00  0.1080E+00  0.1080E+00
     -6.513  0.0000E+00  0.0000E+00  0.1080E+00  0.1080E+00
     -6.474  0.0000E+00  0.0000E+00  0.1100E+00  0.1100E+00
     -6.434  0.0000E+00  0.0000E+00  0.1110E+00  0.1110E+00
     -6.395  0.0000E+00  0.0000E+00  0.1130E+00  0.1130E+00
     -6.355  0.0000E+00  0.0000E+00  0.1130E+00  0.1130E+00
     -6.316  0.0000E+00  0.0000E+00  0.1130E+00  0.1130E+00
     -6.277  0.0000E+00  0.0000E+00  0.1130E+00  0.1130E+00
     -6.237  0.0000E+00  0.0000E+00  0.1130E+00  0.1130E+00
     -6.198  0.0000E+00  0.0000E+00  0.1130E+00  0.1130E+00
     -6.159  0.0000E+00  0.0000E+00  0.1140E+00  0.1140E+00
     -6.119  0.0000E+00  0.0000E+00  0.1140E+00  0.1140E+00
     -6.080  0.0000E+00  0.0000E+00  0.1140E+00  0.1140E+00
     -6.040  0.0000E+00  0.0000E+00  0.1140E+00  0.1140E+00
     -6.001  0.0000E+00  0.0000E+00  0.1140E+00  0.1140E+00
     -5.962  0.0000E+00  0.0000E+00  0.1140E+00  0.1140E+00
     -5.922  0.0000E+00  0.0000E+00  0.1140E+00  0.1140E+00
     -5.883  0.0000E+00  0.0000E+00  0.1140E+00  0.1140E+00
     -5.843  0.0000E+00  0.0000E+00  0.1140E+00  0.1140E+00
     -5.804  0.0000E+00  0.0000E+00  0.1140E+00  0.1140E+00
     -5.765  0.0000E+00  0.0000E+00  0.1140E+00  0.1140E+00
     -5.725  0.0000E+00  0.0000E+00  0.1140E+00  0.1140E+00
     -5.686  0.0000E+00  0.0000E+00  0.1140E+00  0.1140E+00
     -5.646  0.0000E+00  0.0000E+00  0.1140E+00  0.1140E+00
     -5.607  0.0000E+00  0.0000E+00  0.1150E+00  0.1150E+00
     -5.568  0.0000E+00  0.0000E+00  0.1150E+00  0.1150E+00
     -5.528  0.0000E+00  0.0000E+00  0.1150E+00  0.1150E+00
     -5.489  0.0000E+00  0.0000E+00  0.1150E+00  0.1150E+00
     -5.450  0.0000E+00  0.0000E+00  0.1150E+00  0.1150E+00
     -5.410  0.0000E+00  0.0000E+00  0.1150E+00  0.1150E+00
     -5.371  0.0000E+00  0.0000E+00  0.1150E+00  0.1150E+00
     -5.331  0.0000E+00  0.0000E+00  0.1150E+00  0.1150E+00
     -5.292  0.0000E+00  0.0000E+00  0.1150E+00  0.1150E+00
     -5.253  0.0000E+00  0.0000E+00  0.1150E+00  0.1150E+00
     -5.213  0.0000E+00  0.0000E+00  0.1150E+00  0.1150E+00
     -5.174  0.0000E+00  0.0000E+00  0.1160E+00  0.1160E+00
     -5.134  0.0000E+00  0.0000E+00  0.1160E+00  0.1160E+00
     -5.095  0.0000E+00  0.0000E+00  0.1160E+00  0.1160E+00
     -5.056  0.0000E+00  0.0000E+00  0.1160E+00  0.1160E+00
     -5.016  0.0000E+00  0.0000E+00  0.1160E+00  0.1160E+00
     -4.977  0.0000E+00  0.0000E+00  0.1160E+00  0.1160E+00
     -4.938  0.0000E+00  0.0000E+00  0.1170E+00  0.1170E+00
     -4.898  0.0000E+00  0.0000E+00  0.1170E+00  0.1170E+00
     -4.859  0.0000E+00  0.0000E+00  0.1170E+00  0.1170E+00
     -4.819  0.0000E+00  0.0000E+00  0.1170E+00  0.1170E+00
     -4.780  0.0000E+00  0.0000E+00  0.1170E+00  0.1170E+00
     -4.741  0.0000E+00  0.0000E+00  0.1170E+00  0.1170E+00
     -4.701  0.0000E+00  0.0000E+00  0.1170E+00  0.1170E+00
     -4.662  0.0000E+00  0.0000E+00  0.1170E+00  0.1170E+00
     -4.622  0.0000E+00  0.0000E+00  0.1180E+00  0.1180E+00
     -4.583  0.0000E+00  0.0000E+00  0.1180E+00  0.1180E+00
     -4.544  0.0000E+00  0.0000E+00  0.1180E+00  0.1180E+00
     -4.504  0.0000E+00  0.0000E+00  0.1180E+00  0.1180E+00
     -4.465  0.0000E+00  0.0000E+00  0.1180E+00  0.1180E+00
     -4.425  0.0000E+00  0.0000E+00  0.1180E+00  0.1180E+00
     -4.386  0.0000E+00  0.0000E+00  0.1180E+00  0.1180E+00
     -4.347  0.0000E+00  0.0000E+00  0.1180E+00  0.1180E+00
     -4.307  0.0000E+00  0.0000E+00  0.1180E+00  0.1180E+00
     -4.268  0.0000E+00  0.0000E+00  0.1190E+00  0.1190E+00
     -4.229  0.0000E+00  0.0000E+00  0.1190E+00  0.1190E+00
     -4.189  0.0000E+00  0.0000E+00  0.1190E+00  0.1190E+00
     -4.150  0.0000E+00  0.0000E+00  0.1190E+00  0.1190E+00
     -4.110  0.0000E+00  0.0000E+00  0.1190E+00  0.1190E+00
     -4.071  0.0000E+00  0.0000E+00  0.1190E+00  0.1190E+00
     -4.032  0.0000E+00  0.0000E+00  0.1190E+00  0.1190E+00
     -3.992  0.0000E+00  0.0000E+00  0.1190E+00  0.1190E+00
     -3.953  0.0000E+00  0.0000E+00  0.1190E+00  0.1190E+00
     -3.913  0.0000E+00  0.0000E+00  0.1190E+00  0.1190E+00
     -3.874  0.0000E+00  0.0000E+00  0.1200E+00  0.1200E+00
     -3.835  0.0000E+00  0.0000E+00  0.1200E+00  0.1200E+00
     -3.795  0.0000E+00  0.0000E+00  0.1200E+00  0.1200E+00
     -3.756  0.0000E+00  0.0000E+00  0.1200E+00  0.1200E+00
     -3.716  0.0000E+00  0.0000E+00  0.1200E+00  0.1200E+00
     -3.677  0.0000E+00  0.0000E+00  0.1200E+00  0.1200E+00
     -3.638  0.0000E+00  0.0000E+00  0.1210E+00  0.1210E+00
     -3.598  0.0000E+00  0.0000E+00  0.1210E+00  0.1210E+00
     -3.559  0.0000E+00  0.0000E+00  0.1210E+00  0.1210E+00
     -3.520  0.0000E+00  0.0000E+00  0.1210E+00  0.1210E+00
     -3.480  0.0000E+00  0.0000E+00  0.1210E+00  0.1210E+00
     -3.441  0.0000E+00  0.0000E+00  0.1210E+00  0.1210E+00
     -3.401  0.0000E+00  0.0000E+00  0.1210E+00  0.1210E+00
     -3.362  0.0000E+00  0.0000E+00  0.1220E+00  0.1220E+00
     -3.323  0.0000E+00  0.0000E+00  0.1220E+00  0.1220E+00
     -3.283  0.0000E+00  0.0000E+00  0.1220E+00  0.1220E+00
     -3.244  0.0000E+00  0.0000E+00  0.1220E+00  0.1220E+00
     -3.204  0.0000E+00  0.0000E+00  0.1220E+00  0.1220E+00
     -3.165  0.0000E+00  0.0000E+00  0.1220E+00  0.1220E+00
     -3.126  0.0000E+00  0.0000E+00  0.1220E+00  0.1220E+00
     -3.086  0.0000E+00  0.0000E+00  0.1220E+00  0.1220E+00
     -3.047  0.0000E+00  0.0000E+00  0.1220E+00  0.1220E+00
     -3.007  0.0000E+00  0.0000E+00  0.1220E+00  0.1220E+00
     -2.968  0.0000E+00  0.0000E+00  0.1220E+00  0.1220E+00
     -2.929  0.0000E+00  0.0000E+00  0.1230E+00  0.1230E+00
     -2.889  0.0000E+00  0.0000E+00  0.1230E+00  0.1230E+00
     -2.850  0.2021E-01  0.2020E-01  0.1238E+00  0.1238E+00
     -2.811  0.0000E+00  0.0000E+00  0.1240E+00  0.1240E+00
     -2.771  0.0000E+00  0.0000E+00  0.1250E+00  0.1250E+00
     -2.732  0.0000E+00  0.0000E+00  0.1250E+00  0.1250E+00
     -2.692  0.0000E+00  0.0000E+00  0.1250E+00  0.1250E+00
     -2.653  0.0000E+00  0.0000E+00  0.1250E+00  0.1250E+00
     -2.614  0.0000E+00  0.0000E+00  0.1250E+00  0.1250E+00
     -2.574  0.0000E+00  0.0000E+00  0.1250E+00  0.1250E+00
     -2.535  0.0000E+00  0.0000E+00  0.1250E+00  0.1250E+00
     -2.495  0.0000E+00  0.0000E+00  0.1250E+00  0.1250E+00
     -2.456  0.0000E+00  0.0000E+00  0.1260E+00  0.1260E+00
     -2.417  0.0000E+00  0.0000E+00  0.1260E+00  0.1260E+00
     -2.377  0.0000E+00  0.0000E+00  0.1260E+00  0.1260E+00
     -2.338  0.0000E+00  0.0000E+00  0.1270E+00  0.1270E+00
     -2.298  0.0000E+00  0.0000E+00  0.1280E+00  0.1280E+00
     -2.259  0.0000E+00  0.0000E+00  0.1280E+00  0.1280E+00
     -2.220  0.0000E+00  0.0000E+00  0.1280E+00  0.1280E+00
     -2.180  0.0000E+00  0.0000E+00  0.1280E+00  0.1280E+00
     -2.141  0.0000E+00  0.0000E+00  0.1280E+00  0.1280E+00
     -2.102  0.0000E+00  0.0000E+00  0.1280E+00  0.1280E+00
     -2.062  0.0000E+00  0.0000E+00  0.1280E+00  0.1280E+00
     -2.023  0.0000E+00  0.0000E+00  0.1280E+00  0.1280E+00
     -1.983  0.0000E+00  0.0000E+00  0.1290E+00  0.1290E+00
     -1.944  0.0000E+00  0.0000E+00  0.1290E+00  0.1290E+00
     -1.905  0.0000E+00  0.0000E+00  0.1290E+00  0.1290E+00
     -1.865  0.0000E+00  0.0000E+00  0.1300E+00  0.1300E+00
     -1.826  0.0000E+00  0.0000E+00  0.1300E+00  0.1300E+00
     -1.786  0.0000E+00  0.0000E+00  0.1300E+00  0.1300E+00
     -1.747  0.0000E+00  0.0000E+00  0.1300E+00  0.1300E+00
     -1.708  0.0000E+00  0.0000E+00  0.1300E+00  0.1300E+00
     -1.668  0.0000E+00  0.0000E+00  0.1310E+00  0.1310E+00
     -1.629  0.0000E+00  0.0000E+00  0.1310E+00  0.1310E+00
     -1.590  0.0000E+00  0.0000E+00  0.1310E+00  0.1310E+00
     -1.550  0.0000E+00  0.0000E+00  0.1310E+00  0.1310E+00
     -1.511  0.0000E+00  0.0000E+00  0.1320E+00  0.1320E+00
     -1.471  0.0000E+00  0.0000E+00  0.1320E+00  0.1320E+00
     -1.432  0.0000E+00  0.0000E+00  0.1320E+00  0.1320E+00
     -1.393  0.0000E+00  0.0000E+00  0.1320E+00  0.1320E+00
     -1.353  0.0000E+00  0.0000E+00  0.1320E+00  0.1320E+00
     -1.314  0.0000E+00  0.0000E+00  0.1330E+00  0.1330E+00
     -1.274  0.0000E+00  0.0000E+00  0.1330E+00  0.1330E+00
     -1.235  0.0000E+00  0.0000E+00  0.1330E+00  0.1330E+00
     -1.196  0.0000E+00  0.0000E+00  0.1330E+00  0.1330E+00
     -1.156  0.0000E+00  0.0000E+00  0.1340E+00  0.1340E+00
     -1.117  0.0000E+00  0.0000E+00  0.1340E+00  0.1340E+00
     -1.077  0.0000E+00  0.0000E+00  0.1340E+00  0.1340E+00
     -1.038  0.0000E+00  0.0000E+00  0.1340E+00  0.1340E+00
     -0.999  0.0000E+00  0.0000E+00  0.1350E+00  0.1350E+00
     -0.959  0.0000E+00  0.0000E+00  0.1350E+00  0.1350E+00
     -0.920  0.0000E+00  0.0000E+00  0.1350E+00  0.1350E+00
     -0.881  0.0000E+00  0.0000E+00  0.1350E+00  0.1350E+00
     -0.841  0.0000E+00  0.0000E+00  0.1360E+00  0.1360E+00
     -0.802  0.0000E+00  0.0000E+00  0.1360E+00  0.1360E+00
     -0.762  0.0000E+00  0.0000E+00  0.1370E+00  0.1370E+00
     -0.723  0.0000E+00  0.0000E+00  0.1370E+00  0.1370E+00
     -0.684  0.0000E+00  0.0000E+00  0.1380E+00  0.1380E+00
     -0.644  0.0000E+00  0.0000E+00  0.1380E+00  0.1380E+00
     -0.605  0.0000E+00  0.0000E+00  0.1380E+00  0.1380E+00
     -0.565  0.0000E+00  0.0000E+00  0.1390E+00  0.1390E+00
     -0.526  0.0000E+00  0.0000E+00  0.1400E+00  0.1400E+00
     -0.487  0.0000E+00  0.0000E+00  0.1400E+00  0.1400E+00
     -0.447  0.0000E+00  0.0000E+00  0.1410E+00  0.1410E+00
     -0.408  0.0000E+00  0.0000E+00  0.1410E+00  0.1410E+00
     -0.368  0.0000E+00  0.0000E+00  0.1420E+00  0.1420E+00
     -0.329  0.0000E+00  0.0000E+00  0.1420E+00  0.1420E+00
     -0.290  0.0000E+00  0.0000E+00  0.1430E+00  0.1430E+00
     -0.250  0.0000E+00  0.0000E+00  0.1430E+00  0.1430E+00
     -0.211  0.0000E+00  0.0000E+00  0.1430E+00  0.1430E+00
     -0.172  0.0000E+00  0.0000E+00  0.1430E+00  0.1430E+00
     -0.132  0.0000E+00  0.0000E+00  0.1440E+00  0.1440E+00
     -0.093  0.0000E+00  0.0000E+00  0.1440E+00  0.1440E+00
     -0.053  0.0000E+00  0.0000E+00  0.1440E+00  0.1440E+00
     -0.014  0.0000E+00  0.0000E+00  0.1440E+00  0.1440E+00
      0.025  0.0000E+00  0.0000E+00  0.1440E+00  0.1440E+00
      0.065  0.0000E+00  0.0000E+00  0.1440E+00  0.1440E+00
      0.104  0.0000E+00  0.0000E+00  0.1450E+00  0.1450E+00
      0.144  0.0000E+00  0.0000E+00  0.1450E+00  0.1450E+00
      0.183  0.0000E+00  0.0000E+00  0.1450E+00  0.1450E+00
      0.222  0.0000E+00  0.0000E+00  0.1450E+00  0.1450E+00
      0.262  0.0000E+00  0.0000E+00  0.1450E+00  0.1450E+00
      0.301  0.0000E+00  0.0000E+00  0.1450E+00  0.1450E+00
      0.341  0.0000E+00  0.0000E+00  0.1460E+00  0.1460E+00
      0.380  0.0000E+00  0.0000E+00  0.1470E+00  0.1470E+00
      0.419  0.0000E+00  0.0000E+00  0.1470E+00  0.1470E+00
      0.459  0.0000E+00  0.0000E+00  0.1470E+00  0.1470E+00
      0.498  0.0000E+00  0.0000E+00  0.1480E+00  0.1480E+00
      0.537  0.0000E+00  0.0000E+00  0.1500E+00  0.1500E+00
      0.577  0.0000E+00  0.0000E+00  0.1510E+00  0.1510E+00
      0.616  0.1460E-12  0.3799E-13  0.1520E+00  0.1520E+00
      0.656  0.0000E+00  0.0000E+00  0.1530E+00  0.1530E+00
      0.695  0.0000E+00  0.0000E+00  0.1540E+00  0.1540E+00
      0.734  0.0000E+00  0.0000E+00  0.1550E+00  0.1550E+00
      0.774  0.0000E+00  0.0000E+00  0.1550E+00  0.1550E+00
      0.813  0.0000E+00  0.0000E+00  0.1560E+00  0.1560E+00
      0.853  0.0000E+00  0.0000E+00  0.1560E+00  0.1560E+00
      0.892  0.0000E+00  0.0000E+00  0.1560E+00  0.1560E+00
      0.931  0.0000E+00  0.0000E+00  0.1560E+00  0.1560E+00
      0.971  0.0000E+00  0.0000E+00  0.1560E+00  0.1560E+00
      1.010  0.0000E+00  0.0000E+00  0.1560E+00  0.1560E+00
      1.049  0.0000E+00  0.0000E+00  0.1560E+00  0.1560E+00
      1.089  0.0000E+00  0.0000E+00  0.1560E+00  0.1560E+00
      1.128  0.0000E+00  0.0000E+00  0.1560E+00  0.1560E+00
      1.168  0.0000E+00  0.0000E+00  0.1560E+00  0.1560E+00
      1.207  0.0000E+00  0.0000E+00  0.1560E+00  0.1560E+00
      1.246  0.0000E+00  0.0000E+00  0.1560E+00  0.1560E+00
      1.286  0.0000E+00  0.0000E+00  0.1560E+00  0.1560E+00
      1.325  0.0000E+00  0.0000E+00  0.1560E+00  0.1560E+00
