   11   11 1000    2
  0.5595985E+03  0.1832693E-08  0.1832693E-08  0.1832693E-08  0.1000000E-15
  1.000000000000000E-004
  CAR 
 unknown system                          
    121      1     80
 
  0.0000000E+00  0.0000000E+00  0.0000000E+00  0.1000000E+01
    1       -9.203148     -9.188938
    2       -8.895841     -8.881968
    3       -8.860066     -8.843263
    4       -8.841583     -8.811319
    5       -8.822717     -8.796086
    6       -8.775090     -8.766360
    7       -8.616199     -8.603223
    8       -8.527331     -8.502997
    9       -8.513487     -8.490233
   10       -8.479607     -8.464287
   11       -8.461916     -8.438224
   12       -8.383271     -8.361065
   13       -8.348976     -8.315866
   14       -8.318562     -8.282176
   15       -8.176366     -8.154048
   16       -8.147172     -8.122578
   17       -8.073214     -8.043465
   18       -7.977609     -7.954568
   19       -7.905723     -7.883068
   20       -7.880400     -7.848613
   21       -7.862333     -7.821440
   22       -7.763110     -7.737366
   23       -7.762134     -7.715262
   24       -7.728007     -7.692475
   25       -7.646119     -7.620278
   26       -7.623740     -7.605135
   27       -7.606319     -7.577093
   28       -7.552883     -7.533885
   29       -7.478145     -7.454081
   30       -7.309997     -7.280996
   31       -7.290883     -7.260837
   32       -7.225594     -7.210266
   33       -7.210889     -7.198084
   34       -7.180430     -7.146729
   35       -7.126537     -7.103979
   36       -7.121003     -7.091270
   37       -7.097582     -7.087617
   38       -7.068971     -7.055322
   39       -7.064248     -7.050577
   40       -7.059962     -7.035771
   41       -7.020689     -7.005637
   42       -6.975805     -6.958934
   43       -6.958199     -6.943125
   44       -6.927825     -6.901430
   45       -6.913451     -6.899396
   46       -6.838673     -6.824037
   47       -6.826471     -6.805439
   48       -6.787254     -6.773914
   49       -6.768557     -6.748071
   50       -6.734173     -6.711762
   51       -6.731339     -6.696612
   52       -6.680310     -6.669427
   53       -6.641587     -6.616188
   54       -6.635843     -6.613418
   55       -6.594432     -6.579916
   56       -6.557434     -6.510673
   57       -5.883697     -5.794972
   58       -5.523420     -5.453327
   59       -4.991598     -4.954346
   60       -3.574442     -3.520120
   61       -3.563133     -3.365772
   62       -3.424414     -3.350675
   63       -2.932636     -2.820097
   64       -2.786740     -2.712856
   65       -2.235455     -2.201270
   66       -1.587600     -1.484383
   67       -1.226701     -1.108270
   68       -1.178512     -1.066960
   69       -1.135354     -1.044717
   70       -0.911550     -0.793170
   71       -0.795681     -0.649005
   72       -0.656761     -0.615664
   73       -0.479329     -0.425155
   74       -0.021799      0.055543
   75        0.095956      0.121824
   76        0.266787      0.263530
   77        0.379277      0.388222
   78        0.492721      0.501867
   79        0.530722      0.641976
   80        0.605992      0.693471
