   36   36 1000    2
  0.3467640E+03  0.2319773E-08  0.2319773E-08  0.2319773E-08  0.1000000E-15
  1.000000000000000E-004
  CAR 
 unknown system                          
    396      1    256
 
  0.0000000E+00  0.0000000E+00  0.0000000E+00  0.1000000E+01
    1       -9.674047     -9.674047
    2       -9.172382     -9.172382
    3       -9.127912     -9.127912
    4       -9.073799     -9.073799
    5       -9.062861     -9.062861
    6       -9.033667     -9.033667
    7       -9.007650     -9.007650
    8       -8.988169     -8.988169
    9       -8.959204     -8.959204
   10       -8.950924     -8.950924
   11       -8.923847     -8.923847
   12       -8.908990     -8.908990
   13       -8.905993     -8.905993
   14       -8.884456     -8.884456
   15       -8.836894     -8.836894
   16       -8.832270     -8.832270
   17       -8.805189     -8.805189
   18       -8.788747     -8.788748
   19       -8.755219     -8.755219
   20       -8.745497     -8.745497
   21       -8.727707     -8.727707
   22       -8.684350     -8.684350
   23       -8.682141     -8.682141
   24       -8.670924     -8.670924
   25       -8.653628     -8.653628
   26       -8.625782     -8.625782
   27       -8.598400     -8.598400
   28       -8.580800     -8.580800
   29       -8.570707     -8.570707
   30       -8.546338     -8.546338
   31       -8.540068     -8.540068
   32       -8.503890     -8.503890
   33       -8.476105     -8.476105
   34       -8.469320     -8.469320
   35       -8.449451     -8.449451
   36       -8.439988     -8.439988
   37       -8.401733     -8.401733
   38       -8.389474     -8.389474
   39       -8.351006     -8.351006
   40       -8.339064     -8.339064
   41       -8.324990     -8.324990
   42       -8.313026     -8.313027
   43       -8.300877     -8.300877
   44       -8.273494     -8.273494
   45       -8.260856     -8.260856
   46       -8.246623     -8.246623
   47       -8.222312     -8.222312
   48       -8.213086     -8.213086
   49       -8.189514     -8.189514
   50       -8.187767     -8.187767
   51       -8.177960     -8.177960
   52       -8.138759     -8.138759
   53       -8.124457     -8.124457
   54       -8.077374     -8.077374
   55       -8.055812     -8.055812
   56       -8.045640     -8.045640
   57       -8.029790     -8.029790
   58       -8.028327     -8.028327
   59       -8.007408     -8.007408
   60       -7.982392     -7.982392
   61       -7.970510     -7.970510
   62       -7.957280     -7.957280
   63       -7.932406     -7.932406
   64       -7.919502     -7.919502
   65       -7.902850     -7.902850
   66       -7.890116     -7.890116
   67       -7.854833     -7.854833
   68       -7.850085     -7.850085
   69       -7.831957     -7.831957
   70       -7.810604     -7.810604
   71       -7.799408     -7.799408
   72       -7.782777     -7.782777
   73       -7.769836     -7.769836
   74       -7.752024     -7.752024
   75       -7.740092     -7.740093
   76       -7.693405     -7.693405
   77       -7.687697     -7.687697
   78       -7.672282     -7.672282
   79       -7.659392     -7.659392
   80       -7.644478     -7.644478
   81       -7.621246     -7.621246
   82       -7.605668     -7.605668
   83       -7.601820     -7.601820
   84       -7.579313     -7.579313
   85       -7.552992     -7.552992
   86       -7.547780     -7.547780
   87       -7.520578     -7.520579
   88       -7.500813     -7.500813
   89       -7.489340     -7.489341
   90       -7.474101     -7.474101
   91       -7.463615     -7.463615
   92       -7.425947     -7.425947
   93       -7.415058     -7.415058
   94       -7.410021     -7.410021
   95       -7.393652     -7.393652
   96       -7.360734     -7.360734
   97       -7.354570     -7.354570
   98       -7.312549     -7.312549
   99       -7.310931     -7.310931
  100       -7.297245     -7.297245
  101       -7.280629     -7.280629
  102       -7.274504     -7.274504
  103       -7.261079     -7.261079
  104       -7.231686     -7.231687
  105       -7.210172     -7.210172
  106       -7.200904     -7.200904
  107       -7.189254     -7.189254
  108       -7.160299     -7.160299
  109       -7.149023     -7.149023
  110       -7.142769     -7.142769
  111       -7.124560     -7.124560
  112       -7.114016     -7.114016
  113       -7.098903     -7.098903
  114       -7.088964     -7.088964
  115       -7.077988     -7.077988
  116       -7.074618     -7.074618
  117       -7.056508     -7.056508
  118       -7.045979     -7.045979
  119       -7.030317     -7.030317
  120       -7.014514     -7.014514
  121       -7.000059     -7.000059
  122       -6.994476     -6.994476
  123       -6.971858     -6.971858
  124       -6.963756     -6.963756
  125       -6.952681     -6.952681
  126       -6.944772     -6.944772
  127       -6.939989     -6.939989
  128       -6.932839     -6.932839
  129       -6.930681     -6.930681
  130       -6.905833     -6.905833
  131       -6.896422     -6.896422
  132       -6.883761     -6.883761
  133       -6.873580     -6.873580
  134       -6.862331     -6.862331
  135       -6.847894     -6.847894
  136       -6.834195     -6.834195
  137       -6.825807     -6.825807
  138       -6.819363     -6.819363
  139       -6.801239     -6.801239
  140       -6.790210     -6.790210
  141       -6.778447     -6.778447
  142       -6.761253     -6.761253
  143       -6.752289     -6.752289
  144       -6.742877     -6.742877
  145       -6.730554     -6.730554
  146       -6.722231     -6.722231
  147       -6.710146     -6.710146
  148       -6.705277     -6.705277
  149       -6.682909     -6.682909
  150       -6.676822     -6.676822
  151       -6.669146     -6.669146
  152       -6.661355     -6.661355
  153       -6.646191     -6.646191
  154       -6.634530     -6.634530
  155       -6.603561     -6.603561
  156       -6.602555     -6.602555
  157       -6.585859     -6.585859
  158       -6.569155     -6.569155
  159       -6.566400     -6.566400
  160       -6.552625     -6.552625
  161       -6.544040     -6.544040
  162       -6.538529     -6.538529
  163       -6.523414     -6.523414
  164       -6.519226     -6.519226
  165       -6.509033     -6.509033
  166       -6.486152     -6.486152
  167       -6.475070     -6.475070
  168       -6.458749     -6.458749
  169       -6.456694     -6.456694
  170       -6.442417     -6.442417
  171       -6.432111     -6.432111
  172       -6.418198     -6.418198
  173       -6.404337     -6.404337
  174       -6.396503     -6.396503
  175       -6.380048     -6.380048
  176       -6.367036     -6.367037
  177       -6.326620     -6.326620
  178       -6.319963     -6.319963
  179       -6.295279     -6.295279
  180       -6.282225     -6.282225
  181       -6.261583     -6.261583
  182       -6.244014     -6.244014
  183       -6.229970     -6.229969
  184       -6.203176     -6.203176
  185       -6.014402     -6.014402
  186       -5.883419     -5.883419
  187       -5.819034     -5.819034
  188       -5.740774     -5.740774
  189       -5.606765     -5.606765
  190       -4.889889     -4.889889
  191       -4.670377     -4.670377
  192       -4.480183     -4.480183
  193       -4.361379     -4.361379
  194       -4.243983     -4.243983
  195       -4.176654     -4.176654
  196       -4.014800     -4.014800
  197       -3.771799     -3.771799
  198       -3.613451     -3.613451
  199       -3.289298     -3.289298
  200       -3.200644     -3.200644
  201       -2.832820     -2.832820
  202       -2.668908     -2.668908
  203       -2.666042     -2.666042
  204       -2.506853     -2.506852
  205       -2.486007     -2.486007
  206       -2.416341     -2.416341
  207       -2.341949     -2.341949
  208       -2.152853     -2.152853
  209       -2.102967     -2.102966
  210       -2.005763     -2.005763
  211       -1.891167     -1.891167
  212       -1.716331     -1.716331
  213       -1.510846     -1.510846
  214       -1.346553     -1.346553
  215       -1.250037     -1.250037
  216       -1.151095     -1.151095
  217       -1.101672     -1.101672
  218       -0.872399     -0.872398
  219       -0.856839     -0.856839
  220       -0.778242     -0.778241
  221       -0.706093     -0.706092
  222       -0.658795     -0.658794
  223       -0.517309     -0.517309
  224       -0.462914     -0.462914
  225       -0.403147     -0.403147
  226       -0.325601     -0.325601
  227       -0.314593     -0.314591
  228       -0.199171     -0.199171
  229       -0.112775     -0.112773
  230       -0.026739     -0.026737
  231        0.072883      0.072885
  232        0.223655      0.223657
  233        0.274836      0.274837
  234        0.370208      0.370210
  235        0.465743      0.465748
  236        0.617631      0.617649
  237        0.625577      0.625573
  238        0.665757      0.665761
  239        0.674495      0.674498
  240        0.729919      0.729920
  241        0.756930      0.756930
  242        0.810211      0.810215
  243        0.830499      0.830499
  244        0.854109      0.854111
  245        0.880850      0.880848
  246        0.897734      0.897734
  247        0.917318      0.917316
  248        0.945951      0.945953
  249        0.962482      0.962487
  250        0.972073      0.972075
  251        0.984769      0.984772
  252        1.030495      1.030497
  253        1.033630      1.033628
  254        1.068639      1.068642
  255        1.116906      1.116910
  256        1.162602      1.162601
