<?xml version="1.0" encoding="ISO-8859-1"?>
<modeling>
 <generator>
  <i name="program" type="string">vasp </i>
  <i name="version" type="string">5.3.5  </i>
  <i name="subversion" type="string">31Mar14 (build Feb 01 2018 12:10:03) gamma-only                       parallel </i>
  <i name="platform" type="string">LinuxIFC </i>
  <i name="date" type="string">2019 03 23 </i>
  <i name="time" type="string">02:30:02 </i>
 </generator>
 <incar>
  <i type="string" name="PREC">normal</i>
  <i type="int" name="ISPIN">     2</i>
  <i type="int" name="IBRION">     2</i>
  <i type="int" name="NSW">  1000</i>
  <i type="int" name="ISIF">     2</i>
  <i name="POTIM">      0.10000000</i>
  <i type="logical" name="LPLANE"> T  </i>
  <i type="int" name="ISMEAR">     0</i>
  <i name="SIGMA">      0.00010000</i>
  <i type="logical" name="LWAVE"> F  </i>
  <i type="logical" name="LCHARG"> F  </i>
  <i type="logical" name="LVTOT"> F  </i>
  <i type="string" name="GGA"> PE</i>
 </incar>
 <kpoints>
  <varray name="kpointlist" >
   <v>       0.00000000       0.00000000       0.00000000 </v>
  </varray>
  <varray name="weights" >
   <v>       1.00000000 </v>
  </varray>
 </kpoints>
 <parameters>
  <separator name="general" >
   <i type="string" name="SYSTEM">unknown system</i>
   <i type="logical" name="LCOMPAT"> F  </i>
  </separator>
  <separator name="electronic" >
   <i type="string" name="PREC">normal</i>
   <i name="ENMAX">    249.84400000</i>
   <i name="ENAUG">    412.49600000</i>
   <i name="EDIFF">      0.00010000</i>
   <i type="int" name="IALGO">    38</i>
   <i type="int" name="IWAVPR">    11</i>
   <i type="int" name="NBANDS">   256</i>
   <i name="NELECT">    396.00000000</i>
   <i type="int" name="TURBO">     0</i>
   <i type="int" name="IRESTART">     0</i>
   <i type="int" name="NREBOOT">     0</i>
   <i type="int" name="NMIN">     0</i>
   <i name="EREF">      0.00000000</i>
   <separator name="electronic smearing" >
    <i type="int" name="ISMEAR">     0</i>
    <i name="SIGMA">      0.00010000</i>
    <i name="KSPACING">      0.50000000</i>
    <i type="logical" name="KGAMMA"> T  </i>
   </separator>
   <separator name="electronic projectors" >
    <i type="logical" name="LREAL"> F  </i>
    <v name="ROPT">      0.00000000</v>
    <i type="int" name="LMAXPAW">  -100</i>
    <i type="int" name="LMAXMIX">     2</i>
    <i type="logical" name="NLSPLINE"> F  </i>
   </separator>
   <separator name="electronic startup" >
    <i type="int" name="ISTART">     0</i>
    <i type="int" name="ICHARG">     2</i>
    <i type="int" name="INIWAV">     1</i>
   </separator>
   <separator name="electronic spin" >
    <i type="int" name="ISPIN">     2</i>
    <i type="logical" name="LNONCOLLINEAR"> F  </i>
    <v name="MAGMOM">      1.00000000      1.00000000      1.00000000      1.00000000      1.00000000      1.00000000      1.00000000      1.00000000      1.00000000      1.00000000      1.00000000      1.00000000      1.00000000      1.00000000      1.00000000      1.00000000      1.00000000      1.00000000      1.00000000      1.00000000
      1.00000000      1.00000000      1.00000000      1.00000000      1.00000000      1.00000000      1.00000000      1.00000000      1.00000000      1.00000000      1.00000000      1.00000000      1.00000000      1.00000000      1.00000000      1.00000000</v>
    <i name="NUPDOWN">     -1.00000000</i>
    <i type="logical" name="LSORBIT"> F  </i>
    <v name="SAXIS">      0.00000000      0.00000000      1.00000000</v>
    <i type="logical" name="LSPIRAL"> F  </i>
    <v name="QSPIRAL">      0.00000000      0.00000000      0.00000000</v>
    <i type="logical" name="LZEROZ"> F  </i>
   </separator>
   <separator name="electronic exchange-correlation" >
    <i type="logical" name="LASPH"> F  </i>
    <i type="logical" name="LMETAGGA"> F  </i>
   </separator>
   <separator name="electronic convergence" >
    <i type="int" name="NELM">    60</i>
    <i type="int" name="NELMDL">    -5</i>
    <i type="int" name="NELMIN">     2</i>
    <i name="ENINI">    249.84400000</i>
    <separator name="electronic convergence detail" >
     <i type="logical" name="LDIAG"> T  </i>
     <i type="logical" name="LSUBROT"> F  </i>
     <i name="WEIMIN">      0.00100000</i>
     <i name="EBREAK">      0.00000010</i>
     <i name="DEPER">      0.30000000</i>
     <i type="int" name="NRMM">     4</i>
     <i name="TIME">      0.40000000</i>
    </separator>
   </separator>
   <separator name="electronic mixer" >
    <i name="AMIX">      0.40000000</i>
    <i name="BMIX">      1.00000000</i>
    <i name="AMIN">      0.10000000</i>
    <i name="AMIX_MAG">      1.60000000</i>
    <i name="BMIX_MAG">      1.00000000</i>
    <separator name="electronic mixer details" >
     <i type="int" name="IMIX">     4</i>
     <i type="int" name="MAXMIX">   -45</i>
     <i name="WC">    100.00000000</i>
     <i type="int" name="INIMIX">     1</i>
     <i type="int" name="MIXPRE">     1</i>
     <i type="int" name="MREMOVE">     5</i>
    </separator>
   </separator>
   <separator name="electronic dipolcorrection" >
    <i type="logical" name="LDIPOL"> F  </i>
    <i type="logical" name="LMONO"> F  </i>
    <i type="int" name="IDIPOL">     0</i>
    <i name="EPSILON">      1.00000000</i>
    <v name="DIPOL">   -100.00000000   -100.00000000   -100.00000000</v>
    <i name="EFIELD">      0.00000000</i>
   </separator>
  </separator>
  <separator name="grids" >
   <i type="int" name="NGX">    90</i>
   <i type="int" name="NGY">    90</i>
   <i type="int" name="NGZ">    90</i>
   <i type="int" name="NGXF">   180</i>
   <i type="int" name="NGYF">   180</i>
   <i type="int" name="NGZF">   180</i>
   <i type="logical" name="ADDGRID"> F  </i>
  </separator>
  <separator name="ionic" >
   <i type="int" name="NSW">  1000</i>
   <i type="int" name="IBRION">     2</i>
   <i type="int" name="ISIF">     2</i>
   <i name="PSTRESS">      0.00000000</i>
   <i name="EDIFFG">      0.00100000</i>
   <i type="int" name="NFREE">     1</i>
   <i name="POTIM">      0.10000000</i>
   <i name="SMASS">     -3.00000000</i>
   <i name="SCALEE">      1.00000000</i>
  </separator>
  <separator name="ionic md" >
   <i name="TEBEG">      0.00010000</i>
   <i name="TEEND">      0.00010000</i>
   <i type="int" name="NBLOCK">     1</i>
   <i type="int" name="KBLOCK">  1000</i>
   <i type="int" name="NPACO">   256</i>
   <i name="APACO">     16.00000000</i>
  </separator>
  <separator name="symmetry" >
   <i type="int" name="ISYM">     2</i>
   <i name="SYMPREC">      0.00001000</i>
  </separator>
  <separator name="dos" >
   <i type="logical" name="LORBIT"> F  </i>
   <v name="RWIGS">     -1.00000000</v>
   <i type="int" name="NEDOS">   301</i>
   <i name="EMIN">     10.00000000</i>
   <i name="EMAX">    -10.00000000</i>
   <i name="EFERMI">      0.00000000</i>
  </separator>
  <separator name="writing" >
   <i type="int" name="NWRITE">     2</i>
   <i type="logical" name="LWAVE"> F  </i>
   <i type="logical" name="LCHARG"> F  </i>
   <i type="logical" name="LPARD"> F  </i>
   <i type="logical" name="LVTOT"> F  </i>
   <i type="logical" name="LVHAR"> F  </i>
   <i type="logical" name="LELF"> F  </i>
   <i type="logical" name="LOPTICS"> F  </i>
   <v name="STM">      0.00000000      0.00000000      0.00000000      0.00000000      0.00000000      0.00000000      0.00000000</v>
  </separator>
  <separator name="performance" >
   <i type="int" name="NPAR">     4</i>
   <i type="int" name="NSIM">     4</i>
   <i type="int" name="NBLK">    -1</i>
   <i type="logical" name="LPLANE"> T  </i>
   <i type="logical" name="LSCALAPACK"> T  </i>
   <i type="logical" name="LSCAAWARE"> F  </i>
   <i type="logical" name="LSCALU"> F  </i>
   <i type="logical" name="LASYNC"> F  </i>
   <i type="logical" name="LORBITALREAL"> F  </i>
  </separator>
  <separator name="miscellaneous" >
   <i type="int" name="IDIOT">     3</i>
   <i type="logical" name="LMUSIC"> F  </i>
   <v name="POMASS">    107.86800000</v>
   <v name="DARWINR">      0.00000000</v>
   <v name="DARWINV">      1.00000000</v>
   <i type="logical" name="LCORR"> T  </i>
  </separator>
  <i type="logical" name="GGA_COMPAT"> T  </i>
  <i type="logical" name="LBERRY"> F  </i>
  <i type="int" name="ICORELEVEL">     0</i>
  <i type="logical" name="LDAU"> F  </i>
  <i type="int" name="I_CONSTRAINED_M">     0</i>
  <separator name="electronic exchange-correlation" >
   <i type="string" name="GGA">PE</i>
   <i type="int" name="VOSKOWN">     0</i>
   <i type="logical" name="LHFCALC"> F  </i>
   <i type="string" name="PRECFOCK"></i>
   <i type="logical" name="LSYMGRAD"> F  </i>
   <i type="logical" name="LHFONE"> F  </i>
   <i type="logical" name="LRHFCALC"> F  </i>
   <i type="logical" name="LTHOMAS"> F  </i>
   <i type="logical" name="LMODELHF"> F  </i>
   <i name="ENCUT4O">     -1.00000000</i>
   <i type="int" name="EXXOEP">     0</i>
   <i type="int" name="FOURORBIT">     0</i>
   <i name="AEXX">      0.00000000</i>
   <i name="HFALPHA">      0.00000000</i>
   <i name="MCALPHA">      0.00000000</i>
   <i name="ALDAX">      1.00000000</i>
   <i name="AGGAX">      1.00000000</i>
   <i name="ALDAC">      1.00000000</i>
   <i name="AGGAC">      1.00000000</i>
   <i type="int" name="NKREDX">     1</i>
   <i type="int" name="NKREDY">     1</i>
   <i type="int" name="NKREDZ">     1</i>
   <i type="logical" name="SHIFTRED"> F  </i>
   <i type="logical" name="ODDONLY"> F  </i>
   <i type="logical" name="EVENONLY"> F  </i>
   <i type="int" name="LMAXFOCK">     0</i>
   <i type="int" name="NMAXFOCKAE">     0</i>
   <i type="logical" name="LFOCKAEDFT"> F  </i>
   <i name="HFSCREEN">      0.00000000</i>
   <i name="HFSCREENC">      0.00000000</i>
   <i type="int" name="NBANDSGWLOW">     0</i>
  </separator>
  <separator name="vdW DFT" >
   <i type="logical" name="LUSE_VDW"> F  </i>
   <i name="Zab_VDW">     -0.84910000</i>
   <i name="PARAM1">      0.12340000</i>
   <i name="PARAM2">      1.00000000</i>
   <i name="PARAM3">      0.00000000</i>
  </separator>
  <separator name="model GW" >
   <i type="int" name="MODEL_GW">     0</i>
   <i name="MODEL_EPS0">    208.05840972</i>
   <i name="MODEL_ALPHA">      1.00000000</i>
  </separator>
  <separator name="linear response parameters" >
   <i type="logical" name="LEPSILON"> F  </i>
   <i type="logical" name="LRPA"> F  </i>
   <i type="logical" name="LNABLA"> F  </i>
   <i type="logical" name="LVEL"> F  </i>
   <i type="int" name="KINTER">     0</i>
   <i name="CSHIFT">      0.10000000</i>
   <i name="OMEGAMAX">     -1.00000000</i>
   <i name="DEG_THRESHOLD">      0.00200000</i>
  </separator>
  <separator name="orbital magnetization" >
   <i type="logical" name="NUCIND"> F  </i>
   <v name="MAGPOS">      0.00000000      0.00000000      0.00000000</v>
   <i type="logical" name="LNICSALL"> T  </i>
   <i type="logical" name="ORBITALMAG"> F  </i>
   <i type="logical" name="LMAGBLOCH"> F  </i>
   <i type="logical" name="LCHIMAG"> F  </i>
   <i type="logical" name="LGAUGE"> T  </i>
   <i type="int" name="MAGATOM">     0</i>
   <v name="MAGDIPOL">      0.00000000      0.00000000      0.00000000</v>
   <v name="AVECCONST">      0.00000000      0.00000000      0.00000000</v>
  </separator>
  <separator name="response functions" >
   <i type="logical" name="LADDER"> F  </i>
   <i type="logical" name="LFXC"> F  </i>
   <i type="logical" name="LHARTREE"> T  </i>
   <i type="int" name="IBSE">     0</i>
   <i type="logical" name="LTCTE"> F  </i>
   <i type="logical" name="LTETE"> F  </i>
   <i type="logical" name="LTRIPLET"> F  </i>
   <i type="logical" name="LFXCEPS"> F  </i>
   <i type="logical" name="LFXHEG"> F  </i>
   <i type="logical" name="L2ORDER"> F  </i>
   <i type="logical" name="LUSEW"> F  </i>
   <i name="ENCUTGW">     -2.00000000</i>
   <i name="ENCUTGWSOFT">     -2.00000000</i>
   <i name="ENCUTLF">     -1.00000000</i>
   <i type="int" name="LMAXMP2">    -1</i>
   <i name="SCISSOR">      0.00000000</i>
   <i type="int" name="NOMEGA">     0</i>
   <i type="int" name="NOMEGAR">     0</i>
   <i type="int" name="NBANDSGW">    -1</i>
   <i type="int" name="NBANDSO">    -1</i>
   <i type="int" name="NBANDSV">    -1</i>
   <i type="int" name="NELM">     1</i>
   <i type="int" name="DIM">     3</i>
   <i type="int" name="ANTIRES">     0</i>
   <i name="OMEGAMAX">    -30.00000000</i>
   <i name="OMEGAMIN">    -30.00000000</i>
   <i name="OMEGATL">   -200.00000000</i>
   <i type="int" name="OMEGAGRID">     0</i>
   <i name="CSHIFT">     -0.10000000</i>
   <i type="logical" name="SELFENERGY"> F  </i>
   <i type="logical" name="LSPECTRAL"> F  </i>
   <i type="logical" name="ODDONLYGW"> F  </i>
   <i type="logical" name="EVENONLYGW"> F  </i>
   <i type="int" name="NKREDLFX">     1</i>
   <i type="int" name="NKREDLFY">     1</i>
   <i type="int" name="NKREDLFZ">     1</i>
   <i type="int" name="MAXMEM">  1800</i>
   <i type="int" name="TELESCOPE">     0</i>
   <i type="int" name="TAUPAR">     1</i>
  </separator>
  <separator name="External order field" >
   <i name="OFIELD_KAPPA">      0.00000000</i>
   <v name="OFIELD_K">      0.00000000      0.00000000      0.00000000</v>
   <i name="OFIELD_Q6_NEAR">      0.00000000</i>
   <i name="OFIELD_Q6_FAR">      0.00000000</i>
   <i name="OFIELD_A">      0.00000000</i>
  </separator>
 </parameters>
 <atominfo>
  <atoms>      36 </atoms>
  <types>       1 </types>
  <array name="atoms" >
   <dimension dim="1">ion</dimension>
   <field type="string">element</field>
   <field type="int">atomtype</field>
   <set>
    <rc><c>Ag</c><c>   1</c></rc>
    <rc><c>Ag</c><c>   1</c></rc>
    <rc><c>Ag</c><c>   1</c></rc>
    <rc><c>Ag</c><c>   1</c></rc>
    <rc><c>Ag</c><c>   1</c></rc>
    <rc><c>Ag</c><c>   1</c></rc>
    <rc><c>Ag</c><c>   1</c></rc>
    <rc><c>Ag</c><c>   1</c></rc>
    <rc><c>Ag</c><c>   1</c></rc>
    <rc><c>Ag</c><c>   1</c></rc>
    <rc><c>Ag</c><c>   1</c></rc>
    <rc><c>Ag</c><c>   1</c></rc>
    <rc><c>Ag</c><c>   1</c></rc>
    <rc><c>Ag</c><c>   1</c></rc>
    <rc><c>Ag</c><c>   1</c></rc>
    <rc><c>Ag</c><c>   1</c></rc>
    <rc><c>Ag</c><c>   1</c></rc>
    <rc><c>Ag</c><c>   1</c></rc>
    <rc><c>Ag</c><c>   1</c></rc>
    <rc><c>Ag</c><c>   1</c></rc>
    <rc><c>Ag</c><c>   1</c></rc>
    <rc><c>Ag</c><c>   1</c></rc>
    <rc><c>Ag</c><c>   1</c></rc>
    <rc><c>Ag</c><c>   1</c></rc>
    <rc><c>Ag</c><c>   1</c></rc>
    <rc><c>Ag</c><c>   1</c></rc>
    <rc><c>Ag</c><c>   1</c></rc>
    <rc><c>Ag</c><c>   1</c></rc>
    <rc><c>Ag</c><c>   1</c></rc>
    <rc><c>Ag</c><c>   1</c></rc>
    <rc><c>Ag</c><c>   1</c></rc>
    <rc><c>Ag</c><c>   1</c></rc>
    <rc><c>Ag</c><c>   1</c></rc>
    <rc><c>Ag</c><c>   1</c></rc>
    <rc><c>Ag</c><c>   1</c></rc>
    <rc><c>Ag</c><c>   1</c></rc>
   </set>
  </array>
  <array name="atomtypes" >
   <dimension dim="1">type</dimension>
   <field type="int">atomspertype</field>
   <field type="string">element</field>
   <field>mass</field>
   <field>valence</field>
   <field type="string">pseudopotential</field>
   <set>
    <rc><c>  36</c><c>Ag</c><c>    107.86800000</c><c>     11.00000000</c><c>  PAW_PBE Ag 02Apr2005                  </c></rc>
   </set>
  </array>
 </atominfo>
 <structure name="initialpos" >
  <crystal>
   <varray name="basis" >
    <v>      23.19773102       0.00000000       0.00000000 </v>
    <v>       0.00000000      23.19773102       0.00000000 </v>
    <v>       0.00000000       0.00000000      23.19773102 </v>
   </varray>
   <i name="volume">  12483.50458343 </i>
   <varray name="rec_basis" >
    <v>       0.04310766       0.00000000       0.00000000 </v>
    <v>       0.00000000       0.04310766       0.00000000 </v>
    <v>       0.00000000       0.00000000       0.04310766 </v>
   </varray>
  </crystal>
  <varray name="positions" >
   <v>       0.51646278       0.42121811       0.66621856 </v>
   <v>       0.51426665       0.53259455       0.69440944 </v>
   <v>       0.59736753       0.37313151       0.59066542 </v>
   <v>       0.50921402       0.64804819       0.71903291 </v>
   <v>       0.59831145       0.48957350       0.61277926 </v>
   <v>       0.48425730       0.39824266       0.55295510 </v>
   <v>       0.45910924       0.50476941       0.59382054 </v>
   <v>       0.59741669       0.60417095       0.64194527 </v>
   <v>       0.69055026       0.44735308       0.52977912 </v>
   <v>       0.41699922       0.60046401       0.64964892 </v>
   <v>       0.60372548       0.25838067       0.54944044 </v>
   <v>       0.37719678       0.43990880       0.53425495 </v>
   <v>       0.34064749       0.54312154       0.58550204 </v>
   <v>       0.65719155       0.55809731       0.53696988 </v>
   <v>       0.57331470       0.45973746       0.49693355 </v>
   <v>       0.66282358       0.34099113       0.49283404 </v>
   <v>       0.50326268       0.66428287       0.59999046 </v>
   <v>       0.53624120       0.32316435       0.47817695 </v>
   <v>       0.62025017       0.67065727       0.54597469 </v>
   <v>       0.41837582       0.33774021       0.46978373 </v>
   <v>       0.53946276       0.57263612       0.53050594 </v>
   <v>       0.42155924       0.61444239       0.51968211 </v>
   <v>       0.46076342       0.50516906       0.47224543 </v>
   <v>       0.52438861       0.69313448       0.48641088 </v>
   <v>       0.33651302       0.53474664       0.46946951 </v>
   <v>       0.62163893       0.40772423       0.40025434 </v>
   <v>       0.61146010       0.61081566       0.43823827 </v>
   <v>       0.67548163       0.51044763       0.42351499 </v>
   <v>       0.49808030       0.41068715       0.40638873 </v>
   <v>       0.42463347       0.70959245       0.43257671 </v>
   <v>       0.49801236       0.60658687       0.41162595 </v>
   <v>       0.37913754       0.43524966       0.41330047 </v>
   <v>       0.56021057       0.51079273       0.38067539 </v>
   <v>       0.38409265       0.61037821       0.39382324 </v>
   <v>       0.44826562       0.51057915       0.34708045 </v>
   <v>       0.32620948       0.52013383       0.34630828 </v>
  </varray>
 </structure>
 <calculation>
  <scstep>
   <time name="dav">    3.40    3.41</time>
   <time name="total">    3.64    4.89</time>
   <energy>
    <i name="alphaZ">     88.30446371 </i>
    <i name="ewald">  93683.57836752 </i>
    <i name="hartreedc">-129491.70090378 </i>
    <i name="XCdc">   -393.35465889 </i>
    <i name="pawpsdc">  36121.39841051 </i>
    <i name="pawaedc"> -34461.52591964 </i>
    <i name="eentropy">     -0.00000000 </i>
    <i name="bandstr">    595.49666070 </i>
    <i name="atom">  37339.15068311 </i>
    <i name="e_fr_energy">   3481.34710324 </i>
    <i name="e_wo_entrp">   3481.34710324 </i>
    <i name="e_0_energy">   3481.34710324 </i>
   </energy>
  </scstep>
  <scstep>
   <time name="dav">    5.25    5.25</time>
   <time name="total">    5.25    5.51</time>
   <energy>
    <i name="e_fr_energy">    736.30234137 </i>
    <i name="e_wo_entrp">    736.30234137 </i>
    <i name="e_0_energy">    736.30234137 </i>
   </energy>
  </scstep>
  <scstep>
   <time name="dav">    4.12    4.13</time>
   <time name="total">    4.13    4.14</time>
   <energy>
    <i name="e_fr_energy">    -34.81140487 </i>
    <i name="e_wo_entrp">    -34.81140487 </i>
    <i name="e_0_energy">    -34.81140487 </i>
   </energy>
  </scstep>
  <scstep>
   <time name="dav">    3.61    3.62</time>
   <time name="total">    3.62    3.62</time>
   <energy>
    <i name="e_fr_energy">    -75.69540452 </i>
    <i name="e_wo_entrp">    -75.69540452 </i>
    <i name="e_0_energy">    -75.69540452 </i>
   </energy>
  </scstep>
  <scstep>
   <time name="dav">    3.76    3.76</time>
   <time name="total">    3.88    3.88</time>
   <energy>
    <i name="e_fr_energy">    -76.28933601 </i>
    <i name="e_wo_entrp">    -76.28933601 </i>
    <i name="e_0_energy">    -76.28933601 </i>
   </energy>
  </scstep>
  <scstep>
   <time name="dav">    3.45    3.45</time>
   <time name="total">    3.78    3.79</time>
   <energy>
    <i name="e_fr_energy">    -30.86974052 </i>
    <i name="e_wo_entrp">    -30.86974052 </i>
    <i name="e_0_energy">    -30.86974052 </i>
   </energy>
  </scstep>
  <scstep>
   <time name="dav">    3.58    3.58</time>
   <time name="total">    3.91    3.91</time>
   <energy>
    <i name="e_fr_energy">    -23.51868328 </i>
    <i name="e_wo_entrp">    -23.51868328 </i>
    <i name="e_0_energy">    -23.51868328 </i>
   </energy>
  </scstep>
  <scstep>
   <time name="dav">    3.65    3.65</time>
   <time name="total">    3.98    3.99</time>
   <energy>
    <i name="e_fr_energy">    -18.95580820 </i>
    <i name="e_wo_entrp">    -18.95580820 </i>
    <i name="e_0_energy">    -18.95580820 </i>
   </energy>
  </scstep>
  <scstep>
   <time name="dav">    3.64    3.64</time>
   <time name="total">    3.97    4.04</time>
   <energy>
    <i name="e_fr_energy">    -24.51328123 </i>
    <i name="e_wo_entrp">    -24.51328123 </i>
    <i name="e_0_energy">    -24.51328123 </i>
   </energy>
  </scstep>
  <scstep>
   <time name="dav">    3.52    3.52</time>
   <time name="total">    3.85    3.86</time>
   <energy>
    <i name="e_fr_energy">    -36.52318477 </i>
    <i name="e_wo_entrp">    -36.52318477 </i>
    <i name="e_0_energy">    -36.52318477 </i>
   </energy>
  </scstep>
  <scstep>
   <time name="dav">    3.59    3.59</time>
   <time name="total">    3.92    3.94</time>
   <energy>
    <i name="e_fr_energy">    -42.97233274 </i>
    <i name="e_wo_entrp">    -42.97233274 </i>
    <i name="e_0_energy">    -42.97233274 </i>
   </energy>
  </scstep>
  <scstep>
   <time name="dav">    3.50    3.50</time>
   <time name="total">    3.83    6.92</time>
   <energy>
    <i name="e_fr_energy">    -54.48572341 </i>
    <i name="e_wo_entrp">    -54.48572341 </i>
    <i name="e_0_energy">    -54.48572341 </i>
   </energy>
  </scstep>
  <scstep>
   <time name="dav">    3.48    3.48</time>
   <time name="total">    3.81    3.88</time>
   <energy>
    <i name="e_fr_energy">    -62.89848843 </i>
    <i name="e_wo_entrp">    -62.89845025 </i>
    <i name="e_0_energy">    -62.89846934 </i>
   </energy>
  </scstep>
  <scstep>
   <time name="dav">    3.61    3.61</time>
   <time name="total">    3.94    3.94</time>
   <energy>
    <i name="e_fr_energy">    -66.90946101 </i>
    <i name="e_wo_entrp">    -66.90946101 </i>
    <i name="e_0_energy">    -66.90946101 </i>
   </energy>
  </scstep>
  <scstep>
   <time name="dav">    3.79    3.80</time>
   <time name="total">    4.13    4.17</time>
   <energy>
    <i name="e_fr_energy">    -67.59911914 </i>
    <i name="e_wo_entrp">    -67.59911914 </i>
    <i name="e_0_energy">    -67.59911914 </i>
   </energy>
  </scstep>
  <scstep>
   <time name="dav">    3.43    3.43</time>
   <time name="total">    3.76    3.79</time>
   <energy>
    <i name="e_fr_energy">    -70.62234416 </i>
    <i name="e_wo_entrp">    -70.62234416 </i>
    <i name="e_0_energy">    -70.62234416 </i>
   </energy>
  </scstep>
  <scstep>
   <time name="dav">    3.58    3.59</time>
   <time name="total">    3.92    5.28</time>
   <energy>
    <i name="e_fr_energy">    -71.10254557 </i>
    <i name="e_wo_entrp">    -71.10254557 </i>
    <i name="e_0_energy">    -71.10254557 </i>
   </energy>
  </scstep>
  <scstep>
   <time name="dav">    3.47    3.47</time>
   <time name="total">    3.81    3.81</time>
   <energy>
    <i name="e_fr_energy">    -72.11033989 </i>
    <i name="e_wo_entrp">    -72.11033989 </i>
    <i name="e_0_energy">    -72.11033989 </i>
   </energy>
  </scstep>
  <scstep>
   <time name="dav">    3.54    3.55</time>
   <time name="total">    3.88    3.89</time>
   <energy>
    <i name="e_fr_energy">    -73.58082022 </i>
    <i name="e_wo_entrp">    -73.58082022 </i>
    <i name="e_0_energy">    -73.58082022 </i>
   </energy>
  </scstep>
  <scstep>
   <time name="dav">    3.59    3.60</time>
   <time name="total">    3.93    3.98</time>
   <energy>
    <i name="e_fr_energy">    -74.38951544 </i>
    <i name="e_wo_entrp">    -74.38951544 </i>
    <i name="e_0_energy">    -74.38951544 </i>
   </energy>
  </scstep>
  <scstep>
   <time name="dav">    3.62    3.63</time>
   <time name="total">    3.96    3.97</time>
   <energy>
    <i name="e_fr_energy">    -74.88467685 </i>
    <i name="e_wo_entrp">    -74.88467685 </i>
    <i name="e_0_energy">    -74.88467685 </i>
   </energy>
  </scstep>
  <scstep>
   <time name="dav">    3.60    3.61</time>
   <time name="total">    3.94    3.96</time>
   <energy>
    <i name="e_fr_energy">    -75.18025774 </i>
    <i name="e_wo_entrp">    -75.18025774 </i>
    <i name="e_0_energy">    -75.18025774 </i>
   </energy>
  </scstep>
  <scstep>
   <time name="dav">    3.60    3.60</time>
   <time name="total">    3.94    5.02</time>
   <energy>
    <i name="e_fr_energy">    -75.25573649 </i>
    <i name="e_wo_entrp">    -75.25573649 </i>
    <i name="e_0_energy">    -75.25573649 </i>
   </energy>
  </scstep>
  <scstep>
   <time name="dav">    2.94    2.95</time>
   <time name="total">    3.28    3.30</time>
   <energy>
    <i name="e_fr_energy">    -75.30303979 </i>
    <i name="e_wo_entrp">    -75.30303979 </i>
    <i name="e_0_energy">    -75.30303979 </i>
   </energy>
  </scstep>
  <scstep>
   <time name="dav">    2.68    2.69</time>
   <time name="total">    3.02    3.34</time>
   <energy>
    <i name="e_fr_energy">    -75.32758294 </i>
    <i name="e_wo_entrp">    -75.32758294 </i>
    <i name="e_0_energy">    -75.32758294 </i>
   </energy>
  </scstep>
  <scstep>
   <time name="dav">    2.73    2.73</time>
   <time name="total">    3.07    3.09</time>
   <energy>
    <i name="e_fr_energy">    -75.34087449 </i>
    <i name="e_wo_entrp">    -75.34087449 </i>
    <i name="e_0_energy">    -75.34087449 </i>
   </energy>
  </scstep>
  <scstep>
   <time name="dav">    2.74    2.74</time>
   <time name="total">    3.08    3.10</time>
   <energy>
    <i name="e_fr_energy">    -75.34367161 </i>
    <i name="e_wo_entrp">    -75.34367161 </i>
    <i name="e_0_energy">    -75.34367161 </i>
   </energy>
  </scstep>
  <scstep>
   <time name="dav">    2.68    2.68</time>
   <time name="total">    3.02    3.38</time>
   <energy>
    <i name="e_fr_energy">    -75.34898339 </i>
    <i name="e_wo_entrp">    -75.34898339 </i>
    <i name="e_0_energy">    -75.34898339 </i>
   </energy>
  </scstep>
  <scstep>
   <time name="dav">    2.67    2.67</time>
   <time name="total">    3.00    3.03</time>
   <energy>
    <i name="e_fr_energy">    -75.35302660 </i>
    <i name="e_wo_entrp">    -75.35302660 </i>
    <i name="e_0_energy">    -75.35302660 </i>
   </energy>
  </scstep>
  <scstep>
   <time name="dav">    2.70    2.70</time>
   <time name="total">    3.03    3.05</time>
   <energy>
    <i name="e_fr_energy">    -75.35432149 </i>
    <i name="e_wo_entrp">    -75.35432149 </i>
    <i name="e_0_energy">    -75.35432149 </i>
   </energy>
  </scstep>
  <scstep>
   <time name="dav">    2.56    2.56</time>
   <time name="total">    2.90    2.93</time>
   <energy>
    <i name="e_fr_energy">    -75.35560227 </i>
    <i name="e_wo_entrp">    -75.35560227 </i>
    <i name="e_0_energy">    -75.35560227 </i>
   </energy>
  </scstep>
  <scstep>
   <time name="dav">    2.58    2.59</time>
   <time name="total">    2.94    3.11</time>
   <energy>
    <i name="e_fr_energy">    -75.35592939 </i>
    <i name="e_wo_entrp">    -75.35592939 </i>
    <i name="e_0_energy">    -75.35592939 </i>
   </energy>
  </scstep>
  <scstep>
   <time name="dav">    2.54    2.55</time>
   <time name="total">    2.76    2.77</time>
   <energy>
    <i name="alphaZ">     88.30446371 </i>
    <i name="ewald">  93683.57836752 </i>
    <i name="hartreedc">-129445.68050583 </i>
    <i name="XCdc">   -407.24110935 </i>
    <i name="pawpsdc">  39098.66137274 </i>
    <i name="pawaedc"> -37507.20588417 </i>
    <i name="eentropy">     -0.00000000 </i>
    <i name="bandstr">  -2924.92339815 </i>
    <i name="atom">  37339.15068311 </i>
    <i name="e_fr_energy">    -75.35601044 </i>
    <i name="e_wo_entrp">    -75.35601044 </i>
    <i name="e_0_energy">    -75.35601044 </i>
   </energy>
  </scstep>
  <structure>
   <crystal>
    <varray name="basis" >
     <v>      23.19773102       0.00000000       0.00000000 </v>
     <v>       0.00000000      23.19773102       0.00000000 </v>
     <v>       0.00000000       0.00000000      23.19773102 </v>
    </varray>
    <i name="volume">  12483.50458343 </i>
    <varray name="rec_basis" >
     <v>       0.04310766       0.00000000       0.00000000 </v>
     <v>       0.00000000       0.04310766       0.00000000 </v>
     <v>       0.00000000       0.00000000       0.04310766 </v>
    </varray>
   </crystal>
   <varray name="positions" >
    <v>       0.51646278       0.42121811       0.66621856 </v>
    <v>       0.51426665       0.53259455       0.69440944 </v>
    <v>       0.59736753       0.37313151       0.59066542 </v>
    <v>       0.50921402       0.64804819       0.71903291 </v>
    <v>       0.59831145       0.48957350       0.61277926 </v>
    <v>       0.48425730       0.39824266       0.55295510 </v>
    <v>       0.45910924       0.50476941       0.59382054 </v>
    <v>       0.59741669       0.60417095       0.64194527 </v>
    <v>       0.69055026       0.44735308       0.52977912 </v>
    <v>       0.41699922       0.60046401       0.64964892 </v>
    <v>       0.60372548       0.25838067       0.54944044 </v>
    <v>       0.37719678       0.43990880       0.53425495 </v>
    <v>       0.34064749       0.54312154       0.58550204 </v>
    <v>       0.65719155       0.55809731       0.53696988 </v>
    <v>       0.57331470       0.45973746       0.49693355 </v>
    <v>       0.66282358       0.34099113       0.49283404 </v>
    <v>       0.50326268       0.66428287       0.59999046 </v>
    <v>       0.53624120       0.32316435       0.47817695 </v>
    <v>       0.62025017       0.67065727       0.54597469 </v>
    <v>       0.41837582       0.33774021       0.46978373 </v>
    <v>       0.53946276       0.57263612       0.53050594 </v>
    <v>       0.42155924       0.61444239       0.51968211 </v>
    <v>       0.46076342       0.50516906       0.47224543 </v>
    <v>       0.52438861       0.69313448       0.48641088 </v>
    <v>       0.33651302       0.53474664       0.46946951 </v>
    <v>       0.62163893       0.40772423       0.40025434 </v>
    <v>       0.61146010       0.61081566       0.43823827 </v>
    <v>       0.67548163       0.51044763       0.42351499 </v>
    <v>       0.49808030       0.41068715       0.40638873 </v>
    <v>       0.42463347       0.70959245       0.43257671 </v>
    <v>       0.49801236       0.60658687       0.41162595 </v>
    <v>       0.37913754       0.43524966       0.41330047 </v>
    <v>       0.56021057       0.51079273       0.38067539 </v>
    <v>       0.38409265       0.61037821       0.39382324 </v>
    <v>       0.44826562       0.51057915       0.34708045 </v>
    <v>       0.32620948       0.52013383       0.34630828 </v>
   </varray>
  </structure>
  <varray name="forces" >
   <v>      -0.03186992      -0.30379731      -0.11479272 </v>
   <v>       0.01487648       0.44734607       0.18093062 </v>
   <v>       0.10971735      -0.18915097      -0.31112833 </v>
   <v>       0.04872702       0.00141483      -0.17981427 </v>
   <v>      -0.06665427      -0.22807290       0.16998452 </v>
   <v>       0.11173939      -0.30534751       0.06777565 </v>
   <v>      -0.17136743       0.11293987       0.10169564 </v>
   <v>       0.08019226       0.07872467       0.19490576 </v>
   <v>      -0.15126125      -0.17973267       0.15708185 </v>
   <v>       0.23648420       0.22196419       0.35033192 </v>
   <v>      -0.14579770      -0.10631808       0.15901203 </v>
   <v>      -0.35945904      -0.12696037      -0.02811935 </v>
   <v>      -0.01804510       0.03608940      -0.00756531 </v>
   <v>       0.39958223       0.20750548       0.06615033 </v>
   <v>       0.36462599      -0.20745070      -0.06209301 </v>
   <v>      -0.14129159      -0.06320663      -0.32807229 </v>
   <v>      -0.11456649       0.37288214       0.14950297 </v>
   <v>       0.59352400       0.16294953      -0.11830869 </v>
   <v>       0.13244487       0.12705035       0.21554407 </v>
   <v>       0.08991473       0.21260281      -0.08866774 </v>
   <v>       0.02457549       0.33093334       0.07076008 </v>
   <v>      -0.06759183       0.19435365       0.21510128 </v>
   <v>       0.03779193      -0.10502096      -0.05362982 </v>
   <v>       0.15935910      -0.14384936       0.05613406 </v>
   <v>      -0.41590199      -0.14322706      -0.10359621 </v>
   <v>      -0.08511056      -0.26610916       0.07554412 </v>
   <v>       0.10113324       0.22654692      -0.10111665 </v>
   <v>      -0.01897616      -0.05233867       0.07753826 </v>
   <v>       0.00645089      -0.26855935      -0.16524400 </v>
   <v>      -0.14178049      -0.08685142       0.07066172 </v>
   <v>      -0.12774189       0.28816525      -0.18812176 </v>
   <v>      -0.33976844      -0.13537977      -0.19855186 </v>
   <v>       0.45982854      -0.03119686       0.05313225 </v>
   <v>      -0.30954827      -0.18927270      -0.39426979 </v>
   <v>      -0.28417744       0.11204798      -0.10729398 </v>
   <v>       0.01994216      -0.00167402       0.11859868 </v>
  </varray>
  <varray name="stress" >
   <v>      -0.68767196      -0.07387815       0.25928160 </v>
   <v>      -0.07387815      -0.60867875       0.43564125 </v>
   <v>       0.25928159       0.43564125      -1.08108643 </v>
  </varray>
  <energy>
   <i name="e_fr_energy">    -75.35601044 </i>
   <i name="e_wo_entrp">    -75.35601044 </i>
   <i name="e_0_energy">     -0.00000000 </i>
  </energy>
  <time name="totalsc">  127.34  135.84</time>
 </calculation>
 <calculation>
  <scstep>
   <time name="dav">    3.58    3.59</time>
   <time name="total">    3.92    3.94</time>
   <energy>
    <i name="alphaZ">     88.30446371 </i>
    <i name="ewald">  93618.18922121 </i>
    <i name="hartreedc">-129380.65298044 </i>
    <i name="XCdc">   -407.29970254 </i>
    <i name="pawpsdc">  39098.73776875 </i>
    <i name="pawaedc"> -37507.28293947 </i>
    <i name="eentropy">      0.00000000 </i>
    <i name="bandstr">  -2924.54136716 </i>
    <i name="atom">  37339.15068311 </i>
    <i name="e_fr_energy">    -75.39485282 </i>
    <i name="e_wo_entrp">    -75.39485282 </i>
    <i name="e_0_energy">    -75.39485282 </i>
   </energy>
  </scstep>
  <scstep>
   <time name="dav">    3.62    3.62</time>
   <time name="total">    3.95    3.98</time>
   <energy>
    <i name="e_fr_energy">    -75.39612878 </i>
    <i name="e_wo_entrp">    -75.39612878 </i>
    <i name="e_0_energy">    -75.39612878 </i>
   </energy>
  </scstep>
  <scstep>
   <time name="dav">    2.47    2.47</time>
   <time name="total">    2.69    2.74</time>
   <energy>
    <i name="alphaZ">     88.30446371 </i>
    <i name="ewald">  93618.18922121 </i>
    <i name="hartreedc">-129380.99595428 </i>
    <i name="XCdc">   -407.29259502 </i>
    <i name="pawpsdc">  39094.06455840 </i>
    <i name="pawaedc"> -37502.53105346 </i>
    <i name="eentropy">     -0.00000000 </i>
    <i name="bandstr">  -2924.28542957 </i>
    <i name="atom">  37339.15068311 </i>
    <i name="e_fr_energy">    -75.39610590 </i>
    <i name="e_wo_entrp">    -75.39610590 </i>
    <i name="e_0_energy">    -75.39610590 </i>
   </energy>
  </scstep>
  <structure>
   <crystal>
    <varray name="basis" >
     <v>      23.19773102       0.00000000       0.00000000 </v>
     <v>       0.00000000      23.19773102       0.00000000 </v>
     <v>       0.00000000       0.00000000      23.19773102 </v>
    </varray>
    <i name="volume">  12483.50458343 </i>
    <varray name="rec_basis" >
     <v>       0.04310766       0.00000000       0.00000000 </v>
     <v>       0.00000000       0.04310766       0.00000000 </v>
     <v>       0.00000000       0.00000000       0.04310766 </v>
    </varray>
   </crystal>
   <varray name="positions" >
    <v>       0.51644952       0.42109175       0.66617082 </v>
    <v>       0.51427284       0.53278061       0.69448469 </v>
    <v>       0.59741316       0.37305284       0.59053601 </v>
    <v>       0.50923428       0.64804878       0.71895812 </v>
    <v>       0.59828373       0.48947864       0.61284996 </v>
    <v>       0.48430378       0.39811566       0.55298329 </v>
    <v>       0.45903796       0.50481639       0.59386284 </v>
    <v>       0.59745004       0.60420370       0.64202634 </v>
    <v>       0.69048734       0.44727832       0.52984445 </v>
    <v>       0.41709758       0.60055633       0.64979463 </v>
    <v>       0.60366484       0.25833645       0.54950658 </v>
    <v>       0.37704727       0.43985599       0.53424326 </v>
    <v>       0.34063998       0.54313655       0.58549889 </v>
    <v>       0.65735775       0.55818362       0.53699739 </v>
    <v>       0.57346636       0.45965118       0.49690773 </v>
    <v>       0.66276482       0.34096484       0.49269759 </v>
    <v>       0.50321502       0.66443796       0.60005264 </v>
    <v>       0.53648806       0.32323212       0.47812774 </v>
    <v>       0.62030525       0.67071011       0.54606434 </v>
    <v>       0.41841321       0.33782864       0.46974685 </v>
    <v>       0.53947299       0.57277377       0.53053537 </v>
    <v>       0.42153113       0.61452323       0.51977157 </v>
    <v>       0.46077914       0.50512538       0.47222312 </v>
    <v>       0.52445490       0.69307465       0.48643423 </v>
    <v>       0.33634003       0.53468707       0.46942643 </v>
    <v>       0.62160353       0.40761355       0.40028576 </v>
    <v>       0.61150216       0.61090989       0.43819621 </v>
    <v>       0.67547374       0.51042586       0.42354724 </v>
    <v>       0.49808298       0.41057545       0.40632000 </v>
    <v>       0.42457450       0.70955633       0.43260610 </v>
    <v>       0.49795923       0.60670672       0.41154770 </v>
    <v>       0.37899622       0.43519335       0.41321789 </v>
    <v>       0.56040182       0.51077975       0.38069749 </v>
    <v>       0.38396390       0.61029948       0.39365925 </v>
    <v>       0.44814743       0.51062576       0.34703583 </v>
    <v>       0.32621777       0.52013314       0.34635761 </v>
   </varray>
  </structure>
  <varray name="forces" >
   <v>      -0.03368121      -0.26470843      -0.10537396 </v>
   <v>       0.01540960       0.38701536       0.16416380 </v>
   <v>       0.10551033      -0.18221114      -0.29530601 </v>
   <v>       0.04967079       0.01917940      -0.15973194 </v>
   <v>      -0.06290387      -0.20244639       0.15262626 </v>
   <v>       0.09095388      -0.27375830       0.06249824 </v>
   <v>      -0.16094680       0.09630284       0.09147536 </v>
   <v>       0.07747819       0.07189141       0.17699273 </v>
   <v>      -0.14269579      -0.16887374       0.15475296 </v>
   <v>       0.21303616       0.20370982       0.33004911 </v>
   <v>      -0.13710460      -0.10503187       0.15605993 </v>
   <v>      -0.32566660      -0.12064792      -0.02809026 </v>
   <v>      -0.00596895       0.04334908      -0.00409136 </v>
   <v>       0.36878904       0.19040666       0.06955716 </v>
   <v>       0.33646386      -0.18700526      -0.05317263 </v>
   <v>      -0.13005792      -0.07187643      -0.31359416 </v>
   <v>      -0.10242679       0.36090771       0.13865977 </v>
   <v>       0.56197730       0.15996707      -0.11873174 </v>
   <v>       0.12738627       0.12212956       0.20846178 </v>
   <v>       0.09720374       0.20471199      -0.08405244 </v>
   <v>       0.02993122       0.30470702       0.06560843 </v>
   <v>      -0.06678748       0.17968556       0.20127294 </v>
   <v>       0.04058729      -0.10118678      -0.04951411 </v>
   <v>       0.14603514      -0.13545868       0.05139212 </v>
   <v>      -0.39312164      -0.13504823      -0.09402726 </v>
   <v>      -0.07933591      -0.25574468       0.06285181 </v>
   <v>       0.09323809       0.21428821      -0.09117875 </v>
   <v>      -0.01791794      -0.05292461       0.07916528 </v>
   <v>       0.00073182      -0.24065330      -0.16518361 </v>
   <v>      -0.13516784      -0.09685562       0.07218295 </v>
   <v>      -0.12226295       0.26019209      -0.18455957 </v>
   <v>      -0.31773227      -0.12921695      -0.18700098 </v>
   <v>       0.40805947      -0.02367752       0.05021099 </v>
   <v>      -0.28594698      -0.16459890      -0.36817820 </v>
   <v>      -0.24567229       0.10415173      -0.08929076 </v>
   <v>       0.00293565      -0.01067077       0.10309612 </v>
  </varray>
  <varray name="stress" >
   <v>      -0.73768345      -0.07450888       0.25573163 </v>
   <v>      -0.07450888      -0.65945861       0.42993320 </v>
   <v>       0.25573163       0.42993320      -1.10722095 </v>
  </varray>
  <energy>
   <i name="e_fr_energy">    -75.39610590 </i>
   <i name="e_wo_entrp">    -75.39610590 </i>
   <i name="e_0_energy">     -0.00000000 </i>
  </energy>
  <time name="totalsc">   16.97   17.13</time>
 </calculation>
 <calculation>
  <scstep>
   <time name="dav">    3.44    3.45</time>
   <time name="total">    3.78    3.79</time>
   <energy>
    <i name="alphaZ">     88.30446371 </i>
    <i name="ewald">  93422.77407633 </i>
    <i name="hartreedc">-129186.73865072 </i>
    <i name="XCdc">   -407.46123889 </i>
    <i name="pawpsdc">  39090.43744879 </i>
    <i name="pawaedc"> -37498.85400406 </i>
    <i name="eentropy">      0.00000000 </i>
    <i name="bandstr">  -2923.10477232 </i>
    <i name="atom">  37339.15068311 </i>
    <i name="e_fr_energy">    -75.49199405 </i>
    <i name="e_wo_entrp">    -75.49199405 </i>
    <i name="e_0_energy">    -75.49199405 </i>
   </energy>
  </scstep>
  <scstep>
   <time name="dav">    3.59    3.59</time>
   <time name="total">    3.93    3.93</time>
   <energy>
    <i name="e_fr_energy">    -75.50329414 </i>
    <i name="e_wo_entrp">    -75.50329414 </i>
    <i name="e_0_energy">    -75.50329414 </i>
   </energy>
  </scstep>
  <scstep>
   <time name="dav">    3.64    3.64</time>
   <time name="total">    3.97    3.99</time>
   <energy>
    <i name="e_fr_energy">    -75.50303815 </i>
    <i name="e_wo_entrp">    -75.50303815 </i>
    <i name="e_0_energy">    -75.50303815 </i>
   </energy>
  </scstep>
  <scstep>
   <time name="dav">    3.63    3.63</time>
   <time name="total">    3.96    3.99</time>
   <energy>
    <i name="e_fr_energy">    -75.50285944 </i>
    <i name="e_wo_entrp">    -75.50285944 </i>
    <i name="e_0_energy">    -75.50285944 </i>
   </energy>
  </scstep>
  <scstep>
   <time name="dav">    2.53    2.53</time>
   <time name="total">    2.75    2.76</time>
   <energy>
    <i name="alphaZ">     88.30446371 </i>
    <i name="ewald">  93422.77407633 </i>
    <i name="hartreedc">-129187.98228828 </i>
    <i name="XCdc">   -407.43358487 </i>
    <i name="pawpsdc">  39064.84626137 </i>
    <i name="pawaedc"> -37472.86630258 </i>
    <i name="eentropy">      0.00000000 </i>
    <i name="bandstr">  -2922.29616845 </i>
    <i name="atom">  37339.15068311 </i>
    <i name="e_fr_energy">    -75.50285966 </i>
    <i name="e_wo_entrp">    -75.50285966 </i>
    <i name="e_0_energy">    -75.50285966 </i>
   </energy>
  </scstep>
  <structure>
   <crystal>
    <varray name="basis" >
     <v>      23.19773102       0.00000000       0.00000000 </v>
     <v>       0.00000000      23.19773102       0.00000000 </v>
     <v>       0.00000000       0.00000000      23.19773102 </v>
    </varray>
    <i name="volume">  12483.50458343 </i>
    <varray name="rec_basis" >
     <v>       0.04310766       0.00000000       0.00000000 </v>
     <v>       0.00000000       0.04310766       0.00000000 </v>
     <v>       0.00000000       0.00000000       0.04310766 </v>
    </varray>
   </crystal>
   <varray name="positions" >
    <v>       0.51640975       0.42071268       0.66602758 </v>
    <v>       0.51429140       0.53333880       0.69471045 </v>
    <v>       0.59755007       0.37281682       0.59014780 </v>
    <v>       0.50929508       0.64805054       0.71873375 </v>
    <v>       0.59820056       0.48919406       0.61306206 </v>
    <v>       0.48444321       0.39773466       0.55306786 </v>
    <v>       0.45882413       0.50495731       0.59398973 </v>
    <v>       0.59755010       0.60430193       0.64226953 </v>
    <v>       0.69029860       0.44705405       0.53004045 </v>
    <v>       0.41739266       0.60083329       0.65023177 </v>
    <v>       0.60348292       0.25820379       0.54970499 </v>
    <v>       0.37659874       0.43969757       0.53420817 </v>
    <v>       0.34061746       0.54318158       0.58548945 </v>
    <v>       0.65785633       0.55844254       0.53707993 </v>
    <v>       0.57392133       0.45939233       0.49683025 </v>
    <v>       0.66258852       0.34088597       0.49228823 </v>
    <v>       0.50307207       0.66490324       0.60023919 </v>
    <v>       0.53722865       0.32343545       0.47798011 </v>
    <v>       0.62047051       0.67086865       0.54633329 </v>
    <v>       0.41852541       0.33809392       0.46963621 </v>
    <v>       0.53950365       0.57318670       0.53062366 </v>
    <v>       0.42144679       0.61476574       0.52003997 </v>
    <v>       0.46082630       0.50499434       0.47215621 </v>
    <v>       0.52465374       0.69289515       0.48650427 </v>
    <v>       0.33582108       0.53450836       0.46929716 </v>
    <v>       0.62149733       0.40728150       0.40038002 </v>
    <v>       0.61162835       0.61119257       0.43807004 </v>
    <v>       0.67545006       0.51036056       0.42364399 </v>
    <v>       0.49809103       0.41024035       0.40611381 </v>
    <v>       0.42439759       0.70944796       0.43269427 </v>
    <v>       0.49779983       0.60706629       0.41131297 </v>
    <v>       0.37857227       0.43502443       0.41297014 </v>
    <v>       0.56097559       0.51074083       0.38076378 </v>
    <v>       0.38357765       0.61006331       0.39316729 </v>
    <v>       0.44779284       0.51076557       0.34690195 </v>
    <v>       0.32624265       0.52013105       0.34650560 </v>
   </varray>
  </structure>
  <varray name="forces" >
   <v>      -0.04201476      -0.18115708      -0.08723049 </v>
   <v>       0.01783287       0.24931465       0.12869826 </v>
   <v>       0.10053079      -0.17589711      -0.27140571 </v>
   <v>       0.05488029       0.07217605      -0.11388476 </v>
   <v>      -0.05645573      -0.14776474       0.11688412 </v>
   <v>       0.04224909      -0.20854561       0.05210523 </v>
   <v>      -0.14420872       0.06047303       0.07096484 </v>
   <v>       0.07675106       0.05979901       0.14049174 </v>
   <v>      -0.12861530      -0.14983900       0.15959457 </v>
   <v>       0.16577254       0.16780739       0.29710709 </v>
   <v>      -0.12335520      -0.10728506       0.16145450 </v>
   <v>      -0.25778242      -0.11200820      -0.02934846 </v>
   <v>       0.02499040       0.06453764       0.00313488 </v>
   <v>       0.31210846       0.15812245       0.08300086 </v>
   <v>       0.28351668      -0.14730477      -0.03408797 </v>
   <v>      -0.10932463      -0.10012733      -0.29460359 </v>
   <v>      -0.07617259       0.35061369       0.11707070 </v>
   <v>       0.51723418       0.16248595      -0.12755496 </v>
   <v>       0.12234819       0.11664135       0.20342266 </v>
   <v>       0.11961964       0.20062920      -0.07792182 </v>
   <v>       0.04384159       0.25645900       0.05595969 </v>
   <v>      -0.06738876       0.15541627       0.18034972 </v>
   <v>       0.05217287      -0.09784794      -0.04290438 </v>
   <v>       0.11978086      -0.12234111       0.04239175 </v>
   <v>      -0.35735426      -0.12373104      -0.07555480 </v>
   <v>      -0.06996834      -0.24756396       0.03180510 </v>
   <v>       0.07729297       0.19546279      -0.07108721 </v>
   <v>      -0.01564312      -0.05696013       0.08858142 </v>
   <v>      -0.01441872      -0.18200329      -0.17653148 </v>
   <v>      -0.12752125      -0.13153493       0.08153609 </v>
   <v>      -0.11566507       0.20162905      -0.18728701 </v>
   <v>      -0.28077400      -0.12150294      -0.16941691 </v>
   <v>       0.30340252      -0.00477565       0.04623383 </v>
   <v>      -0.24170495      -0.10660010      -0.32285112 </v>
   <v>      -0.16099939       0.09083447      -0.04699705 </v>
   <v>      -0.04495781      -0.03761197       0.06788063 </v>
  </varray>
  <varray name="stress" >
   <v>      -0.85198508      -0.07692667       0.24748930 </v>
   <v>      -0.07692667      -0.77308956       0.41351796 </v>
   <v>       0.24748931       0.41351796      -1.16921632 </v>
  </varray>
  <energy>
   <i name="e_fr_energy">    -75.50285966 </i>
   <i name="e_wo_entrp">    -75.50285966 </i>
   <i name="e_0_energy">      0.00000000 </i>
  </energy>
  <time name="totalsc">   24.82   24.94</time>
 </calculation>
 <calculation>
  <scstep>
   <time name="dav">    3.43    3.43</time>
   <time name="total">    3.76    3.78</time>
   <energy>
    <i name="alphaZ">     88.30446371 </i>
    <i name="ewald">  93035.30471855 </i>
    <i name="hartreedc">-128802.41707364 </i>
    <i name="XCdc">   -407.74678733 </i>
    <i name="pawpsdc">  39064.92132303 </i>
    <i name="pawaedc"> -37472.94369608 </i>
    <i name="eentropy">      0.00000000 </i>
    <i name="bandstr">  -2920.18932945 </i>
    <i name="atom">  37339.15068311 </i>
    <i name="e_fr_energy">    -75.61569809 </i>
    <i name="e_wo_entrp">    -75.61569809 </i>
    <i name="e_0_energy">    -75.61569809 </i>
   </energy>
  </scstep>
  <scstep>
   <time name="dav">    3.56    3.56</time>
   <time name="total">    3.89    3.89</time>
   <energy>
    <i name="e_fr_energy">    -75.66109487 </i>
    <i name="e_wo_entrp">    -75.66109487 </i>
    <i name="e_0_energy">    -75.66109487 </i>
   </energy>
  </scstep>
  <scstep>
   <time name="dav">    3.59    3.59</time>
   <time name="total">    3.93    3.96</time>
   <energy>
    <i name="e_fr_energy">    -75.66016831 </i>
    <i name="e_wo_entrp">    -75.66016831 </i>
    <i name="e_0_energy">    -75.66016831 </i>
   </energy>
  </scstep>
  <scstep>
   <time name="dav">    3.65    3.65</time>
   <time name="total">    3.98    3.99</time>
   <energy>
    <i name="e_fr_energy">    -75.65929871 </i>
    <i name="e_wo_entrp">    -75.65929871 </i>
    <i name="e_0_energy">    -75.65929871 </i>
   </energy>
  </scstep>
  <scstep>
   <time name="dav">    2.58    2.58</time>
   <time name="total">    2.80    2.83</time>
   <energy>
    <i name="alphaZ">     88.30446371 </i>
    <i name="ewald">  93035.30471855 </i>
    <i name="hartreedc">-128804.77503989 </i>
    <i name="XCdc">   -407.69650492 </i>
    <i name="pawpsdc">  39021.25045552 </i>
    <i name="pawaedc"> -37428.56616096 </i>
    <i name="eentropy">      0.00000000 </i>
    <i name="bandstr">  -2918.63192470 </i>
    <i name="atom">  37339.15068311 </i>
    <i name="e_fr_energy">    -75.65930958 </i>
    <i name="e_wo_entrp">    -75.65930958 </i>
    <i name="e_0_energy">    -75.65930958 </i>
   </energy>
  </scstep>
  <structure>
   <crystal>
    <varray name="basis" >
     <v>      23.19773102       0.00000000       0.00000000 </v>
     <v>       0.00000000      23.19773102       0.00000000 </v>
     <v>       0.00000000       0.00000000      23.19773102 </v>
    </varray>
    <i name="volume">  12483.50458343 </i>
    <varray name="rec_basis" >
     <v>       0.04310766       0.00000000       0.00000000 </v>
     <v>       0.00000000       0.04310766       0.00000000 </v>
     <v>       0.00000000       0.00000000       0.04310766 </v>
    </varray>
   </crystal>
   <varray name="positions" >
    <v>       0.51633022       0.41995454       0.66574111 </v>
    <v>       0.51432852       0.53445518       0.69516198 </v>
    <v>       0.59782387       0.37234478       0.58937136 </v>
    <v>       0.50941669       0.64805407       0.71828502 </v>
    <v>       0.59803422       0.48862489       0.61348627 </v>
    <v>       0.48472206       0.39697265       0.55323699 </v>
    <v>       0.45839648       0.50523916       0.59424352 </v>
    <v>       0.59775023       0.60449839       0.64275593 </v>
    <v>       0.68992112       0.44660552       0.53043246 </v>
    <v>       0.41798282       0.60138721       0.65110604 </v>
    <v>       0.60311907       0.25793846       0.55010182 </v>
    <v>       0.37570169       0.43938074       0.53413800 </v>
    <v>       0.34057243       0.54327164       0.58547057 </v>
    <v>       0.65885351       0.55896038       0.53724501 </v>
    <v>       0.57483128       0.45887462       0.49667529 </v>
    <v>       0.66223592       0.34072823       0.49146951 </v>
    <v>       0.50278616       0.66583378       0.60061228 </v>
    <v>       0.53870982       0.32384210       0.47768487 </v>
    <v>       0.62080104       0.67118571       0.54687119 </v>
    <v>       0.41874980       0.33862448       0.46941494 </v>
    <v>       0.53956498       0.57401256       0.53080024 </v>
    <v>       0.42127811       0.61525076       0.52057677 </v>
    <v>       0.46092061       0.50473225       0.47202237 </v>
    <v>       0.52505143       0.69253617       0.48664436 </v>
    <v>       0.33478317       0.53415092       0.46903863 </v>
    <v>       0.62128493       0.40661741       0.40056855 </v>
    <v>       0.61188074       0.61175793       0.43781770 </v>
    <v>       0.67540271       0.51022994       0.42383749 </v>
    <v>       0.49810713       0.40957014       0.40570143 </v>
    <v>       0.42404377       0.70923122       0.43287061 </v>
    <v>       0.49748105       0.60778542       0.41084350 </v>
    <v>       0.37772436       0.43468658       0.41247464 </v>
    <v>       0.56212311       0.51066297       0.38089638 </v>
    <v>       0.38280516       0.60959097       0.39218337 </v>
    <v>       0.44708366       0.51104519       0.34663419 </v>
    <v>       0.32629242       0.52012687       0.34680157 </v>
   </varray>
  </structure>
  <varray name="forces" >
   <v>      -0.05495310      -0.02809857      -0.04901623 </v>
   <v>       0.02263657      -0.03367917       0.04609697 </v>
   <v>       0.08779573      -0.15556201      -0.20888434 </v>
   <v>       0.06819859       0.19254590      -0.01079629 </v>
   <v>      -0.04394138      -0.03859480       0.04511345 </v>
   <v>      -0.05373366      -0.07797607       0.02501508 </v>
   <v>      -0.10322774      -0.00723784       0.03011414 </v>
   <v>       0.07530021       0.03533646       0.06129476 </v>
   <v>      -0.08964004      -0.10483711       0.16245613 </v>
   <v>       0.06082834       0.09402156       0.21298209 </v>
   <v>      -0.09179261      -0.11004911       0.18262865 </v>
   <v>      -0.12166550      -0.08948319      -0.03202833 </v>
   <v>       0.08130835       0.10140881       0.01388350 </v>
   <v>       0.18971130       0.08914435       0.10305869 </v>
   <v>       0.15133927      -0.05767975       0.00489632 </v>
   <v>      -0.05165979      -0.15673536      -0.23199787 </v>
   <v>      -0.02129655       0.32154421       0.06255498 </v>
   <v>       0.41359512       0.15400879      -0.13968779 </v>
   <v>       0.10728897       0.10409209       0.18554030 </v>
   <v>       0.15390710       0.18708775      -0.06150190 </v>
   <v>       0.06814884       0.14393812       0.03628641 </v>
   <v>      -0.06268688       0.10376289       0.13327796 </v>
   <v>       0.07294529      -0.08656266      -0.02907997 </v>
   <v>       0.06244039      -0.08622610       0.02267309 </v>
   <v>      -0.27524796      -0.09915853      -0.03553008 </v>
   <v>      -0.04736436      -0.22130272      -0.04411044 </v>
   <v>       0.04531717       0.15142237      -0.03040258 </v>
   <v>      -0.00278640      -0.06291623       0.10700993 </v>
   <v>      -0.04341175      -0.05644591      -0.19140021 </v>
   <v>      -0.10619575      -0.19163691       0.09401890 </v>
   <v>      -0.10099504       0.07399467      -0.18641338 </v>
   <v>      -0.19690731      -0.10395307      -0.12639733 </v>
   <v>       0.09496277       0.03126386       0.03533322 </v>
   <v>      -0.14426724       0.02649672      -0.20527118 </v>
   <v>       0.00820768       0.05851007       0.03289634 </v>
   <v>      -0.15215861      -0.10044353      -0.01461300 </v>
  </varray>
  <varray name="stress" >
   <v>      -1.05924739      -0.07885298       0.23579794 </v>
   <v>      -0.07885298      -0.98759812       0.38228719 </v>
   <v>       0.23579793       0.38228720      -1.28165461 </v>
  </varray>
  <energy>
   <i name="e_fr_energy">    -75.65930958 </i>
   <i name="e_wo_entrp">    -75.65930958 </i>
   <i name="e_0_energy">      0.00000000 </i>
  </energy>
  <time name="totalsc">   24.79   25.29</time>
 </calculation>
 <calculation>
  <scstep>
   <time name="dav">    3.43    3.43</time>
   <time name="total">    3.76    3.78</time>
   <energy>
    <i name="alphaZ">     88.30446371 </i>
    <i name="ewald">  92273.61952671 </i>
    <i name="hartreedc">-128046.17285817 </i>
    <i name="XCdc">   -408.21897388 </i>
    <i name="pawpsdc">  39021.30759994 </i>
    <i name="pawaedc"> -37428.62680061 </i>
    <i name="eentropy">      0.00000000 </i>
    <i name="bandstr">  -2914.94261586 </i>
    <i name="atom">  37339.15068311 </i>
    <i name="e_fr_energy">    -75.57897506 </i>
    <i name="e_wo_entrp">    -75.57897506 </i>
    <i name="e_0_energy">    -75.57897506 </i>
   </energy>
  </scstep>
  <scstep>
   <time name="dav">    3.62    3.63</time>
   <time name="total">    3.95    3.96</time>
   <energy>
    <i name="e_fr_energy">    -75.76346061 </i>
    <i name="e_wo_entrp">    -75.76346061 </i>
    <i name="e_0_energy">    -75.76346061 </i>
   </energy>
  </scstep>
  <scstep>
   <time name="dav">    3.56    3.57</time>
   <time name="total">    3.90    3.91</time>
   <energy>
    <i name="e_fr_energy">    -75.76040632 </i>
    <i name="e_wo_entrp">    -75.76040632 </i>
    <i name="e_0_energy">    -75.76040632 </i>
   </energy>
  </scstep>
  <scstep>
   <time name="dav">    3.54    3.55</time>
   <time name="total">    3.88    5.36</time>
   <energy>
    <i name="e_fr_energy">    -75.75653530 </i>
    <i name="e_wo_entrp">    -75.75653530 </i>
    <i name="e_0_energy">    -75.75653530 </i>
   </energy>
  </scstep>
  <scstep>
   <time name="dav">    3.65    3.65</time>
   <time name="total">    3.98    3.99</time>
   <energy>
    <i name="e_fr_energy">    -75.75666141 </i>
    <i name="e_wo_entrp">    -75.75666141 </i>
    <i name="e_0_energy">    -75.75666141 </i>
   </energy>
  </scstep>
  <scstep>
   <time name="dav">    2.75    2.75</time>
   <time name="total">    3.09    3.11</time>
   <energy>
    <i name="e_fr_energy">    -75.75654074 </i>
    <i name="e_wo_entrp">    -75.75654074 </i>
    <i name="e_0_energy">    -75.75654074 </i>
   </energy>
  </scstep>
  <scstep>
   <time name="dav">    2.54    2.55</time>
   <time name="total">    2.77    2.79</time>
   <energy>
    <i name="alphaZ">     88.30446371 </i>
    <i name="ewald">  92273.61952671 </i>
    <i name="hartreedc">-128050.05131040 </i>
    <i name="XCdc">   -408.13142522 </i>
    <i name="pawpsdc">  38957.34093973 </i>
    <i name="pawaedc"> -37363.53522030 </i>
    <i name="eentropy">      0.00000000 </i>
    <i name="bandstr">  -2912.45420845 </i>
    <i name="atom">  37339.15068311 </i>
    <i name="e_fr_energy">    -75.75655110 </i>
    <i name="e_wo_entrp">    -75.75655110 </i>
    <i name="e_0_energy">    -75.75655110 </i>
   </energy>
  </scstep>
  <structure>
   <crystal>
    <varray name="basis" >
     <v>      23.19773102       0.00000000       0.00000000 </v>
     <v>       0.00000000      23.19773102       0.00000000 </v>
     <v>       0.00000000       0.00000000      23.19773102 </v>
    </varray>
    <i name="volume">  12483.50458343 </i>
    <varray name="rec_basis" >
     <v>       0.04310766       0.00000000       0.00000000 </v>
     <v>       0.00000000       0.04310766       0.00000000 </v>
     <v>       0.00000000       0.00000000       0.04310766 </v>
    </varray>
   </crystal>
   <varray name="positions" >
    <v>       0.51617115       0.41843825       0.66516817 </v>
    <v>       0.51440277       0.53668793       0.69606502 </v>
    <v>       0.59837148       0.37140071       0.58781848 </v>
    <v>       0.50965989       0.64806113       0.71738754 </v>
    <v>       0.59770154       0.48748655       0.61433468 </v>
    <v>       0.48527976       0.39544862       0.55357527 </v>
    <v>       0.45754116       0.50580286       0.59475110 </v>
    <v>       0.59815047       0.60489131       0.64372873 </v>
    <v>       0.68916616       0.44570846       0.53121647 </v>
    <v>       0.41916314       0.60249506       0.65285458 </v>
    <v>       0.60239138       0.25740782       0.55089546 </v>
    <v>       0.37390760       0.43874706       0.53399765 </v>
    <v>       0.34048237       0.54345177       0.58543281 </v>
    <v>       0.66084787       0.55999606       0.53757518 </v>
    <v>       0.57665116       0.45783921       0.49636538 </v>
    <v>       0.66153071       0.34041276       0.48983206 </v>
    <v>       0.50221435       0.66769488       0.60135847 </v>
    <v>       0.54167216       0.32465540       0.47709438 </v>
    <v>       0.62146208       0.67181983       0.54794699 </v>
    <v>       0.41919857       0.33968561       0.46897239 </v>
    <v>       0.53968764       0.57566428       0.53115342 </v>
    <v>       0.42094075       0.61622080       0.52165036 </v>
    <v>       0.46110923       0.50420808       0.47175470 </v>
    <v>       0.52584681       0.69181820       0.48692453 </v>
    <v>       0.33270736       0.53343606       0.46852157 </v>
    <v>       0.62086014       0.40528923       0.40094560 </v>
    <v>       0.61238550       0.61288865       0.43731302 </v>
    <v>       0.67530799       0.50996872       0.42422449 </v>
    <v>       0.49813933       0.40822973       0.40487668 </v>
    <v>       0.42333612       0.70879773       0.43322329 </v>
    <v>       0.49684347       0.60922369       0.40990456 </v>
    <v>       0.37602854       0.43401088       0.41148365 </v>
    <v>       0.56441817       0.51050727       0.38116157 </v>
    <v>       0.38126017       0.60864629       0.39021552 </v>
    <v>       0.44566530       0.51160443       0.34609867 </v>
    <v>       0.32639195       0.52011852       0.34739351 </v>
   </varray>
  </structure>
  <varray name="forces" >
   <v>      -0.07260747       0.19258893       0.02810844 </v>
   <v>       0.03801670      -0.59300457      -0.10451976 </v>
   <v>       0.06065415      -0.10962242      -0.06073709 </v>
   <v>       0.11163728       0.49129130       0.21864287 </v>
   <v>      -0.02717878       0.15126313      -0.07389819 </v>
   <v>      -0.22252324       0.11869698      -0.03828097 </v>
   <v>      -0.01890492      -0.10800522      -0.03387785 </v>
   <v>       0.08501185      -0.00628486      -0.08736978 </v>
   <v>       0.01635890      -0.01553011       0.17331302 </v>
   <v>      -0.17561026      -0.05047235       0.01174179 </v>
   <v>      -0.03147405      -0.11923988       0.18180613 </v>
   <v>       0.11018751      -0.05874803      -0.04586853 </v>
   <v>       0.16969099       0.15773511       0.01874163 </v>
   <v>       0.01105519      -0.02225347       0.13155392 </v>
   <v>      -0.12783164       0.11893674       0.07340416 </v>
   <v>       0.10495055      -0.27827435      -0.07742319 </v>
   <v>       0.08312350       0.27703011      -0.06506170 </v>
   <v>       0.19678081       0.12739702      -0.16031281 </v>
   <v>       0.07903236       0.08853167       0.16032455 </v>
   <v>       0.18712479       0.17592747      -0.02354982 </v>
   <v>       0.10046562      -0.07825891       0.00950782 </v>
   <v>      -0.03844240       0.02568391       0.05715770 </v>
   <v>       0.11224892      -0.06715934      -0.00894183 </v>
   <v>      -0.04134087       0.00055946      -0.01195159 </v>
   <v>      -0.13744518      -0.05149418       0.04184626 </v>
   <v>      -0.00844607      -0.17174155      -0.23072902 </v>
   <v>      -0.00926795       0.06790180       0.04563889 </v>
   <v>       0.05464037      -0.06978629       0.15210844 </v>
   <v>      -0.09059334       0.17727622      -0.21241999 </v>
   <v>      -0.06468857      -0.29041712       0.10862204 </v>
   <v>      -0.08149456      -0.16625773      -0.17884725 </v>
   <v>      -0.03642626      -0.07288319      -0.03474389 </v>
   <v>      -0.31733031       0.09156706       0.00676985 </v>
   <v>       0.08212244       0.34177282       0.06673993 </v>
   <v>       0.30127154      -0.01103919       0.16166625 </v>
   <v>      -0.40276760      -0.26368697      -0.19916041 </v>
  </varray>
  <varray name="stress" >
   <v>      -1.32816075      -0.07111378       0.23363774 </v>
   <v>      -0.07111378      -1.29233815       0.32572785 </v>
   <v>       0.23363775       0.32572785      -1.43193399 </v>
  </varray>
  <energy>
   <i name="e_fr_energy">    -75.75655110 </i>
   <i name="e_wo_entrp">    -75.75655110 </i>
   <i name="e_0_energy">      0.00000000 </i>
  </energy>
  <time name="totalsc">   31.75   35.31</time>
 </calculation>
 <calculation>
  <scstep>
   <time name="dav">    3.43    3.44</time>
   <time name="total">    3.77    3.86</time>
   <energy>
    <i name="alphaZ">     88.30446371 </i>
    <i name="ewald">  91967.87299367 </i>
    <i name="hartreedc">-127746.11964370 </i>
    <i name="XCdc">   -408.44399810 </i>
    <i name="pawpsdc">  38956.99918458 </i>
    <i name="pawaedc"> -37363.19278966 </i>
    <i name="eentropy">     -0.00000000 </i>
    <i name="bandstr">  -2910.39183556 </i>
    <i name="atom">  37339.15068311 </i>
    <i name="e_fr_energy">    -75.82094195 </i>
    <i name="e_wo_entrp">    -75.82094195 </i>
    <i name="e_0_energy">    -75.82094195 </i>
   </energy>
  </scstep>
  <scstep>
   <time name="dav">    3.53    3.53</time>
   <time name="total">    3.88    3.89</time>
   <energy>
    <i name="e_fr_energy">    -75.85389896 </i>
    <i name="e_wo_entrp">    -75.85389896 </i>
    <i name="e_0_energy">    -75.85389896 </i>
   </energy>
  </scstep>
  <scstep>
   <time name="dav">    3.60    3.60</time>
   <time name="total">    3.93    3.95</time>
   <energy>
    <i name="e_fr_energy">    -75.85355512 </i>
    <i name="e_wo_entrp">    -75.85355512 </i>
    <i name="e_0_energy">    -75.85355512 </i>
   </energy>
  </scstep>
  <scstep>
   <time name="dav">    3.60    3.60</time>
   <time name="total">    3.93    3.96</time>
   <energy>
    <i name="e_fr_energy">    -75.85261117 </i>
    <i name="e_wo_entrp">    -75.85261117 </i>
    <i name="e_0_energy">    -75.85261117 </i>
   </energy>
  </scstep>
  <scstep>
   <time name="dav">    3.64    3.64</time>
   <time name="total">    3.86    4.12</time>
   <energy>
    <i name="alphaZ">     88.30446371 </i>
    <i name="ewald">  91967.87299367 </i>
    <i name="hartreedc">-127748.43194817 </i>
    <i name="XCdc">   -408.38646212 </i>
    <i name="pawpsdc">  38914.12088852 </i>
    <i name="pawaedc"> -37319.62401509 </i>
    <i name="eentropy">      0.00000000 </i>
    <i name="bandstr">  -2908.85924306 </i>
    <i name="atom">  37339.15068311 </i>
    <i name="e_fr_energy">    -75.85263943 </i>
    <i name="e_wo_entrp">    -75.85263943 </i>
    <i name="e_0_energy">    -75.85263943 </i>
   </energy>
  </scstep>
  <structure>
   <crystal>
    <varray name="basis" >
     <v>      23.19773102       0.00000000       0.00000000 </v>
     <v>       0.00000000      23.19773102       0.00000000 </v>
     <v>       0.00000000       0.00000000      23.19773102 </v>
    </varray>
    <i name="volume">  12483.50458343 </i>
    <varray name="rec_basis" >
     <v>       0.04310766       0.00000000       0.00000000 </v>
     <v>       0.00000000       0.04310766       0.00000000 </v>
     <v>       0.00000000       0.00000000       0.04310766 </v>
    </varray>
   </crystal>
   <varray name="positions" >
    <v>       0.51596701       0.41840576       0.66505929 </v>
    <v>       0.51450699       0.53606657       0.69610639 </v>
    <v>       0.59866483       0.37088404       0.58722726 </v>
    <v>       0.50997336       0.64912580       0.71759465 </v>
    <v>       0.59754424       0.48747661       0.61442610 </v>
    <v>       0.48496364       0.39525403       0.55359265 </v>
    <v>       0.45724699       0.50573619       0.59482813 </v>
    <v>       0.59845287       0.60499408       0.64382784 </v>
    <v>       0.68897797       0.44540922       0.53182349 </v>
    <v>       0.41913286       0.60271397       0.65339778 </v>
    <v>       0.60210782       0.25699278       0.55152370 </v>
    <v>       0.37361462       0.43843235       0.53385688 </v>
    <v>       0.34082270       0.54384626       0.58546216 </v>
    <v>       0.66146238       0.56025463       0.53795748 </v>
    <v>       0.57691362       0.45778983       0.49643236 </v>
    <v>       0.66154887       0.33971749       0.48917971 </v>
    <v>       0.50222480       0.66884518       0.60143872 </v>
    <v>       0.54297501       0.32517178       0.47657279 </v>
    <v>       0.62182878       0.67219909       0.54861233 </v>
    <v>       0.41973618       0.34038034       0.46879040 </v>
    <v>       0.53994125       0.57598416       0.53127857 </v>
    <v>       0.42075771       0.61656361       0.52209191 </v>
    <v>       0.46140786       0.50390761       0.47165609 </v>
    <v>       0.52599293       0.69160680       0.48698165 </v>
    <v>       0.33179538       0.53311300       0.46845896 </v>
    <v>       0.62071607       0.40452447       0.40055823 </v>
    <v>       0.61251494       0.61337035       0.43726227 </v>
    <v>       0.67539812       0.50974042       0.42466808 </v>
    <v>       0.49795293       0.40821621       0.40417302 </v>
    <v>       0.42298666       0.70804124       0.43356266 </v>
    <v>       0.49647841       0.60929002       0.40923970 </v>
    <v>       0.37544756       0.43365315       0.41111504 </v>
    <v>       0.56441148       0.51065920       0.38125474 </v>
    <v>       0.38098026       0.60910573       0.38977712 </v>
    <v>       0.44589687       0.51174617       0.34628974 </v>
    <v>       0.32555032       0.51954574       0.34713805 </v>
   </varray>
  </structure>
  <varray name="forces" >
   <v>      -0.06077002       0.15663850       0.00823322 </v>
   <v>       0.03105481      -0.36981890      -0.08712939 </v>
   <v>       0.00800935      -0.04726248      -0.01857971 </v>
   <v>       0.11241556       0.31572262       0.14060473 </v>
   <v>      -0.01576548       0.12584250      -0.09909089 </v>
   <v>      -0.15170246       0.10971148      -0.03790397 </v>
   <v>      -0.00111676      -0.08902364      -0.04811351 </v>
   <v>       0.01508508      -0.01193655      -0.06502747 </v>
   <v>       0.01512676      -0.03814809       0.14600332 </v>
   <v>      -0.09222113      -0.04276944      -0.01744788 </v>
   <v>      -0.02946850      -0.09475591       0.15535998 </v>
   <v>       0.10680271      -0.01499475      -0.05575694 </v>
   <v>       0.15045242       0.12948493      -0.01076936 </v>
   <v>      -0.01082636      -0.02760886       0.11547943 </v>
   <v>      -0.13897212       0.11273772       0.03772735 </v>
   <v>       0.16994048      -0.26614361      -0.02410085 </v>
   <v>       0.07835306       0.19839296      -0.03332017 </v>
   <v>       0.09474512       0.12795828      -0.12757572 </v>
   <v>       0.04774072       0.08941731       0.12072405 </v>
   <v>       0.18443874       0.14521234      -0.02396850 </v>
   <v>       0.07708696      -0.09535930       0.01178515 </v>
   <v>      -0.00972796       0.00523327       0.04162400 </v>
   <v>       0.09537646      -0.04793397       0.01109032 </v>
   <v>      -0.03406529      -0.01521779      -0.03292943 </v>
   <v>      -0.07483205      -0.03089878       0.01566393 </v>
   <v>      -0.02807542      -0.10214929      -0.20360332 </v>
   <v>      -0.03160623       0.02714261       0.06787838 </v>
   <v>       0.00744566      -0.07671053       0.14568403 </v>
   <v>      -0.06866649       0.18319012      -0.20709299 </v>
   <v>      -0.03468632      -0.21643375       0.13743790 </v>
   <v>      -0.02195582      -0.15687977      -0.12326138 </v>
   <v>      -0.01663008      -0.01602739      -0.03073684 </v>
   <v>      -0.27401873       0.07179654       0.02960115 </v>
   <v>      -0.01686910       0.14450894       0.03492158 </v>
   <v>       0.21483691      -0.01620199       0.15937322 </v>
   <v>      -0.29693445      -0.16671534      -0.13278340 </v>
  </varray>
  <varray name="stress" >
   <v>      -1.47530350      -0.07191541       0.23588600 </v>
   <v>      -0.07191541      -1.50579949       0.28296064 </v>
   <v>       0.23588600       0.28296064      -1.56593265 </v>
  </varray>
  <energy>
   <i name="e_fr_energy">    -75.85263943 </i>
   <i name="e_wo_entrp">    -75.85263943 </i>
   <i name="e_0_energy">      0.00000000 </i>
  </energy>
  <time name="totalsc">   25.79   26.29</time>
 </calculation>
 <calculation>
  <scstep>
   <time name="dav">    3.42    3.42</time>
   <time name="total">    3.76    3.77</time>
   <energy>
    <i name="alphaZ">     88.30446371 </i>
    <i name="ewald">  91275.70439260 </i>
    <i name="hartreedc">-127059.86119043 </i>
    <i name="XCdc">   -409.03863551 </i>
    <i name="pawpsdc">  38914.28186356 </i>
    <i name="pawaedc"> -37319.78092079 </i>
    <i name="eentropy">      0.00000000 </i>
    <i name="bandstr">  -2904.53484452 </i>
    <i name="atom">  37339.15068311 </i>
    <i name="e_fr_energy">    -75.77418826 </i>
    <i name="e_wo_entrp">    -75.77418826 </i>
    <i name="e_0_energy">    -75.77418826 </i>
   </energy>
  </scstep>
  <scstep>
   <time name="dav">    3.54    3.54</time>
   <time name="total">    3.88    3.88</time>
   <energy>
    <i name="e_fr_energy">    -75.94789699 </i>
    <i name="e_wo_entrp">    -75.94789699 </i>
    <i name="e_0_energy">    -75.94789699 </i>
   </energy>
  </scstep>
  <scstep>
   <time name="dav">    3.60    3.60</time>
   <time name="total">    3.93    3.95</time>
   <energy>
    <i name="e_fr_energy">    -75.94685896 </i>
    <i name="e_wo_entrp">    -75.94685896 </i>
    <i name="e_0_energy">    -75.94685896 </i>
   </energy>
  </scstep>
  <scstep>
   <time name="dav">    3.58    3.59</time>
   <time name="total">    3.92    4.04</time>
   <energy>
    <i name="e_fr_energy">    -75.94210143 </i>
    <i name="e_wo_entrp">    -75.94210143 </i>
    <i name="e_0_energy">    -75.94210143 </i>
   </energy>
  </scstep>
  <scstep>
   <time name="dav">    3.64    3.64</time>
   <time name="total">    3.97    3.99</time>
   <energy>
    <i name="e_fr_energy">    -75.94190876 </i>
    <i name="e_wo_entrp">    -75.94190876 </i>
    <i name="e_0_energy">    -75.94190876 </i>
   </energy>
  </scstep>
  <scstep>
   <time name="dav">    2.70    2.70</time>
   <time name="total">    2.92    3.46</time>
   <energy>
    <i name="alphaZ">     88.30446371 </i>
    <i name="ewald">  91275.70439260 </i>
    <i name="hartreedc">-127064.23598074 </i>
    <i name="XCdc">   -408.91879419 </i>
    <i name="pawpsdc">  38831.73361761 </i>
    <i name="pawaedc"> -37235.82831914 </i>
    <i name="eentropy">      0.00000000 </i>
    <i name="bandstr">  -2901.85187400 </i>
    <i name="atom">  37339.15068311 </i>
    <i name="e_fr_energy">    -75.94181104 </i>
    <i name="e_wo_entrp">    -75.94181104 </i>
    <i name="e_0_energy">    -75.94181104 </i>
   </energy>
  </scstep>
  <structure>
   <crystal>
    <varray name="basis" >
     <v>      23.19773102       0.00000000       0.00000000 </v>
     <v>       0.00000000      23.19773102       0.00000000 </v>
     <v>       0.00000000       0.00000000      23.19773102 </v>
    </varray>
    <i name="volume">  12483.50458343 </i>
    <varray name="rec_basis" >
     <v>       0.04310766       0.00000000       0.00000000 </v>
     <v>       0.00000000       0.04310766       0.00000000 </v>
     <v>       0.00000000       0.00000000       0.04310766 </v>
    </varray>
   </crystal>
   <varray name="positions" >
    <v>       0.51550208       0.41833177       0.66481133 </v>
    <v>       0.51474433       0.53465140       0.69620060 </v>
    <v>       0.59933294       0.36970733       0.58588074 </v>
    <v>       0.51068729       0.65155058       0.71806635 </v>
    <v>       0.59718599       0.48745395       0.61463430 </v>
    <v>       0.48424367       0.39481083       0.55363223 </v>
    <v>       0.45657700       0.50558436       0.59500359 </v>
    <v>       0.59914157       0.60522813       0.64405357 </v>
    <v>       0.68854937       0.44472769       0.53320598 </v>
    <v>       0.41906390       0.60321254       0.65463492 </v>
    <v>       0.60146199       0.25604753       0.55295452 </v>
    <v>       0.37294735       0.43771559       0.53353629 </v>
    <v>       0.34159783       0.54474473       0.58552902 </v>
    <v>       0.66286193       0.56084353       0.53882817 </v>
    <v>       0.57751136       0.45767736       0.49658492 </v>
    <v>       0.66159021       0.33813398       0.48769396 </v>
    <v>       0.50224859       0.67146499       0.60162150 </v>
    <v>       0.54594227       0.32634784       0.47538486 </v>
    <v>       0.62266392       0.67306287       0.55012763 </v>
    <v>       0.42096060       0.34196260       0.46837592 </v>
    <v>       0.54051885       0.57671267       0.53156360 </v>
    <v>       0.42034082       0.61734437       0.52309754 </v>
    <v>       0.46208800       0.50322326       0.47143151 </v>
    <v>       0.52632574       0.69112532       0.48711174 </v>
    <v>       0.32971832       0.53237721       0.46831635 </v>
    <v>       0.62038797       0.40278271       0.39967600 </v>
    <v>       0.61280972       0.61446744       0.43714670 </v>
    <v>       0.67560339       0.50922048       0.42567835 </v>
    <v>       0.49752839       0.40818540       0.40257042 </v>
    <v>       0.42219074       0.70631834       0.43433558 </v>
    <v>       0.49564697       0.60944110       0.40772546 </v>
    <v>       0.37412439       0.43283842       0.41027552 </v>
    <v>       0.56439627       0.51100523       0.38146694 </v>
    <v>       0.38034277       0.61015211       0.38877866 </v>
    <v>       0.44642427       0.51206897       0.34672490 </v>
    <v>       0.32363348       0.51824122       0.34655625 </v>
   </varray>
  </structure>
  <varray name="forces" >
   <v>      -0.03833208       0.07471800      -0.02956631 </v>
   <v>       0.01993961       0.03583558      -0.06670425 </v>
   <v>      -0.10015135       0.09794457       0.08676672 </v>
   <v>       0.09499091       0.03845947      -0.00528299 </v>
   <v>       0.01330684       0.07734992      -0.15707355 </v>
   <v>       0.00321776       0.10341942      -0.02693466 </v>
   <v>       0.04481668      -0.05457732      -0.07944033 </v>
   <v>      -0.13209160      -0.03029572      -0.01638295 </v>
   <v>       0.02834810      -0.07032531       0.07839717 </v>
   <v>       0.07457195      -0.03158738      -0.08051302 </v>
   <v>      -0.02475541      -0.04840988       0.05668136 </v>
   <v>       0.09810194       0.09225694      -0.07389954 </v>
   <v>       0.09280515       0.06570803      -0.07446990 </v>
   <v>      -0.08226160      -0.04907981       0.08241386 </v>
   <v>      -0.17017225       0.10495704      -0.03594046 </v>
   <v>       0.37960646      -0.25032392       0.10844667 </v>
   <v>       0.06629218       0.04980543       0.02251651 </v>
   <v>      -0.17715292       0.10970664      -0.05364518 </v>
   <v>      -0.02734151       0.07734461       0.05570483 </v>
   <v>       0.17192447       0.01189070      -0.03458066 </v>
   <v>       0.02651006      -0.14071988       0.01678075 </v>
   <v>       0.05349928      -0.02428653       0.01473433 </v>
[...]
       <r>    -0.0439     0.0000   229.0000 </r>
       <r>    -0.0041     0.0000   230.0000 </r>
       <r>     0.0356     0.0000   230.0000 </r>
       <r>     0.0753     0.0000   231.0000 </r>
       <r>     0.1151     0.0000   231.0000 </r>
       <r>     0.1548     0.0000   231.0000 </r>
       <r>     0.1945     0.0000   231.0000 </r>
       <r>     0.2343     0.0000   232.0000 </r>
       <r>     0.2740     0.0000   232.0000 </r>
       <r>     0.3137     0.0000   233.0000 </r>
       <r>     0.3535     0.0000   233.0000 </r>
       <r>     0.3932     0.0000   234.0000 </r>
       <r>     0.4329     0.0000   234.0000 </r>
       <r>     0.4727     0.0000   235.0000 </r>
       <r>     0.5124     0.0000   235.0000 </r>
       <r>     0.5521     0.0000   235.0000 </r>
       <r>     0.5919     0.0000   235.0000 </r>
       <r>     0.6316     0.0000   237.0000 </r>
       <r>     0.6713     0.0000   238.0000 </r>
       <r>     0.7111     0.0000   239.0000 </r>
       <r>     0.7508     0.0000   240.0000 </r>
       <r>     0.7905     0.0000   241.0000 </r>
       <r>     0.8303     0.0226   242.0009 </r>
       <r>     0.8700     0.0000   244.0000 </r>
       <r>     0.9097     0.0000   246.0000 </r>
       <r>     0.9495     0.0000   248.0000 </r>
       <r>     0.9892     0.0000   251.0000 </r>
       <r>     1.0289     0.0000   251.0000 </r>
       <r>     1.0687    18.6083   253.7394 </r>
       <r>     1.1084     0.0000   254.0000 </r>
       <r>     1.1482     0.0000   255.0000 </r>
       <r>     1.1879     0.0000   256.0000 </r>
       <r>     1.2276     0.0000   256.0000 </r>
       <r>     1.2674     0.0000   256.0000 </r>
       <r>     1.3071     0.0000   256.0000 </r>
       <r>     1.3468     0.0000   256.0000 </r>
       <r>     1.3866     0.0000   256.0000 </r>
       <r>     1.4263     0.0000   256.0000 </r>
       <r>     1.4660     0.0000   256.0000 </r>
       <r>     1.5058     0.0000   256.0000 </r>
       <r>     1.5455     0.0000   256.0000 </r>
       <r>     1.5852     0.0000   256.0000 </r>
       <r>     1.6250     0.0000   256.0000 </r>
       <r>     1.6647     0.0000   256.0000 </r>
       <r>     1.7044     0.0000   256.0000 </r>
      </set>
      <set comment="spin 2">
       <r>   -10.2159     0.0000     0.0000 </r>
       <r>   -10.1761     0.0000     0.0000 </r>
       <r>   -10.1364     0.0000     0.0000 </r>
       <r>   -10.0967     0.0000     0.0000 </r>
       <r>   -10.0569     0.0000     0.0000 </r>
       <r>   -10.0172     0.0000     0.0000 </r>
       <r>    -9.9775     0.0000     0.0000 </r>
       <r>    -9.9377     0.0000     0.0000 </r>
       <r>    -9.8980     0.0000     0.0000 </r>
       <r>    -9.8583     0.0000     0.0000 </r>
       <r>    -9.8185     0.0000     0.0000 </r>
       <r>    -9.7788     0.0000     0.0000 </r>
       <r>    -9.7391     0.0000     0.0000 </r>
       <r>    -9.6993     0.0000     0.0000 </r>
       <r>    -9.6596     0.0000     1.0000 </r>
       <r>    -9.6199     0.0000     1.0000 </r>
       <r>    -9.5801     0.0000     1.0000 </r>
       <r>    -9.5404     0.0000     1.0000 </r>
       <r>    -9.5007     0.0000     1.0000 </r>
       <r>    -9.4609     0.0000     1.0000 </r>
       <r>    -9.4212     0.0000     1.0000 </r>
       <r>    -9.3815     0.0000     1.0000 </r>
       <r>    -9.3417     0.0000     1.0000 </r>
       <r>    -9.3020     0.0000     1.0000 </r>
       <r>    -9.2623     0.0000     1.0000 </r>
       <r>    -9.2225     0.0000     1.0000 </r>
       <r>    -9.1828     0.0000     1.0000 </r>
       <r>    -9.1431     0.0000     2.0000 </r>
       <r>    -9.1033     0.0000     3.0000 </r>
       <r>    -9.0636     0.0000     4.0000 </r>
       <r>    -9.0238     0.0000     6.0000 </r>
       <r>    -8.9841     0.0000     8.0000 </r>
       <r>    -8.9444     0.0000    10.0000 </r>
       <r>    -8.9046     0.0000    13.0000 </r>
       <r>    -8.8649     0.0000    14.0000 </r>
       <r>    -8.8252     0.0000    16.0000 </r>
       <r>    -8.7854     0.0000    18.0000 </r>
       <r>    -8.7457     0.0381    19.0015 </r>
       <r>    -8.7060     0.0000    21.0000 </r>
       <r>    -8.6662     0.0000    24.0000 </r>
       <r>    -8.6265     0.0000    25.0000 </r>
       <r>    -8.5868     0.0000    27.0000 </r>
       <r>    -8.5470     0.0000    29.0000 </r>
       <r>    -8.5073     0.0000    31.0000 </r>
       <r>    -8.4676     0.0000    34.0000 </r>
       <r>    -8.4278     0.0000    36.0000 </r>
       <r>    -8.3881     0.0000    38.0000 </r>
       <r>    -8.3484     0.0000    39.0000 </r>
       <r>    -8.3086     0.0000    42.0000 </r>
       <r>    -8.2689     0.0000    44.0000 </r>
       <r>    -8.2292     0.0000    46.0000 </r>
       <r>    -8.1894    22.5238    48.8950 </r>
       <r>    -8.1497     0.0000    51.0000 </r>
       <r>    -8.1100     0.0000    53.0000 </r>
       <r>    -8.0702     0.0000    54.0000 </r>
       <r>    -8.0305     0.0000    56.0000 </r>
       <r>    -7.9908     0.0000    59.0000 </r>
       <r>    -7.9510     0.0000    62.0000 </r>
       <r>    -7.9113     0.0000    64.0000 </r>
       <r>    -7.8716     0.0000    66.0000 </r>
       <r>    -7.8318    24.5723    68.9764 </r>
       <r>    -7.7921     0.0000    71.0000 </r>
       <r>    -7.7523     0.0001    73.0000 </r>
       <r>    -7.7126     0.0000    75.0000 </r>
       <r>    -7.6729     0.0000    77.0000 </r>
       <r>    -7.6331     0.0000    80.0000 </r>
       <r>    -7.5934     0.0000    83.0000 </r>
       <r>    -7.5537     0.0000    84.0000 </r>
       <r>    -7.5139     0.0000    87.0000 </r>
       <r>    -7.4742     1.7013    89.0676 </r>
       <r>    -7.4345     0.0000    91.0000 </r>
       <r>    -7.3947     0.0000    94.0000 </r>
       <r>    -7.3550     0.0000    96.0000 </r>
       <r>    -7.3153     0.0000    97.0000 </r>
       <r>    -7.2755     0.0000   101.0000 </r>
       <r>    -7.2358     0.0000   103.0000 </r>
       <r>    -7.1961     0.0000   106.0000 </r>
       <r>    -7.1563     0.0000   108.0000 </r>
       <r>    -7.1166     0.0000   111.0000 </r>
       <r>    -7.0769     0.0000   115.0000 </r>
       <r>    -7.0371     0.0000   118.0000 </r>
       <r>    -6.9974     0.0000   121.0000 </r>
       <r>    -6.9577     0.0000   124.0000 </r>
       <r>    -6.9179     0.0000   129.0000 </r>
       <r>    -6.8782     0.0000   132.0000 </r>
       <r>    -6.8385     0.0000   135.0000 </r>
       <r>    -6.7987     0.0000   139.0000 </r>
       <r>    -6.7590     0.0000   142.0000 </r>
       <r>    -6.7193     0.0000   146.0000 </r>
       <r>    -6.6795     0.0000   149.0000 </r>
       <r>    -6.6398     0.0000   153.0000 </r>
       <r>    -6.6001     0.0000   156.0000 </r>
       <r>    -6.5603     0.0000   159.0000 </r>
       <r>    -6.5206     0.0000   163.0000 </r>
       <r>    -6.4808     0.0000   166.0000 </r>
       <r>    -6.4411     0.0000   170.0000 </r>
       <r>    -6.4014     0.0000   173.0000 </r>
       <r>    -6.3616     0.0000   176.0000 </r>
       <r>    -6.3219     0.0000   177.0000 </r>
       <r>    -6.2822    19.0335   179.7563 </r>
       <r>    -6.2424     0.0000   182.0000 </r>
       <r>    -6.2027    25.1671   184.0000 </r>
       <r>    -6.1630     0.0000   184.0000 </r>
       <r>    -6.1232     0.0000   184.0000 </r>
       <r>    -6.0835     0.0000   184.0000 </r>
       <r>    -6.0438     0.0000   184.0000 </r>
       <r>    -6.0040     0.0000   185.0000 </r>
       <r>    -5.9643     0.0000   185.0000 </r>
       <r>    -5.9246     0.0000   185.0000 </r>
       <r>    -5.8848     0.0000   185.0000 </r>
       <r>    -5.8451     0.0000   186.0000 </r>
       <r>    -5.8054     0.0000   187.0000 </r>
       <r>    -5.7656     0.0000   187.0000 </r>
       <r>    -5.7259     0.0000   188.0000 </r>
       <r>    -5.6862     0.0000   188.0000 </r>
       <r>    -5.6464     0.0000   188.0000 </r>
       <r>    -5.6067    21.4244   188.8513 </r>
       <r>    -5.5670     0.0000   189.0000 </r>
       <r>    -5.5272     0.0000   189.0000 </r>
       <r>    -5.4875     0.0000   189.0000 </r>
       <r>    -5.4478     0.0000   189.0000 </r>
       <r>    -5.4080     0.0000   189.0000 </r>
       <r>    -5.3683     0.0000   189.0000 </r>
       <r>    -5.3286     0.0000   189.0000 </r>
       <r>    -5.2888     0.0000   189.0000 </r>
       <r>    -5.2491     0.0000   189.0000 </r>
       <r>    -5.2093     0.0000   189.0000 </r>
       <r>    -5.1696     0.0000   189.0000 </r>
       <r>    -5.1299     0.0000   189.0000 </r>
       <r>    -5.0901     0.0000   189.0000 </r>
       <r>    -5.0504     0.0000   189.0000 </r>
       <r>    -5.0107     0.0000   189.0000 </r>
       <r>    -4.9709     0.0000   189.0000 </r>
       <r>    -4.9312     0.0000   189.0000 </r>
       <r>    -4.8915     0.0000   189.0000 </r>
       <r>    -4.8517     0.0000   190.0000 </r>
       <r>    -4.8120     0.0000   190.0000 </r>
       <r>    -4.7723     0.0000   190.0000 </r>
       <r>    -4.7325     0.0000   190.0000 </r>
       <r>    -4.6928     0.0000   190.0000 </r>
       <r>    -4.6531     0.0000   191.0000 </r>
       <r>    -4.6133     0.0000   191.0000 </r>
       <r>    -4.5736     0.0000   191.0000 </r>
       <r>    -4.5339     0.0000   191.0000 </r>
       <r>    -4.4941     0.0000   191.0000 </r>
       <r>    -4.4544     0.0000   192.0000 </r>
       <r>    -4.4147     0.0000   192.0000 </r>
       <r>    -4.3749     0.0000   192.0000 </r>
       <r>    -4.3352     0.0000   193.0000 </r>
       <r>    -4.2955     0.0000   193.0000 </r>
       <r>    -4.2557     0.0000   193.0000 </r>
       <r>    -4.2160     0.0000   194.0000 </r>
       <r>    -4.1763    25.1671   195.0000 </r>
       <r>    -4.1365     0.0000   195.0000 </r>
       <r>    -4.0968     0.0000   195.0000 </r>
       <r>    -4.0571     0.0000   195.0000 </r>
       <r>    -4.0173     0.0000   195.0000 </r>
       <r>    -3.9776     0.0000   196.0000 </r>
       <r>    -3.9378     0.0000   196.0000 </r>
       <r>    -3.8981     0.0000   196.0000 </r>
       <r>    -3.8584     0.0000   196.0000 </r>
       <r>    -3.8186     0.0000   196.0000 </r>
       <r>    -3.7789     0.0000   196.0000 </r>
       <r>    -3.7392     0.0000   197.0000 </r>
       <r>    -3.6994     0.0000   197.0000 </r>
       <r>    -3.6597     0.0000   197.0000 </r>
       <r>    -3.6200     0.0000   197.0000 </r>
       <r>    -3.5802     0.0000   198.0000 </r>
       <r>    -3.5405     0.0000   198.0000 </r>
       <r>    -3.5008     0.0000   198.0000 </r>
       <r>    -3.4610     0.0000   198.0000 </r>
       <r>    -3.4213     0.0000   198.0000 </r>
       <r>    -3.3816     0.0000   198.0000 </r>
       <r>    -3.3418     0.0000   198.0000 </r>
       <r>    -3.3021     0.0000   198.0000 </r>
       <r>    -3.2624     0.0000   199.0000 </r>
       <r>    -3.2226     0.0000   199.0000 </r>
       <r>    -3.1829     0.0000   200.0000 </r>
       <r>    -3.1432     0.0000   200.0000 </r>
       <r>    -3.1034     0.0000   200.0000 </r>
       <r>    -3.0637     0.0000   200.0000 </r>
       <r>    -3.0240     0.0000   200.0000 </r>
       <r>    -2.9842     0.0000   200.0000 </r>
       <r>    -2.9445     0.0000   200.0000 </r>
       <r>    -2.9048     0.0000   200.0000 </r>
       <r>    -2.8650     0.0000   200.0000 </r>
       <r>    -2.8253     0.0000   201.0000 </r>
       <r>    -2.7856     0.0000   201.0000 </r>
       <r>    -2.7458     0.0000   201.0000 </r>
       <r>    -2.7061     0.0000   201.0000 </r>
       <r>    -2.6663     0.0002   202.0000 </r>
       <r>    -2.6266     0.0000   203.0000 </r>
       <r>    -2.5869     0.0000   203.0000 </r>
       <r>    -2.5471     0.0000   203.0000 </r>
       <r>    -2.5074     0.0000   203.0000 </r>
       <r>    -2.4677     0.0000   205.0000 </r>
       <r>    -2.4279     0.0000   205.0000 </r>
       <r>    -2.3882     0.0000   206.0000 </r>
       <r>    -2.3485     0.0000   206.0000 </r>
       <r>    -2.3087     0.0000   207.0000 </r>
       <r>    -2.2690     0.0000   207.0000 </r>
       <r>    -2.2293     0.0000   207.0000 </r>
       <r>    -2.1895     0.0000   207.0000 </r>
       <r>    -2.1498     0.0000   208.0000 </r>
       <r>    -2.1101     0.0000   208.0000 </r>
       <r>    -2.0703     0.0000   209.0000 </r>
       <r>    -2.0306     0.0000   209.0000 </r>
       <r>    -1.9909     0.0000   210.0000 </r>
       <r>    -1.9511     0.0000   210.0000 </r>
       <r>    -1.9114     0.0000   210.0000 </r>
       <r>    -1.8717     0.0000   211.0000 </r>
       <r>    -1.8319     0.0000   211.0000 </r>
       <r>    -1.7922     0.0000   211.0000 </r>
       <r>    -1.7525     0.0000   211.0000 </r>
       <r>    -1.7127     0.0000   212.0000 </r>
       <r>    -1.6730     0.0000   212.0000 </r>
       <r>    -1.6333     0.0000   212.0000 </r>
       <r>    -1.5935     0.0000   212.0000 </r>
       <r>    -1.5538     0.0000   212.0000 </r>
       <r>    -1.5141     0.0000   212.0000 </r>
       <r>    -1.4743     0.0000   213.0000 </r>
       <r>    -1.4346     0.0000   213.0000 </r>
       <r>    -1.3948     0.0000   213.0000 </r>
       <r>    -1.3551     0.0000   213.0000 </r>
       <r>    -1.3154     0.0000   214.0000 </r>
       <r>    -1.2756     0.0000   214.0000 </r>
       <r>    -1.2359     0.0000   215.0000 </r>
       <r>    -1.1962     0.0000   215.0000 </r>
       <r>    -1.1564     0.0000   215.0000 </r>
       <r>    -1.1167     0.0000   216.0000 </r>
       <r>    -1.0770     0.0000   217.0000 </r>
       <r>    -1.0372     0.0000   217.0000 </r>
       <r>    -0.9975     0.0000   217.0000 </r>
       <r>    -0.9578     0.0000   217.0000 </r>
       <r>    -0.9180     0.0000   217.0000 </r>
       <r>    -0.8783     0.0000   217.0000 </r>
       <r>    -0.8386     0.0000   219.0000 </r>
       <r>    -0.7988     0.0000   219.0000 </r>
       <r>    -0.7591     0.0000   220.0000 </r>
       <r>    -0.7194     0.0000   220.0000 </r>
       <r>    -0.6796     0.0000   221.0000 </r>
       <r>    -0.6399     0.0000   222.0000 </r>
       <r>    -0.6002     0.0000   222.0000 </r>
       <r>    -0.5604     0.0000   222.0000 </r>
       <r>    -0.5207     0.0000   222.0000 </r>
       <r>    -0.4810     0.0000   223.0000 </r>
       <r>    -0.4412     0.0000   224.0000 </r>
       <r>    -0.4015     0.0000   225.0000 </r>
       <r>    -0.3618     0.0000   225.0000 </r>
       <r>    -0.3220     0.0000   226.0000 </r>
       <r>    -0.2823     0.0000   227.0000 </r>
       <r>    -0.2426     0.0000   227.0000 </r>
       <r>    -0.2028     0.0000   227.0000 </r>
       <r>    -0.1631     0.0000   228.0000 </r>
       <r>    -0.1233     0.0000   228.0000 </r>
       <r>    -0.0836     0.0000   229.0000 </r>
       <r>    -0.0439     0.0000   229.0000 </r>
       <r>    -0.0041     0.0000   230.0000 </r>
       <r>     0.0356     0.0000   230.0000 </r>
       <r>     0.0753     0.0000   231.0000 </r>
       <r>     0.1151     0.0000   231.0000 </r>
       <r>     0.1548     0.0000   231.0000 </r>
       <r>     0.1945     0.0000   231.0000 </r>
       <r>     0.2343     0.0000   232.0000 </r>
       <r>     0.2740     0.0000   232.0000 </r>
       <r>     0.3137     0.0000   233.0000 </r>
       <r>     0.3535     0.0000   233.0000 </r>
       <r>     0.3932     0.0000   234.0000 </r>
       <r>     0.4329     0.0000   234.0000 </r>
       <r>     0.4727     0.0000   235.0000 </r>
       <r>     0.5124     0.0000   235.0000 </r>
       <r>     0.5521     0.0000   235.0000 </r>
       <r>     0.5919     0.0000   235.0000 </r>
       <r>     0.6316     0.0000   237.0000 </r>
       <r>     0.6713     0.0000   238.0000 </r>
       <r>     0.7111     0.0000   239.0000 </r>
       <r>     0.7508     0.0000   240.0000 </r>
       <r>     0.7905     0.0000   241.0000 </r>
       <r>     0.8303     0.0219   242.0009 </r>
       <r>     0.8700     0.0000   244.0000 </r>
       <r>     0.9097     0.0000   246.0000 </r>
       <r>     0.9495     0.0000   248.0000 </r>
       <r>     0.9892     0.0000   251.0000 </r>
       <r>     1.0289     0.0000   251.0000 </r>
       <r>     1.0687    18.2105   253.7236 </r>
       <r>     1.1084     0.0000   254.0000 </r>
       <r>     1.1482     0.0000   255.0000 </r>
       <r>     1.1879     0.0000   256.0000 </r>
       <r>     1.2276     0.0000   256.0000 </r>
       <r>     1.2674     0.0000   256.0000 </r>
       <r>     1.3071     0.0000   256.0000 </r>
       <r>     1.3468     0.0000   256.0000 </r>
       <r>     1.3866     0.0000   256.0000 </r>
       <r>     1.4263     0.0000   256.0000 </r>
       <r>     1.4660     0.0000   256.0000 </r>
       <r>     1.5058     0.0000   256.0000 </r>
       <r>     1.5455     0.0000   256.0000 </r>
       <r>     1.5852     0.0000   256.0000 </r>
       <r>     1.6250     0.0000   256.0000 </r>
       <r>     1.6647     0.0000   256.0000 </r>
       <r>     1.7044     0.0000   256.0000 </r>
      </set>
     </set>
    </array>
   </total>
  </dos>
 </calculation>
 <structure name="finalpos" >
  <crystal>
   <varray name="basis" >
    <v>      23.19773102       0.00000000       0.00000000 </v>
    <v>       0.00000000      23.19773102       0.00000000 </v>
    <v>       0.00000000       0.00000000      23.19773102 </v>
   </varray>
   <i name="volume">  12483.50458343 </i>
   <varray name="rec_basis" >
    <v>       0.04310766       0.00000000       0.00000000 </v>
    <v>       0.00000000       0.04310766       0.00000000 </v>
    <v>       0.00000000       0.00000000       0.04310766 </v>
   </varray>
  </crystal>
  <varray name="positions" >
   <v>       0.51220772       0.41946893       0.66561012 </v>
   <v>       0.51343104       0.53634969       0.69630222 </v>
   <v>       0.59829918       0.37002838       0.58631068 </v>
   <v>       0.51282912       0.65419531       0.71668840 </v>
   <v>       0.59239314       0.48751052       0.61271368 </v>
   <v>       0.48556321       0.39777338       0.55303525 </v>
   <v>       0.45673681       0.50629592       0.59478206 </v>
   <v>       0.59794976       0.60488563       0.64444249 </v>
   <v>       0.68738614       0.44133951       0.53641802 </v>
   <v>       0.42191298       0.60725472       0.65109187 </v>
   <v>       0.59820641       0.25679725       0.55300454 </v>
   <v>       0.37506826       0.44078779       0.52989736 </v>
   <v>       0.34214671       0.54645753       0.58263019 </v>
   <v>       0.66330976       0.55960806       0.54446810 </v>
   <v>       0.57728314       0.45964754       0.49532586 </v>
   <v>       0.66791540       0.33310005       0.48959932 </v>
   <v>       0.50686006       0.67692425       0.60025333 </v>
   <v>       0.54978381       0.33288960       0.47360998 </v>
   <v>       0.62308798       0.67457608       0.55188541 </v>
   <v>       0.42696742       0.34445203       0.46566375 </v>
   <v>       0.54174866       0.57553061       0.53399609 </v>
   <v>       0.42436509       0.61236505       0.52583623 </v>
   <v>       0.46425523       0.50199162       0.47065288 </v>
   <v>       0.52791610       0.68953738       0.48396553 </v>
   <v>       0.32874118       0.53247111       0.46530213 </v>
   <v>       0.62264686       0.40274926       0.40048743 </v>
   <v>       0.61151161       0.61160022       0.44167636 </v>
   <v>       0.67476440       0.50765079       0.43280931 </v>
   <v>       0.49900753       0.41082806       0.39607210 </v>
   <v>       0.41566946       0.69782846       0.44506555 </v>
   <v>       0.49271623       0.60760413       0.40769906 </v>
   <v>       0.37436012       0.43315132       0.40812605 </v>
   <v>       0.56362249       0.51232256       0.38308445 </v>
   <v>       0.37640101       0.60704793       0.38168990 </v>
   <v>       0.44401974       0.51185993       0.34696076 </v>
   <v>       0.31581049       0.51388326       0.34605948 </v>
  </varray>
 </structure>
</modeling>
