 running on   32 total cores
 distrk:  each k-point on   32 cores,    1 groups
 distr:  one band on    8 cores,    4 groups
 using from now: INCAR     
 vasp.5.3.5 31Mar14 (build Feb 01 2018 12:10:03) gamma-only                     
  
 POSCAR found type information on POSCAR  Ag
 POSCAR found :  1 types and      24 ions
 scaLAPACK will be used

 ----------------------------------------------------------------------------- 
|                                                                             |
|  ADVICE TO THIS USER RUNNING 'VASP/VAMP'   (HEAR YOUR MASTER'S VOICE ...):  |
|                                                                             |
|      You have a (more or less) 'large supercell' and for larger cells       |
|      it might be more efficient to use real space projection opertators     |
|      So try LREAL= Auto  in the INCAR   file.                               |
|      Mind: At the moment your POTCAR file does not contain real space       |
|       projectors, and has to be modified,  BUT if you                       |
|      want to do an extremely  accurate calculation you might also keep the  |
|      reciprocal projection scheme          (i.e. LREAL=.FALSE.)             |
|                                                                             |
 ----------------------------------------------------------------------------- 

 LDA part: xc-table for Pade appr. of Perdew
 POSCAR, INCAR and KPOINTS ok, starting setup
 WARNING: small aliasing (wrap around) errors must be expected
 FFT: planning ...
 WAVECAR not read
 entering main loop
       N       E                     dE             d eps       ncg     rms          rms(c)
DAV:   1     0.228152375635E+04    0.22815E+04   -0.49627E+04   688   0.595E+02
DAV:   2     0.469489995496E+03   -0.18120E+04   -0.16242E+04  1176   0.150E+02
DAV:   3    -0.245336769092E+02   -0.49402E+03   -0.45169E+03   896   0.867E+01
DAV:   4    -0.481354184297E+02   -0.23602E+02   -0.23407E+02   744   0.207E+01
DAV:   5    -0.484719318153E+02   -0.33651E+00   -0.33612E+00   792   0.289E+00    0.279E+01
DAV:   6    -0.187354089594E+02    0.29737E+02   -0.91275E+01   708   0.158E+01    0.145E+01
DAV:   7    -0.140239058020E+02    0.47115E+01   -0.52986E+00   740   0.539E+00    0.857E+00
DAV:   8    -0.159362820289E+02   -0.19124E+01   -0.17927E+00   716   0.276E+00    0.441E+00
DAV:   9    -0.198851102383E+02   -0.39488E+01   -0.95874E-01   760   0.166E+00    0.331E+00
DAV:  10    -0.204473804039E+02   -0.56227E+00   -0.86395E-02   784   0.907E-01    0.302E+00
DAV:  11    -0.271572745258E+02   -0.67099E+01   -0.23854E+00   696   0.276E+00    0.318E+00
DAV:  12    -0.294035783913E+02   -0.22463E+01   -0.56177E-01   736   0.153E+00    0.248E+00
DAV:  13    -0.361712475072E+02   -0.67677E+01   -0.31240E+00   696   0.273E+00    0.146E+00
DAV:  14    -0.417656458655E+02   -0.55944E+01   -0.22960E+00   704   0.183E+00    0.949E-01
DAV:  15    -0.441972944058E+02   -0.24316E+01   -0.53514E-01   688   0.802E-01    0.164E+00
DAV:  16    -0.442124339731E+02   -0.15140E-01   -0.10568E-02   784   0.188E-01    0.159E+00
DAV:  17    -0.447264085445E+02   -0.51397E+00   -0.48595E-02   720   0.579E-01    0.139E+00
DAV:  18    -0.458475692471E+02   -0.11212E+01   -0.25769E-01   712   0.128E+00    0.792E-01
DAV:  19    -0.469440584315E+02   -0.10965E+01   -0.24373E-01   712   0.107E+00    0.375E-01
DAV:  20    -0.474447967204E+02   -0.50074E+00   -0.44798E-02   736   0.343E-01    0.332E-01
DAV:  21    -0.476317095451E+02   -0.18691E+00   -0.90628E-03   736   0.275E-01    0.160E-01
DAV:  22    -0.478501575338E+02   -0.21845E+00   -0.13130E-02   720   0.161E-01    0.787E-02
DAV:  23    -0.478810578107E+02   -0.30900E-01   -0.79054E-04   552   0.493E-02    0.644E-02
DAV:  24    -0.479158150112E+02   -0.34757E-01   -0.16085E-03   568   0.615E-02    0.435E-02
DAV:  25    -0.479180384284E+02   -0.22234E-02   -0.11248E-03   600   0.592E-02    0.279E-02
DAV:  26    -0.479207343257E+02   -0.26959E-02   -0.98495E-05   520   0.253E-02    0.181E-02
DAV:  27    -0.479249625693E+02   -0.42282E-02   -0.25808E-04   488   0.336E-02    0.137E-02
DAV:  28    -0.479260846693E+02   -0.11221E-02   -0.69753E-05   496   0.122E-02    0.143E-02
DAV:  29    -0.479263073413E+02   -0.22267E-03   -0.99603E-06   480   0.975E-03    0.764E-03
DAV:  30    -0.479264595287E+02   -0.15219E-03   -0.14061E-05   464   0.852E-03    0.475E-03
DAV:  31    -0.479264477187E+02    0.11810E-04   -0.40687E-06   456   0.414E-03
   1 F= -.47926448E+02 E0= -.47926448E+02  d E =-.479264E+02  mag=    -0.0020
 curvature:   0.00 expect dE= 0.000E+00 dE for cont linesearch  0.000E+00
 trial: gam= 0.00000 g(F)=  0.279E-01 g(S)=  0.000E+00 ort = 0.000E+00 (trialstep = 0.100E+01)
 search vector abs. value=  0.279E-01
 bond charge predicted
       N       E                     dE             d eps       ncg     rms          rms(c)
DAV:   1    -0.479527702914E+02   -0.26311E-01   -0.18744E+00   736   0.283E+00    0.894E-02
DAV:   2    -0.479536812465E+02   -0.91096E-03   -0.86385E-03   736   0.267E-01    0.688E-02
DAV:   3    -0.479536913658E+02   -0.10119E-04   -0.12713E-04   440   0.350E-02
   2 F= -.47953691E+02 E0= -.47953691E+02  d E =-.272436E-01  mag=    -0.0010
 ZBRENT: can't locate minimum, use default step
 trial-energy change:   -0.027244  1 .order   -0.026823   -0.027915   -0.025731
 step:   4.0000(harm= 12.7814)  dis= 0.01991  next Energy=   -48.104846 (dE=-0.178E+00)
 bond charge predicted
       N       E                     dE             d eps       ncg     rms          rms(c)
DAV:   1    -0.480180448358E+02   -0.64364E-01   -0.16910E+01   704   0.850E+00    0.262E-01
DAV:   2    -0.480256859634E+02   -0.76411E-02   -0.77576E-02   744   0.801E-01    0.204E-01
DAV:   3    -0.480255273128E+02    0.15865E-03   -0.12224E-03   752   0.102E-01    0.135E-01
DAV:   4    -0.480254018565E+02    0.12546E-03   -0.75660E-04   728   0.617E-02    0.283E-02
DAV:   5    -0.480254045691E+02   -0.27126E-05   -0.16545E-05   456   0.162E-02
   3 F= -.48025405E+02 E0= -.48025405E+02  d E =-.989569E-01  mag=    -0.0003
 curvature:  -2.84 expect dE=-0.500E-01 dE for cont linesearch -0.477E-01
 ZBRENT: increasing intervall
 opt :  10.0000  next Energy=   -48.130868 (dE=-0.204E+00)
 bond charge predicted
       N       E                     dE             d eps       ncg     rms          rms(c)
DAV:   1    -0.480989027015E+02   -0.73501E-01   -0.67602E+01   688   0.170E+01    0.473E-01
DAV:   2    -0.481295161583E+02   -0.30613E-01   -0.30861E-01   744   0.160E+00    0.391E-01
DAV:   3    -0.481289543216E+02    0.56184E-03   -0.46444E-03   736   0.196E-01    0.273E-01
DAV:   4    -0.481282896421E+02    0.66468E-03   -0.31107E-03   720   0.124E-01    0.708E-02
DAV:   5    -0.481283120572E+02   -0.22415E-04   -0.94988E-05   456   0.361E-02
   4 F= -.48128312E+02 E0= -.48128312E+02  d E =-.201864E+00  mag=    -0.0001
 curvature:  -6.28 expect dE=-0.665E-01 dE for cont linesearch -0.385E-01
 ZBRENT: increasing intervall
 opt :  22.0000  next Energy=   -48.182402 (dE=-0.256E+00)
 bond charge predicted
       N       E                     dE             d eps       ncg     rms          rms(c)
DAV:   1    -0.480723211555E+02    0.55968E-01   -0.27215E+02   688   0.343E+01    0.845E-01
DAV:   2    -0.481962744322E+02   -0.12395E+00   -0.12410E+00   736   0.324E+00    0.737E-01
DAV:   3    -0.481950516353E+02    0.12228E-02   -0.19273E-02   752   0.390E-01    0.544E-01
DAV:   4    -0.481920201703E+02    0.30315E-02   -0.10303E-02   736   0.227E-01    0.195E-01
DAV:   5    -0.481922002147E+02   -0.18004E-03   -0.10387E-03   760   0.867E-02    0.716E-02
DAV:   6    -0.481921142178E+02    0.85997E-04   -0.24430E-04   464   0.363E-02
   5 F= -.48192114E+02 E0= -.48192114E+02  d E =-.265666E+00  mag=    -0.0000
 curvature:  -8.82 expect dE=-0.162E+00 dE for cont linesearch -0.979E-03
 trial: gam= 0.71883 g(F)=  0.183E-01 g(S)=  0.000E+00 ort =-0.176E-02 (trialstep = 0.481E+01)
 search vector abs. value=  0.302E-01
 bond charge predicted
       N       E                     dE             d eps       ncg     rms          rms(c)
DAV:   1    -0.482447416232E+02   -0.52541E-01   -0.46758E+01   688   0.141E+01    0.295E-01
DAV:   2    -0.482662116722E+02   -0.21470E-01   -0.21475E-01   752   0.135E+00    0.281E-01
DAV:   3    -0.482659731701E+02    0.23850E-03   -0.31386E-03   752   0.162E-01    0.209E-01
DAV:   4    -0.482653340336E+02    0.63914E-03   -0.14837E-03   744   0.827E-02    0.959E-02
DAV:   5    -0.482653601722E+02   -0.26139E-04   -0.50062E-04   704   0.525E-02
   6 F= -.48265360E+02 E0= -.48265360E+02  d E =-.732460E-01  mag=    -0.0000
 ZBRENT: can't locate minimum, use default step
 trial-energy change:   -0.073246  1 .order   -0.073547   -0.081910   -0.065185
 step:  19.2257(harm= 23.5384)  dis= 0.08973  next Energy=   -48.392682 (dE=-0.201E+00)
 bond charge predicted
       N       E                     dE             d eps       ncg     rms          rms(c)
DAV:   1    -0.481930283603E+02    0.72306E-01   -0.42541E+02   688   0.430E+01    0.817E-01
DAV:   2    -0.483899400338E+02   -0.19691E+00   -0.19618E+00   768   0.412E+00    0.861E-01
DAV:   3    -0.483889383523E+02    0.10017E-02   -0.28702E-02   768   0.484E-01    0.649E-01
DAV:   4    -0.483834499748E+02    0.54884E-02   -0.83111E-03   720   0.201E-01    0.396E-01
DAV:   5    -0.483827525458E+02    0.69743E-03   -0.72814E-03   720   0.189E-01    0.137E-01
DAV:   6    -0.483827943895E+02   -0.41844E-04   -0.17170E-04   480   0.327E-02
   7 F= -.48382794E+02 E0= -.48382794E+02  d E =-.190680E+00  mag=    -0.0000
 curvature: -19.75 expect dE=-0.168E+00 dE for cont linesearch -0.795E-02
 ZBRENT: extrapolating
 opt :  24.2135  next Energy=   -48.391487 (dE=-0.199E+00)
 bond charge predicted
       N       E                     dE             d eps       ncg     rms          rms(c)
DAV:   1    -0.483679229347E+02    0.14830E-01   -0.50336E+01   688   0.147E+01    0.271E-01
DAV:   2    -0.483912736232E+02   -0.23351E-01   -0.23229E-01   752   0.140E+00    0.261E-01
DAV:   3    -0.483911039382E+02    0.16968E-03   -0.33708E-03   744   0.166E-01    0.195E-01
DAV:   4    -0.483905082672E+02    0.59567E-03   -0.11473E-03   720   0.738E-02    0.104E-01
DAV:   5    -0.483905251651E+02   -0.16898E-04   -0.76625E-04   704   0.624E-02
   8 F= -.48390525E+02 E0= -.48390525E+02  d E =-.198411E+00  mag=    -0.0000
 curvature: -21.61 expect dE=-0.232E+00 dE for cont linesearch -0.221E-04
 trial: gam= 0.47970 g(F)=  0.107E-01 g(S)=  0.000E+00 ort = 0.176E-03 (trialstep = 0.869E+01)
 search vector abs. value=  0.178E-01
 bond charge predicted
       N       E                     dE             d eps       ncg     rms          rms(c)
DAV:   1    -0.484308048294E+02   -0.40297E-01   -0.90348E+01   688   0.196E+01    0.419E-01
DAV:   2    -0.484744299812E+02   -0.43625E-01   -0.42571E-01   736   0.189E+00    0.286E-01
DAV:   3    -0.484739298403E+02    0.50014E-03   -0.67110E-03   760   0.242E-01    0.206E-01
DAV:   4    -0.484730406578E+02    0.88918E-03   -0.20774E-03   720   0.103E-01    0.836E-02
DAV:   5    -0.484730719735E+02   -0.31316E-04   -0.65409E-04   688   0.592E-02
   9 F= -.48473072E+02 E0= -.48473072E+02  d E =-.825468E-01  mag=    -0.0000
 ZBRENT: can't locate minimum, use default step
 trial-energy change:   -0.082547  1 .order   -0.083339   -0.093858   -0.072820
 step:  34.7514(harm= 38.7608)  dis= 0.16110  next Energy=   -48.599898 (dE=-0.209E+00)
 bond charge predicted
       N       E                     dE             d eps       ncg     rms          rms(c)
DAV:   1    -0.481530220467E+02    0.32002E+00   -0.83512E+02   688   0.607E+01    0.189E+00
DAV:   2    -0.485734553935E+02   -0.42043E+00   -0.41857E+00   720   0.599E+00    0.864E-01
DAV:   3    -0.485670075307E+02    0.64479E-02   -0.68909E-02   744   0.811E-01    0.592E-01
DAV:   4    -0.485603003289E+02    0.67072E-02   -0.15499E-02   752   0.283E-01    0.254E-01
DAV:   5    -0.485601208231E+02    0.17951E-03   -0.34207E-03   704   0.136E-01    0.679E-02
DAV:   6    -0.485603247251E+02   -0.20390E-03   -0.24529E-04   496   0.469E-02    0.313E-02
DAV:   7    -0.485605292429E+02   -0.20452E-03   -0.48575E-05   464   0.191E-02    0.895E-03
DAV:   8    -0.485606932704E+02   -0.16403E-03   -0.17645E-05   464   0.899E-03    0.440E-03
DAV:   9    -0.485609143147E+02   -0.22104E-03   -0.33438E-05   464   0.716E-03    0.364E-03
DAV:  10    -0.485610506607E+02   -0.13635E-03   -0.15670E-05   496   0.380E-03    0.185E-03
DAV:  11    -0.485611466108E+02   -0.95950E-04   -0.14513E-05   448   0.313E-03
  10 F= -.48561147E+02 E0= -.48561147E+02  d E =-.170621E+00  mag=     0.0000
 curvature: -31.43 expect dE=-0.226E+00 dE for cont linesearch -0.916E-02
 ZBRENT: interpolating
 opt :  29.1781  next Energy=   -48.567500 (dE=-0.177E+00)
 bond charge predicted
       N       E                     dE             d eps       ncg     rms          rms(c)
DAV:   1    -0.485502460378E+02    0.10805E-01   -0.37120E+01   688   0.126E+01    0.259E-01
DAV:   2    -0.485671646167E+02   -0.16919E-01   -0.16798E-01   752   0.119E+00    0.225E-01
DAV:   3    -0.485669435895E+02    0.22103E-03   -0.25846E-03   768   0.148E-01    0.169E-01
DAV:   4    -0.485664503464E+02    0.49324E-03   -0.12093E-03   728   0.768E-02    0.681E-02
DAV:   5    -0.485664611068E+02   -0.10760E-04   -0.29103E-04   544   0.420E-02
  11 F= -.48566461E+02 E0= -.48566461E+02  d E =-.175936E+00  mag=     0.0000
 curvature: -21.80 expect dE=-0.104E+00 dE for cont linesearch -0.388E-04
 trial: gam= 0.33508 g(F)=  0.475E-02 g(S)=  0.000E+00 ort = 0.178E-03 (trialstep = 0.128E+02)
 search vector abs. value=  0.688E-02
 bond charge predicted
       N       E                     dE             d eps       ncg     rms          rms(c)
DAV:   1    -0.485779453723E+02   -0.11495E-01   -0.75727E+01   688   0.180E+01    0.434E-01
DAV:   2    -0.486130312520E+02   -0.35086E-01   -0.36016E-01   712   0.174E+00    0.350E-01
DAV:   3    -0.486124705572E+02    0.56069E-03   -0.61071E-03   768   0.232E-01    0.238E-01
DAV:   4    -0.486115335709E+02    0.93699E-03   -0.26223E-03   736   0.113E-01    0.957E-02
DAV:   5    -0.486115751394E+02   -0.41569E-04   -0.44670E-04   768   0.526E-02
  12 F= -.48611575E+02 E0= -.48611575E+02  d E =-.451140E-01  mag=     0.0000
 trial-energy change:   -0.045114  1 .order   -0.044828   -0.061534   -0.028123
 step:  23.5481(harm= 23.5481)  dis= 0.07949  next Energy=   -48.623125 (dE=-0.567E-01)
 bond charge predicted
       N       E                     dE             d eps       ncg     rms          rms(c)
DAV:   1    -0.485978993403E+02    0.13634E-01   -0.53529E+01   688   0.151E+01    0.380E-01
DAV:   2    -0.486226812544E+02   -0.24782E-01   -0.25456E-01   720   0.146E+00    0.303E-01
DAV:   3    -0.486222771414E+02    0.40411E-03   -0.43118E-03   736   0.195E-01    0.203E-01
DAV:   4    -0.486216581811E+02    0.61896E-03   -0.18730E-03   720   0.958E-02    0.779E-02
DAV:   5    -0.486216942597E+02   -0.36079E-04   -0.23250E-04   496   0.417E-02
  13 F= -.48621694E+02 E0= -.48621694E+02  d E =-.552332E-01  mag=     0.0000
 curvature: -16.82 expect dE=-0.431E-01 dE for cont linesearch -0.889E-04
 trial: gam= 0.58356 g(F)=  0.256E-02 g(S)=  0.000E+00 ort =-0.191E-03 (trialstep = 0.149E+02)
 search vector abs. value=  0.468E-02
 bond charge predicted
       N       E                     dE             d eps       ncg     rms          rms(c)
DAV:   1    -0.486130398661E+02    0.86183E-02   -0.70226E+01   688   0.173E+01    0.350E-01
DAV:   2    -0.486457615587E+02   -0.32722E-01   -0.33095E-01   752   0.168E+00    0.359E-01
DAV:   3    -0.486454634196E+02    0.29814E-03   -0.54601E-03   768   0.214E-01    0.262E-01
DAV:   4    -0.486443119116E+02    0.11515E-02   -0.19810E-03   736   0.100E-01    0.154E-01
DAV:   5    -0.486442526238E+02    0.59288E-04   -0.13129E-03   720   0.837E-02    0.573E-02
DAV:   6    -0.486442498839E+02    0.27399E-05   -0.61902E-05   448   0.173E-02
  14 F= -.48644250E+02 E0= -.48644250E+02  d E =-.225556E-01  mag=     0.0000
 trial-energy change:   -0.022556  1 .order   -0.023389   -0.036637   -0.010141
 step:  22.9963(harm= 20.6558)  dis= 0.06154  next Energy=   -48.646854 (dE=-0.252E-01)
 bond charge predicted
       N       E                     dE             d eps       ncg     rms          rms(c)
DAV:   1    -0.486367805102E+02    0.74721E-02   -0.20384E+01   688   0.931E+00    0.186E-01
DAV:   2    -0.486463505104E+02   -0.95700E-02   -0.95737E-02   752   0.903E-01    0.194E-01
DAV:   3    -0.486462634935E+02    0.87017E-04   -0.15734E-03   768   0.115E-01    0.143E-01
DAV:   4    -0.486459214846E+02    0.34201E-03   -0.60503E-04   720   0.550E-02    0.840E-02
DAV:   5    -0.486459174166E+02    0.40681E-05   -0.40672E-04   736   0.465E-02
  15 F= -.48645917E+02 E0= -.48645917E+02  d E =-.242232E-01  mag=     0.0000
 curvature: -16.41 expect dE=-0.340E-01 dE for cont linesearch -0.154E-03
 trial: gam= 0.79214 g(F)=  0.207E-02 g(S)=  0.000E+00 ort =-0.210E-03 (trialstep = 0.165E+02)
 search vector abs. value=  0.468E-02
 bond charge predicted
       N       E                     dE             d eps       ncg     rms          rms(c)
DAV:   1    -0.486285239296E+02    0.17398E-01   -0.85764E+01   688   0.192E+01    0.331E-01
DAV:   2    -0.486672259387E+02   -0.38702E-01   -0.38481E-01   752   0.181E+00    0.320E-01
DAV:   3    -0.486667119692E+02    0.51397E-03   -0.59998E-03   768   0.226E-01    0.243E-01
DAV:   4    -0.486653995957E+02    0.13124E-02   -0.17961E-03   736   0.934E-02    0.138E-01
DAV:   5    -0.486651774909E+02    0.22210E-03   -0.18579E-03   720   0.955E-02    0.479E-02
DAV:   6    -0.486651911064E+02   -0.13616E-04   -0.37334E-05   432   0.147E-02
  16 F= -.48665191E+02 E0= -.48665191E+02  d E =-.192737E-01  mag=     0.0000
 trial-energy change:   -0.019274  1 .order   -0.020183   -0.031585   -0.008781
 step:  27.0042(harm= 22.9231)  dis= 0.04320  next Energy=   -48.667735 (dE=-0.218E-01)
 bond charge predicted
       N       E                     dE             d eps       ncg     rms          rms(c)
DAV:   1    -0.486509010382E+02    0.14276E-01   -0.34137E+01   688   0.121E+01    0.202E-01
DAV:   2    -0.486662786192E+02   -0.15378E-01   -0.15264E-01   736   0.114E+00    0.200E-01
DAV:   3    -0.486660767859E+02    0.20183E-03   -0.23680E-03   760   0.141E-01    0.153E-01
DAV:   4    -0.486655466613E+02    0.53012E-03   -0.71802E-04   720   0.590E-02    0.874E-02
DAV:   5    -0.486654641963E+02    0.82465E-04   -0.80994E-04   704   0.629E-02
  17 F= -.48665464E+02 E0= -.48665464E+02  d E =-.195468E-01  mag=     0.0000
 curvature: -16.58 expect dE=-0.240E-01 dE for cont linesearch -0.344E-03
 trial: gam= 0.68749 g(F)=  0.145E-02 g(S)=  0.000E+00 ort =-0.311E-03 (trialstep = 0.186E+02)
 search vector abs. value=  0.323E-02
 bond charge predicted
       N       E                     dE             d eps       ncg     rms          rms(c)
DAV:   1    -0.486454317098E+02    0.20115E-01   -0.75141E+01   688   0.179E+01    0.303E-01
DAV:   2    -0.486799694772E+02   -0.34538E-01   -0.34477E-01   752   0.171E+00    0.304E-01
DAV:   3    -0.486796183587E+02    0.35112E-03   -0.54380E-03   744   0.217E-01    0.228E-01
DAV:   4    -0.486785721190E+02    0.10462E-02   -0.13188E-03   720   0.803E-02    0.140E-01
DAV:   5    -0.486783603455E+02    0.21177E-03   -0.18476E-03   704   0.951E-02    0.479E-02
DAV:   6    -0.486783725807E+02   -0.12235E-04   -0.34545E-05   464   0.142E-02
  18 F= -.48678373E+02 E0= -.48678373E+02  d E =-.129084E-01  mag=     0.0000
 trial-energy change:   -0.012908  1 .order   -0.013988   -0.022991   -0.004984
 step:  32.4235(harm= 23.8004)  dis= 0.05022  next Energy=   -48.679779 (dE=-0.143E-01)
 bond charge predicted
       N       E                     dE             d eps       ncg     rms          rms(c)
DAV:   1    -0.486586296415E+02    0.19731E-01   -0.41022E+01   688   0.132E+01    0.220E-01
DAV:   2    -0.486773906002E+02   -0.18761E-01   -0.18757E-01   752   0.126E+00    0.223E-01
DAV:   3    -0.486771888898E+02    0.20171E-03   -0.29500E-03   744   0.159E-01    0.169E-01
DAV:   4    -0.486766009324E+02    0.58796E-03   -0.74462E-04   720   0.602E-02    0.103E-01
DAV:   5    -0.486764885813E+02    0.11235E-03   -0.10589E-03   720   0.718E-02    0.357E-02
DAV:   6    -0.486764983239E+02   -0.97426E-05   -0.20637E-05   432   0.109E-02
  19 F= -.48676498E+02 E0= -.48676498E+02  d E =-.110341E-01  mag=     0.0000
 curvature:  55.91 expect dE= 0.107E+00 dE for cont linesearch  0.361E-02
 ZBRENT: interpolating
 opt :  23.7315  next Energy=   -48.679053 (dE=-0.136E-01)
 bond charge predicted
       N       E                     dE             d eps       ncg     rms          rms(c)
DAV:   1    -0.486717590867E+02    0.47295E-02   -0.16322E+01   688   0.835E+00    0.142E-01
DAV:   2    -0.486792267992E+02   -0.74677E-02   -0.74435E-02   736   0.793E-01    0.136E-01
DAV:   3    -0.486791429481E+02    0.83851E-04   -0.11708E-03   768   0.998E-02    0.103E-01
DAV:   4    -0.486789216878E+02    0.22126E-03   -0.32165E-04   624   0.399E-02    0.581E-02
DAV:   5    -0.486789066814E+02    0.15006E-04   -0.40357E-04   704   0.454E-02
  20 F= -.48678907E+02 E0= -.48678907E+02  d E =-.134425E-01  mag=    -0.0000
 curvature: -10.55 expect dE=-0.118E-01 dE for cont linesearch -0.324E-04
 trial: gam= 0.57242 g(F)=  0.112E-02 g(S)=  0.000E+00 ort =-0.995E-04 (trialstep = 0.197E+02)
 search vector abs. value=  0.206E-02
 bond charge predicted
       N       E                     dE             d eps       ncg     rms          rms(c)
DAV:   1    -0.486692403486E+02    0.96813E-02   -0.53374E+01   688   0.151E+01    0.284E-01
DAV:   2    -0.486939199855E+02   -0.24680E-01   -0.24768E-01   720   0.145E+00    0.280E-01
DAV:   3    -0.486936600482E+02    0.25994E-03   -0.40048E-03   768   0.185E-01    0.205E-01
DAV:   4    -0.486928378404E+02    0.82221E-03   -0.13317E-03   720   0.821E-02    0.116E-01
DAV:   5    -0.486927706098E+02    0.67231E-04   -0.10297E-03   720   0.718E-02    0.422E-02
DAV:   6    -0.486927568654E+02    0.13744E-04   -0.39573E-05   424   0.140E-02
  21 F= -.48692757E+02 E0= -.48692757E+02  d E =-.138502E-01  mag=    -0.0000
 trial-energy change:   -0.013850  1 .order   -0.013708   -0.020806   -0.006610
 step:  28.8125(harm= 28.8125)  dis= 0.04159  next Energy=   -48.694154 (dE=-0.152E-01)
 bond charge predicted
       N       E                     dE             d eps       ncg     rms          rms(c)
DAV:   1    -0.486889168177E+02    0.38538E-02   -0.11544E+01   688   0.701E+00    0.131E-01
DAV:   2    -0.486942535871E+02   -0.53368E-02   -0.53563E-02   720   0.676E-01    0.131E-01
DAV:   3    -0.486942041057E+02    0.49481E-04   -0.86144E-04   736   0.854E-02
  22 F= -.48694204E+02 E0= -.48694204E+02  d E =-.152974E-01  mag=    -0.0000
 curvature: -28.04 expect dE=-0.204E-01 dE for cont linesearch -0.745E-05
 trial: gam= 0.72296 g(F)=  0.728E-03 g(S)=  0.000E+00 ort =-0.234E-04 (trialstep = 0.215E+02)
 search vector abs. value=  0.177E-02
 bond charge predicted
       N       E                     dE             d eps       ncg     rms          rms(c)
DAV:   1    -0.486788419616E+02    0.15412E-01   -0.54835E+01   688   0.153E+01    0.288E-01
DAV:   2    -0.487046447076E+02   -0.25803E-01   -0.25378E-01   752   0.146E+00    0.276E-01
DAV:   3    -0.487042748837E+02    0.36982E-03   -0.36670E-03   736   0.172E-01    0.207E-01
DAV:   4    -0.487033711112E+02    0.90377E-03   -0.17311E-03   720   0.918E-02    0.103E-01
DAV:   5    -0.487033482697E+02    0.22841E-04   -0.91021E-04   720   0.682E-02
  23 F= -.48703348E+02 E0= -.48703348E+02  d E =-.914416E-02  mag=     0.0000
 trial-energy change:   -0.009144  1 .order   -0.010003   -0.015272   -0.004735
 step:  31.1458(harm= 31.1458)  dis= 0.03979  next Energy=   -48.705271 (dE=-0.111E-01)
 bond charge predicted
       N       E                     dE             d eps       ncg     rms          rms(c)
DAV:   1    -0.486987368223E+02    0.46343E-02   -0.11027E+01   688   0.685E+00    0.130E-01
DAV:   2    -0.487039491730E+02   -0.52124E-02   -0.51668E-02   720   0.658E-01    0.117E-01
DAV:   3    -0.487039088432E+02    0.40330E-04   -0.80470E-04   736   0.814E-02
  24 F= -.48703909E+02 E0= -.48703909E+02  d E =-.970474E-02  mag=     0.0000
 curvature: -38.80 expect dE=-0.187E-01 dE for cont linesearch -0.955E-04
 trial: gam= 0.68321 g(F)=  0.481E-03 g(S)=  0.000E+00 ort =-0.660E-04 (trialstep = 0.234E+02)
 search vector abs. value=  0.122E-02
 bond charge predicted
       N       E                     dE             d eps       ncg     rms          rms(c)
DAV:   1    -0.486915200000E+02    0.12429E-01   -0.44692E+01   688   0.138E+01    0.218E-01
DAV:   2    -0.487119418337E+02   -0.20422E-01   -0.20325E-01   736   0.131E+00    0.237E-01
DAV:   3    -0.487117044105E+02    0.23742E-03   -0.30838E-03   760   0.157E-01    0.190E-01
DAV:   4    -0.487109266991E+02    0.77771E-03   -0.90979E-04   720   0.662E-02    0.116E-01
DAV:   5    -0.487107502938E+02    0.17641E-03   -0.15592E-03   704   0.851E-02    0.429E-02
DAV:   6    -0.487107547109E+02   -0.44171E-05   -0.25813E-05   432   0.121E-02
  25 F= -.48710755E+02 E0= -.48710755E+02  d E =-.684587E-02  mag=     0.0000
 trial-energy change:   -0.006846  1 .order   -0.007511   -0.010207   -0.004815
 step:  44.3375(harm= 44.3375)  dis= 0.03643  next Energy=   -48.713570 (dE=-0.966E-02)
 bond charge predicted
       N       E                     dE             d eps       ncg     rms          rms(c)
DAV:   1    -0.486965409342E+02    0.14209E-01   -0.35586E+01   688   0.123E+01    0.189E-01
DAV:   2    -0.487129852443E+02   -0.16444E-01   -0.16324E-01   736   0.117E+00    0.200E-01
DAV:   3    -0.487128016489E+02    0.18360E-03   -0.24835E-03   768   0.143E-01    0.158E-01
DAV:   4    -0.487122653265E+02    0.53632E-03   -0.56106E-04   720   0.524E-02    0.101E-01
DAV:   5    -0.487121076371E+02    0.15769E-03   -0.11920E-03   688   0.740E-02    0.347E-02
DAV:   6    -0.487121127956E+02   -0.51586E-05   -0.17285E-05   448   0.101E-02
  26 F= -.48712113E+02 E0= -.48712113E+02  d E =-.820395E-02  mag=     0.0000
 curvature: -61.92 expect dE=-0.562E-01 dE for cont linesearch -0.457E-04
 trial: gam= 1.73561 g(F)=  0.908E-03 g(S)=  0.000E+00 ort =-0.300E-04 (trialstep = 0.752E+01)
 search vector abs. value=  0.447E-02
 bond charge predicted
       N       E                     dE             d eps       ncg     rms          rms(c)
DAV:   1    -0.487095814301E+02    0.25262E-02   -0.16857E+01   688   0.844E+00    0.126E-01
DAV:   2    -0.487173945717E+02   -0.78131E-02   -0.77562E-02   720   0.808E-01    0.139E-01
DAV:   3    -0.487173238226E+02    0.70749E-04   -0.11912E-03   752   0.982E-02    0.109E-01
DAV:   4    -0.487170725815E+02    0.25124E-03   -0.24086E-04   512   0.358E-02    0.732E-02
DAV:   5    -0.487169994159E+02    0.73166E-04   -0.68899E-04   704   0.580E-02
  27 F= -.48716999E+02 E0= -.48716999E+02  d E =-.488662E-02  mag=     0.0000
 trial-energy change:   -0.004887  1 .order   -0.005370   -0.006434   -0.004306
 step:  22.7292(harm= 22.7292)  dis= 0.04124  next Energy=   -48.721841 (dE=-0.973E-02)
 bond charge predicted
       N       E                     dE             d eps       ncg     rms          rms(c)
DAV:   1    -0.486886720864E+02    0.28400E-01   -0.69259E+01   688   0.171E+01    0.270E-01
DAV:   2    -0.487210252935E+02   -0.32353E-01   -0.32054E-01   752   0.164E+00    0.282E-01
DAV:   3    -0.487207168032E+02    0.30849E-03   -0.49333E-03   752   0.200E-01    0.216E-01
DAV:   4    -0.487197242697E+02    0.99253E-03   -0.11211E-03   720   0.747E-02    0.137E-01
DAV:   5    -0.487194603264E+02    0.26394E-03   -0.20089E-03   704   0.958E-02    0.476E-02
DAV:   6    -0.487194674616E+02   -0.71352E-05   -0.28008E-05   448   0.128E-02
  28 F= -.48719467E+02 E0= -.48719467E+02  d E =-.735467E-02  mag=    -0.0000
 curvature: -59.35 expect dE=-0.347E-01 dE for cont linesearch -0.994E-04
 trial: gam= 0.65747 g(F)=  0.585E-03 g(S)=  0.000E+00 ort =-0.865E-04 (trialstep = 0.106E+02)
 search vector abs. value=  0.240E-02
 bond charge predicted
       N       E                     dE             d eps       ncg     rms          rms(c)
DAV:   1    -0.487151495634E+02    0.43108E-02   -0.17896E+01   688   0.869E+00    0.144E-01
DAV:   2    -0.487235106100E+02   -0.83610E-02   -0.82934E-02   736   0.833E-01    0.143E-01
DAV:   3    -0.487234293442E+02    0.81266E-04   -0.12791E-03   752   0.102E-01    0.110E-01
DAV:   4    -0.487231754012E+02    0.25394E-03   -0.34272E-04   624   0.416E-02    0.643E-02
DAV:   5    -0.487231446497E+02    0.30751E-04   -0.48266E-04   704   0.483E-02
  29 F= -.48723145E+02 E0= -.48723145E+02  d E =-.367719E-02  mag=    -0.0000
 trial-energy change:   -0.003677  1 .order   -0.004169   -0.005572   -0.002765
 step:  20.9583(harm= 20.9583)  dis= 0.02651  next Energy=   -48.724998 (dE=-0.553E-02)
 bond charge predicted
       N       E                     dE             d eps       ncg     rms          rms(c)
DAV:   1    -0.487160737889E+02    0.71016E-02   -0.17366E+01   688   0.856E+00    0.145E-01
DAV:   2    -0.487242756634E+02   -0.82019E-02   -0.80887E-02   720   0.822E-01    0.141E-01
DAV:   3    -0.487242037862E+02    0.71877E-04   -0.12473E-03   768   0.100E-01    0.106E-01
DAV:   4    -0.487239731239E+02    0.23066E-03   -0.33442E-04   608   0.412E-02    0.607E-02
DAV:   5    -0.487239527042E+02    0.20420E-04   -0.41635E-04   720   0.451E-02
  30 F= -.48723953E+02 E0= -.48723953E+02  d E =-.448524E-02  mag=    -0.0000
 curvature: -47.72 expect dE=-0.152E-01 dE for cont linesearch -0.793E-05
 trial: gam= 0.42739 g(F)=  0.318E-03 g(S)=  0.000E+00 ort =-0.200E-04 (trialstep = 0.126E+02)
 search vector abs. value=  0.740E-03
 bond charge predicted
       N       E                     dE             d eps       ncg     rms          rms(c)
DAV:   1    -0.487232275854E+02    0.74554E-03   -0.78896E+00   688   0.578E+00    0.991E-02
DAV:   2    -0.487268893111E+02   -0.36617E-02   -0.36245E-02   736   0.550E-01    0.924E-02
DAV:   3    -0.487268557230E+02    0.33588E-04   -0.55458E-04   728   0.666E-02
  31 F= -.48726856E+02 E0= -.48726856E+02  d E =-.290302E-02  mag=    -0.0000
 trial-energy change:   -0.002903  1 .order   -0.003003   -0.003915   -0.002090
 step:  27.1153(harm= 27.1153)  dis= 0.01995  next Energy=   -48.728152 (dE=-0.420E-02)
 bond charge predicted
       N       E                     dE             d eps       ncg     rms          rms(c)
DAV:   1    -0.487234428795E+02    0.34464E-02   -0.10377E+01   688   0.663E+00    0.129E-01
DAV:   2    -0.487280734460E+02   -0.46306E-02   -0.46333E-02   720   0.623E-01    0.124E-01
DAV:   3    -0.487279846709E+02    0.88775E-04   -0.69784E-04   736   0.731E-02
  32 F= -.48727985E+02 E0= -.48727985E+02  d E =-.403197E-02  mag=    -0.0000
 curvature: -32.40 expect dE=-0.689E-02 dE for cont linesearch -0.202E-04
 trial: gam= 0.59485 g(F)=  0.213E-03 g(S)=  0.000E+00 ort = 0.215E-04 (trialstep = 0.155E+02)
 search vector abs. value=  0.500E-03
 bond charge predicted
       N       E                     dE             d eps       ncg     rms          rms(c)
DAV:   1    -0.487267243385E+02    0.13491E-02   -0.80816E+00   688   0.586E+00    0.996E-02
DAV:   2    -0.487303814267E+02   -0.36571E-02   -0.36727E-02   736   0.558E-01    0.107E-01
DAV:   3    -0.487303419021E+02    0.39525E-04   -0.57305E-04   720   0.672E-02
  33 F= -.48730342E+02 E0= -.48730342E+02  d E =-.235723E-02  mag=    -0.0000
 trial-energy change:   -0.002357  1 .order   -0.002753   -0.003500   -0.002006
 step:  36.3977(harm= 36.3977)  dis= 0.01777  next Energy=   -48.732085 (dE=-0.410E-02)
 bond charge predicted
       N       E                     dE             d eps       ncg     rms          rms(c)
DAV:   1    -0.487249187623E+02    0.54627E-02   -0.14574E+01   688   0.787E+00    0.144E-01
DAV:   2    -0.487314589555E+02   -0.65402E-02   -0.65828E-02   720   0.748E-01    0.153E-01
DAV:   3    -0.487313671183E+02    0.91837E-04   -0.10188E-03   736   0.894E-02    0.123E-01
DAV:   4    -0.487310655404E+02    0.30158E-03   -0.51529E-04   720   0.504E-02    0.678E-02
DAV:   5    -0.487310579195E+02    0.76210E-05   -0.43774E-04   704   0.463E-02
  34 F= -.48731058E+02 E0= -.48731058E+02  d E =-.307325E-02  mag=    -0.0000
 curvature: -40.39 expect dE=-0.828E-02 dE for cont linesearch -0.867E-06
 trial: gam= 1.03791 g(F)=  0.205E-03 g(S)=  0.000E+00 ort =-0.328E-05 (trialstep = 0.134E+02)
 search vector abs. value=  0.737E-03
 bond charge predicted
       N       E                     dE             d eps       ncg     rms          rms(c)
DAV:   1    -0.487287993583E+02    0.22662E-02   -0.88030E+00   688   0.611E+00    0.105E-01
DAV:   2    -0.487329231699E+02   -0.41238E-02   -0.40919E-02   712   0.584E-01    0.100E-01
DAV:   3    -0.487328840566E+02    0.39113E-04   -0.62831E-04   712   0.708E-02
  35 F= -.48732884E+02 E0= -.48732884E+02  d E =-.182614E-02  mag=    -0.0000
 trial-energy change:   -0.001826  1 .order   -0.001925   -0.002696   -0.001154
 step:  23.3750(harm= 23.3750)  dis= 0.01782  next Energy=   -48.733415 (dE=-0.236E-02)
 bond charge predicted
       N       E                     dE             d eps       ncg     rms          rms(c)
DAV:   1    -0.487310399029E+02    0.18833E-02   -0.49418E+00   688   0.458E+00    0.981E-02
DAV:   2    -0.487332016258E+02   -0.21617E-02   -0.21990E-02   720   0.430E-01    0.951E-02
DAV:   3    -0.487331433676E+02    0.58258E-04   -0.31009E-04   536   0.496E-02
  36 F= -.48733143E+02 E0= -.48733143E+02  d E =-.208545E-02  mag=    -0.0000
 curvature: -42.71 expect dE=-0.585E-02 dE for cont linesearch -0.236E-03
 trial: gam= 0.00000 g(F)=  0.137E-03 g(S)=  0.000E+00 ort =-0.638E-04 (trialstep = 0.154E+02)
 search vector abs. value=  0.137E-03
 bond charge predicted
       N       E                     dE             d eps       ncg     rms          rms(c)
DAV:   1    -0.487332054672E+02   -0.38413E-05   -0.21730E+00   688   0.305E+00    0.775E-02
DAV:   2    -0.487342046394E+02   -0.99917E-03   -0.10043E-02   720   0.289E-01    0.611E-02
DAV:   3    -0.487341944370E+02    0.10202E-04   -0.15624E-04   432   0.368E-02
  37 F= -.48734194E+02 E0= -.48734194E+02  d E =-.105107E-02  mag=    -0.0000
 trial-energy change:   -0.001051  1 .order   -0.000873   -0.002107    0.000362
 step:  13.1207(harm= 13.1207)  dis= 0.00440  next Energy=   -48.734043 (dE=-0.899E-03)
 bond charge predicted
       N       E                     dE             d eps       ncg     rms          rms(c)
DAV:   1    -0.487341084229E+02    0.96216E-04   -0.45074E-02   712   0.436E-01    0.852E-03
DAV:   2    -0.487341315429E+02   -0.23120E-04   -0.19403E-04   448   0.440E-02
  38 F= -.48734132E+02 E0= -.48734132E+02  d E =-.988175E-03  mag=    -0.0000
 curvature:  -6.56 expect dE=-0.445E-03 dE for cont linesearch -0.120E-03
 trial: gam= 0.13028 g(F)=  0.679E-04 g(S)=  0.000E+00 ort = 0.500E-04 (trialstep = 0.149E+02)
 search vector abs. value=  0.832E-04
 reached required accuracy - stopping structural energy minimisation
Application 90935966 resources: utime ~22814s, stime ~166s, Rss ~71200, inblocks ~82087, outblocks ~153237
