  53  53   0   0
  0.2276241E+03  0.2293496E-08  0.2293496E-08  0.2293496E-08  0.1000000E-15
  1.000000000000000E-004
  CAR 
 unknown system                          
      2.28385100    -10.28737076  301     -3.11129834      1.00000000
    -10.287  0.0000E+00  0.0000E+00  0.0000E+00  0.0000E+00
    -10.245  0.0000E+00  0.0000E+00  0.0000E+00  0.0000E+00
    -10.204  0.0000E+00  0.0000E+00  0.0000E+00  0.0000E+00
    -10.162  0.0000E+00  0.0000E+00  0.0000E+00  0.0000E+00
    -10.120  0.0000E+00  0.0000E+00  0.0000E+00  0.0000E+00
    -10.078  0.0000E+00  0.0000E+00  0.0000E+00  0.0000E+00
    -10.036  0.0000E+00  0.0000E+00  0.0000E+00  0.0000E+00
     -9.994  0.0000E+00  0.0000E+00  0.0000E+00  0.0000E+00
     -9.952  0.0000E+00  0.0000E+00  0.0000E+00  0.0000E+00
     -9.910  0.0000E+00  0.0000E+00  0.0000E+00  0.0000E+00
     -9.868  0.0000E+00  0.0000E+00  0.0000E+00  0.0000E+00
     -9.826  0.0000E+00  0.0000E+00  0.0000E+00  0.0000E+00
     -9.785  0.0000E+00  0.0000E+00  0.0000E+00  0.0000E+00
     -9.743  0.0000E+00  0.0000E+00  0.0000E+00  0.0000E+00
     -9.701  0.0000E+00  0.0000E+00  0.1000E-02  0.1000E-02
     -9.659  0.0000E+00  0.0000E+00  0.1000E-02  0.1000E-02
     -9.617  0.0000E+00  0.0000E+00  0.1000E-02  0.1000E-02
     -9.575  0.0000E+00  0.0000E+00  0.1000E-02  0.1000E-02
     -9.533  0.0000E+00  0.0000E+00  0.1000E-02  0.1000E-02
     -9.491  0.0000E+00  0.0000E+00  0.1000E-02  0.1000E-02
     -9.449  0.0000E+00  0.0000E+00  0.1000E-02  0.1000E-02
     -9.407  0.0000E+00  0.0000E+00  0.1000E-02  0.1000E-02
     -9.365  0.0000E+00  0.0000E+00  0.1000E-02  0.1000E-02
     -9.324  0.0000E+00  0.0000E+00  0.1000E-02  0.1000E-02
     -9.282  0.0000E+00  0.0000E+00  0.1000E-02  0.1000E-02
     -9.240  0.0000E+00  0.0000E+00  0.2000E-02  0.2000E-02
     -9.198  0.0000E+00  0.0000E+00  0.2000E-02  0.2000E-02
     -9.156  0.0000E+00  0.0000E+00  0.2000E-02  0.2000E-02
     -9.114  0.0000E+00  0.0000E+00  0.2000E-02  0.2000E-02
     -9.072  0.0000E+00  0.0000E+00  0.3000E-02  0.3000E-02
     -9.030  0.0000E+00  0.0000E+00  0.4000E-02  0.4000E-02
     -8.988  0.0000E+00  0.0000E+00  0.5000E-02  0.4000E-02
     -8.946  0.0000E+00  0.0000E+00  0.6000E-02  0.6000E-02
     -8.905  0.0000E+00  0.0000E+00  0.8000E-02  0.8000E-02
     -8.863  0.0000E+00  0.0000E+00  0.1100E-01  0.1100E-01
     -8.821  0.0000E+00  0.0000E+00  0.1200E-01  0.1200E-01
     -8.779  0.0000E+00  0.0000E+00  0.1500E-01  0.1500E-01
     -8.737  0.0000E+00  0.0000E+00  0.1700E-01  0.1600E-01
     -8.695  0.0000E+00  0.0000E+00  0.1800E-01  0.1800E-01
     -8.653  0.0000E+00  0.0000E+00  0.2100E-01  0.2100E-01
     -8.611  0.0000E+00  0.0000E+00  0.2300E-01  0.2200E-01
     -8.569  0.0000E+00  0.0000E+00  0.2600E-01  0.2500E-01
     -8.527  0.0000E+00  0.0000E+00  0.2800E-01  0.2800E-01
     -8.485  0.1098E-03  0.0000E+00  0.3100E-01  0.3100E-01
     -8.444  0.0000E+00  0.0000E+00  0.3500E-01  0.3500E-01
     -8.402  0.2887E-02  0.0000E+00  0.3812E-01  0.3800E-01
     -8.360  0.0000E+00  0.0000E+00  0.4100E-01  0.4100E-01
     -8.318  0.0000E+00  0.0000E+00  0.4500E-01  0.4500E-01
     -8.276  0.0000E+00  0.0000E+00  0.4800E-01  0.4700E-01
     -8.234  0.0000E+00  0.0000E+00  0.5100E-01  0.5000E-01
     -8.192  0.9477E-02  0.0000E+00  0.5540E-01  0.5400E-01
     -8.150  0.0000E+00  0.0000E+00  0.5800E-01  0.5800E-01
     -8.108  0.0000E+00  0.0000E+00  0.6200E-01  0.6200E-01
     -8.066  0.0000E+00  0.0000E+00  0.6600E-01  0.6600E-01
     -8.025  0.0000E+00  0.0000E+00  0.6900E-01  0.6800E-01
     -7.983  0.0000E+00  0.0000E+00  0.7300E-01  0.7200E-01
     -7.941  0.0000E+00  0.0000E+00  0.7700E-01  0.7700E-01
     -7.899  0.0000E+00  0.2386E-01  0.8100E-01  0.8000E-01
     -7.857  0.0000E+00  0.2386E-01  0.8300E-01  0.8300E-01
     -7.815  0.0000E+00  0.0000E+00  0.8700E-01  0.8600E-01
     -7.773  0.0000E+00  0.0000E+00  0.8900E-01  0.8900E-01
     -7.731  0.0000E+00  0.0000E+00  0.9300E-01  0.9200E-01
     -7.689  0.0000E+00  0.0000E+00  0.9700E-01  0.9600E-01
     -7.647  0.0000E+00  0.0000E+00  0.9900E-01  0.9900E-01
     -7.606  0.0000E+00  0.0000E+00  0.1030E+00  0.1020E+00
     -7.564  0.0000E+00  0.0000E+00  0.1060E+00  0.1060E+00
     -7.522  0.0000E+00  0.0000E+00  0.1090E+00  0.1090E+00
     -7.480  0.0000E+00  0.0000E+00  0.1120E+00  0.1120E+00
     -7.438  0.0000E+00  0.0000E+00  0.1160E+00  0.1160E+00
     -7.396  0.0000E+00  0.0000E+00  0.1200E+00  0.1200E+00
     -7.354  0.0000E+00  0.0000E+00  0.1240E+00  0.1240E+00
     -7.312  0.0000E+00  0.0000E+00  0.1260E+00  0.1260E+00
     -7.270  0.0000E+00  0.0000E+00  0.1300E+00  0.1290E+00
     -7.228  0.2386E-01  0.0000E+00  0.1340E+00  0.1330E+00
     -7.186  0.0000E+00  0.0000E+00  0.1370E+00  0.1370E+00
     -7.145  0.7003E-12  0.0000E+00  0.1410E+00  0.1410E+00
     -7.103  0.0000E+00  0.0000E+00  0.1450E+00  0.1450E+00
     -7.061  0.0000E+00  0.0000E+00  0.1480E+00  0.1480E+00
     -7.019  0.0000E+00  0.0000E+00  0.1510E+00  0.1510E+00
     -6.977  0.0000E+00  0.0000E+00  0.1560E+00  0.1550E+00
     -6.935  0.0000E+00  0.0000E+00  0.1600E+00  0.1600E+00
     -6.893  0.0000E+00  0.0000E+00  0.1630E+00  0.1620E+00
     -6.851  0.5936E-11  0.0000E+00  0.1660E+00  0.1660E+00
     -6.809  0.0000E+00  0.0000E+00  0.1710E+00  0.1710E+00
     -6.767  0.0000E+00  0.2386E-01  0.1750E+00  0.1750E+00
     -6.726  0.0000E+00  0.0000E+00  0.1800E+00  0.1790E+00
     -6.684  0.0000E+00  0.1167E-01  0.1850E+00  0.1845E+00
     -6.642  0.0000E+00  0.0000E+00  0.1900E+00  0.1890E+00
     -6.600  0.0000E+00  0.0000E+00  0.1950E+00  0.1950E+00
     -6.558  0.3400E-04  0.0000E+00  0.2000E+00  0.2000E+00
     -6.516  0.0000E+00  0.0000E+00  0.2070E+00  0.2060E+00
     -6.474  0.2386E-01  0.0000E+00  0.2130E+00  0.2120E+00
     -6.432  0.0000E+00  0.2386E-01  0.2190E+00  0.2180E+00
     -6.390  0.0000E+00  0.0000E+00  0.2250E+00  0.2240E+00
     -6.348  0.0000E+00  0.0000E+00  0.2310E+00  0.2300E+00
     -6.306  0.0000E+00  0.0000E+00  0.2350E+00  0.2350E+00
     -6.265  0.0000E+00  0.2843E-02  0.2410E+00  0.2401E+00
     -6.223  0.0000E+00  0.0000E+00  0.2460E+00  0.2450E+00
     -6.181  0.0000E+00  0.0000E+00  0.2510E+00  0.2500E+00
     -6.139  0.0000E+00  0.0000E+00  0.2560E+00  0.2560E+00
     -6.097  0.0000E+00  0.0000E+00  0.2610E+00  0.2590E+00
     -6.055  0.0000E+00  0.0000E+00  0.2640E+00  0.2640E+00
     -6.013  0.1025E-06  0.0000E+00  0.2670E+00  0.2670E+00
     -5.971  0.0000E+00  0.0000E+00  0.2690E+00  0.2690E+00
     -5.929  0.0000E+00  0.0000E+00  0.2720E+00  0.2720E+00
     -5.887  0.0000E+00  0.0000E+00  0.2720E+00  0.2720E+00
     -5.846  0.0000E+00  0.0000E+00  0.2730E+00  0.2730E+00
     -5.804  0.0000E+00  0.0000E+00  0.2730E+00  0.2730E+00
     -5.762  0.0000E+00  0.0000E+00  0.2730E+00  0.2730E+00
     -5.720  0.0000E+00  0.0000E+00  0.2730E+00  0.2730E+00
     -5.678  0.0000E+00  0.0000E+00  0.2730E+00  0.2730E+00
     -5.636  0.0000E+00  0.0000E+00  0.2740E+00  0.2740E+00
     -5.594  0.0000E+00  0.0000E+00  0.2740E+00  0.2740E+00
     -5.552  0.0000E+00  0.0000E+00  0.2740E+00  0.2740E+00
     -5.510  0.0000E+00  0.0000E+00  0.2740E+00  0.2740E+00
     -5.468  0.0000E+00  0.0000E+00  0.2740E+00  0.2740E+00
     -5.426  0.0000E+00  0.0000E+00  0.2740E+00  0.2740E+00
     -5.385  0.0000E+00  0.0000E+00  0.2750E+00  0.2740E+00
     -5.343  0.0000E+00  0.0000E+00  0.2750E+00  0.2750E+00
     -5.301  0.0000E+00  0.0000E+00  0.2760E+00  0.2760E+00
     -5.259  0.0000E+00  0.0000E+00  0.2760E+00  0.2760E+00
     -5.217  0.0000E+00  0.0000E+00  0.2770E+00  0.2770E+00
     -5.175  0.0000E+00  0.0000E+00  0.2770E+00  0.2770E+00
     -5.133  0.0000E+00  0.0000E+00  0.2770E+00  0.2770E+00
     -5.091  0.0000E+00  0.0000E+00  0.2780E+00  0.2780E+00
     -5.049  0.0000E+00  0.0000E+00  0.2790E+00  0.2780E+00
     -5.007  0.0000E+00  0.0000E+00  0.2790E+00  0.2790E+00
     -4.966  0.0000E+00  0.0000E+00  0.2790E+00  0.2790E+00
     -4.924  0.0000E+00  0.0000E+00  0.2790E+00  0.2790E+00
     -4.882  0.0000E+00  0.0000E+00  0.2790E+00  0.2790E+00
     -4.840  0.0000E+00  0.0000E+00  0.2790E+00  0.2790E+00
     -4.798  0.0000E+00  0.0000E+00  0.2800E+00  0.2800E+00
     -4.756  0.0000E+00  0.0000E+00  0.2800E+00  0.2800E+00
     -4.714  0.0000E+00  0.0000E+00  0.2800E+00  0.2800E+00
     -4.672  0.0000E+00  0.0000E+00  0.2800E+00  0.2800E+00
     -4.630  0.0000E+00  0.0000E+00  0.2800E+00  0.2800E+00
     -4.588  0.0000E+00  0.0000E+00  0.2810E+00  0.2810E+00
     -4.547  0.0000E+00  0.0000E+00  0.2810E+00  0.2810E+00
     -4.505  0.0000E+00  0.0000E+00  0.2810E+00  0.2810E+00
     -4.463  0.0000E+00  0.0000E+00  0.2810E+00  0.2810E+00
     -4.421  0.0000E+00  0.0000E+00  0.2810E+00  0.2810E+00
     -4.379  0.2364E-01  0.0000E+00  0.2830E+00  0.2820E+00
     -4.337  0.0000E+00  0.0000E+00  0.2830E+00  0.2830E+00
     -4.295  0.0000E+00  0.0000E+00  0.2830E+00  0.2830E+00
     -4.253  0.0000E+00  0.0000E+00  0.2830E+00  0.2830E+00
     -4.211  0.0000E+00  0.0000E+00  0.2830E+00  0.2830E+00
     -4.169  0.0000E+00  0.0000E+00  0.2830E+00  0.2830E+00
     -4.127  0.0000E+00  0.0000E+00  0.2830E+00  0.2830E+00
     -4.086  0.0000E+00  0.0000E+00  0.2830E+00  0.2830E+00
     -4.044  0.0000E+00  0.0000E+00  0.2840E+00  0.2840E+00
     -4.002  0.0000E+00  0.0000E+00  0.2840E+00  0.2840E+00
     -3.960  0.0000E+00  0.0000E+00  0.2850E+00  0.2840E+00
     -3.918  0.0000E+00  0.0000E+00  0.2850E+00  0.2850E+00
     -3.876  0.0000E+00  0.0000E+00  0.2860E+00  0.2860E+00
     -3.834  0.0000E+00  0.0000E+00  0.2860E+00  0.2860E+00
     -3.792  0.0000E+00  0.0000E+00  0.2870E+00  0.2870E+00
     -3.750  0.0000E+00  0.0000E+00  0.2870E+00  0.2870E+00
     -3.708  0.0000E+00  0.0000E+00  0.2870E+00  0.2870E+00
     -3.667  0.0000E+00  0.0000E+00  0.2870E+00  0.2870E+00
     -3.625  0.0000E+00  0.0000E+00  0.2880E+00  0.2880E+00
     -3.583  0.0000E+00  0.0000E+00  0.2880E+00  0.2880E+00
     -3.541  0.0000E+00  0.0000E+00  0.2880E+00  0.2880E+00
     -3.499  0.0000E+00  0.0000E+00  0.2890E+00  0.2890E+00
     -3.457  0.0000E+00  0.0000E+00  0.2890E+00  0.2890E+00
     -3.415  0.0000E+00  0.0000E+00  0.2900E+00  0.2890E+00
     -3.373  0.0000E+00  0.0000E+00  0.2900E+00  0.2900E+00
     -3.331  0.0000E+00  0.0000E+00  0.2910E+00  0.2900E+00
     -3.289  0.0000E+00  0.0000E+00  0.2910E+00  0.2910E+00
     -3.247  0.0000E+00  0.0000E+00  0.2910E+00  0.2910E+00
     -3.206  0.0000E+00  0.0000E+00  0.2910E+00  0.2910E+00
     -3.164  0.0000E+00  0.0000E+00  0.2910E+00  0.2910E+00
     -3.122  0.0000E+00  0.0000E+00  0.2920E+00  0.2910E+00
     -3.080  0.0000E+00  0.0000E+00  0.2920E+00  0.2910E+00
     -3.038  0.0000E+00  0.0000E+00  0.2920E+00  0.2920E+00
     -2.996  0.0000E+00  0.0000E+00  0.2920E+00  0.2920E+00
     -2.954  0.0000E+00  0.0000E+00  0.2920E+00  0.2920E+00
     -2.912  0.0000E+00  0.0000E+00  0.2920E+00  0.2920E+00
     -2.870  0.0000E+00  0.0000E+00  0.2930E+00  0.2920E+00
     -2.828  0.2386E-01  0.0000E+00  0.2940E+00  0.2930E+00
     -2.787  0.0000E+00  0.0000E+00  0.2940E+00  0.2940E+00
     -2.745  0.0000E+00  0.0000E+00  0.2940E+00  0.2940E+00
     -2.703  0.0000E+00  0.0000E+00  0.2950E+00  0.2940E+00
     -2.661  0.0000E+00  0.0000E+00  0.2950E+00  0.2950E+00
     -2.619  0.0000E+00  0.0000E+00  0.2950E+00  0.2950E+00
     -2.577  0.0000E+00  0.0000E+00  0.2950E+00  0.2950E+00
     -2.535  0.0000E+00  0.0000E+00  0.2950E+00  0.2950E+00
     -2.493  0.0000E+00  0.0000E+00  0.2960E+00  0.2950E+00
     -2.451  0.0000E+00  0.0000E+00  0.2970E+00  0.2970E+00
     -2.409  0.0000E+00  0.1997E-01  0.2980E+00  0.2978E+00
     -2.368  0.0000E+00  0.0000E+00  0.2990E+00  0.2980E+00
     -2.326  0.0000E+00  0.0000E+00  0.3000E+00  0.2990E+00
     -2.284  0.0000E+00  0.0000E+00  0.3000E+00  0.3000E+00
     -2.242  0.0000E+00  0.0000E+00  0.3010E+00  0.3010E+00
     -2.200  0.0000E+00  0.0000E+00  0.3010E+00  0.3010E+00
     -2.158  0.0000E+00  0.0000E+00  0.3010E+00  0.3010E+00
     -2.116  0.0000E+00  0.0000E+00  0.3010E+00  0.3010E+00
     -2.074  0.0000E+00  0.0000E+00  0.3030E+00  0.3020E+00
     -2.032  0.0000E+00  0.0000E+00  0.3030E+00  0.3030E+00
     -1.990  0.0000E+00  0.0000E+00  0.3040E+00  0.3030E+00
     -1.948  0.0000E+00  0.0000E+00  0.3050E+00  0.3050E+00
     -1.907  0.0000E+00  0.0000E+00  0.3050E+00  0.3050E+00
     -1.865  0.0000E+00  0.0000E+00  0.3050E+00  0.3050E+00
     -1.823  0.0000E+00  0.0000E+00  0.3060E+00  0.3060E+00
     -1.781  0.0000E+00  0.0000E+00  0.3060E+00  0.3060E+00
     -1.739  0.0000E+00  0.0000E+00  0.3070E+00  0.3060E+00
     -1.697  0.0000E+00  0.0000E+00  0.3070E+00  0.3070E+00
     -1.655  0.0000E+00  0.0000E+00  0.3070E+00  0.3070E+00
     -1.613  0.0000E+00  0.0000E+00  0.3080E+00  0.3080E+00
     -1.571  0.0000E+00  0.0000E+00  0.3090E+00  0.3080E+00
     -1.529  0.0000E+00  0.0000E+00  0.3100E+00  0.3090E+00
     -1.488  0.0000E+00  0.0000E+00  0.3100E+00  0.3100E+00
     -1.446  0.0000E+00  0.0000E+00  0.3100E+00  0.3100E+00
     -1.404  0.0000E+00  0.0000E+00  0.3100E+00  0.3100E+00
     -1.362  0.0000E+00  0.0000E+00  0.3100E+00  0.3100E+00
     -1.320  0.0000E+00  0.0000E+00  0.3110E+00  0.3100E+00
     -1.278  0.0000E+00  0.0000E+00  0.3120E+00  0.3120E+00
     -1.236  0.0000E+00  0.0000E+00  0.3120E+00  0.3120E+00
     -1.194  0.0000E+00  0.0000E+00  0.3120E+00  0.3120E+00
     -1.152  0.0000E+00  0.0000E+00  0.3130E+00  0.3130E+00
     -1.110  0.0000E+00  0.0000E+00  0.3130E+00  0.3130E+00
     -1.068  0.0000E+00  0.0000E+00  0.3130E+00  0.3130E+00
     -1.027  0.0000E+00  0.0000E+00  0.3130E+00  0.3130E+00
     -0.985  0.0000E+00  0.0000E+00  0.3150E+00  0.3140E+00
     -0.943  0.0000E+00  0.0000E+00  0.3150E+00  0.3150E+00
     -0.901  0.0000E+00  0.0000E+00  0.3160E+00  0.3160E+00
     -0.859  0.0000E+00  0.0000E+00  0.3170E+00  0.3170E+00
     -0.817  0.0000E+00  0.0000E+00  0.3180E+00  0.3180E+00
     -0.775  0.0000E+00  0.0000E+00  0.3190E+00  0.3190E+00
     -0.733  0.0000E+00  0.0000E+00  0.3200E+00  0.3190E+00
     -0.691  0.0000E+00  0.0000E+00  0.3200E+00  0.3200E+00
     -0.649  0.0000E+00  0.0000E+00  0.3210E+00  0.3210E+00
     -0.608  0.0000E+00  0.5819E-04  0.3220E+00  0.3210E+00
     -0.566  0.0000E+00  0.0000E+00  0.3220E+00  0.3220E+00
     -0.524  0.0000E+00  0.0000E+00  0.3220E+00  0.3220E+00
     -0.482  0.0000E+00  0.0000E+00  0.3230E+00  0.3230E+00
     -0.440  0.0000E+00  0.0000E+00  0.3230E+00  0.3230E+00
     -0.398  0.0000E+00  0.0000E+00  0.3240E+00  0.3230E+00
     -0.356  0.0000E+00  0.0000E+00  0.3240E+00  0.3240E+00
     -0.314  0.0000E+00  0.0000E+00  0.3250E+00  0.3250E+00
     -0.272  0.0000E+00  0.0000E+00  0.3250E+00  0.3250E+00
     -0.230  0.0000E+00  0.0000E+00  0.3250E+00  0.3250E+00
     -0.188  0.0000E+00  0.0000E+00  0.3260E+00  0.3260E+00
     -0.147  0.0000E+00  0.0000E+00  0.3260E+00  0.3260E+00
     -0.105  0.0000E+00  0.0000E+00  0.3260E+00  0.3260E+00
     -0.063  0.0000E+00  0.0000E+00  0.3280E+00  0.3270E+00
     -0.021  0.0000E+00  0.0000E+00  0.3290E+00  0.3290E+00
      0.021  0.0000E+00  0.0000E+00  0.3290E+00  0.3290E+00
      0.063  0.0000E+00  0.0000E+00  0.3300E+00  0.3290E+00
      0.105  0.0000E+00  0.0000E+00  0.3310E+00  0.3300E+00
      0.147  0.0000E+00  0.0000E+00  0.3310E+00  0.3310E+00
      0.189  0.0000E+00  0.0000E+00  0.3320E+00  0.3320E+00
      0.231  0.0000E+00  0.0000E+00  0.3320E+00  0.3320E+00
      0.272  0.0000E+00  0.0000E+00  0.3320E+00  0.3320E+00
      0.314  0.0000E+00  0.0000E+00  0.3330E+00  0.3320E+00
      0.356  0.0000E+00  0.0000E+00  0.3330E+00  0.3330E+00
      0.398  0.0000E+00  0.0000E+00  0.3330E+00  0.3330E+00
      0.440  0.0000E+00  0.0000E+00  0.3340E+00  0.3340E+00
      0.482  0.0000E+00  0.0000E+00  0.3350E+00  0.3340E+00
      0.524  0.0000E+00  0.0000E+00  0.3350E+00  0.3350E+00
      0.566  0.7595E-08  0.0000E+00  0.3350E+00  0.3350E+00
      0.608  0.0000E+00  0.0000E+00  0.3360E+00  0.3360E+00
      0.650  0.0000E+00  0.0000E+00  0.3370E+00  0.3370E+00
      0.691  0.0000E+00  0.0000E+00  0.3370E+00  0.3370E+00
      0.733  0.0000E+00  0.0000E+00  0.3380E+00  0.3380E+00
      0.775  0.1116E-01  0.0000E+00  0.3405E+00  0.3390E+00
      0.817  0.0000E+00  0.0000E+00  0.3420E+00  0.3420E+00
      0.859  0.0000E+00  0.0000E+00  0.3420E+00  0.3420E+00
      0.901  0.0000E+00  0.0000E+00  0.3430E+00  0.3430E+00
      0.943  0.0000E+00  0.0000E+00  0.3440E+00  0.3440E+00
      0.985  0.0000E+00  0.0000E+00  0.3450E+00  0.3450E+00
      1.027  0.0000E+00  0.0000E+00  0.3450E+00  0.3460E+00
      1.069  0.0000E+00  0.2386E-01  0.3470E+00  0.3470E+00
      1.111  0.0000E+00  0.0000E+00  0.3480E+00  0.3480E+00
      1.152  0.2386E-01  0.0000E+00  0.3510E+00  0.3510E+00
      1.194  0.0000E+00  0.0000E+00  0.3530E+00  0.3530E+00
      1.236  0.0000E+00  0.0000E+00  0.3560E+00  0.3540E+00
      1.278  0.0000E+00  0.0000E+00  0.3570E+00  0.3570E+00
      1.320  0.0000E+00  0.0000E+00  0.3590E+00  0.3580E+00
      1.362  0.0000E+00  0.0000E+00  0.3610E+00  0.3600E+00
      1.404  0.0000E+00  0.0000E+00  0.3620E+00  0.3610E+00
      1.446  0.0000E+00  0.0000E+00  0.3640E+00  0.3630E+00
      1.488  0.0000E+00  0.0000E+00  0.3660E+00  0.3650E+00
      1.530  0.0000E+00  0.2386E-01  0.3680E+00  0.3680E+00
      1.571  0.0000E+00  0.0000E+00  0.3700E+00  0.3700E+00
      1.613  0.0000E+00  0.0000E+00  0.3730E+00  0.3730E+00
      1.655  0.0000E+00  0.2386E-01  0.3740E+00  0.3740E+00
      1.697  0.0000E+00  0.0000E+00  0.3750E+00  0.3750E+00
      1.739  0.0000E+00  0.0000E+00  0.3760E+00  0.3760E+00
      1.781  0.0000E+00  0.0000E+00  0.3760E+00  0.3760E+00
      1.823  0.0000E+00  0.0000E+00  0.3760E+00  0.3760E+00
      1.865  0.0000E+00  0.0000E+00  0.3760E+00  0.3760E+00
      1.907  0.0000E+00  0.0000E+00  0.3760E+00  0.3760E+00
      1.949  0.0000E+00  0.0000E+00  0.3760E+00  0.3760E+00
      1.991  0.0000E+00  0.0000E+00  0.3760E+00  0.3760E+00
      2.032  0.0000E+00  0.0000E+00  0.3760E+00  0.3760E+00
      2.074  0.0000E+00  0.0000E+00  0.3760E+00  0.3760E+00
      2.116  0.0000E+00  0.0000E+00  0.3760E+00  0.3760E+00
      2.158  0.0000E+00  0.0000E+00  0.3760E+00  0.3760E+00
      2.200  0.0000E+00  0.0000E+00  0.3760E+00  0.3760E+00
      2.242  0.0000E+00  0.0000E+00  0.3760E+00  0.3760E+00
      2.284  0.0000E+00  0.0000E+00  0.3760E+00  0.3760E+00
