  55  55   0   0
  0.2401109E+03  0.2363696E-08  0.2363696E-08  0.2363696E-08  0.1000000E-15
  1.000000000000000E-004
  CAR 
 unknown system                          
      2.32470548    -10.36845808  301     -3.29201940      1.00000000
    -10.368  0.0000E+00  0.0000E+00  0.0000E+00  0.0000E+00
    -10.326  0.0000E+00  0.0000E+00  0.0000E+00  0.0000E+00
    -10.284  0.0000E+00  0.0000E+00  0.0000E+00  0.0000E+00
    -10.242  0.0000E+00  0.0000E+00  0.0000E+00  0.0000E+00
    -10.199  0.0000E+00  0.0000E+00  0.0000E+00  0.0000E+00
    -10.157  0.0000E+00  0.0000E+00  0.0000E+00  0.0000E+00
    -10.115  0.0000E+00  0.0000E+00  0.0000E+00  0.0000E+00
    -10.072  0.0000E+00  0.0000E+00  0.0000E+00  0.0000E+00
    -10.030  0.0000E+00  0.0000E+00  0.0000E+00  0.0000E+00
     -9.988  0.0000E+00  0.0000E+00  0.0000E+00  0.0000E+00
     -9.945  0.0000E+00  0.0000E+00  0.0000E+00  0.0000E+00
     -9.903  0.0000E+00  0.0000E+00  0.0000E+00  0.0000E+00
     -9.861  0.0000E+00  0.0000E+00  0.0000E+00  0.0000E+00
     -9.818  0.0000E+00  0.0000E+00  0.0000E+00  0.0000E+00
     -9.776  0.0000E+00  0.0000E+00  0.1000E-02  0.1000E-02
     -9.734  0.0000E+00  0.0000E+00  0.1000E-02  0.1000E-02
     -9.691  0.0000E+00  0.0000E+00  0.1000E-02  0.1000E-02
     -9.649  0.0000E+00  0.0000E+00  0.1000E-02  0.1000E-02
     -9.607  0.0000E+00  0.0000E+00  0.1000E-02  0.1000E-02
     -9.565  0.0000E+00  0.0000E+00  0.1000E-02  0.1000E-02
     -9.522  0.0000E+00  0.0000E+00  0.1000E-02  0.1000E-02
     -9.480  0.0000E+00  0.0000E+00  0.1000E-02  0.1000E-02
     -9.438  0.0000E+00  0.0000E+00  0.1000E-02  0.1000E-02
     -9.395  0.0000E+00  0.0000E+00  0.1000E-02  0.1000E-02
     -9.353  0.0000E+00  0.0000E+00  0.1000E-02  0.1000E-02
     -9.311  0.0000E+00  0.0000E+00  0.1000E-02  0.1000E-02
     -9.268  0.0000E+00  0.0000E+00  0.1000E-02  0.1000E-02
     -9.226  0.0000E+00  0.0000E+00  0.1000E-02  0.1000E-02
     -9.184  0.0000E+00  0.0000E+00  0.1000E-02  0.1000E-02
     -9.141  0.0000E+00  0.0000E+00  0.3000E-02  0.2000E-02
     -9.099  0.0000E+00  0.0000E+00  0.3000E-02  0.3000E-02
     -9.057  0.0000E+00  0.0000E+00  0.4000E-02  0.4000E-02
     -9.015  0.2363E-01  0.0000E+00  0.5000E-02  0.4000E-02
     -8.972  0.0000E+00  0.0000E+00  0.9000E-02  0.7000E-02
     -8.930  0.0000E+00  0.6737E-05  0.1000E-01  0.9000E-02
     -8.888  0.2342E-01  0.0000E+00  0.1199E-01  0.1100E-01
     -8.845  0.0000E+00  0.0000E+00  0.1300E-01  0.1300E-01
     -8.803  0.0000E+00  0.0000E+00  0.1400E-01  0.1400E-01
     -8.761  0.0000E+00  0.0000E+00  0.1500E-01  0.1500E-01
     -8.718  0.0000E+00  0.0000E+00  0.1700E-01  0.1700E-01
     -8.676  0.2363E-01  0.2363E-01  0.2200E-01  0.2100E-01
     -8.634  0.2363E-01  0.0000E+00  0.2500E-01  0.2400E-01
     -8.591  0.0000E+00  0.0000E+00  0.2800E-01  0.2800E-01
     -8.549  0.0000E+00  0.0000E+00  0.3100E-01  0.3100E-01
     -8.507  0.2363E-01  0.0000E+00  0.3600E-01  0.3400E-01
     -8.464  0.0000E+00  0.2442E-06  0.3900E-01  0.3700E-01
     -8.422  0.0000E+00  0.0000E+00  0.4300E-01  0.4100E-01
     -8.380  0.0000E+00  0.0000E+00  0.4600E-01  0.4500E-01
     -8.338  0.0000E+00  0.0000E+00  0.4900E-01  0.4900E-01
     -8.295  0.0000E+00  0.0000E+00  0.5300E-01  0.5300E-01
     -8.253  0.0000E+00  0.0000E+00  0.5600E-01  0.5500E-01
     -8.211  0.0000E+00  0.0000E+00  0.5900E-01  0.5900E-01
     -8.168  0.0000E+00  0.2363E-01  0.6200E-01  0.6200E-01
     -8.126  0.0000E+00  0.0000E+00  0.6500E-01  0.6400E-01
     -8.084  0.0000E+00  0.0000E+00  0.6700E-01  0.6700E-01
     -8.041  0.2363E-01  0.0000E+00  0.7200E-01  0.7100E-01
     -7.999  0.0000E+00  0.0000E+00  0.7600E-01  0.7600E-01
     -7.957  0.0000E+00  0.0000E+00  0.8000E-01  0.7900E-01
     -7.914  0.0000E+00  0.0000E+00  0.8300E-01  0.8300E-01
     -7.872  0.0000E+00  0.0000E+00  0.8700E-01  0.8700E-01
     -7.830  0.0000E+00  0.0000E+00  0.9000E-01  0.9000E-01
     -7.788  0.0000E+00  0.0000E+00  0.9400E-01  0.9400E-01
     -7.745  0.1128E-09  0.0000E+00  0.9800E-01  0.9800E-01
     -7.703  0.0000E+00  0.0000E+00  0.1020E+00  0.1020E+00
     -7.661  0.0000E+00  0.0000E+00  0.1060E+00  0.1060E+00
     -7.618  0.0000E+00  0.0000E+00  0.1090E+00  0.1090E+00
     -7.576  0.0000E+00  0.0000E+00  0.1130E+00  0.1120E+00
     -7.534  0.0000E+00  0.2363E-01  0.1170E+00  0.1170E+00
     -7.491  0.0000E+00  0.0000E+00  0.1200E+00  0.1190E+00
     -7.449  0.0000E+00  0.2363E-01  0.1240E+00  0.1240E+00
     -7.407  0.2363E-01  0.0000E+00  0.1280E+00  0.1270E+00
     -7.364  0.0000E+00  0.0000E+00  0.1310E+00  0.1310E+00
     -7.322  0.0000E+00  0.0000E+00  0.1350E+00  0.1350E+00
     -7.280  0.0000E+00  0.0000E+00  0.1390E+00  0.1390E+00
     -7.237  0.0000E+00  0.0000E+00  0.1430E+00  0.1430E+00
     -7.195  0.0000E+00  0.0000E+00  0.1480E+00  0.1470E+00
     -7.153  0.2363E-01  0.0000E+00  0.1510E+00  0.1500E+00
     -7.111  0.0000E+00  0.0000E+00  0.1550E+00  0.1550E+00
     -7.068  0.0000E+00  0.0000E+00  0.1590E+00  0.1580E+00
     -7.026  0.2363E-01  0.0000E+00  0.1620E+00  0.1610E+00
     -6.984  0.0000E+00  0.0000E+00  0.1660E+00  0.1650E+00
     -6.941  0.0000E+00  0.0000E+00  0.1720E+00  0.1710E+00
     -6.899  0.0000E+00  0.0000E+00  0.1750E+00  0.1750E+00
     -6.857  0.0000E+00  0.1095E-07  0.1800E+00  0.1790E+00
     -6.814  0.0000E+00  0.0000E+00  0.1840E+00  0.1830E+00
     -6.772  0.0000E+00  0.3640E-11  0.1870E+00  0.1860E+00
     -6.730  0.0000E+00  0.0000E+00  0.1920E+00  0.1920E+00
     -6.687  0.2325E-01  0.0000E+00  0.1980E+00  0.1960E+00
     -6.645  0.0000E+00  0.0000E+00  0.2020E+00  0.2020E+00
     -6.603  0.0000E+00  0.0000E+00  0.2090E+00  0.2080E+00
     -6.561  0.0000E+00  0.0000E+00  0.2140E+00  0.2140E+00
     -6.518  0.0000E+00  0.0000E+00  0.2190E+00  0.2190E+00
     -6.476  0.2363E-01  0.0000E+00  0.2240E+00  0.2230E+00
     -6.434  0.0000E+00  0.2363E-01  0.2300E+00  0.2290E+00
     -6.391  0.0000E+00  0.2363E-01  0.2360E+00  0.2360E+00
     -6.349  0.0000E+00  0.0000E+00  0.2420E+00  0.2420E+00
     -6.307  0.3044E-05  0.0000E+00  0.2470E+00  0.2470E+00
     -6.264  0.0000E+00  0.2656E-03  0.2530E+00  0.2520E+00
     -6.222  0.0000E+00  0.0000E+00  0.2590E+00  0.2590E+00
     -6.180  0.0000E+00  0.0000E+00  0.2640E+00  0.2640E+00
     -6.137  0.0000E+00  0.0000E+00  0.2680E+00  0.2670E+00
     -6.095  0.0000E+00  0.0000E+00  0.2720E+00  0.2720E+00
     -6.053  0.0000E+00  0.0000E+00  0.2760E+00  0.2760E+00
     -6.010  0.0000E+00  0.0000E+00  0.2780E+00  0.2780E+00
     -5.968  0.0000E+00  0.0000E+00  0.2810E+00  0.2810E+00
     -5.926  0.0000E+00  0.0000E+00  0.2840E+00  0.2840E+00
     -5.884  0.0000E+00  0.0000E+00  0.2840E+00  0.2840E+00
     -5.841  0.0000E+00  0.0000E+00  0.2840E+00  0.2840E+00
     -5.799  0.0000E+00  0.0000E+00  0.2840E+00  0.2840E+00
     -5.757  0.0000E+00  0.0000E+00  0.2840E+00  0.2840E+00
     -5.714  0.0000E+00  0.0000E+00  0.2840E+00  0.2840E+00
     -5.672  0.0000E+00  0.0000E+00  0.2840E+00  0.2840E+00
     -5.630  0.0000E+00  0.0000E+00  0.2840E+00  0.2840E+00
     -5.587  0.0000E+00  0.0000E+00  0.2850E+00  0.2850E+00
     -5.545  0.0000E+00  0.0000E+00  0.2850E+00  0.2850E+00
     -5.503  0.0000E+00  0.0000E+00  0.2850E+00  0.2850E+00
     -5.460  0.0000E+00  0.0000E+00  0.2850E+00  0.2850E+00
     -5.418  0.0000E+00  0.0000E+00  0.2850E+00  0.2850E+00
     -5.376  0.0000E+00  0.0000E+00  0.2850E+00  0.2850E+00
     -5.334  0.0000E+00  0.0000E+00  0.2850E+00  0.2850E+00
     -5.291  0.0000E+00  0.0000E+00  0.2860E+00  0.2860E+00
     -5.249  0.0000E+00  0.0000E+00  0.2860E+00  0.2860E+00
     -5.207  0.0000E+00  0.0000E+00  0.2860E+00  0.2860E+00
     -5.164  0.0000E+00  0.0000E+00  0.2880E+00  0.2870E+00
     -5.122  0.0000E+00  0.0000E+00  0.2880E+00  0.2880E+00
     -5.080  0.0000E+00  0.0000E+00  0.2880E+00  0.2880E+00
     -5.037  0.0000E+00  0.0000E+00  0.2880E+00  0.2880E+00
     -4.995  0.0000E+00  0.0000E+00  0.2900E+00  0.2900E+00
     -4.953  0.0000E+00  0.0000E+00  0.2900E+00  0.2900E+00
     -4.910  0.0000E+00  0.0000E+00  0.2900E+00  0.2900E+00
     -4.868  0.0000E+00  0.0000E+00  0.2910E+00  0.2910E+00
     -4.826  0.0000E+00  0.0000E+00  0.2910E+00  0.2910E+00
     -4.783  0.0000E+00  0.0000E+00  0.2920E+00  0.2910E+00
     -4.741  0.0000E+00  0.0000E+00  0.2920E+00  0.2920E+00
     -4.699  0.0000E+00  0.0000E+00  0.2920E+00  0.2920E+00
     -4.657  0.0000E+00  0.0000E+00  0.2920E+00  0.2920E+00
     -4.614  0.0000E+00  0.0000E+00  0.2920E+00  0.2920E+00
     -4.572  0.0000E+00  0.0000E+00  0.2920E+00  0.2920E+00
     -4.530  0.0000E+00  0.0000E+00  0.2920E+00  0.2920E+00
     -4.487  0.0000E+00  0.0000E+00  0.2920E+00  0.2920E+00
     -4.445  0.0000E+00  0.0000E+00  0.2920E+00  0.2920E+00
     -4.403  0.0000E+00  0.0000E+00  0.2920E+00  0.2920E+00
     -4.360  0.0000E+00  0.0000E+00  0.2920E+00  0.2920E+00
     -4.318  0.0000E+00  0.0000E+00  0.2940E+00  0.2930E+00
     -4.276  0.0000E+00  0.0000E+00  0.2940E+00  0.2940E+00
     -4.233  0.0000E+00  0.0000E+00  0.2940E+00  0.2940E+00
     -4.191  0.0000E+00  0.0000E+00  0.2940E+00  0.2940E+00
     -4.149  0.0000E+00  0.0000E+00  0.2940E+00  0.2940E+00
     -4.106  0.0000E+00  0.0000E+00  0.2940E+00  0.2940E+00
     -4.064  0.0000E+00  0.0000E+00  0.2950E+00  0.2950E+00
     -4.022  0.0000E+00  0.0000E+00  0.2950E+00  0.2950E+00
     -3.980  0.0000E+00  0.0000E+00  0.2950E+00  0.2950E+00
     -3.937  0.0000E+00  0.0000E+00  0.2950E+00  0.2950E+00
     -3.895  0.8326E-04  0.0000E+00  0.2960E+00  0.2960E+00
     -3.853  0.0000E+00  0.0000E+00  0.2970E+00  0.2970E+00
     -3.810  0.0000E+00  0.0000E+00  0.2970E+00  0.2970E+00
     -3.768  0.0000E+00  0.0000E+00  0.2980E+00  0.2980E+00
     -3.726  0.0000E+00  0.0000E+00  0.2980E+00  0.2980E+00
     -3.683  0.0000E+00  0.0000E+00  0.2980E+00  0.2980E+00
     -3.641  0.0000E+00  0.0000E+00  0.2990E+00  0.2990E+00
     -3.599  0.0000E+00  0.0000E+00  0.2990E+00  0.2990E+00
     -3.556  0.0000E+00  0.0000E+00  0.3000E+00  0.2990E+00
     -3.514  0.0000E+00  0.0000E+00  0.3000E+00  0.3000E+00
     -3.472  0.0000E+00  0.0000E+00  0.3000E+00  0.3000E+00
     -3.430  0.0000E+00  0.0000E+00  0.3010E+00  0.3000E+00
     -3.387  0.0000E+00  0.0000E+00  0.3010E+00  0.3010E+00
     -3.345  0.0000E+00  0.7697E-13  0.3020E+00  0.3010E+00
     -3.303  0.0000E+00  0.0000E+00  0.3030E+00  0.3020E+00
     -3.260  0.0000E+00  0.0000E+00  0.3030E+00  0.3020E+00
     -3.218  0.0000E+00  0.0000E+00  0.3030E+00  0.3030E+00
     -3.176  0.0000E+00  0.0000E+00  0.3030E+00  0.3030E+00
     -3.133  0.0000E+00  0.2363E-01  0.3040E+00  0.3040E+00
     -3.091  0.0000E+00  0.0000E+00  0.3040E+00  0.3040E+00
     -3.049  0.0000E+00  0.0000E+00  0.3040E+00  0.3040E+00
     -3.006  0.0000E+00  0.0000E+00  0.3040E+00  0.3040E+00
     -2.964  0.0000E+00  0.0000E+00  0.3040E+00  0.3040E+00
     -2.922  0.0000E+00  0.0000E+00  0.3040E+00  0.3040E+00
     -2.879  0.0000E+00  0.0000E+00  0.3040E+00  0.3040E+00
     -2.837  0.0000E+00  0.0000E+00  0.3040E+00  0.3040E+00
     -2.795  0.0000E+00  0.0000E+00  0.3040E+00  0.3040E+00
     -2.753  0.0000E+00  0.0000E+00  0.3040E+00  0.3040E+00
     -2.710  0.0000E+00  0.0000E+00  0.3050E+00  0.3050E+00
     -2.668  0.0000E+00  0.0000E+00  0.3060E+00  0.3050E+00
     -2.626  0.0000E+00  0.0000E+00  0.3070E+00  0.3070E+00
     -2.583  0.0000E+00  0.0000E+00  0.3080E+00  0.3080E+00
     -2.541  0.0000E+00  0.0000E+00  0.3090E+00  0.3090E+00
     -2.499  0.0000E+00  0.0000E+00  0.3090E+00  0.3090E+00
     -2.456  0.0000E+00  0.0000E+00  0.3090E+00  0.3090E+00
     -2.414  0.0000E+00  0.0000E+00  0.3090E+00  0.3090E+00
     -2.372  0.0000E+00  0.0000E+00  0.3090E+00  0.3090E+00
     -2.329  0.0000E+00  0.0000E+00  0.3100E+00  0.3100E+00
     -2.287  0.0000E+00  0.0000E+00  0.3110E+00  0.3110E+00
     -2.245  0.0000E+00  0.0000E+00  0.3110E+00  0.3110E+00
     -2.203  0.0000E+00  0.0000E+00  0.3110E+00  0.3110E+00
     -2.160  0.0000E+00  0.0000E+00  0.3120E+00  0.3110E+00
     -2.118  0.0000E+00  0.0000E+00  0.3140E+00  0.3130E+00
     -2.076  0.0000E+00  0.0000E+00  0.3140E+00  0.3140E+00
     -2.033  0.0000E+00  0.0000E+00  0.3160E+00  0.3150E+00
     -1.991  0.0000E+00  0.0000E+00  0.3160E+00  0.3160E+00
     -1.949  0.0000E+00  0.0000E+00  0.3160E+00  0.3160E+00
     -1.906  0.0000E+00  0.0000E+00  0.3160E+00  0.3160E+00
     -1.864  0.0000E+00  0.0000E+00  0.3160E+00  0.3160E+00
     -1.822  0.0000E+00  0.0000E+00  0.3170E+00  0.3160E+00
     -1.779  0.0000E+00  0.0000E+00  0.3170E+00  0.3170E+00
     -1.737  0.2361E-01  0.0000E+00  0.3190E+00  0.3170E+00
     -1.695  0.0000E+00  0.0000E+00  0.3200E+00  0.3200E+00
     -1.652  0.0000E+00  0.0000E+00  0.3210E+00  0.3200E+00
     -1.610  0.0000E+00  0.0000E+00  0.3210E+00  0.3210E+00
     -1.568  0.0000E+00  0.0000E+00  0.3210E+00  0.3210E+00
     -1.526  0.0000E+00  0.0000E+00  0.3210E+00  0.3210E+00
     -1.483  0.0000E+00  0.0000E+00  0.3210E+00  0.3210E+00
     -1.441  0.0000E+00  0.0000E+00  0.3220E+00  0.3220E+00
     -1.399  0.0000E+00  0.0000E+00  0.3220E+00  0.3220E+00
     -1.356  0.0000E+00  0.0000E+00  0.3230E+00  0.3230E+00
     -1.314  0.0000E+00  0.0000E+00  0.3230E+00  0.3230E+00
     -1.272  0.0000E+00  0.0000E+00  0.3240E+00  0.3230E+00
     -1.229  0.0000E+00  0.0000E+00  0.3250E+00  0.3250E+00
     -1.187  0.0000E+00  0.0000E+00  0.3270E+00  0.3260E+00
     -1.145  0.0000E+00  0.0000E+00  0.3280E+00  0.3270E+00
     -1.102  0.0000E+00  0.0000E+00  0.3280E+00  0.3280E+00
     -1.060  0.0000E+00  0.0000E+00  0.3280E+00  0.3280E+00
     -1.018  0.0000E+00  0.0000E+00  0.3290E+00  0.3290E+00
     -0.976  0.0000E+00  0.0000E+00  0.3290E+00  0.3290E+00
     -0.933  0.0000E+00  0.0000E+00  0.3290E+00  0.3290E+00
     -0.891  0.0000E+00  0.0000E+00  0.3290E+00  0.3290E+00
     -0.849  0.0000E+00  0.0000E+00  0.3300E+00  0.3300E+00
     -0.806  0.0000E+00  0.0000E+00  0.3310E+00  0.3300E+00
     -0.764  0.0000E+00  0.0000E+00  0.3310E+00  0.3310E+00
     -0.722  0.0000E+00  0.0000E+00  0.3320E+00  0.3310E+00
     -0.679  0.0000E+00  0.0000E+00  0.3320E+00  0.3320E+00
     -0.637  0.0000E+00  0.0000E+00  0.3320E+00  0.3320E+00
     -0.595  0.0000E+00  0.0000E+00  0.3330E+00  0.3330E+00
     -0.552  0.0000E+00  0.0000E+00  0.3340E+00  0.3330E+00
     -0.510  0.0000E+00  0.0000E+00  0.3340E+00  0.3340E+00
     -0.468  0.0000E+00  0.0000E+00  0.3340E+00  0.3340E+00
     -0.425  0.0000E+00  0.0000E+00  0.3340E+00  0.3340E+00
     -0.383  0.0000E+00  0.0000E+00  0.3350E+00  0.3340E+00
     -0.341  0.0000E+00  0.0000E+00  0.3360E+00  0.3350E+00
     -0.299  0.0000E+00  0.0000E+00  0.3370E+00  0.3360E+00
     -0.256  0.0000E+00  0.0000E+00  0.3370E+00  0.3370E+00
     -0.214  0.0000E+00  0.0000E+00  0.3380E+00  0.3370E+00
     -0.172  0.0000E+00  0.0000E+00  0.3380E+00  0.3380E+00
     -0.129  0.0000E+00  0.0000E+00  0.3380E+00  0.3380E+00
     -0.087  0.0000E+00  0.0000E+00  0.3400E+00  0.3390E+00
     -0.045  0.0000E+00  0.0000E+00  0.3400E+00  0.3400E+00
     -0.002  0.0000E+00  0.0000E+00  0.3400E+00  0.3400E+00
      0.040  0.0000E+00  0.0000E+00  0.3410E+00  0.3410E+00
      0.082  0.0000E+00  0.0000E+00  0.3430E+00  0.3420E+00
      0.125  0.0000E+00  0.0000E+00  0.3440E+00  0.3430E+00
      0.167  0.0000E+00  0.0000E+00  0.3440E+00  0.3440E+00
      0.209  0.0000E+00  0.0000E+00  0.3440E+00  0.3440E+00
      0.251  0.0000E+00  0.0000E+00  0.3450E+00  0.3440E+00
      0.294  0.0000E+00  0.0000E+00  0.3470E+00  0.3460E+00
      0.336  0.0000E+00  0.0000E+00  0.3470E+00  0.3470E+00
      0.378  0.0000E+00  0.0000E+00  0.3470E+00  0.3470E+00
      0.421  0.1491E-01  0.0000E+00  0.3476E+00  0.3470E+00
      0.463  0.0000E+00  0.0000E+00  0.3480E+00  0.3480E+00
      0.505  0.0000E+00  0.0000E+00  0.3480E+00  0.3480E+00
      0.548  0.0000E+00  0.0000E+00  0.3490E+00  0.3490E+00
      0.590  0.0000E+00  0.0000E+00  0.3490E+00  0.3490E+00
      0.632  0.0000E+00  0.0000E+00  0.3500E+00  0.3490E+00
      0.675  0.0000E+00  0.0000E+00  0.3500E+00  0.3500E+00
      0.717  0.0000E+00  0.0000E+00  0.3510E+00  0.3510E+00
      0.759  0.0000E+00  0.0000E+00  0.3520E+00  0.3510E+00
      0.802  0.0000E+00  0.0000E+00  0.3520E+00  0.3520E+00
      0.844  0.0000E+00  0.0000E+00  0.3530E+00  0.3530E+00
      0.886  0.0000E+00  0.0000E+00  0.3540E+00  0.3530E+00
      0.928  0.0000E+00  0.0000E+00  0.3550E+00  0.3550E+00
      0.971  0.0000E+00  0.0000E+00  0.3570E+00  0.3560E+00
      1.013  0.0000E+00  0.0000E+00  0.3590E+00  0.3590E+00
      1.055  0.0000E+00  0.0000E+00  0.3610E+00  0.3610E+00
      1.098  0.0000E+00  0.0000E+00  0.3630E+00  0.3620E+00
      1.140  0.1276E-10  0.2363E-01  0.3640E+00  0.3640E+00
      1.182  0.0000E+00  0.0000E+00  0.3670E+00  0.3670E+00
      1.225  0.0000E+00  0.0000E+00  0.3680E+00  0.3680E+00
      1.267  0.0000E+00  0.0000E+00  0.3710E+00  0.3700E+00
      1.309  0.0000E+00  0.0000E+00  0.3730E+00  0.3730E+00
      1.352  0.2363E-01  0.0000E+00  0.3750E+00  0.3740E+00
      1.394  0.0000E+00  0.0000E+00  0.3770E+00  0.3760E+00
      1.436  0.0000E+00  0.0000E+00  0.3790E+00  0.3790E+00
      1.478  0.0000E+00  0.0000E+00  0.3820E+00  0.3810E+00
      1.521  0.0000E+00  0.0000E+00  0.3850E+00  0.3840E+00
      1.563  0.0000E+00  0.0000E+00  0.3870E+00  0.3870E+00
      1.605  0.0000E+00  0.0000E+00  0.3880E+00  0.3880E+00
      1.648  0.0000E+00  0.0000E+00  0.3900E+00  0.3890E+00
      1.690  0.0000E+00  0.0000E+00  0.3900E+00  0.3900E+00
      1.732  0.0000E+00  0.0000E+00  0.3920E+00  0.3910E+00
      1.775  0.0000E+00  0.0000E+00  0.3920E+00  0.3920E+00
      1.817  0.0000E+00  0.0000E+00  0.3920E+00  0.3920E+00
      1.859  0.0000E+00  0.0000E+00  0.3920E+00  0.3920E+00
      1.902  0.0000E+00  0.0000E+00  0.3920E+00  0.3920E+00
      1.944  0.0000E+00  0.0000E+00  0.3920E+00  0.3920E+00
      1.986  0.0000E+00  0.0000E+00  0.3920E+00  0.3920E+00
      2.029  0.0000E+00  0.0000E+00  0.3920E+00  0.3920E+00
      2.071  0.0000E+00  0.0000E+00  0.3920E+00  0.3920E+00
      2.113  0.0000E+00  0.0000E+00  0.3920E+00  0.3920E+00
      2.155  0.0000E+00  0.0000E+00  0.3920E+00  0.3920E+00
      2.198  0.0000E+00  0.0000E+00  0.3920E+00  0.3920E+00
      2.240  0.0000E+00  0.0000E+00  0.3920E+00  0.3920E+00
      2.282  0.0000E+00  0.0000E+00  0.3920E+00  0.3920E+00
      2.325  0.0000E+00  0.0000E+00  0.3920E+00  0.3920E+00
