<?xml version="1.0" encoding="ISO-8859-1"?>
<modeling>
 <generator>
  <i name="program" type="string">vasp </i>
  <i name="version" type="string">5.3.5  </i>
  <i name="subversion" type="string">31Mar14 (build Feb 01 2018 12:10:03) gamma-only                       parallel </i>
  <i name="platform" type="string">LinuxIFC </i>
  <i name="date" type="string">2019 03 25 </i>
  <i name="time" type="string">12:29:32 </i>
 </generator>
 <incar>
  <i type="string" name="PREC">normal</i>
  <i type="int" name="ISPIN">     2</i>
  <i type="int" name="IBRION">     2</i>
  <i type="int" name="NSW">  1000</i>
  <i type="int" name="ISIF">     2</i>
  <i name="POTIM">      0.10000000</i>
  <i type="logical" name="LPLANE"> T  </i>
  <i type="int" name="ISMEAR">     0</i>
  <i name="SIGMA">      0.00010000</i>
  <i type="logical" name="LWAVE"> F  </i>
  <i type="logical" name="LCHARG"> F  </i>
  <i type="logical" name="LVTOT"> F  </i>
  <i type="string" name="GGA"> PE</i>
 </incar>
 <kpoints>
  <varray name="kpointlist" >
   <v>       0.00000000       0.00000000       0.00000000 </v>
  </varray>
  <varray name="weights" >
   <v>       1.00000000 </v>
  </varray>
 </kpoints>
 <parameters>
  <separator name="general" >
   <i type="string" name="SYSTEM">unknown system</i>
   <i type="logical" name="LCOMPAT"> F  </i>
  </separator>
  <separator name="electronic" >
   <i type="string" name="PREC">normal</i>
   <i name="ENMAX">    249.84400000</i>
   <i name="ENAUG">    412.49600000</i>
   <i name="EDIFF">      0.00010000</i>
   <i type="int" name="IALGO">    38</i>
   <i type="int" name="IWAVPR">    11</i>
   <i type="int" name="NBANDS">   392</i>
   <i name="NELECT">    605.00000000</i>
   <i type="int" name="TURBO">     0</i>
   <i type="int" name="IRESTART">     0</i>
   <i type="int" name="NREBOOT">     0</i>
   <i type="int" name="NMIN">     0</i>
   <i name="EREF">      0.00000000</i>
   <separator name="electronic smearing" >
    <i type="int" name="ISMEAR">     0</i>
    <i name="SIGMA">      0.00010000</i>
    <i name="KSPACING">      0.50000000</i>
    <i type="logical" name="KGAMMA"> T  </i>
   </separator>
   <separator name="electronic projectors" >
    <i type="logical" name="LREAL"> F  </i>
    <v name="ROPT">      0.00000000</v>
    <i type="int" name="LMAXPAW">  -100</i>
    <i type="int" name="LMAXMIX">     2</i>
    <i type="logical" name="NLSPLINE"> F  </i>
   </separator>
   <separator name="electronic startup" >
    <i type="int" name="ISTART">     0</i>
    <i type="int" name="ICHARG">     2</i>
    <i type="int" name="INIWAV">     1</i>
   </separator>
   <separator name="electronic spin" >
    <i type="int" name="ISPIN">     2</i>
    <i type="logical" name="LNONCOLLINEAR"> F  </i>
    <v name="MAGMOM">      1.00000000      1.00000000      1.00000000      1.00000000      1.00000000      1.00000000      1.00000000      1.00000000      1.00000000      1.00000000      1.00000000      1.00000000      1.00000000      1.00000000      1.00000000      1.00000000      1.00000000      1.00000000      1.00000000      1.00000000
      1.00000000      1.00000000      1.00000000      1.00000000      1.00000000      1.00000000      1.00000000      1.00000000      1.00000000      1.00000000      1.00000000      1.00000000      1.00000000      1.00000000      1.00000000      1.00000000      1.00000000      1.00000000      1.00000000      1.00000000
      1.00000000      1.00000000      1.00000000      1.00000000      1.00000000      1.00000000      1.00000000      1.00000000      1.00000000      1.00000000      1.00000000      1.00000000      1.00000000      1.00000000      1.00000000</v>
    <i name="NUPDOWN">     -1.00000000</i>
    <i type="logical" name="LSORBIT"> F  </i>
    <v name="SAXIS">      0.00000000      0.00000000      1.00000000</v>
    <i type="logical" name="LSPIRAL"> F  </i>
    <v name="QSPIRAL">      0.00000000      0.00000000      0.00000000</v>
    <i type="logical" name="LZEROZ"> F  </i>
   </separator>
   <separator name="electronic exchange-correlation" >
    <i type="logical" name="LASPH"> F  </i>
    <i type="logical" name="LMETAGGA"> F  </i>
   </separator>
   <separator name="electronic convergence" >
    <i type="int" name="NELM">    60</i>
    <i type="int" name="NELMDL">    -5</i>
    <i type="int" name="NELMIN">     2</i>
    <i name="ENINI">    249.84400000</i>
    <separator name="electronic convergence detail" >
     <i type="logical" name="LDIAG"> T  </i>
     <i type="logical" name="LSUBROT"> F  </i>
     <i name="WEIMIN">      0.00100000</i>
     <i name="EBREAK">      0.00000006</i>
     <i name="DEPER">      0.30000000</i>
     <i type="int" name="NRMM">     4</i>
     <i name="TIME">      0.40000000</i>
    </separator>
   </separator>
   <separator name="electronic mixer" >
    <i name="AMIX">      0.40000000</i>
    <i name="BMIX">      1.00000000</i>
    <i name="AMIN">      0.10000000</i>
    <i name="AMIX_MAG">      1.60000000</i>
    <i name="BMIX_MAG">      1.00000000</i>
    <separator name="electronic mixer details" >
     <i type="int" name="IMIX">     4</i>
     <i type="int" name="MAXMIX">   -45</i>
     <i name="WC">    100.00000000</i>
     <i type="int" name="INIMIX">     1</i>
     <i type="int" name="MIXPRE">     1</i>
     <i type="int" name="MREMOVE">     5</i>
    </separator>
   </separator>
   <separator name="electronic dipolcorrection" >
    <i type="logical" name="LDIPOL"> F  </i>
    <i type="logical" name="LMONO"> F  </i>
    <i type="int" name="IDIPOL">     0</i>
    <i name="EPSILON">      1.00000000</i>
    <v name="DIPOL">   -100.00000000   -100.00000000   -100.00000000</v>
    <i name="EFIELD">      0.00000000</i>
   </separator>
  </separator>
  <separator name="grids" >
   <i type="int" name="NGX">    96</i>
   <i type="int" name="NGY">    96</i>
   <i type="int" name="NGZ">    96</i>
   <i type="int" name="NGXF">   192</i>
   <i type="int" name="NGYF">   192</i>
   <i type="int" name="NGZF">   192</i>
   <i type="logical" name="ADDGRID"> F  </i>
  </separator>
  <separator name="ionic" >
   <i type="int" name="NSW">  1000</i>
   <i type="int" name="IBRION">     2</i>
   <i type="int" name="ISIF">     2</i>
   <i name="PSTRESS">      0.00000000</i>
   <i name="EDIFFG">      0.00100000</i>
   <i type="int" name="NFREE">     1</i>
   <i name="POTIM">      0.10000000</i>
   <i name="SMASS">     -3.00000000</i>
   <i name="SCALEE">      1.00000000</i>
  </separator>
  <separator name="ionic md" >
   <i name="TEBEG">      0.00010000</i>
   <i name="TEEND">      0.00010000</i>
   <i type="int" name="NBLOCK">     1</i>
   <i type="int" name="KBLOCK">  1000</i>
   <i type="int" name="NPACO">   256</i>
   <i name="APACO">     16.00000000</i>
  </separator>
  <separator name="symmetry" >
   <i type="int" name="ISYM">     2</i>
   <i name="SYMPREC">      0.00001000</i>
  </separator>
  <separator name="dos" >
   <i type="logical" name="LORBIT"> F  </i>
   <v name="RWIGS">     -1.00000000</v>
   <i type="int" name="NEDOS">   301</i>
   <i name="EMIN">     10.00000000</i>
   <i name="EMAX">    -10.00000000</i>
   <i name="EFERMI">      0.00000000</i>
  </separator>
  <separator name="writing" >
   <i type="int" name="NWRITE">     2</i>
   <i type="logical" name="LWAVE"> F  </i>
   <i type="logical" name="LCHARG"> F  </i>
   <i type="logical" name="LPARD"> F  </i>
   <i type="logical" name="LVTOT"> F  </i>
   <i type="logical" name="LVHAR"> F  </i>
   <i type="logical" name="LELF"> F  </i>
   <i type="logical" name="LOPTICS"> F  </i>
   <v name="STM">      0.00000000      0.00000000      0.00000000      0.00000000      0.00000000      0.00000000      0.00000000</v>
  </separator>
  <separator name="performance" >
   <i type="int" name="NPAR">     4</i>
   <i type="int" name="NSIM">     4</i>
   <i type="int" name="NBLK">    -1</i>
   <i type="logical" name="LPLANE"> T  </i>
   <i type="logical" name="LSCALAPACK"> T  </i>
   <i type="logical" name="LSCAAWARE"> F  </i>
   <i type="logical" name="LSCALU"> F  </i>
   <i type="logical" name="LASYNC"> F  </i>
   <i type="logical" name="LORBITALREAL"> F  </i>
  </separator>
  <separator name="miscellaneous" >
   <i type="int" name="IDIOT">     3</i>
   <i type="logical" name="LMUSIC"> F  </i>
   <v name="POMASS">    107.86800000</v>
   <v name="DARWINR">      0.00000000</v>
   <v name="DARWINV">      1.00000000</v>
   <i type="logical" name="LCORR"> T  </i>
  </separator>
  <i type="logical" name="GGA_COMPAT"> T  </i>
  <i type="logical" name="LBERRY"> F  </i>
  <i type="int" name="ICORELEVEL">     0</i>
  <i type="logical" name="LDAU"> F  </i>
  <i type="int" name="I_CONSTRAINED_M">     0</i>
  <separator name="electronic exchange-correlation" >
   <i type="string" name="GGA">PE</i>
   <i type="int" name="VOSKOWN">     0</i>
   <i type="logical" name="LHFCALC"> F  </i>
   <i type="string" name="PRECFOCK"></i>
   <i type="logical" name="LSYMGRAD"> F  </i>
   <i type="logical" name="LHFONE"> F  </i>
   <i type="logical" name="LRHFCALC"> F  </i>
   <i type="logical" name="LTHOMAS"> F  </i>
   <i type="logical" name="LMODELHF"> F  </i>
   <i name="ENCUT4O">     -1.00000000</i>
   <i type="int" name="EXXOEP">     0</i>
   <i type="int" name="FOURORBIT">     0</i>
   <i name="AEXX">      0.00000000</i>
   <i name="HFALPHA">      0.00000000</i>
   <i name="MCALPHA">      0.00000000</i>
   <i name="ALDAX">      1.00000000</i>
   <i name="AGGAX">      1.00000000</i>
   <i name="ALDAC">      1.00000000</i>
   <i name="AGGAC">      1.00000000</i>
   <i type="int" name="NKREDX">     1</i>
   <i type="int" name="NKREDY">     1</i>
   <i type="int" name="NKREDZ">     1</i>
   <i type="logical" name="SHIFTRED"> F  </i>
   <i type="logical" name="ODDONLY"> F  </i>
   <i type="logical" name="EVENONLY"> F  </i>
   <i type="int" name="LMAXFOCK">     0</i>
   <i type="int" name="NMAXFOCKAE">     0</i>
   <i type="logical" name="LFOCKAEDFT"> F  </i>
   <i name="HFSCREEN">      0.00000000</i>
   <i name="HFSCREENC">      0.00000000</i>
   <i type="int" name="NBANDSGWLOW">     0</i>
  </separator>
  <separator name="vdW DFT" >
   <i type="logical" name="LUSE_VDW"> F  </i>
   <i name="Zab_VDW">     -0.84910000</i>
   <i name="PARAM1">      0.12340000</i>
   <i name="PARAM2">      1.00000000</i>
   <i name="PARAM3">      0.00000000</i>
  </separator>
  <separator name="model GW" >
   <i type="int" name="MODEL_GW">     0</i>
   <i name="MODEL_EPS0">    144.06656494</i>
   <i name="MODEL_ALPHA">      1.00000000</i>
  </separator>
  <separator name="linear response parameters" >
   <i type="logical" name="LEPSILON"> F  </i>
   <i type="logical" name="LRPA"> F  </i>
   <i type="logical" name="LNABLA"> F  </i>
   <i type="logical" name="LVEL"> F  </i>
   <i type="int" name="KINTER">     0</i>
   <i name="CSHIFT">      0.10000000</i>
   <i name="OMEGAMAX">     -1.00000000</i>
   <i name="DEG_THRESHOLD">      0.00200000</i>
  </separator>
  <separator name="orbital magnetization" >
   <i type="logical" name="NUCIND"> F  </i>
   <v name="MAGPOS">      0.00000000      0.00000000      0.00000000</v>
   <i type="logical" name="LNICSALL"> T  </i>
   <i type="logical" name="ORBITALMAG"> F  </i>
   <i type="logical" name="LMAGBLOCH"> F  </i>
   <i type="logical" name="LCHIMAG"> F  </i>
   <i type="logical" name="LGAUGE"> T  </i>
   <i type="int" name="MAGATOM">     0</i>
   <v name="MAGDIPOL">      0.00000000      0.00000000      0.00000000</v>
   <v name="AVECCONST">      0.00000000      0.00000000      0.00000000</v>
  </separator>
  <separator name="response functions" >
   <i type="logical" name="LADDER"> F  </i>
   <i type="logical" name="LFXC"> F  </i>
   <i type="logical" name="LHARTREE"> T  </i>
   <i type="int" name="IBSE">     0</i>
   <i type="logical" name="LTCTE"> F  </i>
   <i type="logical" name="LTETE"> F  </i>
   <i type="logical" name="LTRIPLET"> F  </i>
   <i type="logical" name="LFXCEPS"> F  </i>
   <i type="logical" name="LFXHEG"> F  </i>
   <i type="logical" name="L2ORDER"> F  </i>
   <i type="logical" name="LUSEW"> F  </i>
   <i name="ENCUTGW">     -2.00000000</i>
   <i name="ENCUTGWSOFT">     -2.00000000</i>
   <i name="ENCUTLF">     -1.00000000</i>
   <i type="int" name="LMAXMP2">    -1</i>
   <i name="SCISSOR">      0.00000000</i>
   <i type="int" name="NOMEGA">     0</i>
   <i type="int" name="NOMEGAR">     0</i>
   <i type="int" name="NBANDSGW">    -1</i>
   <i type="int" name="NBANDSO">    -1</i>
   <i type="int" name="NBANDSV">    -1</i>
   <i type="int" name="NELM">     1</i>
   <i type="int" name="DIM">     3</i>
   <i type="int" name="ANTIRES">     0</i>
   <i name="OMEGAMAX">    -30.00000000</i>
   <i name="OMEGAMIN">    -30.00000000</i>
   <i name="OMEGATL">   -200.00000000</i>
   <i type="int" name="OMEGAGRID">     0</i>
   <i name="CSHIFT">     -0.10000000</i>
   <i type="logical" name="SELFENERGY"> F  </i>
   <i type="logical" name="LSPECTRAL"> F  </i>
   <i type="logical" name="ODDONLYGW"> F  </i>
   <i type="logical" name="EVENONLYGW"> F  </i>
   <i type="int" name="NKREDLFX">     1</i>
   <i type="int" name="NKREDLFY">     1</i>
   <i type="int" name="NKREDLFZ">     1</i>
   <i type="int" name="MAXMEM">  1800</i>
   <i type="int" name="TELESCOPE">     0</i>
   <i type="int" name="TAUPAR">     1</i>
  </separator>
  <separator name="External order field" >
   <i name="OFIELD_KAPPA">      0.00000000</i>
   <v name="OFIELD_K">      0.00000000      0.00000000      0.00000000</v>
   <i name="OFIELD_Q6_NEAR">      0.00000000</i>
   <i name="OFIELD_Q6_FAR">      0.00000000</i>
   <i name="OFIELD_A">      0.00000000</i>
  </separator>
 </parameters>
 <atominfo>
  <atoms>      55 </atoms>
  <types>       1 </types>
  <array name="atoms" >
   <dimension dim="1">ion</dimension>
   <field type="string">element</field>
   <field type="int">atomtype</field>
   <set>
    <rc><c>Ag</c><c>   1</c></rc>
    <rc><c>Ag</c><c>   1</c></rc>
    <rc><c>Ag</c><c>   1</c></rc>
    <rc><c>Ag</c><c>   1</c></rc>
    <rc><c>Ag</c><c>   1</c></rc>
    <rc><c>Ag</c><c>   1</c></rc>
    <rc><c>Ag</c><c>   1</c></rc>
    <rc><c>Ag</c><c>   1</c></rc>
    <rc><c>Ag</c><c>   1</c></rc>
    <rc><c>Ag</c><c>   1</c></rc>
    <rc><c>Ag</c><c>   1</c></rc>
    <rc><c>Ag</c><c>   1</c></rc>
    <rc><c>Ag</c><c>   1</c></rc>
    <rc><c>Ag</c><c>   1</c></rc>
    <rc><c>Ag</c><c>   1</c></rc>
    <rc><c>Ag</c><c>   1</c></rc>
    <rc><c>Ag</c><c>   1</c></rc>
    <rc><c>Ag</c><c>   1</c></rc>
    <rc><c>Ag</c><c>   1</c></rc>
    <rc><c>Ag</c><c>   1</c></rc>
    <rc><c>Ag</c><c>   1</c></rc>
    <rc><c>Ag</c><c>   1</c></rc>
    <rc><c>Ag</c><c>   1</c></rc>
    <rc><c>Ag</c><c>   1</c></rc>
    <rc><c>Ag</c><c>   1</c></rc>
    <rc><c>Ag</c><c>   1</c></rc>
    <rc><c>Ag</c><c>   1</c></rc>
    <rc><c>Ag</c><c>   1</c></rc>
    <rc><c>Ag</c><c>   1</c></rc>
    <rc><c>Ag</c><c>   1</c></rc>
    <rc><c>Ag</c><c>   1</c></rc>
    <rc><c>Ag</c><c>   1</c></rc>
    <rc><c>Ag</c><c>   1</c></rc>
    <rc><c>Ag</c><c>   1</c></rc>
    <rc><c>Ag</c><c>   1</c></rc>
    <rc><c>Ag</c><c>   1</c></rc>
    <rc><c>Ag</c><c>   1</c></rc>
    <rc><c>Ag</c><c>   1</c></rc>
    <rc><c>Ag</c><c>   1</c></rc>
    <rc><c>Ag</c><c>   1</c></rc>
    <rc><c>Ag</c><c>   1</c></rc>
    <rc><c>Ag</c><c>   1</c></rc>
    <rc><c>Ag</c><c>   1</c></rc>
    <rc><c>Ag</c><c>   1</c></rc>
    <rc><c>Ag</c><c>   1</c></rc>
    <rc><c>Ag</c><c>   1</c></rc>
    <rc><c>Ag</c><c>   1</c></rc>
    <rc><c>Ag</c><c>   1</c></rc>
    <rc><c>Ag</c><c>   1</c></rc>
    <rc><c>Ag</c><c>   1</c></rc>
    <rc><c>Ag</c><c>   1</c></rc>
    <rc><c>Ag</c><c>   1</c></rc>
    <rc><c>Ag</c><c>   1</c></rc>
    <rc><c>Ag</c><c>   1</c></rc>
    <rc><c>Ag</c><c>   1</c></rc>
   </set>
  </array>
  <array name="atomtypes" >
   <dimension dim="1">type</dimension>
   <field type="int">atomspertype</field>
   <field type="string">element</field>
   <field>mass</field>
   <field>valence</field>
   <field type="string">pseudopotential</field>
   <set>
    <rc><c>  55</c><c>Ag</c><c>    107.86800000</c><c>     11.00000000</c><c>  PAW_PBE Ag 02Apr2005                  </c></rc>
   </set>
  </array>
 </atominfo>
 <structure name="initialpos" >
  <crystal>
   <varray name="basis" >
    <v>      23.63695600       0.00000000       0.00000000 </v>
    <v>       0.00000000      23.63695600       0.00000000 </v>
    <v>       0.00000000       0.00000000      23.63695600 </v>
   </varray>
   <i name="volume">  13206.10178656 </i>
   <varray name="rec_basis" >
    <v>       0.04230663       0.00000000       0.00000000 </v>
    <v>       0.00000000       0.04230663       0.00000000 </v>
    <v>       0.00000000       0.00000000       0.04230663 </v>
   </varray>
  </crystal>
  <varray name="positions" >
   <v>       0.29803605       0.49142962       0.41885011 </v>
   <v>       0.69905497       0.56470833       0.49391903 </v>
   <v>       0.57499904       0.37344967       0.58298595 </v>
   <v>       0.40175232       0.29119090       0.47161434 </v>
   <v>       0.58996208       0.57665938       0.57682411 </v>
   <v>       0.46618787       0.38093714       0.66376216 </v>
   <v>       0.52433571       0.47716689       0.37375221 </v>
   <v>       0.47539666       0.58368735       0.65777614 </v>
   <v>       0.57184420       0.37622989       0.45752743 </v>
   <v>       0.40516590       0.48721983       0.45740954 </v>
   <v>       0.40418688       0.48082923       0.33374823 </v>
   <v>       0.46071335       0.38273534       0.54206987 </v>
   <v>       0.30360149       0.49918087       0.65872320 </v>
   <v>       0.30056952       0.49687518       0.54398196 </v>
   <v>       0.35398809       0.39795412       0.61667925 </v>
   <v>       0.53523182       0.66849053       0.37566526 </v>
   <v>       0.42452654       0.67805996       0.33873724 </v>
   <v>       0.69708993       0.56464340       0.37718178 </v>
   <v>       0.42500306       0.68335966       0.45067728 </v>
   <v>       0.51116788       0.27995314       0.49741553 </v>
   <v>       0.59067736       0.57289215       0.45077818 </v>
   <v>       0.50776828       0.28619785       0.61384708 </v>
   <v>       0.39783224       0.29072836       0.58248445 </v>
   <v>       0.47234172       0.58594609       0.53803990 </v>
   <v>       0.63750153       0.47104805       0.53541253 </v>
   <v>       0.64022580       0.46971334       0.41004496 </v>
   <v>       0.36007700       0.58765139       0.62183409 </v>
   <v>       0.52607697       0.47770835       0.62166826 </v>
   <v>       0.52542263       0.47691414       0.49673121 </v>
   <v>       0.57587716       0.38563943       0.69812778 </v>
   <v>       0.41486021       0.48993312       0.69540651 </v>
   <v>       0.40897609       0.48961544       0.58007885 </v>
   <v>       0.70005896       0.57293810       0.61682410 </v>
   <v>       0.65129473       0.66309393       0.53154340 </v>
   <v>       0.65299503       0.66158644       0.40973423 </v>
   <v>       0.59067536       0.57354150       0.69248143 </v>
   <v>       0.54219385       0.67527774       0.61413179 </v>
   <v>       0.53809595       0.67605597       0.49313881 </v>
   <v>       0.47210795       0.57412392       0.30248050 </v>
   <v>       0.45352154       0.38105098       0.41558937 </v>
   <v>       0.43001205       0.68256446       0.57506886 </v>
   <v>       0.46730780       0.38793514       0.29833964 </v>
   <v>       0.34229783       0.38885522       0.49751943 </v>
   <v>       0.63800203       0.47495011       0.65590801 </v>
   <v>       0.57185818       0.37035672       0.33618179 </v>
   <v>       0.59181123       0.56835169       0.32948949 </v>
   <v>       0.52902802       0.47908801       0.73728862 </v>
   <v>       0.52147058       0.47435470       0.25427371 </v>
   <v>       0.47092913       0.58161243       0.41556340 </v>
   <v>       0.65342960       0.66407295       0.65064328 </v>
   <v>       0.62659044       0.46465540       0.29575323 </v>
   <v>       0.35967740       0.59024879       0.49858041 </v>
   <v>       0.34141162       0.39741770       0.38256041 </v>
   <v>       0.51134271       0.28921887       0.38560232 </v>
   <v>       0.36343759       0.58990114       0.37754942 </v>
  </varray>
 </structure>
 <calculation>
  <scstep>
   <time name="dav">    7.40    7.40</time>
   <time name="total">    7.66    7.69</time>
   <energy>
    <i name="alphaZ">    194.83407748 </i>
    <i name="ewald"> 170587.91275790 </i>
    <i name="hartreedc">-225532.36839972 </i>
    <i name="XCdc">   -599.25898324 </i>
    <i name="pawpsdc">  55185.46979383 </i>
    <i name="pawaedc"> -52649.55348834 </i>
    <i name="eentropy">      0.00000000 </i>
    <i name="bandstr">    733.68696617 </i>
    <i name="atom">  57045.92465475 </i>
    <i name="e_fr_energy">   4966.64737883 </i>
    <i name="e_wo_entrp">   4966.64737883 </i>
    <i name="e_0_energy">   4966.64737883 </i>
   </energy>
  </scstep>
  <scstep>
   <time name="dav">   10.70   10.71</time>
   <time name="total">   10.71   10.74</time>
   <energy>
    <i name="e_fr_energy">    709.29315571 </i>
    <i name="e_wo_entrp">    709.29315571 </i>
    <i name="e_0_energy">    709.29315571 </i>
   </energy>
  </scstep>
  <scstep>
   <time name="dav">    8.70    8.71</time>
   <time name="total">    8.70    8.71</time>
   <energy>
    <i name="e_fr_energy">    -92.81322164 </i>
    <i name="e_wo_entrp">    -92.81322164 </i>
    <i name="e_0_energy">    -92.81322164 </i>
   </energy>
  </scstep>
  <scstep>
   <time name="dav">    7.91    7.91</time>
   <time name="total">    7.91    8.19</time>
   <energy>
    <i name="e_fr_energy">   -120.35420717 </i>
    <i name="e_wo_entrp">   -120.35420717 </i>
    <i name="e_0_energy">   -120.35420717 </i>
   </energy>
  </scstep>
  <scstep>
   <time name="dav">    8.07    8.07</time>
   <time name="total">    8.24    8.29</time>
   <energy>
    <i name="e_fr_energy">   -120.77916866 </i>
    <i name="e_wo_entrp">   -120.77916866 </i>
    <i name="e_0_energy">   -120.77916866 </i>
   </energy>
  </scstep>
  <scstep>
   <time name="dav">    7.52    7.52</time>
   <time name="total">    7.94    7.95</time>
   <energy>
    <i name="e_fr_energy">    -56.30009598 </i>
    <i name="e_wo_entrp">    -56.30009598 </i>
    <i name="e_0_energy">    -56.30009598 </i>
   </energy>
  </scstep>
  <scstep>
   <time name="dav">    7.82    7.83</time>
   <time name="total">    8.25    8.26</time>
   <energy>
    <i name="e_fr_energy">    -48.16054367 </i>
    <i name="e_wo_entrp">    -48.16054367 </i>
    <i name="e_0_energy">    -48.16054367 </i>
   </energy>
  </scstep>
  <scstep>
   <time name="dav">    7.86    7.86</time>
   <time name="total">    8.28    8.31</time>
   <energy>
    <i name="e_fr_energy">    -38.20295427 </i>
    <i name="e_wo_entrp">    -38.20295427 </i>
    <i name="e_0_energy">    -38.20295427 </i>
   </energy>
  </scstep>
  <scstep>
   <time name="dav">    8.01    8.02</time>
   <time name="total">    8.43    8.44</time>
   <energy>
    <i name="e_fr_energy">    -43.04227987 </i>
    <i name="e_wo_entrp">    -43.04227987 </i>
    <i name="e_0_energy">    -43.04227987 </i>
   </energy>
  </scstep>
  <scstep>
   <time name="dav">    7.67    7.68</time>
   <time name="total">    8.09    8.15</time>
   <energy>
    <i name="e_fr_energy">    -51.22705192 </i>
    <i name="e_wo_entrp">    -51.22705192 </i>
    <i name="e_0_energy">    -51.22705192 </i>
   </energy>
  </scstep>
  <scstep>
   <time name="dav">    7.72    7.73</time>
   <time name="total">    8.15    8.18</time>
   <energy>
    <i name="e_fr_energy">    -69.35695093 </i>
    <i name="e_wo_entrp">    -69.35695093 </i>
    <i name="e_0_energy">    -69.35695093 </i>
   </energy>
  </scstep>
  <scstep>
   <time name="dav">    7.68    7.68</time>
   <time name="total">    8.10    9.23</time>
   <energy>
    <i name="e_fr_energy">    -82.87750426 </i>
    <i name="e_wo_entrp">    -82.87750426 </i>
    <i name="e_0_energy">    -82.87750426 </i>
   </energy>
  </scstep>
  <scstep>
   <time name="dav">    7.77    7.78</time>
   <time name="total">    8.20    8.23</time>
   <energy>
    <i name="e_fr_energy">    -90.66063482 </i>
    <i name="e_wo_entrp">    -90.66063482 </i>
    <i name="e_0_energy">    -90.66063482 </i>
   </energy>
  </scstep>
  <scstep>
   <time name="dav">    7.89    7.89</time>
   <time name="total">    8.31    8.34</time>
   <energy>
    <i name="e_fr_energy">    -95.75068169 </i>
    <i name="e_wo_entrp">    -95.75068169 </i>
    <i name="e_0_energy">    -95.75068169 </i>
   </energy>
  </scstep>
  <scstep>
   <time name="dav">    7.69    7.70</time>
   <time name="total">    8.12    8.82</time>
   <energy>
    <i name="e_fr_energy">   -104.43424512 </i>
    <i name="e_wo_entrp">   -104.43424512 </i>
    <i name="e_0_energy">   -104.43424512 </i>
   </energy>
  </scstep>
  <scstep>
   <time name="dav">    7.74    7.75</time>
   <time name="total">    8.16    8.19</time>
   <energy>
    <i name="e_fr_energy">   -110.72197442 </i>
    <i name="e_wo_entrp">   -110.72197442 </i>
    <i name="e_0_energy">   -110.72197442 </i>
   </energy>
  </scstep>
  <scstep>
   <time name="dav">    7.77    7.78</time>
   <time name="total">    8.20    8.23</time>
   <energy>
    <i name="e_fr_energy">   -113.37399162 </i>
    <i name="e_wo_entrp">   -113.37399162 </i>
    <i name="e_0_energy">   -113.37399162 </i>
   </energy>
  </scstep>
  <scstep>
   <time name="dav">    8.01    8.02</time>
   <time name="total">    8.44    8.45</time>
   <energy>
    <i name="e_fr_energy">   -113.84339097 </i>
    <i name="e_wo_entrp">   -113.84339097 </i>
    <i name="e_0_energy">   -113.84339097 </i>
   </energy>
  </scstep>
  <scstep>
   <time name="dav">    7.64    7.65</time>
   <time name="total">    8.07    8.21</time>
   <energy>
    <i name="e_fr_energy">   -115.15360826 </i>
    <i name="e_wo_entrp">   -115.15360826 </i>
    <i name="e_0_energy">   -115.15360826 </i>
   </energy>
  </scstep>
  <scstep>
   <time name="dav">    7.69    7.70</time>
   <time name="total">    8.12    8.18</time>
   <energy>
    <i name="e_fr_energy">   -117.47510758 </i>
    <i name="e_wo_entrp">   -117.47510758 </i>
    <i name="e_0_energy">   -117.47510758 </i>
   </energy>
  </scstep>
  <scstep>
   <time name="dav">    7.86    7.87</time>
   <time name="total">    8.30    9.28</time>
   <energy>
    <i name="e_fr_energy">   -117.98230651 </i>
    <i name="e_wo_entrp">   -117.98230651 </i>
    <i name="e_0_energy">   -117.98230651 </i>
   </energy>
  </scstep>
  <scstep>
   <time name="dav">    7.72    7.73</time>
   <time name="total">    8.15    8.16</time>
   <energy>
    <i name="e_fr_energy">   -118.33382531 </i>
    <i name="e_wo_entrp">   -118.33382531 </i>
    <i name="e_0_energy">   -118.33382531 </i>
   </energy>
  </scstep>
  <scstep>
   <time name="dav">    7.83    7.84</time>
   <time name="total">    8.26    8.29</time>
   <energy>
    <i name="e_fr_energy">   -118.61085190 </i>
    <i name="e_wo_entrp">   -118.61085190 </i>
    <i name="e_0_energy">   -118.61085190 </i>
   </energy>
  </scstep>
  <scstep>
   <time name="dav">    5.93    5.94</time>
   <time name="total">    6.36    6.37</time>
   <energy>
    <i name="e_fr_energy">   -118.64953689 </i>
    <i name="e_wo_entrp">   -118.64953689 </i>
    <i name="e_0_energy">   -118.64953689 </i>
   </energy>
  </scstep>
  <scstep>
   <time name="dav">    6.58    6.58</time>
   <time name="total">    7.01    7.02</time>
   <energy>
    <i name="e_fr_energy">   -118.69660010 </i>
    <i name="e_wo_entrp">   -118.69660010 </i>
    <i name="e_0_energy">   -118.69660010 </i>
   </energy>
  </scstep>
  <scstep>
   <time name="dav">    5.87    5.87</time>
   <time name="total">    6.30    6.30</time>
   <energy>
    <i name="e_fr_energy">   -118.72050107 </i>
    <i name="e_wo_entrp">   -118.72050107 </i>
    <i name="e_0_energy">   -118.72050107 </i>
   </energy>
  </scstep>
  <scstep>
   <time name="dav">    5.87    5.87</time>
   <time name="total">    6.30    6.33</time>
   <energy>
    <i name="e_fr_energy">   -118.72796732 </i>
    <i name="e_wo_entrp">   -118.72796732 </i>
    <i name="e_0_energy">   -118.72796732 </i>
   </energy>
  </scstep>
  <scstep>
   <time name="dav">    5.69    5.70</time>
   <time name="total">    6.12    6.18</time>
   <energy>
    <i name="e_fr_energy">   -118.73636360 </i>
    <i name="e_wo_entrp">   -118.73636360 </i>
    <i name="e_0_energy">   -118.73636360 </i>
   </energy>
  </scstep>
  <scstep>
   <time name="dav">    5.75    5.75</time>
   <time name="total">    6.18    6.18</time>
   <energy>
    <i name="e_fr_energy">   -118.74134199 </i>
    <i name="e_wo_entrp">   -118.74134199 </i>
    <i name="e_0_energy">   -118.74134199 </i>
   </energy>
  </scstep>
  <scstep>
   <time name="dav">    5.69    5.70</time>
   <time name="total">    6.12    6.13</time>
   <energy>
    <i name="e_fr_energy">   -118.74298061 </i>
    <i name="e_wo_entrp">   -118.74298061 </i>
    <i name="e_0_energy">   -118.74298061 </i>
   </energy>
  </scstep>
  <scstep>
   <time name="dav">    5.54    5.55</time>
   <time name="total">    5.97    6.71</time>
   <energy>
    <i name="e_fr_energy">   -118.74433068 </i>
    <i name="e_wo_entrp">   -118.74433068 </i>
    <i name="e_0_energy">   -118.74433068 </i>
   </energy>
  </scstep>
  <scstep>
   <time name="dav">    5.49    5.49</time>
   <time name="total">    5.92    5.93</time>
   <energy>
    <i name="e_fr_energy">   -118.74467918 </i>
    <i name="e_wo_entrp">   -118.74467918 </i>
    <i name="e_0_energy">   -118.74467918 </i>
   </energy>
  </scstep>
  <scstep>
   <time name="dav">    5.52    5.52</time>
   <time name="total">    5.95    5.96</time>
   <energy>
    <i name="e_fr_energy">   -118.74482960 </i>
    <i name="e_wo_entrp">   -118.74482960 </i>
    <i name="e_0_energy">   -118.74482960 </i>
   </energy>
  </scstep>
  <scstep>
   <time name="dav">    5.49    5.49</time>
   <time name="total">    5.92    6.36</time>
   <energy>
    <i name="e_fr_energy">   -118.74498042 </i>
    <i name="e_wo_entrp">   -118.74498042 </i>
    <i name="e_0_energy">   -118.74498042 </i>
   </energy>
  </scstep>
  <scstep>
   <time name="dav">    5.37    5.38</time>
   <time name="total">    5.80    5.94</time>
   <energy>
    <i name="e_fr_energy">   -118.74509106 </i>
    <i name="e_wo_entrp">   -118.74509106 </i>
    <i name="e_0_energy">   -118.74509106 </i>
   </energy>
  </scstep>
  <scstep>
   <time name="dav">    5.40    5.41</time>
   <time name="total">    5.65    5.70</time>
   <energy>
    <i name="alphaZ">    194.83407748 </i>
    <i name="ewald"> 170587.91275790 </i>
    <i name="hartreedc">-225437.43426194 </i>
    <i name="XCdc">   -621.78542512 </i>
    <i name="pawpsdc">  59531.76163597 </i>
    <i name="pawaedc"> -57097.10828078 </i>
    <i name="eentropy">      0.00000000 </i>
    <i name="bandstr">  -4322.85029339 </i>
    <i name="atom">  57045.92465475 </i>
    <i name="e_fr_energy">   -118.74513512 </i>
    <i name="e_wo_entrp">   -118.74513512 </i>
    <i name="e_0_energy">   -118.74513512 </i>
   </energy>
  </scstep>
  <structure>
   <crystal>
    <varray name="basis" >
     <v>      23.63695600       0.00000000       0.00000000 </v>
     <v>       0.00000000      23.63695600       0.00000000 </v>
     <v>       0.00000000       0.00000000      23.63695600 </v>
    </varray>
    <i name="volume">  13206.10178656 </i>
    <varray name="rec_basis" >
     <v>       0.04230663       0.00000000       0.00000000 </v>
     <v>       0.00000000       0.04230663       0.00000000 </v>
     <v>       0.00000000       0.00000000       0.04230663 </v>
    </varray>
   </crystal>
   <varray name="positions" >
    <v>       0.29803605       0.49142962       0.41885011 </v>
    <v>       0.69905497       0.56470833       0.49391903 </v>
    <v>       0.57499904       0.37344967       0.58298595 </v>
    <v>       0.40175232       0.29119090       0.47161434 </v>
    <v>       0.58996208       0.57665938       0.57682411 </v>
    <v>       0.46618787       0.38093714       0.66376216 </v>
    <v>       0.52433571       0.47716689       0.37375221 </v>
    <v>       0.47539666       0.58368735       0.65777614 </v>
    <v>       0.57184420       0.37622989       0.45752743 </v>
    <v>       0.40516590       0.48721983       0.45740954 </v>
    <v>       0.40418688       0.48082923       0.33374823 </v>
    <v>       0.46071335       0.38273534       0.54206987 </v>
    <v>       0.30360149       0.49918087       0.65872320 </v>
    <v>       0.30056952       0.49687518       0.54398196 </v>
    <v>       0.35398809       0.39795412       0.61667925 </v>
    <v>       0.53523182       0.66849053       0.37566526 </v>
    <v>       0.42452654       0.67805996       0.33873724 </v>
    <v>       0.69708993       0.56464340       0.37718178 </v>
    <v>       0.42500306       0.68335966       0.45067728 </v>
    <v>       0.51116788       0.27995314       0.49741553 </v>
    <v>       0.59067736       0.57289215       0.45077818 </v>
    <v>       0.50776828       0.28619785       0.61384708 </v>
    <v>       0.39783224       0.29072836       0.58248445 </v>
    <v>       0.47234172       0.58594609       0.53803990 </v>
    <v>       0.63750153       0.47104805       0.53541253 </v>
    <v>       0.64022580       0.46971334       0.41004496 </v>
    <v>       0.36007700       0.58765139       0.62183409 </v>
    <v>       0.52607697       0.47770835       0.62166826 </v>
    <v>       0.52542263       0.47691414       0.49673121 </v>
    <v>       0.57587716       0.38563943       0.69812778 </v>
    <v>       0.41486021       0.48993312       0.69540651 </v>
    <v>       0.40897609       0.48961544       0.58007885 </v>
    <v>       0.70005896       0.57293810       0.61682410 </v>
    <v>       0.65129473       0.66309393       0.53154340 </v>
    <v>       0.65299503       0.66158644       0.40973423 </v>
    <v>       0.59067536       0.57354150       0.69248143 </v>
    <v>       0.54219385       0.67527774       0.61413179 </v>
    <v>       0.53809595       0.67605597       0.49313881 </v>
    <v>       0.47210795       0.57412392       0.30248050 </v>
    <v>       0.45352154       0.38105098       0.41558937 </v>
    <v>       0.43001205       0.68256446       0.57506886 </v>
    <v>       0.46730780       0.38793514       0.29833964 </v>
    <v>       0.34229783       0.38885522       0.49751943 </v>
    <v>       0.63800203       0.47495011       0.65590801 </v>
    <v>       0.57185818       0.37035672       0.33618179 </v>
    <v>       0.59181123       0.56835169       0.32948949 </v>
    <v>       0.52902802       0.47908801       0.73728862 </v>
    <v>       0.52147058       0.47435470       0.25427371 </v>
    <v>       0.47092913       0.58161243       0.41556340 </v>
    <v>       0.65342960       0.66407295       0.65064328 </v>
    <v>       0.62659044       0.46465540       0.29575323 </v>
    <v>       0.35967740       0.59024879       0.49858041 </v>
    <v>       0.34141162       0.39741770       0.38256041 </v>
    <v>       0.51134271       0.28921887       0.38560232 </v>
    <v>       0.36343759       0.58990114       0.37754942 </v>
   </varray>
  </structure>
  <varray name="forces" >
   <v>      -0.21809984       0.87191548       0.40647587 </v>
   <v>       0.12929196      -0.28618835       0.10041632 </v>
   <v>       0.33494130       0.34185359      -0.60515361 </v>
   <v>      -0.38560390       0.02344868      -0.82779461 </v>
   <v>      -0.15781104      -0.60058109      -0.37906342 </v>
   <v>      -0.48934442       0.26198738       0.08807979 </v>
   <v>      -0.24705208      -0.03440573       0.16591567 </v>
   <v>       0.06666452       0.08766290      -0.03242340 </v>
   <v>       0.02749866       0.17925864       0.09523011 </v>
   <v>       0.53670011      -0.15941136       0.12217614 </v>
   <v>       0.18282911       0.27551308       0.07208332 </v>
   <v>      -0.09055965       0.19883942      -0.23339484 </v>
   <v>      -0.24842078      -0.44626419       0.32045725 </v>
   <v>      -0.12925974      -0.08404432      -0.51153764 </v>
   <v>      -0.07478261      -0.24799647       0.15494991 </v>
   <v>       0.30269498      -0.06682581      -0.13226490 </v>
   <v>       0.10520347       0.12401761      -0.50707641 </v>
   <v>       0.36552371      -0.54852365      -0.27908183 </v>
   <v>      -0.02383989      -0.10074559       0.66644377 </v>
   <v>       0.42729713       0.13204040       0.54211876 </v>
   <v>      -0.43236576      -0.08873958       0.21405632 </v>
   <v>       0.31864905      -0.24259646       0.21911786 </v>
   <v>      -0.28382905       0.29565316       0.43162356 </v>
   <v>       0.32763268      -0.58570975      -0.22518674 </v>
   <v>      -0.23398202      -0.11878117      -0.11844555 </v>
   <v>      -0.14334151      -0.39432219       0.60063238 </v>
   <v>       0.41780110       0.55253459      -0.38120682 </v>
   <v>      -0.19263382       0.22838087      -0.39926574 </v>
   <v>      -0.40438874       0.26755504       0.00829177 </v>
   <v>       0.31898779      -0.60282931      -0.12162773 </v>
   <v>       0.16633042      -0.23067115       0.12223094 </v>
   <v>       0.73173690       0.17228943      -0.41635974 </v>
   <v>       0.25892592      -1.06873248      -0.53159969 </v>
   <v>      -0.04172181       0.35703183      -0.01037849 </v>
   <v>      -0.46634560       0.46910036       0.25919705 </v>
   <v>      -0.19410292       0.19691493       0.25916183 </v>
   <v>      -0.03923375      -0.02742992      -0.01032190 </v>
   <v>      -0.01526735      -0.01169252       0.09601239 </v>
   <v>       0.11133675      -0.02342504      -0.28644502 </v>
   <v>       0.08116470       0.53749332       0.32801118 </v>
   <v>      -0.24332292      -0.00776014      -0.06696669 </v>
   <v>      -0.77568741      -0.49228566       0.11704286 </v>
   <v>       0.09455544       0.17417912       0.30313998 </v>
   <v>       0.22464844      -0.15504235      -0.22008558 </v>
   <v>       0.61680936       0.32197067       0.17206246 </v>
   <v>      -0.39290940       0.38519229      -0.06852426 </v>
   <v>      -0.34734652       0.58597308       0.03790973 </v>
   <v>      -0.17495440       0.58737436      -0.06854093 </v>
   <v>       0.33542630      -0.45735284       0.64371221 </v>
   <v>      -0.41845006       1.02064933       0.38757771 </v>
   <v>       0.52181557      -0.07761558      -0.02551678 </v>
   <v>      -0.02826357       0.17149632       0.02862370 </v>
   <v>       0.39766354      -0.85977298      -0.32445827 </v>
   <v>      -0.12525474      -0.35394235      -0.28841223 </v>
   <v>      -0.38395362      -0.44663785       0.10838200 </v>
  </varray>
  <varray name="stress" >
   <v>      -2.33258546      -0.47764983      -0.14933641 </v>
   <v>      -0.47764982      -2.17268845       0.08718083 </v>
   <v>      -0.14933641       0.08718083      -2.84703501 </v>
  </varray>
  <energy>
   <i name="e_fr_energy">   -118.74513512 </i>
   <i name="e_wo_entrp">   -118.74513512 </i>
   <i name="e_0_energy">      0.00000000 </i>
  </energy>
  <time name="totalsc">  285.70  290.93</time>
 </calculation>
 <calculation>
  <scstep>
   <time name="dav">    7.66    7.67</time>
   <time name="total">    8.09    8.10</time>
   <energy>
    <i name="alphaZ">    194.83407748 </i>
    <i name="ewald"> 170558.43868338 </i>
    <i name="hartreedc">-225409.46430746 </i>
    <i name="XCdc">   -621.99084304 </i>
    <i name="pawpsdc">  59531.75830188 </i>
    <i name="pawaedc"> -57097.10511052 </i>
    <i name="eentropy">      0.00000000 </i>
    <i name="bandstr">  -4321.32434214 </i>
    <i name="atom">  57045.92465475 </i>
    <i name="e_fr_energy">   -118.92888567 </i>
    <i name="e_wo_entrp">   -118.92888567 </i>
    <i name="e_0_energy">   -118.92888567 </i>
   </energy>
  </scstep>
  <scstep>
   <time name="dav">    7.69    7.70</time>
   <time name="total">    8.11    8.17</time>
   <energy>
    <i name="e_fr_energy">   -118.93490790 </i>
    <i name="e_wo_entrp">   -118.93490790 </i>
    <i name="e_0_energy">   -118.93490790 </i>
   </energy>
  </scstep>
  <scstep>
   <time name="dav">    7.81    7.81</time>
   <time name="total">    8.23    8.24</time>
   <energy>
    <i name="e_fr_energy">   -118.93473827 </i>
    <i name="e_wo_entrp">   -118.93473827 </i>
    <i name="e_0_energy">   -118.93473827 </i>
   </energy>
  </scstep>
  <scstep>
   <time name="dav">    6.80    6.81</time>
   <time name="total">    7.05    7.06</time>
   <energy>
    <i name="alphaZ">    194.83407748 </i>
    <i name="ewald"> 170558.43868338 </i>
    <i name="hartreedc">-225410.83140712 </i>
    <i name="XCdc">   -621.96313413 </i>
    <i name="pawpsdc">  59494.76219751 </i>
    <i name="pawaedc"> -57059.58950712 </i>
    <i name="eentropy">      0.00000000 </i>
    <i name="bandstr">  -4320.51025302 </i>
    <i name="atom">  57045.92465475 </i>
    <i name="e_fr_energy">   -118.93468828 </i>
    <i name="e_wo_entrp">   -118.93468828 </i>
    <i name="e_0_energy">   -118.93468828 </i>
   </energy>
  </scstep>
  <structure>
   <crystal>
    <varray name="basis" >
     <v>      23.63695600       0.00000000       0.00000000 </v>
     <v>       0.00000000      23.63695600       0.00000000 </v>
     <v>       0.00000000       0.00000000      23.63695600 </v>
    </varray>
    <i name="volume">  13206.10178656 </i>
    <varray name="rec_basis" >
     <v>       0.04230663       0.00000000       0.00000000 </v>
     <v>       0.00000000       0.04230663       0.00000000 </v>
     <v>       0.00000000       0.00000000       0.04230663 </v>
    </varray>
   </crystal>
   <varray name="positions" >
    <v>       0.29794703       0.49178554       0.41901603 </v>
    <v>       0.69910774       0.56459151       0.49396002 </v>
    <v>       0.57513576       0.37358921       0.58273892 </v>
    <v>       0.40159492       0.29120047       0.47127643 </v>
    <v>       0.58989766       0.57641422       0.57666938 </v>
    <v>       0.46598812       0.38104408       0.66379811 </v>
    <v>       0.52423487       0.47715284       0.37381994 </v>
    <v>       0.47542387       0.58372313       0.65776291 </v>
    <v>       0.57185542       0.37630306       0.45756630 </v>
    <v>       0.40538498       0.48715476       0.45745942 </v>
    <v>       0.40426151       0.48094169       0.33377765 </v>
    <v>       0.46067638       0.38281650       0.54197460 </v>
    <v>       0.30350008       0.49899871       0.65885400 </v>
    <v>       0.30051676       0.49684087       0.54377315 </v>
    <v>       0.35395757       0.39785288       0.61674250 </v>
    <v>       0.53535538       0.66846325       0.37561127 </v>
    <v>       0.42456948       0.67811059       0.33853025 </v>
    <v>       0.69723914       0.56441949       0.37706786 </v>
    <v>       0.42499333       0.68331854       0.45094932 </v>
    <v>       0.51134231       0.28000703       0.49763682 </v>
    <v>       0.59050087       0.57285592       0.45086555 </v>
    <v>       0.50789836       0.28609882       0.61393652 </v>
    <v>       0.39771638       0.29084904       0.58266063 </v>
    <v>       0.47247546       0.58570701       0.53794798 </v>
    <v>       0.63740602       0.47099957       0.53536418 </v>
    <v>       0.64016729       0.46955238       0.41029014 </v>
    <v>       0.36024755       0.58787693       0.62167848 </v>
    <v>       0.52599834       0.47780157       0.62150528 </v>
    <v>       0.52525756       0.47702336       0.49673460 </v>
    <v>       0.57600737       0.38539336       0.69807814 </v>
    <v>       0.41492810       0.48983896       0.69545640 </v>
    <v>       0.40927479       0.48968577       0.57990890 </v>
    <v>       0.70016465       0.57250185       0.61660710 </v>
    <v>       0.65127770       0.66323967       0.53153916 </v>
    <v>       0.65280467       0.66177792       0.40984003 </v>
    <v>       0.59059613       0.57362188       0.69258722 </v>
    <v>       0.54217784       0.67526655       0.61412758 </v>
    <v>       0.53808972       0.67605119       0.49317800 </v>
    <v>       0.47215340       0.57411435       0.30236357 </v>
    <v>       0.45355467       0.38127038       0.41572326 </v>
    <v>       0.42991273       0.68256129       0.57504153 </v>
    <v>       0.46699116       0.38773419       0.29838742 </v>
    <v>       0.34233643       0.38892632       0.49764317 </v>
    <v>       0.63809373       0.47488682       0.65581817 </v>
    <v>       0.57210996       0.37048814       0.33625203 </v>
    <v>       0.59165084       0.56850892       0.32946151 </v>
    <v>       0.52888624       0.47932721       0.73730409 </v>
    <v>       0.52139916       0.47459447       0.25424574 </v>
    <v>       0.47106605       0.58142574       0.41582616 </v>
    <v>       0.65325879       0.66448958       0.65080148 </v>
    <v>       0.62680345       0.46462372       0.29574281 </v>
    <v>       0.35966586       0.59031879       0.49859209 </v>
    <v>       0.34157395       0.39706674       0.38242796 </v>
    <v>       0.51129158       0.28907439       0.38548459 </v>
    <v>       0.36328087       0.58971882       0.37759366 </v>
   </varray>
  </structure>
  <varray name="forces" >
   <v>      -0.15791148       0.77834225       0.37650005 </v>
   <v>       0.11049013      -0.27102910       0.08287419 </v>
   <v>       0.31222001       0.32253865      -0.57638777 </v>
   <v>      -0.34652671       0.02775979      -0.76610642 </v>
   <v>      -0.13565729      -0.56271306      -0.35078174 </v>
   <v>      -0.45237225       0.24540306       0.07955579 </v>
   <v>      -0.23203207      -0.03671113       0.14899713 </v>
   <v>       0.06306622       0.08443077      -0.02974452 </v>
   <v>       0.02292549       0.17373243       0.09121555 </v>
   <v>       0.49493874      -0.15391655       0.10987606 </v>
   <v>       0.17112393       0.25858871       0.07715862 </v>
   <v>      -0.08768056       0.17968912      -0.21986631 </v>
   <v>      -0.20365339      -0.40022336       0.27359857 </v>
   <v>      -0.10170076      -0.08172720      -0.46642360 </v>
   <v>      -0.06770359      -0.20662260       0.14905596 </v>
   <v>       0.27253448      -0.07161067      -0.12559569 </v>
   <v>       0.10099208       0.09331509      -0.44408145 </v>
   <v>       0.31187269      -0.50689518      -0.25393313 </v>
   <v>      -0.02032538      -0.11173564       0.60272462 </v>
   <v>       0.38702526       0.14244302       0.49873853 </v>
   <v>      -0.39725878      -0.08349290       0.19979714 </v>
   <v>       0.30717814      -0.20286643       0.22117222 </v>
   <v>      -0.25525533       0.29506383       0.37415763 </v>
   <v>       0.31284351      -0.54106626      -0.20440622 </v>
   <v>      -0.22564434      -0.12029293      -0.11807674 </v>
   <v>      -0.14176896      -0.37512638       0.57111391 </v>
   <v>       0.38477509       0.48508965      -0.35929300 </v>
   <v>      -0.17461819       0.21050524      -0.36908554 </v>
   <v>      -0.39243307       0.25701616       0.00538248 </v>
   <v>       0.27582871      -0.54553857      -0.12745751 </v>
   <v>       0.14853347      -0.21916379       0.10161656 </v>
   <v>       0.66676585       0.15160960      -0.38274018 </v>
   <v>       0.18350599      -0.93166691      -0.48676516 </v>
   <v>      -0.04461281       0.32760605       0.00538825 </v>
   <v>      -0.44322978       0.40264778       0.24527404 </v>
   <v>      -0.17566192       0.19296213       0.22881559 </v>
   <v>      -0.03837878      -0.03875255      -0.01681452 </v>
   <v>      -0.01472874      -0.00922342       0.09185415 </v>
   <v>       0.10017742      -0.00594301      -0.24963268 </v>
   <v>       0.10367599       0.50014120       0.31477054 </v>
   <v>      -0.22308710      -0.03308236      -0.07123470 </v>
   <v>      -0.70827702      -0.45617157       0.11971252 </v>
   <v>       0.09318336       0.17115045       0.28228994 </v>
   <v>       0.19718487      -0.15056890      -0.20940261 </v>
   <v>       0.55472345       0.30995670       0.17157986 </v>
   <v>      -0.36337883       0.35471057      -0.06179231 </v>
   <v>      -0.31878712       0.53147471       0.00483173 </v>
   <v>      -0.17242460       0.53753379      -0.03209476 </v>
   <v>       0.30589868      -0.42236065       0.58296168 </v>
   <v>      -0.35942590       0.87941998       0.33211337 </v>
   <v>       0.49427820      -0.04920785      -0.00970348 </v>
   <v>      -0.02516705       0.16062415       0.02604174 </v>
   <v>       0.36691800      -0.76368220      -0.28428390 </v>
   <v>      -0.12879824      -0.30776404      -0.25754204 </v>
   <v>      -0.33415973      -0.41459968       0.10407756 </v>
  </varray>
  <varray name="stress" >
   <v>      -2.46496714      -0.45520355      -0.13840241 </v>
   <v>      -0.45520355      -2.35129402       0.06734190 </v>
   <v>      -0.13840241       0.06734190      -2.97492723 </v>
  </varray>
  <energy>
   <i name="e_fr_energy">   -118.93468828 </i>
   <i name="e_wo_entrp">   -118.93468828 </i>
   <i name="e_0_energy">      0.00000000 </i>
  </energy>
  <time name="totalsc">   46.91   50.75</time>
 </calculation>
 <calculation>
  <scstep>
   <time name="dav">    7.49    7.49</time>
   <time name="total">    7.91    7.93</time>
   <energy>
    <i name="alphaZ">    194.83407748 </i>
    <i name="ewald"> 170473.81391890 </i>
    <i name="hartreedc">-225330.32346942 </i>
    <i name="XCdc">   -622.53480014 </i>
    <i name="pawpsdc">  59494.02222773 </i>
    <i name="pawaedc"> -57058.83733230 </i>
    <i name="eentropy">      0.00000000 </i>
    <i name="bandstr">  -4316.24500052 </i>
    <i name="atom">  57045.92465475 </i>
    <i name="e_fr_energy">   -119.34572352 </i>
    <i name="e_wo_entrp">   -119.34572352 </i>
    <i name="e_0_energy">   -119.34572352 </i>
   </energy>
  </scstep>
  <scstep>
   <time name="dav">    7.71    7.72</time>
   <time name="total">    8.14    8.60</time>
   <energy>
    <i name="e_fr_energy">   -119.39989869 </i>
    <i name="e_wo_entrp">   -119.39989869 </i>
    <i name="e_0_energy">   -119.39989869 </i>
   </energy>
  </scstep>
  <scstep>
   <time name="dav">    7.74    7.75</time>
   <time name="total">    8.16    8.21</time>
   <energy>
    <i name="e_fr_energy">   -119.39868659 </i>
    <i name="e_wo_entrp">   -119.39868659 </i>
    <i name="e_0_energy">   -119.39868659 </i>
   </energy>
  </scstep>
  <scstep>
   <time name="dav">    7.78    7.79</time>
   <time name="total">    8.21    8.27</time>
   <energy>
    <i name="e_fr_energy">   -119.39815266 </i>
    <i name="e_wo_entrp">   -119.39815266 </i>
    <i name="e_0_energy">   -119.39815266 </i>
   </energy>
  </scstep>
  <scstep>
   <time name="dav">    5.83    5.84</time>
   <time name="total">    6.08    6.11</time>
   <energy>
    <i name="alphaZ">    194.83407748 </i>
    <i name="ewald"> 170473.81391890 </i>
    <i name="hartreedc">-225334.18895495 </i>
    <i name="XCdc">   -622.45260613 </i>
    <i name="pawpsdc">  59393.57654636 </i>
    <i name="pawaedc"> -56956.93550957 </i>
    <i name="eentropy">      0.00000000 </i>
    <i name="bandstr">  -4313.97021233 </i>
    <i name="atom">  57045.92465475 </i>
    <i name="e_fr_energy">   -119.39808547 </i>
    <i name="e_wo_entrp">   -119.39808547 </i>
    <i name="e_0_energy">   -119.39808547 </i>
   </energy>
  </scstep>
  <structure>
   <crystal>
    <varray name="basis" >
     <v>      23.63695600       0.00000000       0.00000000 </v>
     <v>       0.00000000      23.63695600       0.00000000 </v>
     <v>       0.00000000       0.00000000      23.63695600 </v>
    </varray>
    <i name="volume">  13206.10178656 </i>
    <varray name="rec_basis" >
     <v>       0.04230663       0.00000000       0.00000000 </v>
     <v>       0.00000000       0.04230663       0.00000000 </v>
     <v>       0.00000000       0.00000000       0.04230663 </v>
    </varray>
   </crystal>
   <varray name="positions" >
    <v>       0.29767994       0.49285328       0.41951380 </v>
    <v>       0.69926607       0.56424105       0.49408299 </v>
    <v>       0.57554593       0.37400784       0.58199786 </v>
    <v>       0.40112271       0.29122918       0.47026272 </v>
    <v>       0.58970441       0.57567876       0.57620518 </v>
    <v>       0.46538888       0.38136490       0.66390597 </v>
    <v>       0.52393233       0.47711071       0.37402312 </v>
    <v>       0.47550551       0.58383049       0.65772320 </v>
    <v>       0.57188910       0.37652258       0.45768292 </v>
    <v>       0.40604222       0.48695955       0.45760903 </v>
    <v>       0.40448541       0.48127908       0.33386592 </v>
    <v>       0.46056548       0.38306000       0.54168878 </v>
    <v>       0.30319587       0.49845222       0.65924643 </v>
    <v>       0.30035847       0.49673795       0.54314672 </v>
    <v>       0.35386599       0.39754919       0.61693225 </v>
    <v>       0.53572605       0.66838142       0.37544930 </v>
    <v>       0.42469832       0.67826246       0.33790929 </v>
    <v>       0.69768675       0.56374778       0.37672610 </v>
    <v>       0.42496414       0.68319517       0.45176544 </v>
    <v>       0.51186557       0.28016873       0.49830070 </v>
    <v>       0.58997140       0.57274725       0.45112768 </v>
    <v>       0.50828857       0.28580174       0.61420485 </v>
    <v>       0.39736881       0.29121110       0.58318920 </v>
    <v>       0.47287667       0.58498975       0.53767222 </v>
    <v>       0.63711949       0.47085411       0.53521913 </v>
    <v>       0.63999176       0.46906950       0.41102567 </v>
    <v>       0.36075918       0.58855356       0.62121166 </v>
    <v>       0.52576244       0.47808124       0.62101634 </v>
    <v>       0.52476235       0.47735100       0.49674475 </v>
    <v>       0.57639800       0.38465514       0.69792919 </v>
    <v>       0.41513179       0.48955648       0.69560608 </v>
    <v>       0.41017086       0.48989675       0.57939903 </v>
    <v>       0.70048173       0.57119309       0.61595611 </v>
    <v>       0.65122661       0.66367689       0.53152645 </v>
    <v>       0.65223359       0.66235238       0.41015744 </v>
    <v>       0.59035843       0.57386302       0.69290459 </v>
    <v>       0.54212979       0.67523296       0.61411494 </v>
    <v>       0.53807102       0.67603687       0.49329558 </v>
    <v>       0.47228974       0.57408567       0.30201279 </v>
    <v>       0.45365407       0.38192859       0.41612494 </v>
    <v>       0.42961476       0.68255179       0.57495952 </v>
    <v>       0.46604127       0.38713134       0.29853075 </v>
    <v>       0.34245222       0.38913961       0.49801439 </v>
    <v>       0.63836883       0.47469696       0.65554866 </v>
    <v>       0.57286530       0.37088243       0.33646273 </v>
    <v>       0.59116969       0.56898063       0.32937760 </v>
    <v>       0.52846088       0.48004478       0.73735051 </v>
    <v>       0.52118492       0.47531376       0.25416180 </v>
    <v>       0.47147681       0.58086567       0.41661444 </v>
    <v>       0.65274636       0.66573945       0.65127611 </v>
    <v>       0.62744246       0.46452867       0.29571156 </v>
    <v>       0.35963125       0.59052880       0.49862715 </v>
    <v>       0.34206092       0.39601387       0.38203063 </v>
    <v>       0.51113820       0.28864096       0.38513140 </v>
    <v>       0.36281068       0.58917187       0.37772638 </v>
   </varray>
  </structure>
  <varray name="forces" >
   <v>      -0.00178366       0.53929381       0.29904417 </v>
   <v>       0.05676732      -0.22734100       0.02934079 </v>
   <v>       0.24575465       0.26191907      -0.48906992 </v>
   <v>      -0.23791644       0.04343772      -0.59923403 </v>
   <v>      -0.07087424      -0.45023921      -0.26743677 </v>
   <v>      -0.34292272       0.19571412       0.05521831 </v>
   <v>      -0.18625175      -0.04302840       0.09896177 </v>
   <v>       0.05248765       0.07464828      -0.02167799 </v>
   <v>       0.00967347       0.15612314       0.07866971 </v>
   <v>       0.36428838      -0.13354740       0.07261172 </v>
   <v>       0.13695335       0.20668782       0.09002820 </v>
   <v>      -0.07795490       0.12312338      -0.17814855 </v>
   <v>      -0.08166305      -0.27873737       0.14592969 </v>
   <v>      -0.02560444      -0.07387667      -0.33348779 </v>
   <v>      -0.05105801      -0.08789054       0.13392428 </v>
   <v>       0.18171266      -0.08245215      -0.10580185 </v>
   <v>       0.09020776       0.00759944      -0.27370489 </v>
   <v>       0.16068264      -0.39554821      -0.18271061 </v>
   <v>      -0.01041421      -0.14070028       0.42433683 </v>
   <v>       0.27734827       0.16950824       0.37458594 </v>
   <v>      -0.29103136      -0.06791159       0.15601382 </v>
   <v>       0.27241962      -0.08941599       0.22696234 </v>
   <v>      -0.17167727       0.28839384       0.21847239 </v>
   <v>       0.26770328      -0.40387645      -0.14037064 </v>
   <v>      -0.19611840      -0.12417549      -0.11559836 </v>
   <v>      -0.13357585      -0.31726450       0.47962272 </v>
   <v>       0.29684542       0.29823544      -0.29811124 </v>
   <v>      -0.12099720       0.15678427      -0.27844385 </v>
   <v>      -0.35172464       0.22114551      -0.00368636 </v>
   <v>       0.15754568      -0.38897827      -0.14922720 </v>
   <v>       0.09380441      -0.18283125       0.04230253 </v>
   <v>       0.47442884       0.09275182      -0.28047410 </v>
   <v>      -0.00323214      -0.59491651      -0.37226865 </v>
   <v>      -0.05315337       0.24190510       0.05064069 </v>
   <v>      -0.37767901       0.22528025       0.20827230 </v>
   <v>      -0.12341443       0.18192121       0.14109566 </v>
   <v>      -0.03598813      -0.06983975      -0.03479133 </v>
   <v>      -0.01267394      -0.00167520       0.07937760 </v>
   <v>       0.06581458       0.04714026      -0.14553860 </v>
   <v>       0.16512765       0.38676743       0.27155730 </v>
   <v>      -0.16223395      -0.10173814      -0.07968282 </v>
   <v>      -0.52823999      -0.35434183       0.13036685 </v>
   <v>       0.08874394       0.15872997       0.21997259 </v>
   <v>       0.11679420      -0.14051298      -0.17776142 </v>
   <v>       0.37800201       0.27141783       0.17232194 </v>
   <v>      -0.27500425       0.26518306      -0.04262957 </v>
   <v>      -0.23933881       0.38396696      -0.08467318 </v>
   <v>      -0.15871421       0.39923845       0.06719126 </v>
   <v>       0.22058677      -0.32040788       0.40300834 </v>
   <v>      -0.21417269       0.51967044       0.19044630 </v>
   <v>       0.41563397       0.03339043       0.03532772 </v>
   <v>      -0.01615808       0.12716621       0.01800087 </v>
   <v>       0.29256629      -0.51266195      -0.18013193 </v>
   <v>      -0.13630655      -0.17435960      -0.16937488 </v>
   <v>      -0.19401512      -0.31887486       0.09043190 </v>
  </varray>
  <varray name="stress" >
   <v>      -2.81495046      -0.39631075      -0.11108703 </v>
   <v>      -0.39631075      -2.81638894       0.01563134 </v>
   <v>      -0.11108703       0.01563134      -3.30941457 </v>
  </varray>
  <energy>
   <i name="e_fr_energy">   -119.39808547 </i>
   <i name="e_wo_entrp">   -119.39808547 </i>
   <i name="e_0_energy">      0.00000000 </i>
  </energy>
  <time name="totalsc">   53.81   54.80</time>
 </calculation>
 <calculation>
  <scstep>
   <time name="dav">    7.48    7.48</time>
   <time name="total">    7.90    7.92</time>
   <energy>
    <i name="alphaZ">    194.83407748 </i>
    <i name="ewald"> 170321.27954591 </i>
    <i name="hartreedc">-225188.23743659 </i>
    <i name="XCdc">   -623.40577039 </i>
    <i name="pawpsdc">  59394.80074839 </i>
    <i name="pawaedc"> -56958.17280102 </i>
    <i name="eentropy">      0.00000000 </i>
    <i name="bandstr">  -4306.72786791 </i>
    <i name="atom">  57045.92465475 </i>
    <i name="e_fr_energy">   -119.70484939 </i>
    <i name="e_wo_entrp">   -119.70484939 </i>
    <i name="e_0_energy">   -119.70484939 </i>
   </energy>
  </scstep>
  <scstep>
   <time name="dav">    7.74    7.75</time>
   <time name="total">    8.16    8.17</time>
   <energy>
    <i name="e_fr_energy">   -119.92439883 </i>
    <i name="e_wo_entrp">   -119.92439883 </i>
    <i name="e_0_energy">   -119.92439883 </i>
   </energy>
  </scstep>
  <scstep>
   <time name="dav">    7.66    7.66</time>
   <time name="total">    8.08    8.84</time>
   <energy>
    <i name="e_fr_energy">   -119.92114282 </i>
    <i name="e_wo_entrp">   -119.92114282 </i>
    <i name="e_0_energy">   -119.92114282 </i>
   </energy>
  </scstep>
  <scstep>
   <time name="dav">    7.72    7.72</time>
   <time name="total">    8.14    8.19</time>
   <energy>
    <i name="e_fr_energy">   -119.91799021 </i>
    <i name="e_wo_entrp">   -119.91799021 </i>
    <i name="e_0_energy">   -119.91799021 </i>
   </energy>
  </scstep>
  <scstep>
   <time name="dav">    7.80    7.81</time>
   <time name="total">    8.05    8.08</time>
   <energy>
    <i name="alphaZ">    194.83407748 </i>
    <i name="ewald"> 170321.27954591 </i>
    <i name="hartreedc">-225194.79545465 </i>
    <i name="XCdc">   -623.25604318 </i>
    <i name="pawpsdc">  59240.87919598 </i>
    <i name="pawaedc"> -56801.91586953 </i>
    <i name="eentropy">      0.00000000 </i>
    <i name="bandstr">  -4302.86809844 </i>
    <i name="atom">  57045.92465475 </i>
    <i name="e_fr_energy">   -119.91799169 </i>
    <i name="e_wo_entrp">   -119.91799169 </i>
    <i name="e_0_energy">   -119.91799169 </i>
   </energy>
  </scstep>
  <structure>
   <crystal>
    <varray name="basis" >
     <v>      23.63695600       0.00000000       0.00000000 </v>
     <v>       0.00000000      23.63695600       0.00000000 </v>
     <v>       0.00000000       0.00000000      23.63695600 </v>
    </varray>
    <i name="volume">  13206.10178656 </i>
    <varray name="rec_basis" >
     <v>       0.04230663       0.00000000       0.00000000 </v>
     <v>       0.00000000       0.04230663       0.00000000 </v>
     <v>       0.00000000       0.00000000       0.04230663 </v>
    </varray>
   </crystal>
   <varray name="positions" >
    <v>       0.29714578       0.49498876       0.42050933 </v>
    <v>       0.69958273       0.56354012       0.49432892 </v>
    <v>       0.57636626       0.37484511       0.58051573 </v>
    <v>       0.40017830       0.29128661       0.46823530 </v>
    <v>       0.58931790       0.57420783       0.57527678 </v>
    <v>       0.46419038       0.38200656       0.66412169 </v>
    <v>       0.52332726       0.47702645       0.37442948 </v>
    <v>       0.47566878       0.58404519       0.65764379 </v>
    <v>       0.57195645       0.37696162       0.45791615 </v>
    <v>       0.40735670       0.48656912       0.45790826 </v>
    <v>       0.40493319       0.48195386       0.33404247 </v>
    <v>       0.46034369       0.38354699       0.54111716 </v>
    <v>       0.30258744       0.49735923       0.66003129 </v>
    <v>       0.30004188       0.49653211       0.54189388 </v>
    <v>       0.35368283       0.39694180       0.61731175 </v>
    <v>       0.53646741       0.66821775       0.37512535 </v>
    <v>       0.42495598       0.67856620       0.33666737 </v>
    <v>       0.69858199       0.56240434       0.37604258 </v>
    <v>       0.42490575       0.68294842       0.45339768 </v>
    <v>       0.51291210       0.28049212       0.49962844 </v>
    <v>       0.58891246       0.57252992       0.45165195 </v>
    <v>       0.50906900       0.28520757       0.61474151 </v>
    <v>       0.39667366       0.29193521       0.58424632 </v>
    <v>       0.47367910       0.58355524       0.53712069 </v>
    <v>       0.63654642       0.47056319       0.53492904 </v>
    <v>       0.63964069       0.46810373       0.41249672 </v>
    <v>       0.36178245       0.58990681       0.62027802 </v>
    <v>       0.52529065       0.47864059       0.62003847 </v>
    <v>       0.52377193       0.47800629       0.49676506 </v>
    <v>       0.57717926       0.38317870       0.69763130 </v>
    <v>       0.41553916       0.48899153       0.69590545 </v>
    <v>       0.41196302       0.49031872       0.57837929 </v>
    <v>       0.70111589       0.56857557       0.61465413 </v>
    <v>       0.65112443       0.66455132       0.53150103 </v>
    <v>       0.65109143       0.66350129       0.41079226 </v>
    <v>       0.58988304       0.57434530       0.69353932 </v>
    <v>       0.54203370       0.67516578       0.61408966 </v>
    <v>       0.53803363       0.67600824       0.49353073 </v>
    <v>       0.47256242       0.57402830       0.30131124 </v>
    <v>       0.45385285       0.38324501       0.41692830 </v>
    <v>       0.42901882       0.68253278       0.57479551 </v>
    <v>       0.46414147       0.38592564       0.29881741 </v>
    <v>       0.34268380       0.38956621       0.49875683 </v>
    <v>       0.63891904       0.47431723       0.65500963 </v>
    <v>       0.57437598       0.37167099       0.33688415 </v>
    <v>       0.59020738       0.56992403       0.32920977 </v>
    <v>       0.52761016       0.48147994       0.73744336 </v>
    <v>       0.52075642       0.47675235       0.25399393 </v>
    <v>       0.47229833       0.57974553       0.41819101 </v>
    <v>       0.65172150       0.66823921       0.65222536 </v>
    <v>       0.62872048       0.46433858       0.29564907 </v>
    <v>       0.35956203       0.59094883       0.49869725 </v>
    <v>       0.34303487       0.39390813       0.38123598 </v>
    <v>       0.51083142       0.28777409       0.38442503 </v>
    <v>       0.36187031       0.58807797       0.37799183 </v>
   </varray>
  </structure>
  <varray name="forces" >
   <v>       0.21678802       0.19243255       0.17979817 </v>
   <v>      -0.03808961      -0.14651680      -0.08005300 </v>
   <v>       0.12627895       0.13731797      -0.31491613 </v>
   <v>      -0.06578837       0.08772377      -0.32994689 </v>
   <v>       0.05404870      -0.23676592      -0.10936393 </v>
   <v>      -0.13433379       0.09678280       0.01123828 </v>
   <v>      -0.09144048      -0.05517355      -0.00232861 </v>
   <v>       0.03173729       0.05706288      -0.00532260 </v>
   <v>      -0.02129347       0.11457144       0.04890606 </v>
   <v>       0.09293379      -0.08232516       0.00137851 </v>
   <v>       0.07277897       0.10087740       0.10689068 </v>
   <v>      -0.05524357       0.01038537      -0.09087538 </v>
   <v>       0.11386077      -0.09930716      -0.05745535 </v>
   <v>       0.10007911      -0.05739750      -0.07941138 </v>
   <v>      -0.03929386       0.13059706       0.11478377 </v>
   <v>       0.00203028      -0.09116060      -0.06967653 </v>
   <v>       0.07784407      -0.13668256      -0.00199620 </v>
   <v>      -0.09621682      -0.22841908      -0.06609520 </v>
   <v>       0.01008619      -0.18113307       0.10950191 </v>
   <v>       0.10061822       0.21406836       0.14659318 </v>
   <v>      -0.07211642      -0.03728278       0.06678802 </v>
   <v>       0.20660912       0.11148064       0.24225186 </v>
   <v>      -0.01812823       0.26150160      -0.02400886 </v>
   <v>       0.17923621      -0.11322533      -0.00387304 </v>
   <v>      -0.12630601      -0.12769071      -0.10792096 </v>
   <v>      -0.10552300      -0.20095170       0.29237097 </v>
   <v>       0.14894905      -0.00718336      -0.18937581 </v>
   <v>      -0.01141071       0.05105776      -0.09467319 </v>
   <v>      -0.24805292       0.12836331      -0.02630822 </v>
   <v>      -0.02681137      -0.14625974      -0.20599595 </v>
   <v>      -0.02112925      -0.10638086      -0.06508163 </v>
   <v>       0.10782793      -0.01347340      -0.08417038 </v>
   <v>      -0.24286839      -0.17122835      -0.21033429 </v>
   <v>      -0.06922382       0.08790608       0.13408337 </v>
   <v>      -0.26347880      -0.04914908       0.15736188 </v>
   <v>      -0.03130007       0.16752070      -0.01662720 </v>
   <v>      -0.03464696      -0.12422934      -0.06775847 </v>
   <v>      -0.00849072       0.01454715       0.05569722 </v>
   <v>      -0.00704537       0.15848599       0.03448653 </v>
   <v>       0.26872543       0.15471454       0.17266881 </v>
   <v>      -0.04287239      -0.20578422      -0.07955390 </v>
   <v>      -0.24687011      -0.17668500       0.16614230 </v>
   <v>       0.07983940       0.12402145       0.09915451 </v>
   <v>      -0.03317149      -0.13562945      -0.11641102 </v>
   <v>       0.08193547       0.18896364       0.18679144 </v>
   <v>      -0.10561276       0.09829250      -0.00976859 </v>
   <v>      -0.10417811       0.15844875      -0.22413663 </v>
   <v>      -0.11138600       0.15556590       0.22355365 </v>
   <v>       0.05721373      -0.12252416       0.06507250 </v>
   <v>      -0.04361031       0.03840766      -0.00140143 </v>
   <v>       0.28097772       0.18859187       0.11284286 </v>
   <v>      -0.00269268       0.06032380       0.00076795 </v>
   <v>       0.20391784      -0.16636239      -0.03658145 </v>
   <v>      -0.14246739       0.05980246      -0.01726325 </v>
   <v>       0.04677699      -0.13089416       0.05956105 </v>
  </varray>
  <varray name="stress" >
   <v>      -3.35762122      -0.31565022      -0.07642854 </v>
   <v>      -0.31565023      -3.50757840      -0.05568029 </v>
   <v>      -0.07642854      -0.05568029      -3.81324497 </v>
  </varray>
  <energy>
   <i name="e_fr_energy">   -119.91799169 </i>
   <i name="e_wo_entrp">   -119.91799169 </i>
   <i name="e_0_energy">      0.00000000 </i>
  </energy>
  <time name="totalsc">   55.64   56.60</time>
 </calculation>
 <calculation>
  <scstep>
   <time name="dav">    7.49    7.50</time>
   <time name="total">    7.91    7.93</time>
   <energy>
    <i name="alphaZ">    194.83407748 </i>
    <i name="ewald"> 170080.48941035 </i>
    <i name="hartreedc">-224961.66827335 </i>
    <i name="XCdc">   -624.44337932 </i>
    <i name="pawpsdc">  59243.35501844 </i>
    <i name="pawaedc"> -56804.41420271 </i>
    <i name="eentropy">      0.00000000 </i>
    <i name="bandstr">  -4292.84388234 </i>
    <i name="atom">  57045.92465475 </i>
    <i name="e_fr_energy">   -118.76657669 </i>
    <i name="e_wo_entrp">   -118.76657669 </i>
    <i name="e_0_energy">   -118.76657669 </i>
   </energy>
  </scstep>
  <scstep>
   <time name="dav">    7.74    7.75</time>
   <time name="total">    8.16    8.17</time>
   <energy>
    <i name="e_fr_energy">   -119.71862483 </i>
    <i name="e_wo_entrp">   -119.71862483 </i>
    <i name="e_0_energy">   -119.71862483 </i>
   </energy>
  </scstep>
  <scstep>
   <time name="dav">    7.88    7.89</time>
   <time name="total">    8.30    8.31</time>
   <energy>
    <i name="e_fr_energy">   -119.71386547 </i>
    <i name="e_wo_entrp">   -119.71386547 </i>
    <i name="e_0_energy">   -119.71386547 </i>
   </energy>
  </scstep>
  <scstep>
   <time name="dav">    7.76    7.77</time>
   <time name="total">    8.19    8.24</time>
   <energy>
    <i name="e_fr_energy">   -119.69899132 </i>
    <i name="e_wo_entrp">   -119.69899132 </i>
    <i name="e_0_energy">   -119.69899132 </i>
   </energy>
  </scstep>
  <scstep>
   <time name="dav">    7.82    7.83</time>
   <time name="total">    8.24    8.29</time>
   <energy>
    <i name="e_fr_energy">   -119.69935646 </i>
    <i name="e_wo_entrp">   -119.69935646 </i>
    <i name="e_0_energy">   -119.69935646 </i>
   </energy>
  </scstep>
  <scstep>
   <time name="dav">    7.73    7.74</time>
   <time name="total">    8.16    8.18</time>
   <energy>
    <i name="e_fr_energy">   -119.69909550 </i>
    <i name="e_wo_entrp">   -119.69909550 </i>
    <i name="e_0_energy">   -119.69909550 </i>
   </energy>
  </scstep>
  <scstep>
   <time name="dav">    5.76    5.76</time>
   <time name="total">    6.18    6.20</time>
   <energy>
    <i name="e_fr_energy">   -119.69937147 </i>
    <i name="e_wo_entrp">   -119.69937147 </i>
    <i name="e_0_energy">   -119.69937147 </i>
   </energy>
  </scstep>
  <scstep>
   <time name="dav">    5.63    5.63</time>
   <time name="total">    6.05    6.72</time>
   <energy>
    <i name="e_fr_energy">   -119.69964544 </i>
    <i name="e_wo_entrp">   -119.69964544 </i>
    <i name="e_0_energy">   -119.69964544 </i>
   </energy>
  </scstep>
  <scstep>
   <time name="dav">    5.62    5.62</time>
   <time name="total">    6.04    6.04</time>
   <energy>
    <i name="e_fr_energy">   -119.69989059 </i>
    <i name="e_wo_entrp">   -119.69989059 </i>
    <i name="e_0_energy">   -119.69989059 </i>
   </energy>
  </scstep>
  <scstep>
   <time name="dav">    5.62    5.63</time>
   <time name="total">    6.05    6.14</time>
   <energy>
    <i name="e_fr_energy">   -119.70018863 </i>
    <i name="e_wo_entrp">   -119.70018863 </i>
    <i name="e_0_energy">   -119.70018863 </i>
   </energy>
  </scstep>
  <scstep>
   <time name="dav">    5.62    5.62</time>
   <time name="total">    6.04    6.13</time>
   <energy>
    <i name="e_fr_energy">   -119.70049787 </i>
    <i name="e_wo_entrp">   -119.70049787 </i>
    <i name="e_0_energy">   -119.70049787 </i>
   </energy>
  </scstep>
  <scstep>
   <time name="dav">    5.64    5.64</time>
   <time name="total">    6.06    6.68</time>
   <energy>
    <i name="e_fr_energy">   -119.70080489 </i>
    <i name="e_wo_entrp">   -119.70080489 </i>
    <i name="e_0_energy">   -119.70080489 </i>
   </energy>
  </scstep>
  <scstep>
   <time name="dav">    5.56    5.56</time>
   <time name="total">    5.98    6.18</time>
   <energy>
    <i name="e_fr_energy">   -119.70098013 </i>
    <i name="e_wo_entrp">   -119.70098013 </i>
    <i name="e_0_energy">   -119.70098013 </i>
   </energy>
  </scstep>
  <scstep>
   <time name="dav">    5.53    5.54</time>
   <time name="total">    5.78    5.81</time>
   <energy>
    <i name="alphaZ">    194.83407748 </i>
    <i name="ewald"> 170080.48941035 </i>
    <i name="hartreedc">-224970.62861837 </i>
    <i name="XCdc">   -624.20251807 </i>
    <i name="pawpsdc">  59100.93971275 </i>
    <i name="pawaedc"> -56659.42704038 </i>
    <i name="eentropy">     -0.00000000 </i>
    <i name="bandstr">  -4287.63075663 </i>
    <i name="atom">  57045.92465475 </i>
    <i name="e_fr_energy">   -119.70107812 </i>
    <i name="e_wo_entrp">   -119.70107812 </i>
    <i name="e_0_energy">   -119.70107812 </i>
   </energy>
  </scstep>
  <structure>
   <crystal>
    <varray name="basis" >
     <v>      23.63695600       0.00000000       0.00000000 </v>
     <v>       0.00000000      23.63695600       0.00000000 </v>
     <v>       0.00000000       0.00000000      23.63695600 </v>
    </varray>
    <i name="volume">  13206.10178656 </i>
    <varray name="rec_basis" >
     <v>       0.04230663       0.00000000       0.00000000 </v>
     <v>       0.00000000       0.04230663       0.00000000 </v>
     <v>       0.00000000       0.00000000       0.04230663 </v>
    </varray>
   </crystal>
   <varray name="positions" >
    <v>       0.29607744       0.49925971       0.42250040 </v>
    <v>       0.70021605       0.56213827       0.49482080 </v>
    <v>       0.57800693       0.37651963       0.57755147 </v>
    <v>       0.39828947       0.29140147       0.46418047 </v>
    <v>       0.58854488       0.57126596       0.57341999 </v>
    <v>       0.46179340       0.38328987       0.66455314 </v>
    <v>       0.52211711       0.47685791       0.37524219 </v>
    <v>       0.47599533       0.58447459       0.65748497 </v>
    <v>       0.57209115       0.37783969       0.45838262 </v>
    <v>       0.40998565       0.48578827       0.45850673 </v>
    <v>       0.40582875       0.48330342       0.33439556 </v>
    <v>       0.45990009       0.38452098       0.53997391 </v>
    <v>       0.30137059       0.49517327       0.66160101 </v>
    <v>       0.29940872       0.49612043       0.53938818 </v>
    <v>       0.35331652       0.39572703       0.61807075 </v>
    <v>       0.53795012       0.66789041       0.37447747 </v>
    <v>       0.42547130       0.67917368       0.33418352 </v>
    <v>       0.70037245       0.55971747       0.37467554 </v>
    <v>       0.42478897       0.68245493       0.45666216 </v>
    <v>       0.51500515       0.28113890       0.50228394 </v>
    <v>       0.58679457       0.57209524       0.45270047 </v>
    <v>       0.51062986       0.28401925       0.61581483 </v>
    <v>       0.39528336       0.29338342       0.58636057 </v>
    <v>       0.47528397       0.58068622       0.53601765 </v>
    <v>       0.63540029       0.46998136       0.53434885 </v>
    <v>       0.63893855       0.46617220       0.41543884 </v>
    <v>       0.36382899       0.59261333       0.61841073 </v>
    <v>       0.52434706       0.47975928       0.61808272 </v>
    <v>       0.52179108       0.47931687       0.49680568 </v>
    <v>       0.57874178       0.38022583       0.69703553 </v>
    <v>       0.41635391       0.48786162       0.69650418 </v>
    <v>       0.41554733       0.49116265       0.57633980 </v>
    <v>       0.70238420       0.56334053       0.61205016 </v>
    <v>       0.65092006       0.66630019       0.53145019 </v>
    <v>       0.64880710       0.66579911       0.41206190 </v>
    <v>       0.58893226       0.57530986       0.69480879 </v>
    <v>       0.54184152       0.67503141       0.61403910 </v>
    <v>       0.53795885       0.67595096       0.49400103 </v>
    <v>       0.47310779       0.57391355       0.29990813 </v>
    <v>       0.45425043       0.38587784       0.41853502 </v>
    <v>       0.42782693       0.68249477       0.57446748 </v>
    <v>       0.46034187       0.38351425       0.29939072 </v>
    <v>       0.34314697       0.39041940       0.50024172 </v>
    <v>       0.64001945       0.47355777       0.65393157 </v>
    <v>       0.57739734       0.37324812       0.33772697 </v>
    <v>       0.58828277       0.57181084       0.32887411 </v>
    <v>       0.52590873       0.48435025       0.73762906 </v>
    <v>       0.51989943       0.47962952       0.25365819 </v>
    <v>       0.47394137       0.57750525       0.42134414 </v>
    <v>       0.64967178       0.67323872       0.65412385 </v>
    <v>       0.63127652       0.46395839       0.29552408 </v>
    <v>       0.35942358       0.59178888       0.49883746 </v>
    <v>       0.34498277       0.38969665       0.37964666 </v>
    <v>       0.51021788       0.28604035       0.38301228 </v>
    <v>       0.35998956       0.58589018       0.37852272 </v>
   </varray>
  </structure>
  <varray name="forces" >
   <v>       0.37157082      -0.22734673       0.03147929 </v>
   <v>      -0.19211468      -0.00587072      -0.30897474 </v>
   <v>      -0.08157856      -0.11730986       0.06371226 </v>
   <v>       0.16082161       0.20289236      -0.03672177 </v>
   <v>       0.29368895       0.17320938       0.19692757 </v>
   <v>       0.23739857      -0.10595556      -0.05806109 </v>
   <v>       0.11111574      -0.07797732      -0.20928549 </v>
   <v>      -0.00909988       0.02940250       0.02796603 </v>
   <v>      -0.10988668       0.00140378      -0.03137497 </v>
   <v>      -0.49524878       0.06177726      -0.14243161 </v>
   <v>      -0.03563011      -0.10726658       0.11441660 </v>
   <v>      -0.00455092      -0.21606189       0.08930602 </v>
   <v>       0.36502066       0.09103425      -0.33841418 </v>
   <v>       0.26593660      -0.02147461       0.38489269 </v>
   <v>      -0.09926195       0.51604038       0.11712707 </v>
   <v>      -0.36018453      -0.05483738      -0.01060337 </v>
   <v>       0.07611602      -0.34045270       0.34458467 </v>
   <v>      -0.45916915      -0.07625274       0.10330905 </v>
   <v>       0.05259125      -0.20983618      -0.36968445 </v>
   <v>      -0.11777634       0.27087635      -0.23129449 </v>
   <v>       0.37605341       0.02979512      -0.10807564 </v>
[...]
       <r>     1.4785     0.0000   382.0000 </r>
       <r>     1.5208     0.0000   385.0000 </r>
       <r>     1.5631     0.0000   387.0000 </r>
       <r>     1.6054     0.0000   388.0000 </r>
       <r>     1.6477     0.0000   390.0000 </r>
       <r>     1.6900     0.0000   390.0000 </r>
       <r>     1.7324     0.0000   392.0000 </r>
       <r>     1.7747     0.0000   392.0000 </r>
       <r>     1.8170     0.0000   392.0000 </r>
       <r>     1.8593     0.0000   392.0000 </r>
       <r>     1.9016     0.0000   392.0000 </r>
       <r>     1.9439     0.0000   392.0000 </r>
       <r>     1.9862     0.0000   392.0000 </r>
       <r>     2.0285     0.0000   392.0000 </r>
       <r>     2.0708     0.0000   392.0000 </r>
       <r>     2.1132     0.0000   392.0000 </r>
       <r>     2.1555     0.0000   392.0000 </r>
       <r>     2.1978     0.0000   392.0000 </r>
       <r>     2.2401     0.0000   392.0000 </r>
       <r>     2.2824     0.0000   392.0000 </r>
       <r>     2.3247     0.0000   392.0000 </r>
      </set>
      <set comment="spin 2">
       <r>   -10.3685     0.0000     0.0000 </r>
       <r>   -10.3261     0.0000     0.0000 </r>
       <r>   -10.2838     0.0000     0.0000 </r>
       <r>   -10.2415     0.0000     0.0000 </r>
       <r>   -10.1992     0.0000     0.0000 </r>
       <r>   -10.1569     0.0000     0.0000 </r>
       <r>   -10.1146     0.0000     0.0000 </r>
       <r>   -10.0723     0.0000     0.0000 </r>
       <r>   -10.0300     0.0000     0.0000 </r>
       <r>    -9.9877     0.0000     0.0000 </r>
       <r>    -9.9454     0.0000     0.0000 </r>
       <r>    -9.9030     0.0000     0.0000 </r>
       <r>    -9.8607     0.0000     0.0000 </r>
       <r>    -9.8184     0.0000     0.0000 </r>
       <r>    -9.7761     0.0000     1.0000 </r>
       <r>    -9.7338     0.0000     1.0000 </r>
       <r>    -9.6915     0.0000     1.0000 </r>
       <r>    -9.6492     0.0000     1.0000 </r>
       <r>    -9.6069     0.0000     1.0000 </r>
       <r>    -9.5646     0.0000     1.0000 </r>
       <r>    -9.5222     0.0000     1.0000 </r>
       <r>    -9.4799     0.0000     1.0000 </r>
       <r>    -9.4376     0.0000     1.0000 </r>
       <r>    -9.3953     0.0000     1.0000 </r>
       <r>    -9.3530     0.0000     1.0000 </r>
       <r>    -9.3107     0.0000     1.0000 </r>
       <r>    -9.2684     0.0000     1.0000 </r>
       <r>    -9.2261     0.0000     1.0000 </r>
       <r>    -9.1838     0.0000     1.0000 </r>
       <r>    -9.1415     0.0000     2.0000 </r>
       <r>    -9.0991     0.0000     3.0000 </r>
       <r>    -9.0568     0.0000     4.0000 </r>
       <r>    -9.0145     0.0000     4.0000 </r>
       <r>    -8.9722     0.0000     7.0000 </r>
       <r>    -8.9299     0.0067     9.0003 </r>
       <r>    -8.8876     0.0000    11.0000 </r>
       <r>    -8.8453     0.0000    13.0000 </r>
       <r>    -8.8030     0.0000    14.0000 </r>
       <r>    -8.7607     0.0000    15.0000 </r>
       <r>    -8.7183     0.0000    17.0000 </r>
       <r>    -8.6760    23.6326    20.9999 </r>
       <r>    -8.6337     0.0000    24.0000 </r>
       <r>    -8.5914     0.0000    28.0000 </r>
       <r>    -8.5491     0.0000    31.0000 </r>
       <r>    -8.5068     0.0000    34.0000 </r>
       <r>    -8.4645     0.0002    37.0000 </r>
       <r>    -8.4222     0.0000    41.0000 </r>
       <r>    -8.3799     0.0000    45.0000 </r>
       <r>    -8.3376     0.0000    49.0000 </r>
       <r>    -8.2952     0.0000    53.0000 </r>
       <r>    -8.2529     0.0000    55.0000 </r>
       <r>    -8.2106     0.0000    59.0000 </r>
       <r>    -8.1683    23.6348    62.0000 </r>
       <r>    -8.1260     0.0000    64.0000 </r>
       <r>    -8.0837     0.0000    67.0000 </r>
       <r>    -8.0414     0.0000    71.0000 </r>
       <r>    -7.9991     0.0000    76.0000 </r>
       <r>    -7.9568     0.0000    79.0000 </r>
       <r>    -7.9144     0.0000    83.0000 </r>
       <r>    -7.8721     0.0000    87.0000 </r>
       <r>    -7.8298     0.0000    90.0000 </r>
       <r>    -7.7875     0.0000    94.0000 </r>
       <r>    -7.7452     0.0000    98.0000 </r>
       <r>    -7.7029     0.0000   102.0000 </r>
       <r>    -7.6606     0.0000   106.0000 </r>
       <r>    -7.6183     0.0000   109.0000 </r>
       <r>    -7.5760     0.0000   112.0000 </r>
       <r>    -7.5337    23.6348   117.0000 </r>
       <r>    -7.4913     0.0000   119.0000 </r>
       <r>    -7.4490    23.6348   124.0000 </r>
       <r>    -7.4067     0.0000   127.0000 </r>
       <r>    -7.3644     0.0000   131.0000 </r>
       <r>    -7.3221     0.0000   135.0000 </r>
       <r>    -7.2798     0.0000   139.0000 </r>
       <r>    -7.2375     0.0000   143.0000 </r>
       <r>    -7.1952     0.0000   147.0000 </r>
       <r>    -7.1529     0.0000   150.0000 </r>
       <r>    -7.1105     0.0000   155.0000 </r>
       <r>    -7.0682     0.0000   158.0000 </r>
       <r>    -7.0259     0.0000   161.0000 </r>
       <r>    -6.9836     0.0000   165.0000 </r>
       <r>    -6.9413     0.0000   171.0000 </r>
       <r>    -6.8990     0.0000   175.0000 </r>
       <r>    -6.8567     0.0000   179.0000 </r>
       <r>    -6.8144     0.0000   183.0000 </r>
       <r>    -6.7721     0.0000   186.0000 </r>
       <r>    -6.7298     0.0000   192.0000 </r>
       <r>    -6.6874     0.0000   196.0000 </r>
       <r>    -6.6451     0.0000   202.0000 </r>
       <r>    -6.6028     0.0000   208.0000 </r>
       <r>    -6.5605     0.0000   214.0000 </r>
       <r>    -6.5182     0.0000   219.0000 </r>
       <r>    -6.4759     0.0000   223.0000 </r>
       <r>    -6.4336    23.6348   229.0000 </r>
       <r>    -6.3913    23.6348   236.0000 </r>
       <r>    -6.3490     0.0000   242.0000 </r>
       <r>    -6.3066     0.0000   247.0000 </r>
       <r>    -6.2643     0.2656   252.0112 </r>
       <r>    -6.2220     0.0000   259.0000 </r>
       <r>    -6.1797     0.0000   264.0000 </r>
       <r>    -6.1374     0.0000   267.0000 </r>
       <r>    -6.0951     0.0000   272.0000 </r>
       <r>    -6.0528     0.0000   276.0000 </r>
       <r>    -6.0105     0.0000   278.0000 </r>
       <r>    -5.9682     0.0000   281.0000 </r>
       <r>    -5.9259     0.0000   284.0000 </r>
       <r>    -5.8835     0.0000   284.0000 </r>
       <r>    -5.8412     0.0000   284.0000 </r>
       <r>    -5.7989     0.0000   284.0000 </r>
       <r>    -5.7566     0.0000   284.0000 </r>
       <r>    -5.7143     0.0000   284.0000 </r>
       <r>    -5.6720     0.0000   284.0000 </r>
       <r>    -5.6297     0.0000   284.0000 </r>
       <r>    -5.5874     0.0000   285.0000 </r>
       <r>    -5.5451     0.0000   285.0000 </r>
       <r>    -5.5027     0.0000   285.0000 </r>
       <r>    -5.4604     0.0000   285.0000 </r>
       <r>    -5.4181     0.0000   285.0000 </r>
       <r>    -5.3758     0.0000   285.0000 </r>
       <r>    -5.3335     0.0000   285.0000 </r>
       <r>    -5.2912     0.0000   286.0000 </r>
       <r>    -5.2489     0.0000   286.0000 </r>
       <r>    -5.2066     0.0000   286.0000 </r>
       <r>    -5.1643     0.0000   287.0000 </r>
       <r>    -5.1220     0.0000   288.0000 </r>
       <r>    -5.0796     0.0000   288.0000 </r>
       <r>    -5.0373     0.0000   288.0000 </r>
       <r>    -4.9950     0.0000   290.0000 </r>
       <r>    -4.9527     0.0000   290.0000 </r>
       <r>    -4.9104     0.0000   290.0000 </r>
       <r>    -4.8681     0.0000   291.0000 </r>
       <r>    -4.8258     0.0000   291.0000 </r>
       <r>    -4.7835     0.0000   291.0000 </r>
       <r>    -4.7412     0.0000   292.0000 </r>
       <r>    -4.6988     0.0000   292.0000 </r>
       <r>    -4.6565     0.0000   292.0000 </r>
       <r>    -4.6142     0.0000   292.0000 </r>
       <r>    -4.5719     0.0000   292.0000 </r>
       <r>    -4.5296     0.0000   292.0000 </r>
       <r>    -4.4873     0.0000   292.0000 </r>
       <r>    -4.4450     0.0000   292.0000 </r>
       <r>    -4.4027     0.0000   292.0000 </r>
       <r>    -4.3604     0.0000   292.0000 </r>
       <r>    -4.3181     0.0000   293.0000 </r>
       <r>    -4.2757     0.0000   294.0000 </r>
       <r>    -4.2334     0.0000   294.0000 </r>
       <r>    -4.1911     0.0000   294.0000 </r>
       <r>    -4.1488     0.0000   294.0000 </r>
       <r>    -4.1065     0.0000   294.0000 </r>
       <r>    -4.0642     0.0000   295.0000 </r>
       <r>    -4.0219     0.0000   295.0000 </r>
       <r>    -3.9796     0.0000   295.0000 </r>
       <r>    -3.9373     0.0000   295.0000 </r>
       <r>    -3.8949     0.0000   296.0000 </r>
       <r>    -3.8526     0.0000   297.0000 </r>
       <r>    -3.8103     0.0000   297.0000 </r>
       <r>    -3.7680     0.0000   298.0000 </r>
       <r>    -3.7257     0.0000   298.0000 </r>
       <r>    -3.6834     0.0000   298.0000 </r>
       <r>    -3.6411     0.0000   299.0000 </r>
       <r>    -3.5988     0.0000   299.0000 </r>
       <r>    -3.5565     0.0000   299.0000 </r>
       <r>    -3.5141     0.0000   300.0000 </r>
       <r>    -3.4718     0.0000   300.0000 </r>
       <r>    -3.4295     0.0000   300.0000 </r>
       <r>    -3.3872     0.0000   301.0000 </r>
       <r>    -3.3449     0.0000   301.0000 </r>
       <r>    -3.3026     0.0000   302.0000 </r>
       <r>    -3.2603     0.0000   302.0000 </r>
       <r>    -3.2180     0.0000   303.0000 </r>
       <r>    -3.1757     0.0000   303.0000 </r>
       <r>    -3.1334    23.6348   304.0000 </r>
       <r>    -3.0910     0.0000   304.0000 </r>
       <r>    -3.0487     0.0000   304.0000 </r>
       <r>    -3.0064     0.0000   304.0000 </r>
       <r>    -2.9641     0.0000   304.0000 </r>
       <r>    -2.9218     0.0000   304.0000 </r>
       <r>    -2.8795     0.0000   304.0000 </r>
       <r>    -2.8372     0.0000   304.0000 </r>
       <r>    -2.7949     0.0000   304.0000 </r>
       <r>    -2.7526     0.0000   304.0000 </r>
       <r>    -2.7102     0.0000   305.0000 </r>
       <r>    -2.6679     0.0000   305.0000 </r>
       <r>    -2.6256     0.0000   307.0000 </r>
       <r>    -2.5833     0.0000   308.0000 </r>
       <r>    -2.5410     0.0000   309.0000 </r>
       <r>    -2.4987     0.0000   309.0000 </r>
       <r>    -2.4564     0.0000   309.0000 </r>
       <r>    -2.4141     0.0000   309.0000 </r>
       <r>    -2.3718     0.0000   309.0000 </r>
       <r>    -2.3295     0.0000   310.0000 </r>
       <r>    -2.2871     0.0000   311.0000 </r>
       <r>    -2.2448     0.0000   311.0000 </r>
       <r>    -2.2025     0.0000   311.0000 </r>
       <r>    -2.1602     0.0000   311.0000 </r>
       <r>    -2.1179     0.0000   313.0000 </r>
       <r>    -2.0756     0.0000   314.0000 </r>
       <r>    -2.0333     0.0000   315.0000 </r>
       <r>    -1.9910     0.0000   316.0000 </r>
       <r>    -1.9487     0.0000   316.0000 </r>
       <r>    -1.9063     0.0000   316.0000 </r>
       <r>    -1.8640     0.0000   316.0000 </r>
       <r>    -1.8217     0.0000   316.0000 </r>
       <r>    -1.7794     0.0000   317.0000 </r>
       <r>    -1.7371     0.0000   317.0000 </r>
       <r>    -1.6948     0.0000   320.0000 </r>
       <r>    -1.6525     0.0000   320.0000 </r>
       <r>    -1.6102     0.0000   321.0000 </r>
       <r>    -1.5679     0.0000   321.0000 </r>
       <r>    -1.5256     0.0000   321.0000 </r>
       <r>    -1.4832     0.0000   321.0000 </r>
       <r>    -1.4409     0.0000   322.0000 </r>
       <r>    -1.3986     0.0000   322.0000 </r>
       <r>    -1.3563     0.0000   323.0000 </r>
       <r>    -1.3140     0.0000   323.0000 </r>
       <r>    -1.2717     0.0000   323.0000 </r>
       <r>    -1.2294     0.0000   325.0000 </r>
       <r>    -1.1871     0.0000   326.0000 </r>
       <r>    -1.1448     0.0000   327.0000 </r>
       <r>    -1.1024     0.0000   328.0000 </r>
       <r>    -1.0601     0.0000   328.0000 </r>
       <r>    -1.0178     0.0000   329.0000 </r>
       <r>    -0.9755     0.0000   329.0000 </r>
       <r>    -0.9332     0.0000   329.0000 </r>
       <r>    -0.8909     0.0000   329.0000 </r>
       <r>    -0.8486     0.0000   330.0000 </r>
       <r>    -0.8063     0.0000   330.0000 </r>
       <r>    -0.7640     0.0000   331.0000 </r>
       <r>    -0.7217     0.0000   331.0000 </r>
       <r>    -0.6793     0.0000   332.0000 </r>
       <r>    -0.6370     0.0000   332.0000 </r>
       <r>    -0.5947     0.0000   333.0000 </r>
       <r>    -0.5524     0.0000   333.0000 </r>
       <r>    -0.5101     0.0000   334.0000 </r>
       <r>    -0.4678     0.0000   334.0000 </r>
       <r>    -0.4255     0.0000   334.0000 </r>
       <r>    -0.3832     0.0000   334.0000 </r>
       <r>    -0.3409     0.0000   335.0000 </r>
       <r>    -0.2985     0.0000   336.0000 </r>
       <r>    -0.2562     0.0000   337.0000 </r>
       <r>    -0.2139     0.0000   337.0000 </r>
       <r>    -0.1716     0.0000   338.0000 </r>
       <r>    -0.1293     0.0000   338.0000 </r>
       <r>    -0.0870     0.0000   339.0000 </r>
       <r>    -0.0447     0.0000   340.0000 </r>
       <r>    -0.0024     0.0000   340.0000 </r>
       <r>     0.0399     0.0000   341.0000 </r>
       <r>     0.0822     0.0000   342.0000 </r>
       <r>     0.1246     0.0000   343.0000 </r>
       <r>     0.1669     0.0000   344.0000 </r>
       <r>     0.2092     0.0000   344.0000 </r>
       <r>     0.2515     0.0000   344.0000 </r>
       <r>     0.2938     0.0000   346.0000 </r>
       <r>     0.3361     0.0000   347.0000 </r>
       <r>     0.3784     0.0000   347.0000 </r>
       <r>     0.4207     0.0000   347.0000 </r>
       <r>     0.4630     0.0000   348.0000 </r>
       <r>     0.5054     0.0000   348.0000 </r>
       <r>     0.5477     0.0000   349.0000 </r>
       <r>     0.5900     0.0000   349.0000 </r>
       <r>     0.6323     0.0000   349.0000 </r>
       <r>     0.6746     0.0000   350.0000 </r>
       <r>     0.7169     0.0000   351.0000 </r>
       <r>     0.7592     0.0000   351.0000 </r>
       <r>     0.8015     0.0000   352.0000 </r>
       <r>     0.8438     0.0000   353.0000 </r>
       <r>     0.8861     0.0000   353.0000 </r>
       <r>     0.9285     0.0000   355.0000 </r>
       <r>     0.9708     0.0000   356.0000 </r>
       <r>     1.0131     0.0000   359.0000 </r>
       <r>     1.0554     0.0000   361.0000 </r>
       <r>     1.0977     0.0000   362.0000 </r>
       <r>     1.1400    23.6313   363.9999 </r>
       <r>     1.1823     0.0000   367.0000 </r>
       <r>     1.2246     0.0000   368.0000 </r>
       <r>     1.2669     0.0000   370.0000 </r>
       <r>     1.3093     0.0000   373.0000 </r>
       <r>     1.3516     0.0000   374.0000 </r>
       <r>     1.3939     0.0000   376.0000 </r>
       <r>     1.4362     0.0000   379.0000 </r>
       <r>     1.4785     0.0000   381.0000 </r>
       <r>     1.5208     0.0000   384.0000 </r>
       <r>     1.5631     0.0000   387.0000 </r>
       <r>     1.6054     0.0000   388.0000 </r>
       <r>     1.6477     0.0000   389.0000 </r>
       <r>     1.6900     0.0000   390.0000 </r>
       <r>     1.7324     0.0000   391.0000 </r>
       <r>     1.7747     0.0000   392.0000 </r>
       <r>     1.8170     0.0000   392.0000 </r>
       <r>     1.8593     0.0000   392.0000 </r>
       <r>     1.9016     0.0000   392.0000 </r>
       <r>     1.9439     0.0000   392.0000 </r>
       <r>     1.9862     0.0000   392.0000 </r>
       <r>     2.0285     0.0000   392.0000 </r>
       <r>     2.0708     0.0000   392.0000 </r>
       <r>     2.1132     0.0000   392.0000 </r>
       <r>     2.1555     0.0000   392.0000 </r>
       <r>     2.1978     0.0000   392.0000 </r>
       <r>     2.2401     0.0000   392.0000 </r>
       <r>     2.2824     0.0000   392.0000 </r>
       <r>     2.3247     0.0000   392.0000 </r>
      </set>
     </set>
    </array>
   </total>
  </dos>
 </calculation>
 <structure name="finalpos" >
  <crystal>
   <varray name="basis" >
    <v>      23.63695600       0.00000000       0.00000000 </v>
    <v>       0.00000000      23.63695600       0.00000000 </v>
    <v>       0.00000000       0.00000000      23.63695600 </v>
   </varray>
   <i name="volume">  13206.10178656 </i>
   <varray name="rec_basis" >
    <v>       0.04230663       0.00000000       0.00000000 </v>
    <v>       0.00000000       0.04230663       0.00000000 </v>
    <v>       0.00000000       0.00000000       0.04230663 </v>
   </varray>
  </crystal>
  <varray name="positions" >
   <v>       0.30566875       0.45030243       0.39865994 </v>
   <v>       0.70302304       0.54681824       0.48526501 </v>
   <v>       0.58143762       0.37312874       0.58238621 </v>
   <v>       0.41743776       0.28454087       0.44731048 </v>
   <v>       0.61464632       0.54417661       0.56751849 </v>
   <v>       0.43383201       0.41426839       0.67286666 </v>
   <v>       0.51949205       0.49266981       0.38467214 </v>
   <v>       0.47427391       0.59201466       0.66265162 </v>
   <v>       0.59972200       0.36348995       0.46358208 </v>
   <v>       0.42734377       0.49051009       0.46902287 </v>
   <v>       0.40670655       0.46833945       0.33752560 </v>
   <v>       0.45745015       0.40260099       0.55242851 </v>
   <v>       0.29555406       0.51167487       0.62651329 </v>
   <v>       0.31380773       0.49223676       0.50948280 </v>
   <v>       0.34148328       0.40589589       0.59755278 </v>
   <v>       0.50071342       0.69258021       0.37226919 </v>
   <v>       0.38559997       0.66494237       0.36257596 </v>
   <v>       0.67333075       0.57490845       0.37381883 </v>
   <v>       0.41881730       0.70277342       0.46800812 </v>
   <v>       0.51218966       0.29865107       0.51594582 </v>
   <v>       0.58376931       0.57230687       0.45255563 </v>
   <v>       0.49088213       0.31498142       0.63252590 </v>
   <v>       0.39568005       0.30299151       0.56372038 </v>
   <v>       0.49736968       0.57025317       0.53924840 </v>
   <v>       0.66707457       0.43737776       0.53107558 </v>
   <v>       0.64650535       0.46545762       0.41804599 </v>
   <v>       0.36051781       0.61276995       0.62936316 </v>
   <v>       0.52346067       0.48197146       0.61975281 </v>
   <v>       0.54798430       0.46511532       0.50011603 </v>
   <v>       0.55081200       0.39409275       0.69769348 </v>
   <v>       0.38618114       0.51988021       0.70411659 </v>
   <v>       0.40639775       0.50765073       0.58820550 </v>
   <v>       0.72655287       0.51707521       0.59788025 </v>
   <v>       0.64731756       0.65269647       0.51693452 </v>
   <v>       0.61488784       0.67578182       0.40330473 </v>
   <v>       0.58888511       0.56268902       0.68537857 </v>
   <v>       0.56275136       0.65141547       0.60492823 </v>
   <v>       0.53355030       0.68335000       0.49150844 </v>
   <v>       0.44475720       0.57799759       0.31051305 </v>
   <v>       0.47723094       0.38887072       0.43156637 </v>
   <v>       0.44686667       0.67439032       0.57794664 </v>
   <v>       0.47627289       0.37621073       0.31069408 </v>
   <v>       0.35644221       0.38219033       0.48089714 </v>
   <v>       0.63940767       0.45585820       0.64908476 </v>
   <v>       0.58390152       0.39171153       0.34904390 </v>
   <v>       0.56045659       0.59466263       0.33064476 </v>
   <v>       0.49989469       0.49777012       0.73427632 </v>
   <v>       0.50852833       0.48522645       0.26958491 </v>
   <v>       0.46446781       0.59636359       0.42607565 </v>
   <v>       0.67645609       0.62282319       0.62918892 </v>
   <v>       0.62060585       0.49412179       0.30570828 </v>
   <v>       0.37598051       0.60003666       0.51186124 </v>
   <v>       0.37418419       0.35691142       0.36522634 </v>
   <v>       0.52792205       0.29334720       0.39282710 </v>
   <v>       0.35351488       0.55712751       0.39844995 </v>
  </varray>
 </structure>
</modeling>
