 running on   64 total cores
 distrk:  each k-point on   64 cores,    1 groups
 distr:  one band on   16 cores,    4 groups
 using from now: INCAR     
 vasp.5.3.5 31Mar14 (build Feb 01 2018 12:10:03) gamma-only                     
  
 POSCAR found type information on POSCAR  Ag
 POSCAR found :  1 types and      55 ions
 scaLAPACK will be used

 ----------------------------------------------------------------------------- 
|                                                                             |
|  ADVICE TO THIS USER RUNNING 'VASP/VAMP'   (HEAR YOUR MASTER'S VOICE ...):  |
|                                                                             |
|      You have a (more or less) 'large supercell' and for larger cells       |
|      it might be more efficient to use real space projection opertators     |
|      So try LREAL= Auto  in the INCAR   file.                               |
|      Mind: At the moment your POTCAR file does not contain real space       |
|       projectors, and has to be modified,  BUT if you                       |
|      want to do an extremely  accurate calculation you might also keep the  |
|      reciprocal projection scheme          (i.e. LREAL=.FALSE.)             |
|                                                                             |
 ----------------------------------------------------------------------------- 

 LDA part: xc-table for Pade appr. of Perdew
 POSCAR, INCAR and KPOINTS ok, starting setup
 WARNING: small aliasing (wrap around) errors must be expected
 FFT: planning ...
 WAVECAR not read
 entering main loop
       N       E                     dE             d eps       ncg     rms          rms(c)
DAV:   1     0.512274713691E+04    0.51227E+04   -0.11669E+05  1592   0.603E+02
DAV:   2     0.103791580994E+04   -0.40848E+04   -0.36622E+04  2584   0.154E+02
DAV:   3    -0.501425479094E+02   -0.10881E+04   -0.99044E+03  2008   0.859E+01
DAV:   4    -0.105395215845E+03   -0.55253E+02   -0.54624E+02  1712   0.205E+01
DAV:   5    -0.106185385948E+03   -0.79017E+00   -0.78914E+00  1712   0.295E+00    0.433E+01
DAV:   6    -0.209695937375E+02    0.85216E+02   -0.26459E+02  1600   0.183E+01    0.229E+01
DAV:   7    -0.118699198063E+02    0.90997E+01   -0.13809E+01  1680   0.589E+00    0.139E+01
DAV:   8    -0.108853166958E+02    0.98460E+00   -0.49294E+00  1680   0.506E+00    0.747E+00
DAV:   9    -0.278296167965E+02   -0.16944E+02   -0.53063E+00  1720   0.346E+00    0.529E+00
DAV:  10    -0.374340906361E+02   -0.96045E+01   -0.24906E+00  1688   0.269E+00    0.488E+00
DAV:  11    -0.483194914366E+02   -0.10885E+02   -0.36328E+00  1648   0.289E+00    0.440E+00
DAV:  12    -0.560483477073E+02   -0.77289E+01   -0.23540E+00  1688   0.325E+00    0.347E+00
DAV:  13    -0.734780911887E+02   -0.17430E+02   -0.78207E+00  1600   0.283E+00    0.273E+00
DAV:  14    -0.837589447567E+02   -0.10281E+02   -0.39441E+00  1672   0.203E+00    0.239E+00
DAV:  15    -0.875743967673E+02   -0.38155E+01   -0.81904E-01  1736   0.133E+00    0.183E+00
DAV:  16    -0.943164721474E+02   -0.67421E+01   -0.18973E+00  1616   0.147E+00    0.116E+00
DAV:  17    -0.985995871251E+02   -0.42831E+01   -0.74525E-01  1672   0.786E-01    0.138E+00
DAV:  18    -0.991449112039E+02   -0.54532E+00   -0.34956E-02  1768   0.472E-01    0.114E+00
DAV:  19    -0.100437685085E+03   -0.12928E+01   -0.87963E-02  1624   0.711E-01    0.847E-01
DAV:  20    -0.102299795622E+03   -0.18621E+01   -0.17920E-01  1608   0.938E-01    0.467E-01
DAV:  21    -0.103721168489E+03   -0.14214E+01   -0.11092E-01  1616   0.511E-01    0.414E-01
DAV:  22    -0.104245376543E+03   -0.52421E+00   -0.14475E-02  1680   0.230E-01    0.330E-01
DAV:  23    -0.104701135979E+03   -0.45576E+00   -0.14468E-02  1608   0.207E-01    0.195E-01
DAV:  24    -0.105058350030E+03   -0.35721E+00   -0.11802E-02  1632   0.123E-01    0.116E-01
DAV:  25    -0.105182267493E+03   -0.12392E+00   -0.19543E-03  1416   0.458E-02    0.865E-02
DAV:  26    -0.105327232245E+03   -0.14496E+00   -0.25358E-03  1472   0.406E-02    0.536E-02
DAV:  27    -0.105399703633E+03   -0.72471E-01   -0.75542E-04  1168   0.282E-02    0.364E-02
DAV:  28    -0.105433337735E+03   -0.33634E-01   -0.24127E-04  1128   0.230E-02    0.281E-02
DAV:  29    -0.105462619203E+03   -0.29281E-01   -0.23650E-04  1112   0.184E-02    0.192E-02
DAV:  30    -0.105475501320E+03   -0.12882E-01   -0.10943E-04  1112   0.122E-02    0.131E-02
DAV:  31    -0.105481104223E+03   -0.56029E-02   -0.35220E-05  1088   0.766E-03    0.928E-03
DAV:  32    -0.105485581688E+03   -0.44775E-02   -0.31536E-05  1080   0.613E-03    0.533E-03
DAV:  33    -0.105487794004E+03   -0.22123E-02   -0.17361E-05  1048   0.389E-03    0.320E-03
DAV:  34    -0.105488922990E+03   -0.11290E-02   -0.81403E-06  1064   0.347E-03    0.222E-03
DAV:  35    -0.105489372587E+03   -0.44960E-03   -0.32464E-06  1016   0.224E-03    0.124E-03
DAV:  36    -0.105489551521E+03   -0.17893E-03   -0.16145E-06  1016   0.154E-03    0.899E-04
DAV:  37    -0.105489651493E+03   -0.99972E-04   -0.95474E-07  1056   0.967E-04
   1 F= -.10548965E+03 E0= -.10548965E+03  d E =-.105490E+03  mag=     1.0017
 curvature:   0.00 expect dE= 0.000E+00 dE for cont linesearch  0.000E+00
 trial: gam= 0.00000 g(F)=  0.166E+00 g(S)=  0.000E+00 ort = 0.000E+00 (trialstep = 0.100E+01)
 search vector abs. value=  0.166E+00
 bond charge predicted
       N       E                     dE             d eps       ncg     rms          rms(c)
DAV:   1    -0.105641909071E+03   -0.15236E+00   -0.11171E+01  1632   0.453E+00    0.308E-01
DAV:   2    -0.105646992555E+03   -0.50835E-02   -0.55224E-02  1640   0.458E-01    0.231E-01
DAV:   3    -0.105646912462E+03    0.80094E-04   -0.14519E-03  1656   0.101E-01    0.129E-01
DAV:   4    -0.105646865259E+03    0.47203E-04   -0.66607E-04  1328   0.843E-02
   2 F= -.10564687E+03 E0= -.10564687E+03  d E =-.157214E+00  mag=     1.0011
 ZBRENT: can't locate minimum, use default step
 trial-energy change:   -0.157214  1 .order   -0.156933   -0.166110   -0.147757
 step:   4.0000(harm=  9.0508)  dis= 0.04628  next Energy=  -106.241364 (dE=-0.752E+00)
 bond charge predicted
       N       E                     dE             d eps       ncg     rms          rms(c)
DAV:   1    -0.105974384708E+03   -0.32747E+00   -0.10078E+02  1576   0.136E+01    0.821E-01
DAV:   2    -0.106019846331E+03   -0.45462E-01   -0.49619E-01  1616   0.137E+00    0.662E-01
DAV:   3    -0.106019346199E+03    0.50013E-03   -0.11726E-02  1616   0.280E-01    0.403E-01
DAV:   4    -0.106018886916E+03    0.45928E-03   -0.50985E-03  1680   0.218E-01    0.134E-01
DAV:   5    -0.106018748530E+03    0.13839E-03   -0.21250E-03  1664   0.174E-01    0.363E-02
DAV:   6    -0.106018740275E+03    0.82558E-05   -0.20423E-04  1032   0.476E-02
   3 F= -.10601874E+03 E0= -.10601874E+03  d E =-.529089E+00  mag=     1.0005
 curvature:  -2.74 expect dE=-0.206E+00 dE for cont linesearch -0.170E+00
 ZBRENT: increasing intervall
 opt :  10.0000  next Energy=  -106.349890 (dE=-0.860E+00)
 bond charge predicted
       N       E                     dE             d eps       ncg     rms          rms(c)
DAV:   1    -0.106212492880E+03   -0.19374E+00   -0.40592E+02  1568   0.274E+01    0.133E+00
DAV:   2    -0.106394905959E+03   -0.18241E+00   -0.19742E+00  1616   0.274E+00    0.119E+00
DAV:   3    -0.106394281958E+03    0.62400E-03   -0.38886E-02  1600   0.450E-01    0.811E-01
DAV:   4    -0.106391494013E+03    0.27879E-02   -0.12956E-02  1664   0.289E-01    0.364E-01
DAV:   5    -0.106391361541E+03    0.13247E-03   -0.58237E-03  1672   0.261E-01    0.931E-02
DAV:   6    -0.106391366174E+03   -0.46328E-05   -0.76863E-04  1600   0.986E-02
   4 F= -.10639137E+03 E0= -.10639137E+03  d E =-.901715E+00  mag=     1.0003
 curvature:  -5.34 expect dE=-0.318E+00 dE for cont linesearch -0.244E-01
 ZBRENT: extrapolating
 opt :  12.2352  next Energy=  -106.422148 (dE=-0.932E+00)
 bond charge predicted
       N       E                     dE             d eps       ncg     rms          rms(c)
DAV:   1    -0.106402364793E+03   -0.11003E-01   -0.55834E+01  1600   0.101E+01    0.463E-01
DAV:   2    -0.106427374611E+03   -0.25010E-01   -0.27340E-01  1600   0.101E+00    0.377E-01
DAV:   3    -0.106427269195E+03    0.10542E-03   -0.53929E-03  1608   0.170E-01    0.243E-01
DAV:   4    -0.106427066395E+03    0.20280E-03   -0.15346E-03  1672   0.962E-02    0.105E-01
DAV:   5    -0.106427191033E+03   -0.12464E-03   -0.54246E-04  1240   0.785E-02    0.268E-02
DAV:   6    -0.106427265345E+03   -0.74312E-04   -0.85247E-05  1032   0.323E-02
   5 F= -.10642727E+03 E0= -.10642727E+03  d E =-.937614E+00  mag=     1.0001
 curvature:  -6.74 expect dE=-0.490E+00 dE for cont linesearch -0.115E-02
 trial: gam= 0.40563 g(F)=  0.727E-01 g(S)=  0.000E+00 ort = 0.532E-02 (trialstep = 0.325E+01)
 search vector abs. value=  0.104E+00
 bond charge predicted
       N       E                     dE             d eps       ncg     rms          rms(c)
DAV:   1    -0.106608820938E+03   -0.18163E+00   -0.73645E+01  1568   0.118E+01    0.581E-01
DAV:   2    -0.106642005409E+03   -0.33184E-01   -0.34257E-01  1664   0.113E+00    0.449E-01
DAV:   3    -0.106641258698E+03    0.74671E-03   -0.59473E-03  1664   0.162E-01    0.292E-01
DAV:   4    -0.106640740608E+03    0.51809E-03   -0.32878E-03  1688   0.921E-02    0.585E-02
DAV:   5    -0.106640812623E+03   -0.72014E-04   -0.93241E-05  1056   0.277E-02
   6 F= -.10664081E+03 E0= -.10664081E+03  d E =-.213547E+00  mag=     1.0001
 ZBRENT: can't locate minimum, use default step
 trial-energy change:   -0.213547  1 .order   -0.214549   -0.243072   -0.186025
 step:  12.9882(harm= 13.8354)  dis= 0.12686  next Energy=  -106.945121 (dE=-0.518E+00)
 bond charge predicted
       N       E                     dE             d eps       ncg     rms          rms(c)
DAV:   1    -0.106672491686E+03   -0.31751E-01   -0.66983E+02  1568   0.357E+01    0.147E+00
DAV:   2    -0.106974848369E+03   -0.30236E+00   -0.31068E+00  1648   0.343E+00    0.129E+00
DAV:   3    -0.106971268123E+03    0.35802E-02   -0.49910E-02  1680   0.458E-01    0.936E-01
DAV:   4    -0.106963711371E+03    0.75568E-02   -0.24506E-02  1664   0.246E-01    0.332E-01
DAV:   5    -0.106964020808E+03   -0.30944E-03   -0.28447E-03  1680   0.112E-01    0.107E-01
DAV:   6    -0.106964100054E+03   -0.79246E-04   -0.35755E-04  1264   0.326E-02
   7 F= -.10696410E+03 E0= -.10696410E+03  d E =-.536835E+00  mag=     1.0000
 curvature:  -9.58 expect dE=-0.205E+00 dE for cont linesearch -0.124E-01
 ZBRENT: extrapolating
 opt :  15.4638  next Energy=  -106.978471 (dE=-0.551E+00)
 bond charge predicted
       N       E                     dE             d eps       ncg     rms          rms(c)
DAV:   1    -0.106962027816E+03    0.19930E-02   -0.42762E+01  1584   0.894E+00    0.362E-01
DAV:   2    -0.106981441123E+03   -0.19413E-01   -0.20027E-01  1656   0.859E-01    0.279E-01
DAV:   3    -0.106981186192E+03    0.25493E-03   -0.32662E-03  1640   0.118E-01    0.193E-01
DAV:   4    -0.106980981407E+03    0.20478E-03   -0.15066E-03  1672   0.618E-02    0.574E-02
DAV:   5    -0.106981148531E+03   -0.16712E-03   -0.99220E-05  1088   0.243E-02    0.210E-02
DAV:   6    -0.106981270002E+03   -0.12147E-03   -0.19261E-05  1040   0.770E-03    0.136E-02
DAV:   7    -0.106981426626E+03   -0.15662E-03   -0.16043E-05  1072   0.538E-03    0.549E-03
DAV:   8    -0.106981579905E+03   -0.15328E-03   -0.41893E-06  1040   0.329E-03    0.266E-03
DAV:   9    -0.106981751899E+03   -0.17199E-03   -0.29113E-06  1072   0.222E-03    0.218E-03
DAV:  10    -0.106981926708E+03   -0.17481E-03   -0.25145E-06  1056   0.128E-03    0.149E-03
DAV:  11    -0.106982118793E+03   -0.19208E-03   -0.37071E-06  1080   0.131E-03    0.986E-04
DAV:  12    -0.106982211742E+03   -0.92949E-04   -0.15851E-06  1056   0.908E-04
   8 F= -.10698221E+03 E0= -.10698221E+03  d E =-.554946E+00  mag=     1.0000
 curvature: -11.13 expect dE=-0.298E+00 dE for cont linesearch -0.321E-03
 trial: gam= 0.37338 g(F)=  0.267E-01 g(S)=  0.000E+00 ort = 0.174E-02 (trialstep = 0.569E+01)
 search vector abs. value=  0.426E-01
 bond charge predicted
       N       E                     dE             d eps       ncg     rms          rms(c)
DAV:   1    -0.107074023006E+03   -0.91904E-01   -0.92330E+01  1584   0.132E+01    0.478E-01
DAV:   2    -0.107115977596E+03   -0.41955E-01   -0.43087E-01  1656   0.127E+00    0.387E-01
DAV:   3    -0.107115101364E+03    0.87623E-03   -0.69750E-03  1688   0.170E-01    0.276E-01
DAV:   4    -0.107113617175E+03    0.14842E-02   -0.33198E-03  1680   0.899E-02    0.919E-02
DAV:   5    -0.107113483219E+03    0.13396E-03   -0.41476E-04  1552   0.412E-02    0.351E-02
DAV:   6    -0.107113556666E+03   -0.73447E-04   -0.44452E-05  1056   0.141E-02
   9 F= -.10711356E+03 E0= -.10711356E+03  d E =-.131345E+00  mag=     1.0000
 trial-energy change:   -0.131345  1 .order   -0.132754   -0.155892   -0.109616
 step:  19.1696(harm= 19.1696)  dis= 0.08247  next Energy=  -107.244792 (dE=-0.263E+00)
 bond charge predicted
       N       E                     dE             d eps       ncg     rms          rms(c)
DAV:   1    -0.107017458778E+03    0.96024E-01   -0.52134E+02  1568   0.315E+01    0.108E+00
DAV:   2    -0.107256701521E+03   -0.23924E+00   -0.24507E+00  1632   0.304E+00    0.921E-01
DAV:   3    -0.107253217959E+03    0.34836E-02   -0.39082E-02  1672   0.403E-01    0.666E-01
DAV:   4    -0.107246209937E+03    0.70080E-02   -0.13954E-02  1672   0.183E-01    0.296E-01
DAV:   5    -0.107245735110E+03    0.47483E-03   -0.44965E-03  1672   0.107E-01    0.940E-02
DAV:   6    -0.107246052469E+03   -0.31736E-03   -0.24675E-04  1136   0.262E-02    0.552E-02
DAV:   7    -0.107246549481E+03   -0.49701E-03   -0.18325E-04  1112   0.216E-02    0.187E-02
DAV:   8    -0.107246986066E+03   -0.43658E-03   -0.39788E-05  1088   0.109E-02    0.791E-03
DAV:   9    -0.107247407019E+03   -0.42095E-03   -0.13181E-05  1072   0.531E-03    0.529E-03
DAV:  10    -0.107247797523E+03   -0.39050E-03   -0.65560E-06  1072   0.272E-03    0.383E-03
DAV:  11    -0.107248319961E+03   -0.52244E-03   -0.10011E-05  1080   0.217E-03    0.279E-03
DAV:  12    -0.107248866480E+03   -0.54652E-03   -0.14128E-05  1096   0.235E-03    0.181E-03
DAV:  13    -0.107249116789E+03   -0.25031E-03   -0.40869E-06  1088   0.135E-03    0.127E-03
DAV:  14    -0.107249308448E+03   -0.19166E-03   -0.23801E-06  1072   0.992E-04    0.737E-04
DAV:  15    -0.107249421113E+03   -0.11266E-03   -0.95241E-07  1064   0.683E-04    0.444E-04
DAV:  16    -0.107249491164E+03   -0.70051E-04   -0.45873E-07  1040   0.503E-04
  10 F= -.10724949E+03 E0= -.10724949E+03  d E =-.267279E+00  mag=     1.0000
 curvature: -14.90 expect dE=-0.246E+00 dE for cont linesearch -0.504E-03
 trial: gam= 0.58043 g(F)=  0.165E-01 g(S)=  0.000E+00 ort = 0.120E-02 (trialstep = 0.839E+01)
 search vector abs. value=  0.323E-01
 bond charge predicted
       N       E                     dE             d eps       ncg     rms          rms(c)
DAV:   1    -0.107304793284E+03   -0.55372E-01   -0.15215E+02  1568   0.169E+01    0.465E-01
DAV:   2    -0.107376279526E+03   -0.71486E-01   -0.72833E-01  1656   0.165E+00    0.435E-01
DAV:   3    -0.107375182198E+03    0.10973E-02   -0.11260E-02  1696   0.210E-01    0.328E-01
DAV:   4    -0.107372782567E+03    0.23996E-02   -0.32462E-03  1680   0.853E-02    0.175E-01
DAV:   5    -0.107372121614E+03    0.66095E-03   -0.30107E-03  1696   0.813E-02    0.590E-02
DAV:   6    -0.107372193757E+03   -0.72143E-04   -0.80990E-05  1088   0.154E-02
  11 F= -.10737219E+03 E0= -.10737219E+03  d E =-.122703E+00  mag=     1.0000
 trial-energy change:   -0.122703  1 .order   -0.124725   -0.144312   -0.105139
 step:  30.8944(harm= 30.8944)  dis= 0.10708  next Energy=  -107.515309 (dE=-0.266E+00)
 bond charge predicted
       N       E                     dE             d eps       ncg     rms          rms(c)
DAV:   1    -0.106993513285E+03    0.37861E+00   -0.11101E+03  1568   0.462E+01    0.143E+00
DAV:   2    -0.107527747698E+03   -0.53423E+00   -0.54173E+00  1632   0.454E+00    0.123E+00
DAV:   3    -0.107520677468E+03    0.70702E-02   -0.84682E-02  1696   0.585E-01    0.878E-01
DAV:   4    -0.107506720383E+03    0.13957E-01   -0.20503E-02  1656   0.214E-01    0.497E-01
DAV:   5    -0.107504182680E+03    0.25377E-02   -0.17154E-02  1656   0.192E-01    0.146E-01
DAV:   6    -0.107504701713E+03   -0.51903E-03   -0.44115E-04  1536   0.345E-02    0.830E-02
DAV:   7    -0.107505460462E+03   -0.75875E-03   -0.17069E-04  1104   0.200E-02    0.317E-02
DAV:   8    -0.107506103318E+03   -0.64286E-03   -0.55853E-05  1096   0.113E-02    0.119E-02
DAV:   9    -0.107506739592E+03   -0.63627E-03   -0.16067E-05  1080   0.474E-03    0.635E-03
DAV:  10    -0.107507348909E+03   -0.60932E-03   -0.12171E-05  1096   0.301E-03    0.448E-03
DAV:  11    -0.107507907306E+03   -0.55840E-03   -0.99437E-06  1080   0.208E-03    0.337E-03
DAV:  12    -0.107508801889E+03   -0.89458E-03   -0.29978E-05  1088   0.307E-03    0.212E-03
DAV:  13    -0.107509091684E+03   -0.28980E-03   -0.51104E-06  1088   0.165E-03    0.145E-03
DAV:  14    -0.107509298516E+03   -0.20683E-03   -0.30165E-06  1040   0.123E-03    0.890E-04
DAV:  15    -0.107509451283E+03   -0.15277E-03   -0.16844E-06  1064   0.104E-03    0.533E-04
DAV:  16    -0.107509532763E+03   -0.81480E-04   -0.71496E-07  1056   0.700E-04
  12 F= -.10750953E+03 E0= -.10750953E+03  d E =-.260042E+00  mag=     1.0000
 curvature: -28.95 expect dE=-0.579E+00 dE for cont linesearch -0.110E-04
 trial: gam= 1.24101 g(F)=  0.200E-01 g(S)=  0.000E+00 ort =-0.110E-03 (trialstep = 0.599E+01)
 search vector abs. value=  0.694E-01
 bond charge predicted
       N       E                     dE             d eps       ncg     rms          rms(c)
DAV:   1    -0.107540444454E+03   -0.30993E-01   -0.16717E+02  1568   0.177E+01    0.431E-01
DAV:   2    -0.107620153573E+03   -0.79709E-01   -0.80129E-01  1664   0.172E+00    0.420E-01
DAV:   3    -0.107619114453E+03    0.10391E-02   -0.11911E-02  1696   0.208E-01    0.328E-01
DAV:   4    -0.107616739503E+03    0.23749E-02   -0.29617E-03  1664   0.809E-02    0.189E-01
DAV:   5    -0.107616137319E+03    0.60218E-03   -0.41613E-03  1680   0.926E-02    0.614E-02
DAV:   6    -0.107616154311E+03   -0.16992E-04   -0.66354E-05  1064   0.136E-02
  13 F= -.10761615E+03 E0= -.10761615E+03  d E =-.106622E+00  mag=     1.0000
 ZBRENT: can't locate minimum, use default step
 trial-energy change:   -0.106622  1 .order   -0.107914   -0.118965   -0.096864
 step:  23.9592(harm= 32.2416)  dis= 0.11380  next Energy=  -107.829711 (dE=-0.320E+00)
 bond charge predicted
       N       E                     dE             d eps       ncg     rms          rms(c)
DAV:   1    -0.107048453039E+03    0.56768E+00   -0.15359E+03  1568   0.545E+01    0.177E+00
DAV:   2    -0.107807836780E+03   -0.75938E+00   -0.76411E+00  1656   0.541E+00    0.138E+00
DAV:   3    -0.107797338612E+03    0.10498E-01   -0.11933E-01  1696   0.690E-01    0.959E-01
DAV:   4    -0.107779807703E+03    0.17531E-01   -0.24299E-02  1664   0.234E-01    0.567E-01
DAV:   5    -0.107775760742E+03    0.40470E-02   -0.22649E-02  1672   0.218E-01    0.156E-01
DAV:   6    -0.107776124156E+03   -0.36341E-03   -0.35883E-04  1232   0.342E-02    0.895E-02
DAV:   7    -0.107776510970E+03   -0.38681E-03   -0.12815E-04  1088   0.187E-02    0.359E-02
DAV:   8    -0.107776799719E+03   -0.28875E-03   -0.44032E-05  1096   0.100E-02    0.130E-02
DAV:   9    -0.107777138636E+03   -0.33892E-03   -0.15608E-05  1088   0.534E-03    0.559E-03
DAV:  10    -0.107777407551E+03   -0.26892E-03   -0.77496E-06  1088   0.266E-03    0.319E-03
DAV:  11    -0.107777603324E+03   -0.19577E-03   -0.41620E-06  1056   0.164E-03    0.242E-03
DAV:  12    -0.107778018518E+03   -0.41519E-03   -0.18065E-05  1072   0.258E-03    0.181E-03
DAV:  13    -0.107778120454E+03   -0.10194E-03   -0.23343E-06  1096   0.122E-03    0.127E-03
DAV:  14    -0.107778231213E+03   -0.11076E-03   -0.20290E-06  1040   0.105E-03    0.712E-04
DAV:  15    -0.107778297622E+03   -0.66409E-04   -0.97481E-07  1056   0.713E-04
  14 F= -.10777830E+03 E0= -.10777830E+03  d E =-.268765E+00  mag=     1.0000
 curvature: -50.72 expect dE=-0.742E+00 dE for cont linesearch -0.257E-02
 trial: gam= 0.47765 g(F)=  0.146E-01 g(S)=  0.000E+00 ort = 0.187E-02 (trialstep = 0.958E+01)
 search vector abs. value=  0.323E-01
 bond charge predicted
       N       E                     dE             d eps       ncg     rms          rms(c)
DAV:   1    -0.107811736048E+03   -0.33505E-01   -0.19920E+02  1568   0.194E+01    0.523E-01
DAV:   2    -0.107906576080E+03   -0.94840E-01   -0.95351E-01  1664   0.187E+00    0.490E-01
DAV:   3    -0.107905211633E+03    0.13644E-02   -0.14107E-02  1688   0.221E-01    0.373E-01
DAV:   4    -0.107902273896E+03    0.29377E-02   -0.52330E-03  1632   0.108E-01    0.187E-01
DAV:   5    -0.107902129609E+03    0.14429E-03   -0.33263E-03  1680   0.847E-02    0.686E-02
DAV:   6    -0.107902113078E+03    0.16531E-04   -0.10068E-04  1040   0.156E-02
  15 F= -.10790211E+03 E0= -.10790211E+03  d E =-.123815E+00  mag=     1.0000
 trial-energy change:   -0.123815  1 .order   -0.124297   -0.148777   -0.099817
 step:  34.3629(harm= 29.1224)  dis= 0.11182  next Energy=  -108.022835 (dE=-0.245E+00)
 bond charge predicted
       N       E                     dE             d eps       ncg     rms          rms(c)
DAV:   1    -0.107326829630E+03    0.57530E+00   -0.13569E+03  1568   0.512E+01    0.176E+00
DAV:   2    -0.107994203084E+03   -0.66737E+00   -0.67356E+00  1656   0.505E+00    0.134E+00
DAV:   3    -0.107983559093E+03    0.10644E-01   -0.10438E-01  1664   0.626E-01    0.929E-01
DAV:   4    -0.107967242330E+03    0.16317E-01   -0.30667E-02  1656   0.263E-01    0.473E-01
DAV:   5    -0.107966100433E+03    0.11419E-02   -0.14244E-02  1664   0.178E-01    0.142E-01
DAV:   6    -0.107966190035E+03   -0.89603E-04   -0.50907E-04  1656   0.347E-02
  16 F= -.10796619E+03 E0= -.10796619E+03  d E =-.187892E+00  mag=     1.0000
 curvature: -28.08 expect dE=-0.721E+00 dE for cont linesearch -0.272E-01
 ZBRENT: interpolating
 opt :  25.7088  next Energy=  -107.990377 (dE=-0.212E+00)
 bond charge predicted
       N       E                     dE             d eps       ncg     rms          rms(c)
DAV:   1    -0.107915522714E+03    0.50578E-01   -0.16245E+02  1568   0.175E+01    0.459E-01
DAV:   2    -0.107992736922E+03   -0.77214E-01   -0.77246E-01  1664   0.168E+00    0.446E-01
DAV:   3    -0.107991734026E+03    0.10029E-02   -0.11305E-02  1696   0.194E-01    0.349E-01
DAV:   4    -0.107989292590E+03    0.24414E-02   -0.44074E-03  1648   0.982E-02    0.173E-01
DAV:   5    -0.107989252639E+03    0.39951E-04   -0.29162E-03  1672   0.781E-02    0.667E-02
DAV:   6    -0.107989240414E+03    0.12225E-04   -0.10130E-04  1064   0.152E-02
  17 F= -.10798924E+03 E0= -.10798924E+03  d E =-.210943E+00  mag=     1.0000
 curvature: -24.97 expect dE=-0.321E+00 dE for cont linesearch -0.320E-04
 trial: gam= 0.86847 g(F)=  0.129E-01 g(S)=  0.000E+00 ort = 0.203E-03 (trialstep = 0.110E+02)
 search vector abs. value=  0.376E-01
 bond charge predicted
       N       E                     dE             d eps       ncg     rms          rms(c)
DAV:   1    -0.107950423429E+03    0.38829E-01   -0.30629E+02  1568   0.240E+01    0.682E-01
DAV:   2    -0.108096923966E+03   -0.14650E+00   -0.14692E+00  1664   0.232E+00    0.589E-01
DAV:   3    -0.108094524201E+03    0.23998E-02   -0.21771E-02  1688   0.273E-01    0.445E-01
DAV:   4    -0.108090169596E+03    0.43546E-02   -0.88808E-03  1648   0.137E-01    0.193E-01
DAV:   5    -0.108090074506E+03    0.95090E-04   -0.35390E-03  1680   0.881E-02    0.707E-02
DAV:   6    -0.108090063052E+03    0.11454E-04   -0.15821E-04  1120   0.193E-02
  18 F= -.10809006E+03 E0= -.10809006E+03  d E =-.100823E+00  mag=     1.0000
 trial-energy change:   -0.100823  1 .order   -0.100581   -0.143581   -0.057580
 step:  18.3650(harm= 18.3650)  dis= 0.05929  next Energy=  -108.109096 (dE=-0.120E+00)
 bond charge predicted
       N       E                     dE             d eps       ncg     rms          rms(c)
DAV:   1    -0.108043569000E+03    0.46506E-01   -0.13680E+02  1568   0.160E+01    0.444E-01
DAV:   2    -0.108108946314E+03   -0.65377E-01   -0.65387E-01  1632   0.155E+00    0.390E-01
DAV:   3    -0.108107957026E+03    0.98929E-03   -0.96135E-03  1680   0.181E-01    0.296E-01
DAV:   4    -0.108106063901E+03    0.18931E-02   -0.41233E-03  1632   0.933E-02    0.126E-01
DAV:   5    -0.108106094277E+03   -0.30376E-04   -0.16212E-03  1680   0.597E-02    0.499E-02
DAV:   6    -0.108106100096E+03   -0.58182E-05   -0.72951E-05  1016   0.130E-02
  19 F= -.10810610E+03 E0= -.10810610E+03  d E =-.116860E+00  mag=     1.0000
 curvature: -26.42 expect dE=-0.178E+00 dE for cont linesearch -0.375E-03
 trial: gam= 0.46850 g(F)=  0.673E-02 g(S)=  0.000E+00 ort =-0.730E-03 (trialstep = 0.125E+02)
 search vector abs. value=  0.143E-01
 bond charge predicted
       N       E                     dE             d eps       ncg     rms          rms(c)
DAV:   1    -0.108097820526E+03    0.82738E-02   -0.14933E+02  1568   0.167E+01    0.455E-01
DAV:   2    -0.108169653234E+03   -0.71833E-01   -0.72032E-01  1656   0.162E+00    0.387E-01
DAV:   3    -0.108168651576E+03    0.10017E-02   -0.10556E-02  1680   0.189E-01    0.293E-01
DAV:   4    -0.108166724000E+03    0.19276E-02   -0.39390E-03  1656   0.912E-02    0.127E-01
DAV:   5    -0.108166709601E+03    0.14399E-04   -0.17746E-03  1688   0.617E-02    0.473E-02
DAV:   6    -0.108166724826E+03   -0.15225E-04   -0.70944E-05  1024   0.130E-02
  20 F= -.10816672E+03 E0= -.10816672E+03  d E =-.606247E-01  mag=     1.0000
 trial-energy change:   -0.060625  1 .order   -0.061259   -0.079630   -0.042888
 step:  32.3890(harm= 27.0326)  dis= 0.05935  next Energy=  -108.198382 (dE=-0.923E-01)
 bond charge predicted
       N       E                     dE             d eps       ncg     rms          rms(c)
DAV:   1    -0.108009305309E+03    0.15740E+00   -0.38217E+02  1568   0.268E+01    0.800E-01
DAV:   2    -0.108193773605E+03   -0.18447E+00   -0.18551E+00  1640   0.260E+00    0.624E-01
DAV:   3    -0.108190787793E+03    0.29858E-02   -0.27526E-02  1688   0.305E-01    0.460E-01
DAV:   4    -0.108186014934E+03    0.47729E-02   -0.10657E-02  1648   0.150E-01    0.185E-01
DAV:   5    -0.108186008976E+03    0.59576E-05   -0.31989E-03  1680   0.840E-02    0.660E-02
DAV:   6    -0.108186038394E+03   -0.29418E-04   -0.17518E-04  1112   0.201E-02
  21 F= -.10818604E+03 E0= -.10818604E+03  d E =-.799383E-01  mag=     1.0000
 curvature: -26.15 expect dE=-0.252E+00 dE for cont linesearch -0.350E-02
 ZBRENT: interpolating
 opt :  26.6787  next Energy=  -108.189985 (dE=-0.839E-01)
 bond charge predicted
       N       E                     dE             d eps       ncg     rms          rms(c)
DAV:   1    -0.108176254092E+03    0.97549E-02   -0.31271E+01  1568   0.764E+00    0.196E-01
DAV:   2    -0.108191207436E+03   -0.14953E-01   -0.14942E-01  1680   0.737E-01    0.185E-01
DAV:   3    -0.108191052413E+03    0.15502E-03   -0.21997E-03  1712   0.864E-02    0.145E-01
DAV:   4    -0.108190671289E+03    0.38112E-03   -0.78614E-04  1656   0.410E-02    0.696E-02
DAV:   5    -0.108190712134E+03   -0.40845E-04   -0.53602E-04  1696   0.336E-02
  22 F= -.10819071E+03 E0= -.10819071E+03  d E =-.846120E-01  mag=     1.0000
 curvature: -29.51 expect dE=-0.195E+00 dE for cont linesearch -0.542E-04
 trial: gam= 0.84086 g(F)=  0.659E-02 g(S)=  0.000E+00 ort =-0.162E-03 (trialstep = 0.133E+02)
 search vector abs. value=  0.164E-01
 bond charge predicted
       N       E                     dE             d eps       ncg     rms          rms(c)
DAV:   1    -0.108167506889E+03    0.23164E-01   -0.19622E+02  1568   0.191E+01    0.502E-01
DAV:   2    -0.108262417414E+03   -0.94911E-01   -0.95095E-01  1648   0.185E+00    0.436E-01
DAV:   3    -0.108261173249E+03    0.12442E-02   -0.13772E-02  1688   0.212E-01    0.336E-01
DAV:   4    -0.108258556829E+03    0.26164E-02   -0.48550E-03  1632   0.101E-01    0.150E-01
DAV:   5    -0.108258434166E+03    0.12266E-03   -0.25220E-03  1696   0.726E-02    0.539E-02
DAV:   6    -0.108258447832E+03   -0.13666E-04   -0.81287E-05  1024   0.144E-02
  23 F= -.10825845E+03 E0= -.10825845E+03  d E =-.677357E-01  mag=     1.0000
 trial-energy change:   -0.067736  1 .order   -0.067634   -0.086019   -0.049250
 step:  31.1670(harm= 31.1670)  dis= 0.07428  next Energy=  -108.291330 (dE=-0.101E+00)
 bond charge predicted
       N       E                     dE             d eps       ncg     rms          rms(c)
DAV:   1    -0.108120406035E+03    0.13803E+00   -0.35280E+02  1568   0.256E+01    0.727E-01
DAV:   2    -0.108291886588E+03   -0.17148E+00   -0.17216E+00  1640   0.249E+00    0.583E-01
DAV:   3    -0.108289456080E+03    0.24305E-02   -0.25073E-02  1696   0.285E-01    0.438E-01
DAV:   4    -0.108285142583E+03    0.43135E-02   -0.88510E-03  1640   0.137E-01    0.186E-01
DAV:   5    -0.108285072404E+03    0.70178E-04   -0.34585E-03  1688   0.855E-02    0.652E-02
DAV:   6    -0.108285125122E+03   -0.52717E-04   -0.13923E-04  1064   0.185E-02
  24 F= -.10828513E+03 E0= -.10828513E+03  d E =-.944130E-01  mag=     1.0000
 curvature: -39.63 expect dE=-0.362E+00 dE for cont linesearch -0.418E-03
 trial: gam= 1.45779 g(F)=  0.914E-02 g(S)=  0.000E+00 ort =-0.416E-03 (trialstep = 0.648E+01)
 search vector abs. value=  0.428E-01
 bond charge predicted
       N       E                     dE             d eps       ncg     rms          rms(c)
DAV:   1    -0.108275763427E+03    0.93090E-02   -0.12090E+02  1568   0.149E+01    0.353E-01
DAV:   2    -0.108334949435E+03   -0.59186E-01   -0.59288E-01  1640   0.145E+00    0.321E-01
DAV:   3    -0.108334347202E+03    0.60223E-03   -0.84844E-03  1704   0.165E-01    0.254E-01
DAV:   4    -0.108332926341E+03    0.14209E-02   -0.21419E-03  1632   0.689E-02    0.132E-01
DAV:   5    -0.108332794908E+03    0.13143E-03   -0.22791E-03  1680   0.677E-02    0.434E-02
DAV:   6    -0.108332848213E+03   -0.53305E-04   -0.40276E-05  1040   0.108E-02
  25 F= -.10833285E+03 E0= -.10833285E+03  d E =-.477231E-01  mag=     1.0000
 ZBRENT: can't locate minimum, use default step
 trial-energy change:   -0.047723  1 .order   -0.048695   -0.055281   -0.042109
 step:  25.9071(harm= 27.1827)  dis= 0.11078  next Energy=  -108.401130 (dE=-0.116E+00)
 bond charge predicted
       N       E                     dE             d eps       ncg     rms          rms(c)
DAV:   1    -0.107850262656E+03    0.48253E+00   -0.11121E+03  1568   0.455E+01    0.146E+00
DAV:   2    -0.108412826633E+03   -0.56256E+00   -0.56499E+00  1648   0.452E+00    0.106E+00
DAV:   3    -0.108406315534E+03    0.65111E-02   -0.84262E-02  1688   0.526E-01    0.755E-01
DAV:   4    -0.108395246945E+03    0.11069E-01   -0.15681E-02  1640   0.187E-01    0.429E-01
DAV:   5    -0.108392975024E+03    0.22719E-02   -0.14206E-02  1664   0.169E-01    0.110E-01
DAV:   6    -0.108393240439E+03   -0.26542E-03   -0.22775E-04  1120   0.281E-02    0.636E-02
DAV:   7    -0.108393450637E+03   -0.21020E-03   -0.73600E-05  1080   0.135E-02    0.274E-02
DAV:   8    -0.108393597372E+03   -0.14674E-03   -0.33487E-05  1088   0.881E-03    0.934E-03
DAV:   9    -0.108393742214E+03   -0.14484E-03   -0.11806E-05  1056   0.468E-03    0.405E-03
DAV:  10    -0.108393826178E+03   -0.83964E-04   -0.45971E-06  1080   0.214E-03
  26 F= -.10839383E+03 E0= -.10839383E+03  d E =-.108701E+00  mag=     1.0000
 curvature: -67.94 expect dE=-0.668E+00 dE for cont linesearch -0.157E-05
 trial: gam= 0.85903 g(F)=  0.984E-02 g(S)=  0.000E+00 ort =-0.315E-04 (trialstep = 0.104E+02)
 search vector abs. value=  0.414E-01
 bond charge predicted
       N       E                     dE             d eps       ncg     rms          rms(c)
DAV:   1    -0.108336859043E+03    0.56883E-01   -0.30132E+02  1568   0.233E+01    0.617E-01
DAV:   2    -0.108486122125E+03   -0.14926E+00   -0.14958E+00  1648   0.229E+00    0.541E-01
DAV:   3    -0.108484561136E+03    0.15610E-02   -0.21774E-02  1688   0.263E-01    0.414E-01
DAV:   4    -0.108481059778E+03    0.35014E-02   -0.52719E-03  1656   0.106E-01    0.220E-01
DAV:   5    -0.108480613260E+03    0.44652E-03   -0.47865E-03  1672   0.970E-02    0.680E-02
DAV:   6    -0.108480653716E+03   -0.40456E-04   -0.77975E-05  1080   0.147E-02
  27 F= -.10848065E+03 E0= -.10848065E+03  d E =-.868275E-01  mag=     1.0000
 trial-energy change:   -0.086828  1 .order   -0.088375   -0.101686   -0.075064
 step:  39.5828(harm= 39.5828)  dis= 0.19808  next Energy=  -108.588030 (dE=-0.194E+00)
 bond charge predicted
       N       E                     dE             d eps       ncg     rms          rms(c)
DAV:   1    -0.107173421389E+03    0.13072E+01   -0.25472E+03  1568   0.694E+01    0.312E+00
DAV:   2    -0.108590122176E+03   -0.14167E+01   -0.14243E+01  1664   0.720E+00    0.196E+00
DAV:   3    -0.108581107467E+03    0.90147E-02   -0.22619E-01  1672   0.872E-01    0.127E+00
DAV:   4    -0.108562267234E+03    0.18840E-01   -0.24029E-02  1664   0.245E-01    0.873E-01
DAV:   5    -0.108555548909E+03    0.67183E-02   -0.32378E-02  1672   0.258E-01    0.224E-01
DAV:   6    -0.108556002952E+03   -0.45404E-03   -0.58438E-04  1648   0.449E-02    0.132E-01
DAV:   7    -0.108556431287E+03   -0.42833E-03   -0.95304E-05  1072   0.191E-02    0.557E-02
DAV:   8    -0.108556676600E+03   -0.24531E-03   -0.65128E-05  1104   0.126E-02    0.166E-02
DAV:   9    -0.108556857883E+03   -0.18128E-03   -0.14294E-05  1064   0.596E-03    0.757E-03
DAV:  10    -0.108556993099E+03   -0.13522E-03   -0.80623E-06  1080   0.301E-03    0.316E-03
DAV:  11    -0.108557125323E+03   -0.13222E-03   -0.74492E-06  1072   0.215E-03    0.243E-03
DAV:  12    -0.108557253802E+03   -0.12848E-03   -0.90230E-06  1088   0.180E-03    0.172E-03
DAV:  13    -0.108557312220E+03   -0.58419E-04   -0.29053E-06  1080   0.112E-03
  28 F= -.10855731E+03 E0= -.10855731E+03  d E =-.163486E+00  mag=     1.0000
 curvature: -83.48 expect dE=-0.177E+01 dE for cont linesearch -0.691E-02
 ZBRENT: interpolating
 opt :  33.6352  next Energy=  -108.562817 (dE=-0.169E+00)
 bond charge predicted
       N       E                     dE             d eps       ncg     rms          rms(c)
DAV:   1    -0.108515758416E+03    0.41495E-01   -0.98656E+01  1568   0.134E+01    0.334E-01
DAV:   2    -0.108563938289E+03   -0.48180E-01   -0.48330E-01  1680   0.130E+00    0.295E-01
DAV:   3    -0.108563547130E+03    0.39116E-03   -0.70282E-03  1704   0.151E-01    0.230E-01
DAV:   4    -0.108562481350E+03    0.10658E-02   -0.17493E-03  1656   0.635E-02    0.117E-01
DAV:   5    -0.108562393181E+03    0.88170E-04   -0.16401E-03  1688   0.581E-02    0.384E-02
DAV:   6    -0.108562396019E+03   -0.28382E-05   -0.37575E-05  1040   0.991E-03
  29 F= -.10856240E+03 E0= -.10856240E+03  d E =-.168570E+00  mag=     1.0000
 curvature: -66.49 expect dE=-0.102E+01 dE for cont linesearch -0.339E-05
 trial: gam= 1.55579 g(F)=  0.153E-01 g(S)=  0.000E+00 ort =-0.460E-04 (trialstep = 0.539E+01)
 search vector abs. value=  0.115E+00
 bond charge predicted
       N       E                     dE             d eps       ncg     rms          rms(c)
DAV:   1    -0.108530304945E+03    0.32088E-01   -0.22749E+02  1568   0.201E+01    0.507E-01
DAV:   2    -0.108643313040E+03   -0.11301E+00   -0.11372E+00  1640   0.197E+00    0.432E-01
DAV:   3    -0.108642476310E+03    0.83673E-03   -0.16780E-02  1712   0.230E-01    0.332E-01
DAV:   4    -0.108640310041E+03    0.21663E-02   -0.25984E-03  1648   0.768E-02    0.198E-01
DAV:   5    -0.108639689990E+03    0.62005E-03   -0.42261E-03  1664   0.906E-02    0.505E-02
DAV:   6    -0.108639726538E+03   -0.36548E-04   -0.49093E-05  1096   0.131E-02
  30 F= -.10863973E+03 E0= -.10863973E+03  d E =-.773305E-01  mag=     1.0000
 ZBRENT: can't locate minimum, use default step
 trial-energy change:   -0.077331  1 .order   -0.078125   -0.082038   -0.074211
 step:  21.5567(harm= 56.4850)  dis= 0.19236  next Energy=  -108.992325 (dE=-0.430E+00)
 bond charge predicted
       N       E                     dE             d eps       ncg     rms          rms(c)
DAV:   1    -0.107475777737E+03    0.11639E+01   -0.22158E+03  1568   0.640E+01    0.324E+00
DAV:   2    -0.108785957046E+03   -0.13102E+01   -0.13311E+01  1648   0.680E+00    0.176E+00
DAV:   3    -0.108780447553E+03    0.55095E-02   -0.21193E-01  1672   0.835E-01    0.116E+00
DAV:   4    -0.108767001977E+03    0.13446E-01   -0.16140E-02  1640   0.202E-01    0.831E-01
DAV:   5    -0.108760524653E+03    0.64773E-02   -0.25912E-02  1664   0.229E-01    0.206E-01
DAV:   6    -0.108760887545E+03   -0.36289E-03   -0.65847E-04  1688   0.457E-02    0.105E-01
DAV:   7    -0.108761169141E+03   -0.28160E-03   -0.57481E-05  1088   0.151E-02    0.489E-02
DAV:   8    -0.108761362014E+03   -0.19287E-03   -0.44435E-05  1072   0.101E-02    0.135E-02
DAV:   9    -0.108761487026E+03   -0.12501E-03   -0.89736E-06  1080   0.451E-03    0.620E-03
DAV:  10    -0.108761591251E+03   -0.10423E-03   -0.58535E-06  1064   0.235E-03    0.273E-03
DAV:  11    -0.108761689154E+03   -0.97903E-04   -0.55651E-06  1064   0.177E-03
  31 F= -.10876169E+03 E0= -.10876169E+03  d E =-.199293E+00  mag=     1.0000
 curvature: ****** expect dE=-0.154E+01 dE for cont linesearch -0.135E-03
 trial: gam= 0.32767 g(F)=  0.135E-01 g(S)=  0.000E+00 ort = 0.369E-03 (trialstep = 0.862E+01)
 search vector abs. value=  0.261E-01
 bond charge predicted
       N       E                     dE             d eps       ncg     rms          rms(c)
DAV:   1    -0.108796340683E+03   -0.34749E-01   -0.13151E+02  1568   0.154E+01    0.502E-01
DAV:   2    -0.108859032106E+03   -0.62691E-01   -0.64820E-01  1640   0.152E+00    0.394E-01
DAV:   3    -0.108858468504E+03    0.56360E-03   -0.10394E-02  1704   0.192E-01    0.272E-01
DAV:   4    -0.108857268643E+03    0.11999E-02   -0.24956E-03  1624   0.779E-02    0.131E-01
DAV:   5    -0.108857259813E+03    0.88299E-05   -0.12580E-03  1688   0.544E-02    0.405E-02
DAV:   6    -0.108857247795E+03    0.12018E-04   -0.73604E-05  1008   0.129E-02
  32 F= -.10885725E+03 E0= -.10885725E+03  d E =-.955586E-01  mag=     1.0000
 trial-energy change:   -0.095559  1 .order   -0.095240   -0.117657   -0.072823
 step:  22.6281(harm= 22.6281)  dis= 0.07160  next Energy=  -108.916070 (dE=-0.154E+00)
 bond charge predicted
       N       E                     dE             d eps       ncg     rms          rms(c)
DAV:   1    -0.108739233098E+03    0.11803E+00   -0.35120E+02  1568   0.252E+01    0.947E-01
DAV:   2    -0.108912678414E+03   -0.17345E+00   -0.17912E+00  1632   0.253E+00    0.679E-01
DAV:   3    -0.108911075500E+03    0.16029E-02   -0.29440E-02  1688   0.326E-01    0.451E-01
DAV:   4    -0.108908044166E+03    0.30313E-02   -0.66961E-03  1632   0.127E-01    0.209E-01
DAV:   5    -0.108908012438E+03    0.31728E-04   -0.25271E-03  1664   0.792E-02    0.578E-02
DAV:   6    -0.108907987640E+03    0.24798E-04   -0.17082E-04  1072   0.202E-02
  33 F= -.10890799E+03 E0= -.10890799E+03  d E =-.146298E+00  mag=     1.0000
 curvature: -21.68 expect dE=-0.236E+00 dE for cont linesearch -0.189E-02
 trial: gam= 0.73078 g(F)=  0.109E-01 g(S)=  0.000E+00 ort =-0.151E-02 (trialstep = 0.114E+02)
 search vector abs. value=  0.227E-01
 bond charge predicted
       N       E                     dE             d eps       ncg     rms          rms(c)
DAV:   1    -0.108900784779E+03    0.72277E-02   -0.19923E+02  1568   0.192E+01    0.572E-01
DAV:   2    -0.108995433948E+03   -0.94649E-01   -0.95335E-01  1632   0.185E+00    0.444E-01
DAV:   3    -0.108994309120E+03    0.11248E-02   -0.14527E-02  1680   0.228E-01    0.328E-01
DAV:   4    -0.108992301637E+03    0.20075E-02   -0.42203E-03  1656   0.975E-02    0.145E-01
DAV:   5    -0.108992294615E+03    0.70217E-05   -0.19256E-03  1680   0.670E-02    0.473E-02
DAV:   6    -0.108992306429E+03   -0.11814E-04   -0.85817E-05  1056   0.156E-02
  34 F= -.10899231E+03 E0= -.10899231E+03  d E =-.843188E-01  mag=     1.0000
 trial-energy change:   -0.084319  1 .order   -0.084834   -0.111977   -0.057691
 step:  25.3177(harm= 23.5642)  dis= 0.08563  next Energy=  -109.026462 (dE=-0.118E+00)
 bond charge predicted
       N       E                     dE             d eps       ncg     rms          rms(c)
DAV:   1    -0.108881161756E+03    0.11113E+00   -0.29554E+02  1568   0.234E+01    0.745E-01
DAV:   2    -0.109022158863E+03   -0.14100E+00   -0.14219E+00  1616   0.227E+00    0.549E-01
DAV:   3    -0.109020281258E+03    0.18776E-02   -0.21751E-02  1648   0.276E-01    0.399E-01
DAV:   4    -0.109017334029E+03    0.29472E-02   -0.69184E-03  1648   0.124E-01    0.162E-01
DAV:   5    -0.109017391169E+03   -0.57140E-04   -0.20841E-03  1656   0.714E-02    0.539E-02
DAV:   6    -0.109017406183E+03   -0.15014E-04   -0.12720E-04  1088   0.189E-02
  35 F= -.10901741E+03 E0= -.10901741E+03  d E =-.109419E+00  mag=     1.0000
 curvature: -26.67 expect dE=-0.211E+00 dE for cont linesearch -0.204E-02
 trial: gam= 0.58992 g(F)=  0.790E-02 g(S)=  0.000E+00 ort =-0.132E-02 (trialstep = 0.142E+02)
 search vector abs. value=  0.142E-01
 bond charge predicted
       N       E                     dE             d eps       ncg     rms          rms(c)
DAV:   1    -0.108998470295E+03    0.18921E-01   -0.19354E+02  1568   0.190E+01    0.546E-01
DAV:   2    -0.109092162813E+03   -0.93693E-01   -0.94291E-01  1608   0.185E+00    0.474E-01
DAV:   3    -0.109091173302E+03    0.98951E-03   -0.14299E-02  1696   0.220E-01    0.350E-01
DAV:   4    -0.109088941491E+03    0.22318E-02   -0.46630E-03  1616   0.101E-01    0.162E-01
DAV:   5    -0.109088978572E+03   -0.37080E-04   -0.22716E-03  1672   0.711E-02    0.594E-02
DAV:   6    -0.109088973086E+03    0.54856E-05   -0.13157E-04  1080   0.169E-02
  36 F= -.10908897E+03 E0= -.10908897E+03  d E =-.715669E-01  mag=     1.0000
 trial-energy change:   -0.071567  1 .order   -0.072294   -0.101129   -0.043458
 step:  26.6762(harm= 24.9048)  dis= 0.06695  next Energy=  -109.107565 (dE=-0.902E-01)
 bond charge predicted
       N       E                     dE             d eps       ncg     rms          rms(c)
DAV:   1    -0.109035071587E+03    0.53907E-01   -0.14912E+02  1568   0.167E+01    0.478E-01
DAV:   2    -0.109106966446E+03   -0.71895E-01   -0.72463E-01  1616   0.162E+00    0.411E-01
DAV:   3    -0.109106192874E+03    0.77357E-03   -0.10951E-02  1672   0.192E-01    0.304E-01
DAV:   4    -0.109104481111E+03    0.17118E-02   -0.36550E-03  1624   0.897E-02    0.137E-01
DAV:   5    -0.109104517724E+03   -0.36613E-04   -0.16627E-03  1672   0.611E-02    0.511E-02
DAV:   6    -0.109104514856E+03    0.28682E-05   -0.99615E-05  1040   0.147E-02
  37 F= -.10910451E+03 E0= -.10910451E+03  d E =-.871087E-01  mag=     1.0000
 curvature: -24.21 expect dE=-0.154E+00 dE for cont linesearch -0.415E-03
 trial: gam= 0.72207 g(F)=  0.636E-02 g(S)=  0.000E+00 ort =-0.494E-03 (trialstep = 0.167E+02)
 search vector abs. value=  0.131E-01
 bond charge predicted
       N       E                     dE             d eps       ncg     rms          rms(c)
DAV:   1    -0.109051030951E+03    0.53487E-01   -0.24575E+02  1568   0.214E+01    0.623E-01
DAV:   2    -0.109168963348E+03   -0.11793E+00   -0.11915E+00  1632   0.208E+00    0.551E-01
DAV:   3    -0.109167569138E+03    0.13942E-02   -0.18051E-02  1696   0.248E-01    0.406E-01
DAV:   4    -0.109164482441E+03    0.30867E-02   -0.60544E-03  1640   0.120E-01    0.198E-01
DAV:   5    -0.109164386129E+03    0.96312E-04   -0.31409E-03  1680   0.838E-02    0.691E-02
DAV:   6    -0.109164374452E+03    0.11677E-04   -0.14224E-04  1080   0.180E-02
  38 F= -.10916437E+03 E0= -.10916437E+03  d E =-.598596E-01  mag=     1.0000
 trial-energy change:   -0.059860  1 .order   -0.060638   -0.100180   -0.021097
 step:  21.5187(harm= 21.1516)  dis= 0.04394  next Energy=  -109.167402 (dE=-0.629E-01)
 bond charge predicted
       N       E                     dE             d eps       ncg     rms          rms(c)
DAV:   1    -0.109157428000E+03    0.69581E-02   -0.20367E+01  1568   0.615E+00    0.173E-01
DAV:   2    -0.109167126152E+03   -0.96982E-02   -0.98082E-02  1632   0.596E-01    0.154E-01
DAV:   3    -0.109167023939E+03    0.10221E-03   -0.14669E-03  1696   0.705E-02    0.115E-01
DAV:   4    -0.109166804774E+03    0.21917E-03   -0.51610E-04  1624   0.351E-02    0.546E-02
DAV:   5    -0.109166838678E+03   -0.33905E-04   -0.24901E-04  1136   0.247E-02
  39 F= -.10916684E+03 E0= -.10916684E+03  d E =-.623238E-01  mag=     1.0000
 curvature: -22.87 expect dE=-0.840E-01 dE for cont linesearch -0.109E-05
 trial: gam= 0.50619 g(F)=  0.367E-02 g(S)=  0.000E+00 ort =-0.249E-04 (trialstep = 0.177E+02)
 search vector abs. value=  0.700E-02
 bond charge predicted
       N       E                     dE             d eps       ncg     rms          rms(c)
DAV:   1    -0.109137524247E+03    0.29281E-01   -0.14707E+02  1568   0.166E+01    0.460E-01
DAV:   2    -0.109208574571E+03   -0.71050E-01   -0.71223E-01  1656   0.160E+00    0.404E-01
DAV:   3    -0.109207614708E+03    0.95986E-03   -0.10314E-02  1688   0.182E-01    0.309E-01
DAV:   4    -0.109205703189E+03    0.19115E-02   -0.44969E-03  1640   0.984E-02    0.130E-01
DAV:   5    -0.109205781505E+03   -0.78317E-04   -0.15394E-03  1680   0.596E-02    0.527E-02
DAV:   6    -0.109205767132E+03    0.14374E-04   -0.97534E-05  1040   0.147E-02
  40 F= -.10920577E+03 E0= -.10920577E+03  d E =-.389285E-01  mag=     1.0000
 trial-energy change:   -0.038928  1 .order   -0.040090   -0.064669   -0.015510
 step:  24.6048(harm= 23.2339)  dis= 0.03521  next Energy=  -109.208745 (dE=-0.419E-01)
 bond charge predicted
       N       E                     dE             d eps       ncg     rms          rms(c)
DAV:   1    -0.109197763496E+03    0.80180E-02   -0.22652E+01  1568   0.649E+00    0.176E-01
DAV:   2    -0.109208664815E+03   -0.10901E-01   -0.10935E-01  1672   0.627E-01    0.158E-01
DAV:   3    -0.109208523076E+03    0.14174E-03   -0.15695E-03  1696   0.709E-02    0.122E-01
DAV:   4    -0.109208238268E+03    0.28481E-03   -0.71986E-04  1640   0.395E-02    0.511E-02
DAV:   5    -0.109208266824E+03   -0.28556E-04   -0.23198E-04  1088   0.243E-02
  41 F= -.10920827E+03 E0= -.10920827E+03  d E =-.414281E-01  mag=     1.0000
 curvature: -20.85 expect dE=-0.703E-01 dE for cont linesearch -0.874E-06
 trial: gam= 0.91805 g(F)=  0.337E-02 g(S)=  0.000E+00 ort =-0.171E-04 (trialstep = 0.144E+02)
 search vector abs. value=  0.924E-02
 bond charge predicted
       N       E                     dE             d eps       ncg     rms          rms(c)
DAV:   1    -0.109180597935E+03    0.27640E-01   -0.12981E+02  1568   0.155E+01    0.393E-01
DAV:   2    -0.109244224900E+03   -0.63627E-01   -0.63553E-01  1648   0.151E+00    0.363E-01
DAV:   3    -0.109243509363E+03    0.71554E-03   -0.92002E-03  1680   0.173E-01    0.284E-01
DAV:   4    -0.109241816594E+03    0.16928E-02   -0.29201E-03  1664   0.786E-02    0.141E-01
DAV:   5    -0.109241741801E+03    0.74793E-04   -0.21935E-03  1680   0.671E-02    0.518E-02
DAV:   6    -0.109241748442E+03   -0.66412E-05   -0.73773E-05  1040   0.131E-02
  42 F= -.10924175E+03 E0= -.10924175E+03  d E =-.334816E-01  mag=     1.0000
 trial-energy change:   -0.033482  1 .order   -0.034862   -0.048439   -0.021285
 step:  25.7353(harm= 25.7353)  dis= 0.04980  next Energy=  -109.251471 (dE=-0.432E-01)
 bond charge predicted
       N       E                     dE             d eps       ncg     rms          rms(c)
DAV:   1    -0.109212122857E+03    0.29619E-01   -0.79617E+01  1568   0.121E+01    0.301E-01
DAV:   2    -0.109251119362E+03   -0.38997E-01   -0.38845E-01  1616   0.118E+00    0.284E-01
DAV:   3    -0.109250715476E+03    0.40389E-03   -0.55949E-03  1688   0.135E-01    0.224E-01
DAV:   4    -0.109249654212E+03    0.10613E-02   -0.18340E-03  1640   0.624E-02    0.111E-01
DAV:   5    -0.109249614555E+03    0.39657E-04   -0.14192E-03  1664   0.540E-02    0.422E-02
DAV:   6    -0.109249625470E+03   -0.10916E-04   -0.43123E-05  1040   0.101E-02
  43 F= -.10924963E+03 E0= -.10924963E+03  d E =-.413586E-01  mag=     1.0000
 curvature: -35.41 expect dE=-0.116E+00 dE for cont linesearch -0.154E-04
 trial: gam= 0.93589 g(F)=  0.328E-02 g(S)=  0.000E+00 ort = 0.635E-04 (trialstep = 0.134E+02)
 search vector abs. value=  0.115E-01
 bond charge predicted
       N       E                     dE             d eps       ncg     rms          rms(c)
DAV:   1    -0.109218686641E+03    0.30928E-01   -0.14003E+02  1568   0.160E+01    0.397E-01
DAV:   2    -0.109287521058E+03   -0.68834E-01   -0.68797E-01  1640   0.157E+00    0.361E-01
DAV:   3    -0.109286751219E+03    0.76984E-03   -0.98510E-03  1688   0.178E-01    0.286E-01
DAV:   4    -0.109285003959E+03    0.17473E-02   -0.27579E-03  1664   0.760E-02    0.144E-01
DAV:   5    -0.109284843584E+03    0.16038E-03   -0.23663E-03  1688   0.693E-02    0.475E-02
DAV:   6    -0.109284867812E+03   -0.24228E-04   -0.52001E-05  1056   0.121E-02
  44 F= -.10928487E+03 E0= -.10928487E+03  d E =-.352423E-01  mag=     1.0000
 trial-energy change:   -0.035242  1 .order   -0.035904   -0.044849   -0.026959
 step:  33.6236(harm= 33.6236)  dis= 0.07766  next Energy=  -109.305843 (dE=-0.562E-01)
 bond charge predicted
       N       E                     dE             d eps       ncg     rms          rms(c)
DAV:   1    -0.109143919646E+03    0.14092E+00   -0.32080E+02  1568   0.243E+01    0.665E-01
DAV:   2    -0.109304277605E+03   -0.16036E+00   -0.16051E+00  1656   0.240E+00    0.550E-01
DAV:   3    -0.109302249477E+03    0.20281E-02   -0.23446E-02  1672   0.276E-01    0.422E-01
DAV:   4    -0.109298596141E+03    0.36533E-02   -0.59252E-03  1648   0.112E-01    0.214E-01
DAV:   5    -0.109298184514E+03    0.41163E-03   -0.42549E-03  1688   0.935E-02    0.612E-02
DAV:   6    -0.109298244142E+03   -0.59628E-04   -0.87671E-05  1080   0.166E-02
  45 F= -.10929824E+03 E0= -.10929824E+03  d E =-.486187E-01  mag=     1.0000
 curvature: -57.79 expect dE=-0.301E+00 dE for cont linesearch -0.698E-03
 trial: gam= 1.69266 g(F)=  0.520E-02 g(S)=  0.000E+00 ort =-0.373E-03 (trialstep = 0.544E+01)
 search vector abs. value=  0.369E-01
 bond charge predicted
       N       E                     dE             d eps       ncg     rms          rms(c)
DAV:   1    -0.109282457511E+03    0.15727E-01   -0.73720E+01  1568   0.116E+01    0.261E-01
DAV:   2    -0.109318942198E+03   -0.36485E-01   -0.36112E-01  1632   0.113E+00    0.252E-01
DAV:   3    -0.109318651474E+03    0.29072E-03   -0.50894E-03  1672   0.127E-01    0.205E-01
DAV:   4    -0.109317784527E+03    0.86695E-03   -0.11570E-03  1664   0.502E-02    0.114E-01
DAV:   5    -0.109317656579E+03    0.12795E-03   -0.16594E-03  1648   0.572E-02    0.368E-02
DAV:   6    -0.109317692204E+03   -0.35625E-04   -0.22711E-05  1048   0.834E-03
  46 F= -.10931769E+03 E0= -.10931769E+03  d E =-.194481E-01  mag=     1.0000
 trial-energy change:   -0.019448  1 .order   -0.020846   -0.024870   -0.016822
 step:  16.8137(harm= 16.8137)  dis= 0.07482  next Energy=  -109.336670 (dE=-0.384E-01)
 bond charge predicted
       N       E                     dE             d eps       ncg     rms          rms(c)
DAV:   1    -0.109173707209E+03    0.14395E+00   -0.32739E+02  1568   0.245E+01    0.663E-01
DAV:   2    -0.109339023963E+03   -0.16532E+00   -0.16531E+00  1616   0.242E+00    0.543E-01
DAV:   3    -0.109337174728E+03    0.18492E-02   -0.24247E-02  1672   0.280E-01    0.417E-01
DAV:   4    -0.109333628527E+03    0.35462E-02   -0.48654E-03  1656   0.103E-01    0.230E-01
DAV:   5    -0.109332930087E+03    0.69844E-03   -0.47739E-03  1664   0.984E-02    0.595E-02
DAV:   6    -0.109333026571E+03   -0.96484E-04   -0.68410E-05  1080   0.164E-02
  47 F= -.10933303E+03 E0= -.10933303E+03  d E =-.347824E-01  mag=     1.0000
 curvature: -67.82 expect dE=-0.282E+00 dE for cont linesearch -0.872E-08
 trial: gam= 0.15324 g(F)=  0.416E-02 g(S)=  0.000E+00 ort = 0.218E-05 (trialstep = 0.772E+01)
 search vector abs. value=  0.503E-02
 bond charge predicted
       N       E                     dE             d eps       ncg     rms          rms(c)
DAV:   1    -0.109349966883E+03   -0.17037E-01   -0.20073E+01  1568   0.613E+00    0.204E-01
DAV:   2    -0.109359174077E+03   -0.92072E-02   -0.93649E-02  1648   0.580E-01    0.164E-01
DAV:   3    -0.109359060951E+03    0.11313E-03   -0.14331E-03  1712   0.686E-02    0.114E-01
DAV:   4    -0.109358926851E+03    0.13410E-03   -0.62702E-04  1672   0.385E-02    0.410E-02
DAV:   5    -0.109358983317E+03   -0.56466E-04   -0.85767E-05  1064   0.171E-02
  48 F= -.10935898E+03 E0= -.10935898E+03  d E =-.259567E-01  mag=     1.0000
 trial-energy change:   -0.025957  1 .order   -0.026196   -0.032128   -0.020264
 step:  20.8934(harm= 20.8934)  dis= 0.04696  next Energy=  -109.376527 (dE=-0.435E-01)
 bond charge predicted
       N       E                     dE             d eps       ncg     rms          rms(c)
DAV:   1    -0.109349605637E+03    0.93212E-02   -0.58611E+01  1568   0.105E+01    0.355E-01
DAV:   2    -0.109376384938E+03   -0.26779E-01   -0.27404E-01  1640   0.992E-01    0.279E-01
DAV:   3    -0.109375970127E+03    0.41481E-03   -0.42142E-03  1696   0.118E-01    0.194E-01
DAV:   4    -0.109375423148E+03    0.54698E-03   -0.18103E-03  1656   0.655E-02    0.674E-02
DAV:   5    -0.109375471828E+03   -0.48679E-04   -0.22383E-04  1104   0.282E-02
  49 F= -.10937547E+03 E0= -.10937547E+03  d E =-.424453E-01  mag=     1.0000
 curvature: -12.62 expect dE=-0.299E-01 dE for cont linesearch -0.313E-06
 trial: gam= 0.55845 g(F)=  0.237E-02 g(S)=  0.000E+00 ort = 0.112E-04 (trialstep = 0.104E+02)
 search vector abs. value=  0.395E-02
 bond charge predicted
       N       E                     dE             d eps       ncg     rms          rms(c)
DAV:   1    -0.109380097777E+03   -0.46746E-02   -0.28341E+01  1568   0.728E+00    0.213E-01
DAV:   2    -0.109393206482E+03   -0.13109E-01   -0.13282E-01  1664   0.695E-01    0.186E-01
DAV:   3    -0.109393048537E+03    0.15794E-03   -0.20218E-03  1696   0.840E-02    0.136E-01
DAV:   4    -0.109392733928E+03    0.31461E-03   -0.74717E-04  1648   0.412E-02    0.620E-02
DAV:   5    -0.109392758201E+03   -0.24273E-04   -0.30120E-04  1344   0.274E-02
  50 F= -.10939276E+03 E0= -.10939276E+03  d E =-.172864E-01  mag=     1.0000
 trial-energy change:   -0.017286  1 .order   -0.017867   -0.024556   -0.011179
 step:  19.0020(harm= 19.0020)  dis= 0.03763  next Energy=  -109.398010 (dE=-0.225E-01)
 bond charge predicted
       N       E                     dE             d eps       ncg     rms          rms(c)
DAV:   1    -0.109387764390E+03    0.49695E-02   -0.19785E+01  1584   0.609E+00    0.181E-01
DAV:   2    -0.109396925500E+03   -0.91611E-02   -0.92953E-02  1640   0.581E-01    0.156E-01
DAV:   3    -0.109396819280E+03    0.10622E-03   -0.14201E-03  1696   0.703E-02    0.113E-01
DAV:   4    -0.109396609525E+03    0.20976E-03   -0.52562E-04  1648   0.346E-02    0.507E-02
DAV:   5    -0.109396628062E+03   -0.18537E-04   -0.18372E-04  1032   0.222E-02
  51 F= -.10939663E+03 E0= -.10939663E+03  d E =-.211562E-01  mag=     1.0000
 curvature: -15.81 expect dE=-0.200E-01 dE for cont linesearch -0.562E-05
 trial: gam= 0.51824 g(F)=  0.126E-02 g(S)=  0.000E+00 ort =-0.374E-04 (trialstep = 0.121E+02)
 search vector abs. value=  0.228E-02
 bond charge predicted
       N       E                     dE             d eps       ncg     rms          rms(c)
DAV:   1    -0.109396691531E+03   -0.82006E-04   -0.22374E+01  1568   0.649E+00    0.193E-01
DAV:   2    -0.109407257436E+03   -0.10566E-01   -0.10666E-01  1656   0.627E-01    0.175E-01
DAV:   3    -0.109407119479E+03    0.13796E-03   -0.16373E-03  1704   0.768E-02    0.128E-01
DAV:   4    -0.109406836452E+03    0.28303E-03   -0.64111E-04  1632   0.377E-02    0.602E-02
DAV:   5    -0.109406850453E+03   -0.14000E-04   -0.26163E-04  1144   0.260E-02
  52 F= -.10940685E+03 E0= -.10940685E+03  d E =-.102224E-01  mag=     1.0000
 trial-energy change:   -0.010222  1 .order   -0.010874   -0.015025   -0.006723
 step:  21.8641(harm= 21.8641)  dis= 0.02510  next Energy=  -109.410223 (dE=-0.136E-01)
 bond charge predicted
       N       E                     dE             d eps       ncg     rms          rms(c)
DAV:   1    -0.109402151508E+03    0.46849E-02   -0.14660E+01  1568   0.525E+00    0.158E-01
DAV:   2    -0.109409067312E+03   -0.69158E-02   -0.70046E-02  1632   0.508E-01    0.141E-01
DAV:   3    -0.109408981880E+03    0.85432E-04   -0.10761E-03  1688   0.622E-02    0.102E-01
DAV:   4    -0.109408810308E+03    0.17157E-03   -0.40821E-04  1608   0.303E-02    0.476E-02
DAV:   5    -0.109408822612E+03   -0.12304E-04   -0.16122E-04   992   0.208E-02
  53 F= -.10940882E+03 E0= -.10940882E+03  d E =-.121945E-01  mag=     1.0000
 curvature: -20.08 expect dE=-0.184E-01 dE for cont linesearch -0.651E-05
 trial: gam= 0.69302 g(F)=  0.918E-03 g(S)=  0.000E+00 ort =-0.272E-04 (trialstep = 0.140E+02)
 search vector abs. value=  0.198E-02
 bond charge predicted
       N       E                     dE             d eps       ncg     rms          rms(c)
DAV:   1    -0.109405875988E+03    0.29343E-02   -0.26143E+01  1568   0.700E+00    0.178E-01
DAV:   2    -0.109418212334E+03   -0.12336E-01   -0.12497E-01  1640   0.680E-01    0.178E-01
DAV:   3    -0.109418068818E+03    0.14352E-03   -0.18988E-03  1704   0.827E-02    0.136E-01
DAV:   4    -0.109417709155E+03    0.35966E-03   -0.53073E-04  1656   0.356E-02    0.784E-02
DAV:   5    -0.109417675052E+03    0.34103E-04   -0.63967E-04  1672   0.370E-02
  54 F= -.10941768E+03 E0= -.10941768E+03  d E =-.885244E-02  mag=     1.0000
 trial-energy change:   -0.008852  1 .order   -0.009499   -0.012619   -0.006379
 step:  28.3867(harm= 28.3867)  dis= 0.02747  next Energy=  -109.421581 (dE=-0.128E-01)
 bond charge predicted
       N       E                     dE             d eps       ncg     rms          rms(c)
DAV:   1    -0.109407774821E+03    0.99343E-02   -0.27308E+01  1568   0.716E+00    0.186E-01
DAV:   2    -0.109420715532E+03   -0.12941E-01   -0.13123E-01  1624   0.697E-01    0.182E-01
DAV:   3    -0.109420572036E+03    0.14350E-03   -0.20019E-03  1656   0.851E-02    0.137E-01
DAV:   4    -0.109420215928E+03    0.35611E-03   -0.55938E-04  1664   0.368E-02    0.780E-02
DAV:   5    -0.109420192598E+03    0.23331E-04   -0.61246E-04  1640   0.364E-02
  55 F= -.10942019E+03 E0= -.10942019E+03  d E =-.113700E-01  mag=     1.0000
 curvature: -31.22 expect dE=-0.289E-01 dE for cont linesearch -0.386E-06
 trial: gam= 0.97143 g(F)=  0.926E-03 g(S)=  0.000E+00 ort =-0.495E-05 (trialstep = 0.120E+02)
 search vector abs. value=  0.278E-02
 bond charge predicted
       N       E                     dE             d eps       ncg     rms          rms(c)
DAV:   1    -0.109416306588E+03    0.39093E-02   -0.26927E+01  1568   0.710E+00    0.174E-01
DAV:   2    -0.109429001924E+03   -0.12695E-01   -0.12799E-01  1632   0.687E-01    0.174E-01
DAV:   3    -0.109428839630E+03    0.16229E-03   -0.19190E-03  1672   0.835E-02    0.136E-01
DAV:   4    -0.109428462646E+03    0.37698E-03   -0.51742E-04  1664   0.347E-02    0.784E-02
DAV:   5    -0.109428416640E+03    0.46006E-04   -0.72676E-04  1672   0.391E-02
  56 F= -.10942842E+03 E0= -.10942842E+03  d E =-.822404E-02  mag=     1.0000
 trial-energy change:   -0.008224  1 .order   -0.008854   -0.011070   -0.006639
 step:  30.0190(harm= 30.0190)  dis= 0.03668  next Energy=  -109.434021 (dE=-0.138E-01)
 bond charge predicted
       N       E                     dE             d eps       ncg     rms          rms(c)
DAV:   1    -0.109404692036E+03    0.23771E-01   -0.60514E+01  1568   0.106E+01    0.265E-01
DAV:   2    -0.109433218813E+03   -0.28527E-01   -0.28789E-01  1640   0.103E+00    0.263E-01
DAV:   3    -0.109432845526E+03    0.37329E-03   -0.43357E-03  1664   0.126E-01    0.205E-01
DAV:   4    -0.109431987726E+03    0.85780E-03   -0.11826E-03  1648   0.524E-02    0.117E-01
DAV:   5    -0.109431871392E+03    0.11633E-03   -0.15783E-03  1656   0.576E-02    0.423E-02
DAV:   6    -0.109431871194E+03    0.19812E-06   -0.41329E-05   984   0.998E-03
  57 F= -.10943187E+03 E0= -.10943187E+03  d E =-.116786E-01  mag=     1.0000
 curvature: -45.33 expect dE=-0.412E-01 dE for cont linesearch -0.920E-04
 trial: gam= 1.00710 g(F)=  0.908E-03 g(S)=  0.000E+00 ort =-0.752E-04 (trialstep = 0.121E+02)
 search vector abs. value=  0.358E-02
 bond charge predicted
       N       E                     dE             d eps       ncg     rms          rms(c)
DAV:   1    -0.109423514372E+03    0.83570E-02   -0.35412E+01  1568   0.812E+00    0.186E-01
DAV:   2    -0.109440370018E+03   -0.16856E-01   -0.16882E-01  1616   0.789E-01    0.202E-01
DAV:   3    -0.109440183582E+03    0.18644E-03   -0.24854E-03  1680   0.934E-02    0.163E-01
DAV:   4    -0.109439645080E+03    0.53850E-03   -0.59819E-04  1616   0.363E-02    0.102E-01
DAV:   5    -0.109439523675E+03    0.12140E-03   -0.12648E-03  1648   0.509E-02    0.382E-02
DAV:   6    -0.109439530269E+03   -0.65937E-05   -0.22303E-05  1016   0.753E-03
  58 F= -.10943953E+03 E0= -.10943953E+03  d E =-.765908E-02  mag=     1.0000
 trial-energy change:   -0.007659  1 .order   -0.008050   -0.010104   -0.005996
 step:  29.8603(harm= 29.8603)  dis= 0.03262  next Energy=  -109.444296 (dE=-0.124E-01)
 bond charge predicted
       N       E                     dE             d eps       ncg     rms          rms(c)
DAV:   1    -0.109409316061E+03    0.30208E-01   -0.75506E+01  1568   0.119E+01    0.276E-01
DAV:   2    -0.109445375729E+03   -0.36060E-01   -0.36089E-01  1616   0.115E+00    0.296E-01
DAV:   3    -0.109444956806E+03    0.41892E-03   -0.53471E-03  1680   0.138E-01    0.238E-01
DAV:   4    -0.109443821514E+03    0.11353E-02   -0.12649E-03  1632   0.529E-02    0.149E-01
DAV:   5    -0.109443547173E+03    0.27434E-03   -0.25799E-03  1616   0.728E-02    0.542E-02
DAV:   6    -0.109443553890E+03   -0.67174E-05   -0.44752E-05   976   0.107E-02
  59 F= -.10944355E+03 E0= -.10944355E+03  d E =-.116827E-01  mag=     1.0000
 curvature: -64.20 expect dE=-0.561E-01 dE for cont linesearch -0.451E-04
 trial: gam= 0.77792 g(F)=  0.874E-03 g(S)=  0.000E+00 ort = 0.502E-04 (trialstep = 0.157E+02)
 search vector abs. value=  0.312E-02
 bond charge predicted
       N       E                     dE             d eps       ncg     rms          rms(c)
DAV:   1    -0.109429518449E+03    0.14029E-01   -0.51555E+01  1568   0.980E+00    0.241E-01
DAV:   2    -0.109454266077E+03   -0.24748E-01   -0.24789E-01  1632   0.956E-01    0.249E-01
DAV:   3    -0.109453960098E+03    0.30598E-03   -0.36780E-03  1720   0.114E-01    0.196E-01
DAV:   4    -0.109453207181E+03    0.75292E-03   -0.10412E-03  1648   0.487E-02    0.116E-01
DAV:   5    -0.109453116254E+03    0.90927E-04   -0.14672E-03  1672   0.553E-02    0.435E-02
DAV:   6    -0.109453114997E+03    0.12579E-05   -0.35949E-05   992   0.924E-03
  60 F= -.10945311E+03 E0= -.10945311E+03  d E =-.956111E-02  mag=     1.0000
 trial-energy change:   -0.009561  1 .order   -0.010039   -0.014328   -0.005750
 step:  26.1998(harm= 26.1998)  dis= 0.03242  next Energy=  -109.455521 (dE=-0.120E-01)
 bond charge predicted
       N       E                     dE             d eps       ncg     rms          rms(c)
DAV:   1    -0.109444149562E+03    0.89667E-02   -0.23147E+01  1568   0.656E+00    0.160E-01
DAV:   2    -0.109455275755E+03   -0.11126E-01   -0.11128E-01  1616   0.640E-01    0.166E-01
DAV:   3    -0.109455153135E+03    0.12262E-03   -0.16474E-03  1696   0.759E-02    0.131E-01
DAV:   4    -0.109454824994E+03    0.32814E-03   -0.46393E-04  1624   0.327E-02    0.777E-02
DAV:   5    -0.109454795402E+03    0.29593E-04   -0.67706E-04  1656   0.377E-02
  61 F= -.10945480E+03 E0= -.10945480E+03  d E =-.112415E-01  mag=     1.0000
 curvature: -44.71 expect dE=-0.361E-01 dE for cont linesearch -0.308E-04
 trial: gam= 0.91337 g(F)=  0.807E-03 g(S)=  0.000E+00 ort = 0.463E-04 (trialstep = 0.159E+02)
 search vector abs. value=  0.349E-02
 bond charge predicted
       N       E                     dE             d eps       ncg     rms          rms(c)
DAV:   1    -0.109436148798E+03    0.18676E-01   -0.59161E+01  1568   0.105E+01    0.250E-01
DAV:   2    -0.109464710063E+03   -0.28561E-01   -0.28362E-01  1648   0.102E+00    0.247E-01
DAV:   3    -0.109464377123E+03    0.33294E-03   -0.40897E-03  1704   0.118E-01    0.197E-01
DAV:   4    -0.109463545176E+03    0.83195E-03   -0.12019E-03  1632   0.508E-02    0.108E-01
DAV:   5    -0.109463457141E+03    0.88035E-04   -0.14385E-03  1680   0.549E-02    0.399E-02
DAV:   6    -0.109463458056E+03   -0.91526E-06   -0.34928E-05   992   0.925E-03
  62 F= -.10946346E+03 E0= -.10946346E+03  d E =-.866265E-02  mag=     1.0000
 trial-energy change:   -0.008663  1 .order   -0.009454   -0.013485   -0.005423
 step:  26.5632(harm= 26.5632)  dis= 0.03591  next Energy=  -109.466074 (dE=-0.113E-01)
 bond charge predicted
       N       E                     dE             d eps       ncg     rms          rms(c)
DAV:   1    -0.109452795089E+03    0.10662E-01   -0.26743E+01  1568   0.706E+00    0.164E-01
DAV:   2    -0.109465587011E+03   -0.12792E-01   -0.12745E-01  1624   0.681E-01    0.167E-01
DAV:   3    -0.109465434024E+03    0.15299E-03   -0.18280E-03  1712   0.787E-02    0.135E-01
DAV:   4    -0.109465037762E+03    0.39626E-03   -0.54498E-04  1616   0.342E-02    0.756E-02
DAV:   5    -0.109464991957E+03    0.45805E-04   -0.72376E-04  1656   0.389E-02
  63 F= -.10946499E+03 E0= -.10946499E+03  d E =-.101966E-01  mag=     1.0000
 curvature: -54.63 expect dE=-0.373E-01 dE for cont linesearch -0.415E-04
 trial: gam= 0.82566 g(F)=  0.683E-03 g(S)=  0.000E+00 ort = 0.515E-04 (trialstep = 0.180E+02)
 search vector abs. value=  0.315E-02
 bond charge predicted
       N       E                     dE             d eps       ncg     rms          rms(c)
DAV:   1    -0.109441638772E+03    0.23399E-01   -0.68698E+01  1568   0.113E+01    0.260E-01
DAV:   2    -0.109474716071E+03   -0.33077E-01   -0.32882E-01  1632   0.109E+00    0.262E-01
DAV:   3    -0.109474328473E+03    0.38760E-03   -0.46758E-03  1720   0.124E-01    0.212E-01
DAV:   4    -0.109473327331E+03    0.10011E-02   -0.13598E-03  1640   0.539E-02    0.117E-01
DAV:   5    -0.109473195315E+03    0.13202E-03   -0.17204E-03  1664   0.595E-02    0.432E-02
DAV:   6    -0.109473203549E+03   -0.82341E-05   -0.34040E-05   968   0.942E-03
  64 F= -.10947320E+03 E0= -.10947320E+03  d E =-.821159E-02  mag=     1.0000
 trial-energy change:   -0.008212  1 .order   -0.009008   -0.013079   -0.004937
 step:  28.9429(harm= 28.9429)  dis= 0.03259  next Energy=  -109.475497 (dE=-0.105E-01)
 bond charge predicted
       N       E                     dE             d eps       ncg     rms          rms(c)
DAV:   1    -0.109462630843E+03    0.10564E-01   -0.25222E+01  1568   0.685E+00    0.153E-01
DAV:   2    -0.109474687281E+03   -0.12056E-01   -0.12009E-01  1624   0.660E-01    0.160E-01
DAV:   3    -0.109474549434E+03    0.13785E-03   -0.16983E-03  1712   0.750E-02    0.131E-01
DAV:   4    -0.109474170167E+03    0.37927E-03   -0.49109E-04  1616   0.324E-02    0.745E-02
DAV:   5    -0.109474121301E+03    0.48866E-04   -0.72507E-04  1640   0.385E-02
  65 F= -.10947412E+03 E0= -.10947412E+03  d E =-.912934E-02  mag=     1.0000
 curvature: -62.78 expect dE=-0.530E-01 dE for cont linesearch -0.294E-06
 trial: gam= 1.19587 g(F)=  0.845E-03 g(S)=  0.000E+00 ort = 0.384E-05 (trialstep = 0.119E+02)
 search vector abs. value=  0.536E-02
 bond charge predicted
       N       E                     dE             d eps       ncg     rms          rms(c)
DAV:   1    -0.109457188420E+03    0.16982E-01   -0.50774E+01  1568   0.971E+00    0.221E-01
DAV:   2    -0.109481741748E+03   -0.24553E-01   -0.24403E-01  1632   0.940E-01    0.225E-01
DAV:   3    -0.109481493396E+03    0.24835E-03   -0.34596E-03  1720   0.107E-01    0.182E-01
DAV:   4    -0.109480767916E+03    0.72548E-03   -0.97646E-04  1624   0.459E-02    0.101E-01
DAV:   5    -0.109480680644E+03    0.87272E-04   -0.12931E-03  1672   0.515E-02    0.384E-02
DAV:   6    -0.109480690903E+03   -0.10259E-04   -0.24998E-05   952   0.800E-03
  66 F= -.10948069E+03 E0= -.10948069E+03  d E =-.656960E-02  mag=     1.0000
 trial-energy change:   -0.006570  1 .order   -0.007391   -0.010087   -0.004695
 step:  22.2122(harm= 22.2122)  dis= 0.03752  next Energy=  -109.483556 (dE=-0.943E-02)
 bond charge predicted
       N       E                     dE             d eps       ncg     rms          rms(c)
DAV:   1    -0.109464709193E+03    0.15971E-01   -0.38464E+01  1568   0.845E+00    0.188E-01
DAV:   2    -0.109483248219E+03   -0.18539E-01   -0.18408E-01  1616   0.817E-01    0.197E-01
DAV:   3    -0.109483047817E+03    0.20040E-03   -0.26021E-03  1736   0.924E-02    0.162E-01
DAV:   4    -0.109482466950E+03    0.58087E-03   -0.73408E-04  1624   0.397E-02    0.924E-02
DAV:   5    -0.109482380808E+03    0.86142E-04   -0.10955E-03  1640   0.472E-02    0.351E-02
DAV:   6    -0.109482390619E+03   -0.98105E-05   -0.18438E-05   968   0.697E-03
  67 F= -.10948239E+03 E0= -.10948239E+03  d E =-.826932E-02  mag=     1.0000
 curvature: -70.05 expect dE=-0.360E-01 dE for cont linesearch -0.436E-05
 trial: gam= 0.40957 g(F)=  0.513E-03 g(S)=  0.000E+00 ort = 0.183E-04 (trialstep = 0.139E+02)
 search vector abs. value=  0.143E-02
 bond charge predicted
       N       E                     dE             d eps       ncg     rms          rms(c)
DAV:   1    -0.109478706849E+03    0.36740E-02   -0.18637E+01  1568   0.588E+00    0.144E-01
DAV:   2    -0.109487689271E+03   -0.89824E-02   -0.89838E-02  1600   0.569E-01    0.136E-01
DAV:   3    -0.109487589546E+03    0.99726E-04   -0.12870E-03  1704   0.652E-02    0.108E-01
DAV:   4    -0.109487345457E+03    0.24409E-03   -0.42407E-04  1536   0.305E-02    0.526E-02
DAV:   5    -0.109487344059E+03    0.13985E-05   -0.33899E-04  1448   0.278E-02
  68 F= -.10948734E+03 E0= -.10948734E+03  d E =-.495344E-02  mag=     1.0000
 trial-energy change:   -0.004953  1 .order   -0.005403   -0.007259   -0.003546
 step:  27.2594(harm= 27.2594)  dis= 0.02762  next Energy=  -109.489487 (dE=-0.710E-02)
 bond charge predicted
       N       E                     dE             d eps       ncg     rms          rms(c)
DAV:   1    -0.109480299554E+03    0.70459E-02   -0.16999E+01  1568   0.561E+00    0.139E-01
DAV:   2    -0.109488528183E+03   -0.82286E-02   -0.82285E-02  1608   0.544E-01    0.128E-01
DAV:   3    -0.109488447718E+03    0.80465E-04   -0.11822E-03  1704   0.626E-02    0.101E-01
DAV:   4    -0.109488246146E+03    0.20157E-03   -0.37131E-04  1456   0.288E-02    0.484E-02
DAV:   5    -0.109488250390E+03   -0.42443E-05   -0.28656E-04  1232   0.262E-02
  69 F= -.10948825E+03 E0= -.10948825E+03  d E =-.585977E-02  mag=     1.0000
 curvature: -37.35 expect dE=-0.191E-01 dE for cont linesearch -0.808E-05
 trial: gam= 1.04111 g(F)=  0.512E-03 g(S)=  0.000E+00 ort =-0.176E-04 (trialstep = 0.117E+02)
 search vector abs. value=  0.202E-02
 bond charge predicted
       N       E                     dE             d eps       ncg     rms          rms(c)
DAV:   1    -0.109483385533E+03    0.48606E-02   -0.18642E+01  1568   0.587E+00    0.134E-01
DAV:   2    -0.109492493508E+03   -0.91080E-02   -0.90077E-02  1624   0.569E-01    0.134E-01
DAV:   3    -0.109492417544E+03    0.75964E-04   -0.12624E-03  1712   0.637E-02    0.110E-01
DAV:   4    -0.109492170696E+03    0.24685E-03   -0.38599E-04  1488   0.290E-02    0.577E-02
DAV:   5    -0.109492162316E+03    0.83800E-05   -0.43831E-04  1640   0.308E-02
  70 F= -.10949216E+03 E0= -.10949216E+03  d E =-.391193E-02  mag=     1.0000
 trial-energy change:   -0.003912  1 .order   -0.004483   -0.005786   -0.003180
 step:  26.0187(harm= 26.0187)  dis= 0.03086  next Energy=  -109.494674 (dE=-0.642E-02)
 bond charge predicted
       N       E                     dE             d eps       ncg     rms          rms(c)
DAV:   1    -0.109480575919E+03    0.11595E-01   -0.27776E+01  1568   0.717E+00    0.165E-01
DAV:   2    -0.109494141948E+03   -0.13566E-01   -0.13441E-01  1632   0.695E-01    0.164E-01
DAV:   3    -0.109494029208E+03    0.11274E-03   -0.18876E-03  1696   0.781E-02    0.133E-01
DAV:   4    -0.109493657559E+03    0.37165E-03   -0.58569E-04  1616   0.355E-02    0.692E-02
DAV:   5    -0.109493638025E+03    0.19535E-04   -0.59062E-04  1640   0.353E-02
  71 F= -.10949364E+03 E0= -.10949364E+03  d E =-.538763E-02  mag=     1.0000
 curvature: -53.28 expect dE=-0.205E-01 dE for cont linesearch -0.291E-04
 trial: gam= 0.54854 g(F)=  0.386E-03 g(S)=  0.000E+00 ort = 0.332E-04 (trialstep = 0.146E+02)
 search vector abs. value=  0.103E-02
 bond charge predicted
       N       E                     dE             d eps       ncg     rms          rms(c)
DAV:   1    -0.109490573989E+03    0.30836E-02   -0.14702E+01  1568   0.522E+00    0.139E-01
DAV:   2    -0.109497708920E+03   -0.71349E-02   -0.71465E-02  1640   0.507E-01    0.123E-01
DAV:   3    -0.109497643868E+03    0.65052E-04   -0.10327E-03  1696   0.581E-02    0.938E-02
DAV:   4    -0.109497487329E+03    0.15654E-03   -0.36545E-04  1432   0.292E-02    0.424E-02
DAV:   5    -0.109497502398E+03   -0.15069E-04   -0.19018E-04  1056   0.222E-02
  72 F= -.10949750E+03 E0= -.10949750E+03  d E =-.386437E-02  mag=     1.0000
 trial-energy change:   -0.003864  1 .order   -0.004375   -0.005886   -0.002864
 step:  28.3962(harm= 28.3962)  dis= 0.01735  next Energy=  -109.499370 (dE=-0.573E-02)
 bond charge predicted
       N       E                     dE             d eps       ncg     rms          rms(c)
DAV:   1    -0.109491916971E+03    0.55704E-02   -0.13206E+01  1568   0.495E+00    0.133E-01
DAV:   2    -0.109498285156E+03   -0.63682E-02   -0.63986E-02  1640   0.479E-01    0.117E-01
DAV:   3    -0.109498220055E+03    0.65100E-04   -0.92202E-04  1704   0.548E-02
  73 F= -.10949822E+03 E0= -.10949822E+03  d E =-.458203E-02  mag=     1.0000
 curvature: -36.24 expect dE=-0.161E-01 dE for cont linesearch -0.957E-04
 trial: gam= 1.35208 g(F)=  0.446E-03 g(S)=  0.000E+00 ort =-0.522E-04 (trialstep = 0.817E+01)
 search vector abs. value=  0.219E-02
 bond charge predicted
       N       E                     dE             d eps       ncg     rms          rms(c)
DAV:   1    -0.109496134091E+03    0.21511E-02   -0.98250E+00  1600   0.424E+00    0.107E-01
DAV:   2    -0.109500776971E+03   -0.46429E-02   -0.46757E-02  1656   0.409E-01    0.110E-01
DAV:   3    -0.109500710148E+03    0.66823E-04   -0.64168E-04  1680   0.447E-02
  74 F= -.10950071E+03 E0= -.10950071E+03  d E =-.249009E-02  mag=     1.0000
 ZBRENT: can't locate minimum, use default step
 trial-energy change:   -0.002490  1 .order   -0.002819   -0.003063   -0.002576
 step:  32.6637(harm= 51.3722)  dis= 0.03262  next Energy=  -109.507854 (dE=-0.963E-02)
 bond charge predicted
       N       E                     dE             d eps       ncg     rms          rms(c)
DAV:   1    -0.109462335177E+03    0.38442E-01   -0.88453E+01  1568   0.127E+01    0.307E-01
DAV:   2    -0.109505207898E+03   -0.42873E-01   -0.42688E-01  1624   0.124E+00    0.305E-01
DAV:   3    -0.109504652418E+03    0.55548E-03   -0.59409E-03  1728   0.137E-01    0.251E-01
DAV:   4    -0.109503263721E+03    0.13887E-02   -0.24927E-03  1640   0.719E-02    0.118E-01
DAV:   5    -0.109503254301E+03    0.94206E-05   -0.17878E-03  1680   0.609E-02    0.492E-02
DAV:   6    -0.109503263014E+03   -0.87131E-05   -0.53653E-05  1016   0.113E-02
  75 F= -.10950326E+03 E0= -.10950326E+03  d E =-.504296E-02  mag=     1.0000
 curvature: ****** expect dE=-0.772E-01 dE for cont linesearch -0.158E-04
 trial: gam= 0.96028 g(F)=  0.634E-03 g(S)=  0.000E+00 ort =-0.169E-04 (trialstep = 0.109E+02)
 search vector abs. value=  0.262E-02
 bond charge predicted
       N       E                     dE             d eps       ncg     rms          rms(c)
DAV:   1    -0.109498313498E+03    0.49408E-02   -0.20984E+01  1568   0.619E+00    0.151E-01
DAV:   2    -0.109508624956E+03   -0.10311E-01   -0.10254E-01  1624   0.602E-01    0.143E-01
DAV:   3    -0.109508510227E+03    0.11473E-03   -0.14285E-03  1720   0.668E-02    0.116E-01
DAV:   4    -0.109508235130E+03    0.27510E-03   -0.58861E-04  1624   0.349E-02    0.493E-02
DAV:   5    -0.109508257430E+03   -0.22299E-04   -0.29622E-04  1320   0.258E-02
  76 F= -.10950826E+03 E0= -.10950826E+03  d E =-.499442E-02  mag=     1.0000
 trial-energy change:   -0.004994  1 .order   -0.005464   -0.006743   -0.004185
 step:  28.7737(harm= 28.7737)  dis= 0.02826  next Energy=  -109.512151 (dE=-0.889E-02)
 bond charge predicted
       N       E                     dE             d eps       ncg     rms          rms(c)
DAV:   1    -0.109483065342E+03    0.25170E-01   -0.56238E+01  1568   0.101E+01    0.252E-01
DAV:   2    -0.109510792942E+03   -0.27728E-01   -0.27555E-01  1624   0.988E-01    0.233E-01
DAV:   3    -0.109510500394E+03    0.29255E-03   -0.38556E-03  1704   0.110E-01    0.188E-01
DAV:   4    -0.109509777971E+03    0.72242E-03   -0.15208E-03  1648   0.562E-02    0.797E-02
DAV:   5    -0.109509798058E+03   -0.20086E-04   -0.77920E-04  1664   0.408E-02
  77 F= -.10950980E+03 E0= -.10950980E+03  d E =-.653504E-02  mag=     1.0000
 curvature: -61.01 expect dE=-0.316E-01 dE for cont linesearch -0.144E-03
 trial: gam= 0.91084 g(F)=  0.519E-03 g(S)=  0.000E+00 ort =-0.785E-04 (trialstep = 0.145E+02)
 search vector abs. value=  0.255E-02
 bond charge predicted
       N       E                     dE             d eps       ncg     rms          rms(c)
DAV:   1    -0.109496797625E+03    0.12980E-01   -0.35970E+01  1568   0.805E+00    0.179E-01
DAV:   2    -0.109514553787E+03   -0.17756E-01   -0.17615E-01  1624   0.783E-01    0.173E-01
DAV:   3    -0.109514403517E+03    0.15027E-03   -0.24205E-03  1712   0.860E-02    0.144E-01
DAV:   4    -0.109513942176E+03    0.46134E-03   -0.80082E-04  1624   0.406E-02    0.666E-02
DAV:   5    -0.109513941612E+03    0.56387E-06   -0.65645E-04  1640   0.362E-02
  78 F= -.10951394E+03 E0= -.10951394E+03  d E =-.414355E-02  mag=     1.0000
 trial-energy change:   -0.004144  1 .order   -0.005029   -0.006478   -0.003580
 step:  32.3823(harm= 32.3823)  dis= 0.02994  next Energy=  -109.517039 (dE=-0.724E-02)
 bond charge predicted
       N       E                     dE             d eps       ncg     rms          rms(c)
DAV:   1    -0.109489139110E+03    0.24803E-01   -0.54930E+01  1568   0.996E+00    0.222E-01
DAV:   2    -0.109516196134E+03   -0.27057E-01   -0.26858E-01  1616   0.968E-01    0.216E-01
DAV:   3    -0.109515946654E+03    0.24948E-03   -0.36928E-03  1696   0.106E-01    0.179E-01
DAV:   4    -0.109515216147E+03    0.73051E-03   -0.12179E-03  1632   0.500E-02    0.836E-02
DAV:   5    -0.109515190962E+03    0.25185E-04   -0.99552E-04  1648   0.445E-02
  79 F= -.10951519E+03 E0= -.10951519E+03  d E =-.539290E-02  mag=     1.0000
 curvature: -92.28 expect dE=-0.623E-01 dE for cont linesearch -0.356E-04
 trial: gam= 0.99014 g(F)=  0.676E-03 g(S)=  0.000E+00 ort = 0.314E-04 (trialstep = 0.142E+02)
 search vector abs. value=  0.324E-02
 bond charge predicted
       N       E                     dE             d eps       ncg     rms          rms(c)
DAV:   1    -0.109500194106E+03    0.15022E-01   -0.44047E+01  1568   0.892E+00    0.218E-01
DAV:   2    -0.109521684804E+03   -0.21491E-01   -0.21479E-01  1608   0.865E-01    0.197E-01
DAV:   3    -0.109521456279E+03    0.22852E-03   -0.30004E-03  1704   0.960E-02    0.158E-01
DAV:   4    -0.109520903004E+03    0.55328E-03   -0.11379E-03  1640   0.490E-02    0.670E-02
DAV:   5    -0.109520918552E+03   -0.15549E-04   -0.58179E-04  1680   0.348E-02
  80 F= -.10952092E+03 E0= -.10952092E+03  d E =-.572759E-02  mag=     1.0000
 trial-energy change:   -0.005728  1 .order   -0.006665   -0.010053   -0.003278
 step:  21.1103(harm= 21.1103)  dis= 0.02393  next Energy=  -109.522649 (dE=-0.746E-02)
 bond charge predicted
       N       E                     dE             d eps       ncg     rms          rms(c)
DAV:   1    -0.109516400916E+03    0.45021E-02   -0.10294E+01  1568   0.431E+00    0.107E-01
DAV:   2    -0.109521441728E+03   -0.50408E-02   -0.50425E-02  1632   0.418E-01    0.939E-02
DAV:   3    -0.109521397390E+03    0.44338E-04   -0.70313E-04  1664   0.464E-02
  81 F= -.10952140E+03 E0= -.10952140E+03  d E =-.620643E-02  mag=     1.0000
 curvature: -48.35 expect dE=-0.178E-01 dE for cont linesearch -0.186E-04
 trial: gam= 0.58960 g(F)=  0.368E-03 g(S)=  0.000E+00 ort =-0.353E-04 (trialstep = 0.156E+02)
 search vector abs. value=  0.145E-02
 bond charge predicted
       N       E                     dE             d eps       ncg     rms          rms(c)
DAV:   1    -0.109513818561E+03    0.76232E-02   -0.23771E+01  1568   0.656E+00    0.159E-01
DAV:   2    -0.109525191582E+03   -0.11373E-01   -0.11385E-01  1616   0.632E-01    0.158E-01
DAV:   3    -0.109525044446E+03    0.14714E-03   -0.15800E-03  1720   0.695E-02    0.131E-01
DAV:   4    -0.109524674958E+03    0.36949E-03   -0.81453E-04  1608   0.408E-02    0.557E-02
DAV:   5    -0.109524707933E+03   -0.32975E-04   -0.41350E-04  1568   0.296E-02
  82 F= -.10952471E+03 E0= -.10952471E+03  d E =-.331054E-02  mag=     1.0000
 trial-energy change:   -0.003311  1 .order   -0.003846   -0.005420   -0.002272
 step:  26.8661(harm= 26.8661)  dis= 0.01954  next Energy=  -109.526064 (dE=-0.467E-02)
 bond charge predicted
       N       E                     dE             d eps       ncg     rms          rms(c)
DAV:   1    -0.109519249949E+03    0.54250E-02   -0.12355E+01  1568   0.473E+00    0.115E-01
DAV:   2    -0.109525300449E+03   -0.60505E-02   -0.60285E-02  1632   0.458E-01    0.104E-01
DAV:   3    -0.109525249151E+03    0.51298E-04   -0.84100E-04  1696   0.509E-02
  83 F= -.10952525E+03 E0= -.10952525E+03  d E =-.385176E-02  mag=     1.0000
 curvature: -56.14 expect dE=-0.186E-01 dE for cont linesearch -0.496E-05
 trial: gam= 0.85574 g(F)=  0.332E-03 g(S)=  0.000E+00 ort =-0.113E-04 (trialstep = 0.179E+02)
 search vector abs. value=  0.138E-02
 bond charge predicted
       N       E                     dE             d eps       ncg     rms          rms(c)
DAV:   1    -0.109515196081E+03    0.10104E-01   -0.29497E+01  1568   0.731E+00    0.182E-01
DAV:   2    -0.109529239370E+03   -0.14043E-01   -0.14083E-01  1640   0.704E-01    0.178E-01
DAV:   3    -0.109529032227E+03    0.20714E-03   -0.19500E-03  1736   0.772E-02    0.146E-01
DAV:   4    -0.109528549837E+03    0.48239E-03   -0.11337E-03  1632   0.478E-02    0.569E-02
DAV:   5    -0.109528581889E+03   -0.32052E-04   -0.42284E-04  1568   0.304E-02
  84 F= -.10952858E+03 E0= -.10952858E+03  d E =-.333274E-02  mag=     1.0000
 trial-energy change:   -0.003333  1 .order   -0.004037   -0.005756   -0.002319
 step:  29.9023(harm= 29.9023)  dis= 0.02655  next Energy=  -109.530069 (dE=-0.482E-02)
 bond charge predicted
       N       E                     dE             d eps       ncg     rms          rms(c)
DAV:   1    -0.109522608432E+03    0.59414E-02   -0.13392E+01  1568   0.493E+00    0.123E-01
DAV:   2    -0.109529155786E+03   -0.65474E-02   -0.65235E-02  1664   0.477E-01    0.108E-01
DAV:   3    -0.109529091858E+03    0.63928E-04   -0.90680E-04  1704   0.529E-02
  85 F= -.10952909E+03 E0= -.10952909E+03  d E =-.384271E-02  mag=     1.0000
 curvature: -63.81 expect dE=-0.245E-01 dE for cont linesearch -0.354E-05
 trial: gam= 1.20301 g(F)=  0.383E-03 g(S)=  0.000E+00 ort =-0.873E-05 (trialstep = 0.118E+02)
 search vector abs. value=  0.235E-02
 bond charge predicted
       N       E                     dE             d eps       ncg     rms          rms(c)
DAV:   1    -0.109522088706E+03    0.70671E-02   -0.22219E+01  1568   0.632E+00    0.146E-01
DAV:   2    -0.109532710629E+03   -0.10622E-01   -0.10619E-01  1648   0.610E-01    0.152E-01
DAV:   3    -0.109532592310E+03    0.11832E-03   -0.14566E-03  1728   0.666E-02    0.129E-01
DAV:   4    -0.109532204567E+03    0.38774E-03   -0.70032E-04  1632   0.373E-02    0.590E-02
DAV:   5    -0.109532210535E+03   -0.59677E-05   -0.51222E-04  1592   0.323E-02
  86 F= -.10953221E+03 E0= -.10953221E+03  d E =-.311868E-02  mag=     1.0000
 trial-energy change:   -0.003119  1 .order   -0.003802   -0.004417   -0.003186
 step:  42.5098(harm= 42.5098)  dis= 0.05082  next Energy=  -109.537017 (dE=-0.793E-02)
 bond charge predicted
       N       E                     dE             d eps       ncg     rms          rms(c)
DAV:   1    -0.109463367211E+03    0.68837E-01   -0.14916E+02  1568   0.164E+01    0.379E-01
DAV:   2    -0.109536716368E+03   -0.73349E-01   -0.72817E-01  1624   0.159E+00    0.367E-01
DAV:   3    -0.109535954249E+03    0.76212E-03   -0.10129E-02  1680   0.178E-01    0.298E-01
DAV:   4    -0.109533944809E+03    0.20094E-02   -0.28279E-03  1656   0.761E-02    0.157E-01
DAV:   5    -0.109533659933E+03    0.28488E-03   -0.29915E-03  1656   0.763E-02    0.537E-02
DAV:   6    -0.109533701173E+03   -0.41240E-04   -0.44620E-05  1032   0.115E-02
  87 F= -.10953370E+03 E0= -.10953370E+03  d E =-.460932E-02  mag=     1.0000
 curvature: ****** expect dE=-0.962E-01 dE for cont linesearch -0.130E-03
 trial: gam= 1.97444 g(F)=  0.717E-03 g(S)=  0.000E+00 ort =-0.477E-04 (trialstep = 0.436E+01)
 search vector abs. value=  0.970E-02
 bond charge predicted
       N       E                     dE             d eps       ncg     rms          rms(c)
DAV:   1    -0.109529759596E+03    0.39003E-02   -0.12379E+01  1568   0.469E+00    0.101E-01
DAV:   2    -0.109535869370E+03   -0.61098E-02   -0.60307E-02  1640   0.456E-01    0.101E-01
DAV:   3    -0.109535830975E+03    0.38395E-04   -0.82388E-04  1664   0.502E-02
  88 F= -.10953583E+03 E0= -.10953583E+03  d E =-.212980E-02  mag=     1.0000
 ZBRENT: can't locate minimum, use default step
 trial-energy change:   -0.002130  1 .order   -0.002410   -0.002718   -0.002102
 step:  17.4421(harm= 19.2446)  dis= 0.04402  next Energy=  -109.539698 (dE=-0.600E-02)
 bond charge predicted
       N       E                     dE             d eps       ncg     rms          rms(c)
DAV:   1    -0.109486639419E+03    0.49230E-01   -0.11199E+02  1568   0.141E+01    0.318E-01
DAV:   2    -0.109541178978E+03   -0.54540E-01   -0.54089E-01  1624   0.137E+00    0.335E-01
DAV:   3    -0.109540609848E+03    0.56913E-03   -0.74551E-03  1728   0.150E-01    0.282E-01
DAV:   4    -0.109538798620E+03    0.18112E-02   -0.25688E-03  1632   0.721E-02    0.148E-01
DAV:   5    -0.109538586088E+03    0.21253E-03   -0.28994E-03  1656   0.748E-02    0.566E-02
DAV:   6    -0.109538628808E+03   -0.42719E-04   -0.45208E-05  1048   0.113E-02
  89 F= -.10953863E+03 E0= -.10953863E+03  d E =-.492763E-02  mag=     1.0000
 curvature: ****** expect dE=-0.811E-01 dE for cont linesearch -0.622E-03
 trial: gam= 0.17656 g(F)=  0.549E-03 g(S)=  0.000E+00 ort = 0.202E-03 (trialstep = 0.698E+01)
 search vector abs. value=  0.923E-03
 bond charge predicted
       N       E                     dE             d eps       ncg     rms          rms(c)
DAV:   1    -0.109540679791E+03   -0.20937E-02   -0.30102E+00  1576   0.235E+00    0.689E-02
DAV:   2    -0.109542134031E+03   -0.14542E-02   -0.14490E-02  1656   0.226E-01    0.556E-02
DAV:   3    -0.109542130045E+03    0.39864E-05   -0.19174E-04  1056   0.261E-02
  90 F= -.10954213E+03 E0= -.10954213E+03  d E =-.350124E-02  mag=     1.0000
 trial-energy change:   -0.003501  1 .order   -0.003131   -0.004083   -0.002178
 step:  14.9570(harm= 14.9570)  dis= 0.01296  next Energy=  -109.543005 (dE=-0.438E-02)
 bond charge predicted
       N       E                     dE             d eps       ncg     rms          rms(c)
DAV:   1    -0.109543030347E+03   -0.89632E-03   -0.39619E+00  1584   0.270E+00    0.844E-02
DAV:   2    -0.109544877386E+03   -0.18470E-02   -0.18701E-02  1672   0.256E-01    0.705E-02
DAV:   3    -0.109544851104E+03    0.26281E-04   -0.24898E-04  1104   0.292E-02
  91 F= -.10954485E+03 E0= -.10954485E+03  d E =-.622230E-02  mag=     1.0000
 curvature: -11.80 expect dE=-0.224E-02 dE for cont linesearch -0.276E-03
 trial: gam= 0.05759 g(F)=  0.190E-03 g(S)=  0.000E+00 ort = 0.147E-03 (trialstep = 0.857E+01)
 search vector abs. value=  0.210E-03
 bond charge predicted
       N       E                     dE             d eps       ncg     rms          rms(c)
DAV:   1    -0.109546029292E+03   -0.11519E-02   -0.10363E+00  1624   0.139E+00    0.430E-02
DAV:   2    -0.109546515640E+03   -0.48635E-03   -0.48729E-03  1688   0.133E-01    0.367E-02
DAV:   3    -0.109546512441E+03    0.31993E-05   -0.65934E-05   968   0.158E-02
  92 F= -.10954651E+03 E0= -.10954651E+03  d E =-.166134E-02  mag=     1.0000
 trial-energy change:   -0.001661  1 .order   -0.001435   -0.001698   -0.001173
 step:  27.7302(harm= 27.7302)  dis= 0.00894  next Energy=  -109.547597 (dE=-0.275E-02)
 bond charge predicted
       N       E                     dE             d eps       ncg     rms          rms(c)
DAV:   1    -0.109546434966E+03    0.80674E-04   -0.51666E+00  1576   0.311E+00    0.985E-02
DAV:   2    -0.109548824852E+03   -0.23899E-02   -0.24373E-02  1664   0.297E-01    0.830E-02
DAV:   3    -0.109548784053E+03    0.40799E-04   -0.34994E-04  1288   0.354E-02
  93 F= -.10954878E+03 E0= -.10954878E+03  d E =-.393295E-02  mag=     1.0000
 curvature: -14.67 expect dE=-0.419E-02 dE for cont linesearch -0.320E-04
 trial: gam= 1.47651 g(F)=  0.286E-03 g(S)=  0.000E+00 ort = 0.214E-04 (trialstep = 0.323E+01)
 search vector abs. value=  0.805E-03
 bond charge predicted
       N       E                     dE             d eps       ncg     rms          rms(c)
DAV:   1    -0.109549615522E+03   -0.79067E-03   -0.56707E-01  1616   0.103E+00    0.335E-02
DAV:   2    -0.109549874220E+03   -0.25870E-03   -0.26056E-03  1672   0.970E-02    0.291E-02
DAV:   3    -0.109549871207E+03    0.30130E-05   -0.33566E-05   952   0.108E-02
  94 F= -.10954987E+03 E0= -.10954987E+03  d E =-.108715E-02  mag=     1.0000
 ZBRENT: can't locate minimum, use default step
 trial-energy change:   -0.001087  1 .order   -0.000982   -0.001023   -0.000940
 step:  12.9074(harm= 39.7075)  dis= 0.01015  next Energy=  -109.555080 (dE=-0.630E-02)
 bond charge predicted
       N       E                     dE             d eps       ncg     rms          rms(c)
DAV:   1    -0.109550307445E+03   -0.43322E-03   -0.50662E+00  1576   0.306E+00    0.784E-02
DAV:   2    -0.109552710767E+03   -0.24033E-02   -0.24054E-02  1648   0.294E-01    0.718E-02
DAV:   3    -0.109552681955E+03    0.28812E-04   -0.31902E-04  1168   0.336E-02
  95 F= -.10955268E+03 E0= -.10955268E+03  d E =-.389790E-02  mag=     1.0000
 curvature: -23.21 expect dE=-0.165E-02 dE for cont linesearch -0.538E-03
 trial: gam=-0.07099 g(F)=  0.711E-04 g(S)=  0.000E+00 ort = 0.137E-03 (trialstep = 0.516E+01)
 search vector abs. value=  0.558E-04
 bond charge predicted
       N       E                     dE             d eps       ncg     rms          rms(c)
DAV:   1    -0.109552902698E+03   -0.19193E-03   -0.10126E-01  1624   0.433E-01    0.257E-02
DAV:   2    -0.109552951873E+03   -0.49176E-04   -0.46542E-04  1488   0.419E-02
  96 F= -.10955295E+03 E0= -.10955295E+03  d E =-.269918E-03  mag=     1.0000
 trial-energy change:   -0.000270  1 .order   -0.000267   -0.000317   -0.000217
 step:  16.2839(harm= 16.2839)  dis= 0.00251  next Energy=  -109.553182 (dE=-0.500E-03)
 bond charge predicted
       N       E                     dE             d eps       ncg     rms          rms(c)
DAV:   1    -0.109553278066E+03   -0.37537E-03   -0.46669E-01  1600   0.928E-01    0.342E-02
DAV:   2    -0.109553501961E+03   -0.22390E-03   -0.22207E-03  1688   0.899E-02    0.295E-02
DAV:   3    -0.109553504961E+03   -0.29996E-05   -0.31969E-05   976   0.111E-02
  97 F= -.10955350E+03 E0= -.10955350E+03  d E =-.823005E-03  mag=     1.0000
 curvature:  -7.39 expect dE=-0.572E-03 dE for cont linesearch -0.817E-04
 trial: gam= 0.52073 g(F)=  0.774E-04 g(S)=  0.000E+00 ort = 0.248E-04 (trialstep = 0.348E+01)
 search vector abs. value=  0.118E-03
 reached required accuracy - stopping structural energy minimisation
Application 91174814 resources: utime ~564118s, stime ~2273s, Rss ~104440, inblocks ~2728520, outblocks ~3046423
