   36   36 1000    2
  0.2871098E+03  0.2178296E-08  0.2178296E-08  0.2178296E-08  0.1000000E-15
  1.000000000000000E-004
  CAR 
 unknown system                          
    396      1    256
 
  0.0000000E+00  0.0000000E+00  0.0000000E+00  0.1000000E+01
    1       -9.614760     -9.614760
    2       -9.108674     -9.108674
    3       -9.055443     -9.055443
    4       -9.006832     -9.006832
    5       -8.975494     -8.975494
    6       -8.953859     -8.953859
    7       -8.932249     -8.932249
    8       -8.926330     -8.926330
    9       -8.915544     -8.915544
   10       -8.896253     -8.896253
   11       -8.869967     -8.869967
   12       -8.852710     -8.852710
   13       -8.826305     -8.826305
   14       -8.814640     -8.814640
   15       -8.773136     -8.773136
   16       -8.742975     -8.742975
   17       -8.737359     -8.737359
   18       -8.671336     -8.671336
   19       -8.665311     -8.665311
   20       -8.620336     -8.620336
   21       -8.608633     -8.608633
   22       -8.569466     -8.569466
   23       -8.531363     -8.531363
   24       -8.519089     -8.519089
   25       -8.499086     -8.499086
   26       -8.484354     -8.484354
   27       -8.465463     -8.465463
   28       -8.453821     -8.453821
   29       -8.439041     -8.439042
   30       -8.423579     -8.423579
   31       -8.410177     -8.410177
   32       -8.379835     -8.379835
   33       -8.366793     -8.366793
   34       -8.347432     -8.347432
   35       -8.340616     -8.340616
   36       -8.332534     -8.332534
   37       -8.297855     -8.297855
   38       -8.277186     -8.277186
   39       -8.257947     -8.257947
   40       -8.230141     -8.230141
   41       -8.201521     -8.201521
   42       -8.186212     -8.186212
   43       -8.175540     -8.175540
   44       -8.161023     -8.161023
   45       -8.135537     -8.135538
   46       -8.126316     -8.126316
   47       -8.110851     -8.110851
   48       -8.097053     -8.097053
   49       -8.082315     -8.082315
   50       -8.055128     -8.055128
   51       -8.048789     -8.048789
   52       -8.030975     -8.030975
   53       -7.988765     -7.988765
   54       -7.979673     -7.979673
   55       -7.966669     -7.966669
   56       -7.954169     -7.954169
   57       -7.945038     -7.945038
   58       -7.929908     -7.929908
   59       -7.921042     -7.921042
   60       -7.906605     -7.906606
   61       -7.877981     -7.877981
   62       -7.865223     -7.865223
   63       -7.844806     -7.844807
   64       -7.826346     -7.826346
   65       -7.799254     -7.799254
   66       -7.798119     -7.798119
   67       -7.791149     -7.791149
   68       -7.761902     -7.761902
   69       -7.740423     -7.740423
   70       -7.730183     -7.730183
   71       -7.698003     -7.698004
   72       -7.696431     -7.696431
   73       -7.681003     -7.681003
   74       -7.674248     -7.674248
   75       -7.639888     -7.639888
   76       -7.629934     -7.629934
   77       -7.615600     -7.615600
   78       -7.586834     -7.586835
   79       -7.571959     -7.571959
   80       -7.546260     -7.546260
   81       -7.524355     -7.524355
   82       -7.499889     -7.499889
   83       -7.485185     -7.485185
   84       -7.471336     -7.471336
   85       -7.447709     -7.447709
   86       -7.437498     -7.437498
   87       -7.425349     -7.425349
   88       -7.398356     -7.398356
   89       -7.387741     -7.387742
   90       -7.376786     -7.376786
   91       -7.353672     -7.353672
   92       -7.347600     -7.347600
   93       -7.334514     -7.334514
   94       -7.327174     -7.327174
   95       -7.306424     -7.306424
   96       -7.284215     -7.284215
   97       -7.269728     -7.269728
   98       -7.261824     -7.261824
   99       -7.240668     -7.240669
  100       -7.222430     -7.222430
  101       -7.207433     -7.207433
  102       -7.206131     -7.206131
  103       -7.195255     -7.195255
  104       -7.193804     -7.193804
  105       -7.159954     -7.159954
  106       -7.127930     -7.127930
  107       -7.113741     -7.113741
  108       -7.076571     -7.076571
  109       -7.047782     -7.047782
  110       -7.035754     -7.035754
  111       -7.033153     -7.033154
  112       -6.996798     -6.996798
  113       -6.988579     -6.988579
  114       -6.984060     -6.984060
  115       -6.965811     -6.965811
  116       -6.951186     -6.951187
  117       -6.942094     -6.942094
  118       -6.925557     -6.925557
  119       -6.916990     -6.916990
  120       -6.906074     -6.906074
  121       -6.887170     -6.887170
  122       -6.874884     -6.874885
  123       -6.866953     -6.866953
  124       -6.857573     -6.857573
  125       -6.850139     -6.850139
  126       -6.832209     -6.832209
  127       -6.818127     -6.818127
  128       -6.803436     -6.803436
  129       -6.797457     -6.797457
  130       -6.775679     -6.775679
  131       -6.762484     -6.762484
  132       -6.759714     -6.759714
  133       -6.744200     -6.744200
  134       -6.733083     -6.733083
  135       -6.716286     -6.716286
  136       -6.713304     -6.713304
  137       -6.689795     -6.689796
  138       -6.683897     -6.683897
  139       -6.673334     -6.673334
  140       -6.662255     -6.662255
  141       -6.659829     -6.659829
  142       -6.632671     -6.632672
  143       -6.626083     -6.626084
  144       -6.612011     -6.612012
  145       -6.600332     -6.600333
  146       -6.592742     -6.592742
  147       -6.578923     -6.578923
  148       -6.577611     -6.577611
  149       -6.565275     -6.565275
  150       -6.551869     -6.551869
  151       -6.538412     -6.538412
  152       -6.530717     -6.530718
  153       -6.508032     -6.508032
  154       -6.503715     -6.503715
  155       -6.497346     -6.497346
  156       -6.492691     -6.492691
  157       -6.480763     -6.480763
  158       -6.457754     -6.457755
  159       -6.447404     -6.447404
  160       -6.444407     -6.444407
  161       -6.438611     -6.438611
  162       -6.422708     -6.422708
  163       -6.417390     -6.417390
  164       -6.405983     -6.405983
  165       -6.389905     -6.389905
  166       -6.383694     -6.383694
  167       -6.369841     -6.369841
  168       -6.353414     -6.353414
  169       -6.339056     -6.339056
  170       -6.331780     -6.331780
  171       -6.321716     -6.321716
  172       -6.317249     -6.317249
  173       -6.290853     -6.290853
  174       -6.276121     -6.276121
  175       -6.264727     -6.264727
  176       -6.258108     -6.258108
  177       -6.245618     -6.245618
  178       -6.229342     -6.229342
  179       -6.208214     -6.208214
  180       -6.176570     -6.176570
  181       -6.168130     -6.168130
  182       -6.135307     -6.135307
  183       -6.113357     -6.113357
  184       -6.085188     -6.085188
  185       -5.850358     -5.850358
  186       -5.734832     -5.734832
  187       -5.719819     -5.719819
  188       -5.615907     -5.615907
  189       -5.337195     -5.337195
  190       -4.980610     -4.980610
  191       -4.625428     -4.625428
  192       -4.280695     -4.280695
  193       -4.258425     -4.258425
  194       -4.141308     -4.141308
  195       -3.973181     -3.973181
  196       -3.891263     -3.891263
  197       -3.726842     -3.726841
  198       -3.358307     -3.358307
  199       -3.110995     -3.110994
  200       -3.012833     -3.012832
  201       -2.800788     -2.800788
  202       -2.576365     -2.576364
  203       -2.463918     -2.463918
  204       -2.430290     -2.430289
  205       -2.361067     -2.361066
  206       -2.257094     -2.257094
  207       -2.090178     -2.090177
  208       -2.078799     -2.078798
  209       -1.928562     -1.928562
  210       -1.813604     -1.813603
  211       -1.722301     -1.722300
  212       -1.646060     -1.646059
  213       -1.549431     -1.549429
  214       -1.511905     -1.511904
  215       -1.282459     -1.282458
  216       -1.156431     -1.156430
  217       -0.755520     -0.755519
  218       -0.750523     -0.750521
  219       -0.702294     -0.702293
  220       -0.522302     -0.522301
  221       -0.443737     -0.443736
  222       -0.429232     -0.429231
  223       -0.348421     -0.348419
  224       -0.231799     -0.231797
  225       -0.178238     -0.178236
  226       -0.164039     -0.164037
  227       -0.085394     -0.085392
  228        0.007810      0.007812
  229        0.032540      0.032543
  230        0.111470      0.111473
  231        0.158152      0.158155
  232        0.280172      0.280177
  233        0.376310      0.376316
  234        0.457163      0.457169
  235        0.570051      0.570069
  236        0.691739      0.691754
  237        0.756736      0.756759
  238        0.765847      0.765872
  239        0.805317      0.805334
  240        0.917539      0.917553
  241        0.984269      0.984284
  242        0.990374      0.990384
  243        1.011789      1.011805
  244        1.069757      1.069768
  245        1.096693      1.096705
  246        1.110364      1.110378
  247        1.120186      1.120199
  248        1.132918      1.132928
  249        1.158160      1.158173
  250        1.175100      1.175112
  251        1.188570      1.188581
  252        1.194639      1.194649
  253        1.212174      1.212183
  254        1.238717      1.238723
  255        1.253222      1.253234
  256        1.321397      1.321406
