19
Energy = -83.20545361 eV
Co 11.131941363786169 8.46998857814643 7.181804115525244
Co 8.944083810606351 12.365084541548061 8.076349448386475
Co 7.647749045997406 10.351524902714019 8.352920751878232
Co 10.737329902792439 11.706415599893722 9.60184875352752
Co 11.383199833633983 9.342266058193319 9.410016164489344
Co 12.571449654373039 7.484728910414986 8.95780162143486
Co 8.481270930213967 11.427382251134958 10.24760069195837
Co 10.012008966224869 12.425338990651667 11.775860767269501
Co 8.694217869394441 8.58697210460449 12.007745550594008
Co 10.260830876039243 10.188702778821852 11.4266899144783
Co 10.267116160431863 7.219748206656049 8.876140999180134
Co 10.76100194714413 7.868129758918171 11.083118894199394
Co 9.42403150212895 13.605526476659744 9.96204120652747
Co 8.810389842613102 8.394093569828422 7.438112281148735
Co 9.92091073653436 10.33950781653519 7.869378972187802
Co 7.039808271866979 9.720144886464515 10.744760027159755
Co 8.945859868920321 8.97378819612294 9.725240777783208
Co 11.683840852526687 6.0150759036849015 10.339420954093907
Co 8.267703562519976 10.801692601164238 12.458206032219328
