12
Energy = -61.65295854 eV
Co 8.81222885502841 9.217173566829585 6.362654599893959
Co 7.362488624397243 8.201135100392436 7.79535613978733
Co 9.257355527251251 7.656135423841205 8.839747150892734
Co 10.658856815818059 9.099337192311195 7.707988856691075
Co 9.878677466086058 11.13718735503867 6.879844072896932
Co 8.599445415895579 10.032008003254306 8.558632166531494
Co 10.699991884781438 10.924166978538883 9.07653945357686
Co 11.123414952670144 8.81418627007288 9.980172618632153
Co 7.552413598233014 8.564263813212543 10.156211251929188
Co 9.410692534914201 7.596961310796704 11.161125953767103
Co 9.34391480727458 9.94438122475554 10.762256072740787
Co 8.011031839451737 8.917414119371848 12.329113664288988
