18
Energy = -97.83495617 eV
Co 10.755881613601563 8.019636170794215 9.604647322610484
Co 10.722535194735645 9.326066509534089 7.74106099540335
Co 9.551109521090973 8.821170706337863 5.770545242963115
Co 9.858333946939997 7.090114449788642 7.379923090865295
Co 8.021754872783537 7.065354315514028 5.91110527562991
Co 9.162902260701888 10.776841349205162 7.033470113400874
Co 9.65782777377382 10.589841162293922 9.444766798767176
Co 9.19861546860453 8.870181348276748 11.030503870124234
Co 9.715315287286424 6.023388736865936 9.445701914882722
Co 8.637064606130927 8.603201580053842 8.717337160208439
Co 7.708202923109144 6.486268918879412 8.122667147590064
Co 7.987499938589434 7.016514928118183 10.445411165135967
Co 5.8791428500561365 7.4085056226602415 7.055562983688314
Co 7.500157751017008 10.751741790305825 8.588907940110987
Co 7.427226487934943 9.120705761226926 6.7633485590585405
Co 6.9665585795284715 9.211708408552894 10.234995378212776
Co 5.878606461698872 7.272374516653851 9.395329225356512
Co 5.65294797684158 9.327288135078689 8.322242545428072
