12
Energy = -62.06597484 eV
Co 8.44672246749331 9.204902858962798 7.730951324414711
Co 10.60592647992201 11.655823607682077 13.096096930619183
Co 11.39089610697703 11.113635583545847 9.911003404594922
Co 12.128983586355593 12.433532535506348 11.635983846090413
Co 10.69858453744883 9.630277317548627 7.954814711913538
Co 8.481668341010499 8.644293509522692 9.96665861873213
Co 10.775458949016567 8.815468510435378 10.102650034116992
Co 9.821792338566317 7.550796803481736 8.440099275262083
Co 11.91507065506694 10.151336165014754 11.935810412089216
Co 9.173995851776889 10.731266102875807 9.29175681105234
Co 9.640286723438008 10.22860652678581 11.578684379306454
Co 9.896126530575922 12.445424285678392 11.041856391488148
