17
Energy = -91.01116085 eV
Co 10.984636426961615 11.557555202729938 8.102315746176911
Co 10.450314165689258 10.295538029437116 10.014297762604798
Co 10.164699071453569 7.9127554050936535 9.13644764286823
Co 8.507674180646115 8.642818200588108 10.574280262765301
Co 9.492465856326232 12.353746852488749 9.526112467693682
Co 11.349226996862459 9.384124621226915 7.932945216594712
Co 8.595747605112779 6.3123735530287695 10.069703213809612
Co 11.460259248275412 7.093199674737395 7.2933864133919455
Co 9.588074106467174 8.259455243783657 6.819408416329161
Co 9.019080719732466 10.141907667434253 8.229034943629028
Co 9.519034076094043 6.072337833200699 7.903839138689118
Co 8.156104883744689 10.876766277613001 10.456703993523252
Co 6.53673733831918 7.455148583766812 10.23588169201753
Co 7.8923370629525635 7.635365821962079 8.322572062508439
Co 7.410197993973981 9.324803422622978 6.843470344884287
Co 6.7999431543862165 9.548522542176633 9.138934896909342
Co 6.478287981900841 9.436598630229721 11.401327337936818
