18
Energy = -97.07263513 eV
Co 9.989927021324922 7.854750164147713 11.118981362594267
Co 13.084805692298215 10.02300918089646 9.554749889088331
Co 12.601665277541906 8.463748006142156 8.037966890024624
Co 11.22041075887291 10.358396563770789 8.261649782027874
Co 6.830425725196136 9.968058875707674 9.528292318566349
Co 7.633195922299412 11.766428948343254 8.392094725453816
Co 9.99309787343264 9.530047629822588 12.738367449458678
Co 8.164314660487937 7.926236753319302 9.544467758740657
Co 9.797923859294102 11.639405547422252 11.895778176014188
Co 8.877220191443577 9.85660400683145 8.294424742995513
Co 12.254502509649084 7.947967429178258 10.292813758274031
Co 10.48186342977542 8.217808011083434 8.868618531435539
Co 6.918907147470275 9.22058700550358 7.387456571111634
Co 8.656504682365409 9.833490760225928 10.902749264011115
Co 9.676413645559483 11.637978532958526 9.580415350075166
Co 7.67371770775871 11.906429738021592 10.704727273895863
Co 8.689825722856302 7.737292623546868 7.371354779440044
Co 11.080616371290139 9.916254132840544 10.649774268152438
