11
Energy = -56.33114462 eV
Co 7.833674732285177 11.52054472764557 10.05331158783546
Co 9.573262893845536 11.153599039602744 8.371006847115794
Co 9.668256625621053 9.29555658015739 12.574339041446914
Co 9.518531174592216 9.957260810015981 10.320329044829395
Co 12.992902331700943 9.668992571448724 10.215648394755965
Co 11.199360286327046 8.485543240685619 10.96198693282951
Co 11.129938026881959 9.330339541963356 8.815042349736883
Co 11.333263995112477 10.655956219260046 11.627885016528621
Co 9.892831143418872 12.375657471003153 10.313367840290878
Co 11.727819618869045 11.39482020519442 9.455218040257774
Co 8.950069395750075 11.346799239745494 12.141139473823431
