18
Energy = -96.84957061 eV
Co 7.798781513389878 9.109051762736494 12.06119644891276
Co 7.27753375826183 6.7834846133947195 11.613394312395657
Co 9.75773910379797 9.989732223931464 11.342794110850814
Co 7.845373449344408 10.688610066103355 10.163586811569226
Co 7.17801595008497 8.361444940933737 9.99200674348254
Co 8.3595865574956 6.062968617354643 9.692745004947747
Co 9.330637014092147 7.701763530280557 10.93675631630103
Co 10.216714840236172 11.339131868294828 9.517652407192656
Co 11.393908948881617 8.744595261945696 10.068456911022107
Co 9.228482187059287 9.259451484803387 9.114966558643973
Co 7.994755854418185 7.529757779449812 7.965112583512652
Co 11.318643252613708 9.763976912303319 8.0530062215009
Co 7.169213644789817 9.813188913529642 8.017568642767458
Co 11.22391367682833 12.034968141022935 7.601806961318084
Co 10.210331557896552 7.279369643929527 8.666074508125174
Co 8.959809042030514 11.107623711652145 7.584702324254941
Co 9.490981785722854 8.868613095612881 6.827601694089583
Co 10.543912602146229 10.684641042941054 5.958189602338439
