11
Energy = -56.14961177 eV
Co 9.869401329643548 9.001153367464614 8.850894725879419
Co 12.760334460456562 9.359308790717991 11.572653935762085
Co 9.605841857380861 11.28788369893938 9.143188319600945
Co 11.08137345698817 12.4773514530488 10.42209765316936
Co 8.991271888929933 12.024662547250092 11.29441980590609
Co 11.661646028255388 10.257600141022538 9.76801835714868
Co 10.701418052033073 8.512294741755788 10.958455755804648
Co 12.924906666329422 11.544010876065615 11.476334614343306
Co 7.766245214263588 10.052270901013342 8.79376599095184
Co 10.804228592446398 10.710970013850991 11.886597689691735
Co 8.802540827057975 9.82074659836767 10.761315859354426
