15
Energy = -79.17632968 eV
Co 7.962215056045253 9.858540690099085 6.801881434042083
Co 11.15783817259162 8.062393597398547 9.467875448785536
Co 9.612149239716222 11.364675554656836 7.3279293425896554
Co 9.660152633383179 8.776374145979842 7.723235114394468
Co 12.79615092457253 9.556115444524876 9.918828654314922
Co 9.311342532779145 6.775350091042457 8.72147436663521
Co 10.995053221314173 10.347201619966217 8.789608377625063
Co 9.951931999950366 11.857425637582166 10.08854606319786
Co 7.548471126335808 8.305706291899282 8.583727009850445
Co 9.130328531610028 8.491469643715384 10.401717946017497
Co 8.424354395260254 10.427880015790517 9.06507779775161
Co 6.895800343209117 9.375304326003572 10.497917381690991
Co 10.934550844906042 9.952285928036154 11.123482115469027
Co 8.630378465326203 10.538557796671018 11.481934364483848
Co 9.587288011850543 8.895393081655287 12.608580526839297
