15
Energy = -78.93311264 eV
Co 10.806904524871955 7.890355904554566 9.587420027592502
Co 11.966019393712854 9.507400925437643 8.590923167080181
Co 9.226173307465244 6.550604054954462 10.420957598743637
Co 9.197953995876574 8.902405098272684 11.109401289507543
Co 9.857134385603167 10.000531464273665 9.230440906950141
Co 10.342666459683493 8.558479000786653 7.234276292350602
Co 8.993690574408093 11.148291406926392 11.061786726774749
Co 7.4913148556040925 10.418304048795438 9.578268588217856
Co 8.330942429163418 9.647723635742627 7.4521520599499
Co 7.945658234574342 8.168251714090593 9.333357640448218
Co 8.015460035075918 7.653136122474309 6.4025690788683995
Co 9.341255042525674 6.729554546510579 8.09245236557648
Co 6.338555370922926 10.90732278422942 7.72707132832338
Co 7.058348008313143 6.456493688810215 8.08363440586926
Co 6.292010168935107 8.685530691274359 7.7896641088789345
