16
Energy = -84.79541028 eV
Co 6.951727281858212 9.770014880132218 11.248698578633043
Co 8.5245921557109 9.911981852666568 7.765738072507265
Co 5.983272854568404 7.900248464392913 7.399396029914565
Co 11.447445711842471 6.495365786601542 8.835105828624075
Co 6.625086774480016 9.458052472236353 9.030016307903923
Co 10.753234121307052 9.772567630077988 8.348641975222566
Co 7.9638864097310895 7.628723747529129 8.471332711191058
Co 10.318384038412168 8.122416865595076 9.972416283722401
Co 6.520101506612629 9.991626484661333 6.701381989955462
Co 8.128667842172431 7.897487772609851 10.718916835832374
Co 8.850172287110736 10.00611813755919 10.045553135013831
Co 9.361597719771922 6.04220189451213 9.444750360687308
Co 7.937005500295321 8.270665953422574 6.178009109697465
Co 11.035330655598782 10.134230613190205 10.599232844349457
Co 9.946995988981639 9.338926417758293 6.027627550356224
Co 10.094510353446191 7.70127414652615 7.554312957369771
