20
Energy = -109.89865822 eV
Co 8.899458084743094 10.194389440793461 6.69720402106288
Co 8.145796191331508 8.249918625808242 7.550214500791225
Co 10.527665904891604 8.556854932002521 7.393929305718394
Co 10.305961789478467 11.806405877563767 7.39545827164574
Co 11.83149084924747 10.369014873979692 8.249885885648863
Co 9.600156345570758 9.977339318702303 8.952187910241339
Co 11.530951018852235 8.579356916421162 9.71256599461287
Co 7.289889894108339 10.136101462110537 8.659401470674686
Co 8.471270322588765 12.161030338801796 8.630618796174836
Co 9.405946572511176 7.567136059544957 9.34143825403952
Co 7.037127038607719 7.974056071033461 9.612647307464629
Co 8.382372223888725 11.122172351874388 10.64832015586404
Co 10.650987451226532 11.823666627193328 9.816719427422644
Co 12.534719467181795 10.610870365881208 10.452485119338117
Co 10.365178153104301 7.624915884638889 11.521502293814493
Co 6.386028545270408 9.927020548544382 10.754054814915712
Co 8.27116023544459 6.566021006709305 11.037066641583639
Co 10.478309364167364 10.026160461412967 11.34707418254381
Co 8.41081948377563 8.863983761780275 11.213839429311149
Co 12.337851103942846 8.72672511513694 11.876526257065274
