27
Energy = -151.72065152 eV
Co 10.651786921455173 8.755912253777543 12.181058995554348
Co 8.84338126567268 7.277016803338647 11.55176856738447
Co 9.488779055057522 6.025267126846413 9.355072156864724
Co 10.8186908247106 7.714521818274928 10.166293669136932
Co 7.350616263229703 6.387664934759622 10.113997230624806
Co 10.771462162205442 11.054548901824356 12.02686778083299
Co 12.923826821753812 7.89782904911693 9.310805191732126
Co 12.260115776343207 9.721704134800815 10.593958968356102
Co 8.53319869977104 9.624526005364881 11.782221359576576
Co 6.756012632947349 8.620384533447197 10.828734821860516
Co 11.144647672272836 7.002387455504668 7.9318599306443005
Co 9.009360751296292 7.387308882733006 7.355213191128223
Co 10.0290975140048 10.115205627040423 9.998821010215202
Co 8.58092666559355 8.213672334467068 9.416344387132893
Co 12.744238178589663 11.85108917452665 11.158610911918426
Co 11.494576169165809 9.286699183500033 8.231421521015212
Co 8.63389394546469 11.900118942727277 11.015905859727567
Co 6.516495840036774 10.936099840178297 11.398656940610296
Co 10.5763777060807 8.653809959668674 6.215942342712511
Co 9.137988676960182 9.734255157884006 7.705509647236267
Co 10.7095907435557 12.83255366888873 10.543169452608023
Co 7.6222728861775275 10.354666971712314 9.482889159994379
Co 11.739107226518358 11.490066253695222 9.021379318160323
Co 6.937157131671297 12.526960879651929 9.62099215178715
Co 9.372972811240828 11.958775375160231 8.610036979568
Co 8.809189502072453 13.870865828730004 9.73278953076165
Co 10.80337788230715 11.065230628535586 6.908820649010976
