28
Energy = -158.51868357 eV
Co 8.437497139275628 9.223544937399195 4.3254125649609
Co 6.410127345746596 9.64828451808147 5.5543917754240395
Co 10.142619504850742 10.1012953328668 5.810423299763056
Co 7.411428646875957 7.229215485107347 5.454422871345389
Co 9.811303557797105 7.640814417691933 5.537536355363954
Co 8.606519374107531 6.925852731459335 7.405290900513011
Co 8.308509049055216 9.090609549374765 6.5952579686534225
Co 8.763975723544178 5.072223625166258 6.157816714714121
Co 6.620608718157716 5.681077897714582 7.292817836184602
Co 8.05027415188862 11.318380060110922 6.177378792588578
Co 10.645377455463878 6.055594106651101 7.371244285981376
Co 6.771326497038664 10.371333799591726 8.007737925934997
Co 6.229401633176963 8.07537286344793 7.447670832648228
Co 10.459483734226023 8.456541199542002 7.792207225888605
Co 9.39808042426464 10.68968842973376 8.095169370384957
Co 7.867893334001356 12.368821916406878 8.334853666394512
Co 8.484207551774766 4.891534618664945 8.549908470743853
Co 8.331921822054653 8.78718148320601 8.923163781682762
Co 5.017142554850929 6.698036410703566 8.963054331459292
Co 7.239578163066931 6.751263582105854 9.310999537318576
Co 9.757952179870525 6.966453490447016 9.528255035768577
Co 6.2248449898186085 8.808524081814321 9.87372036522103
Co 6.342580257738296 4.718860067759531 9.716894530873923
Co 10.099613860406038 9.317862947858314 10.155518252777943
Co 7.938464671070153 10.69889295041238 10.066562657499798
Co 8.186850905488987 5.556330646165873 10.982563066471677
Co 8.148338399821062 8.004551342449707 11.102233864559159
Co 6.053945572258544 6.611724725756778 11.227360936569433
