22
Energy = -121.75691849 eV
Co 9.889549892931159 11.442578659309838 10.720309085764885
Co 11.218755144350805 10.438782052503589 8.021804166114729
Co 10.055268442913283 6.8112678404230795 8.882659823274025
Co 11.63894169612159 8.467178912695756 9.341082200709094
Co 7.021512844063888 8.381257705938506 9.104262213035689
Co 8.541248955729387 7.796691627665596 7.313199843049176
Co 11.488372854223075 12.386098181206904 9.211754398884079
Co 9.05170708144571 10.048200837820572 6.86610171303196
Co 6.828559569241512 9.247307569266678 6.875109008947349
Co 7.449051021424822 10.625607959694817 8.565147623284831
Co 7.824531064016909 12.19452115937662 10.22640345041288
Co 6.634653636591998 8.183822890507646 11.28676385813093
Co 10.995173293423335 6.939941576202788 10.970618788961765
Co 7.828283442129953 6.253870161647663 8.866035746439778
Co 12.08150748559851 10.524623291160234 10.328266412913498
Co 10.812782724106606 8.358975807066043 7.094161060221994
Co 10.326561557896298 9.104760131249972 11.250243086942014
Co 9.377901286757304 9.20823108979146 9.041824210664494
Co 11.252927903928704 10.90839413964539 12.36491179776656
Co 8.695069472460968 7.496450222859246 10.694276689851312
Co 7.995882017567006 9.954224876103545 10.826140384755812
Co 9.385443600338709 11.83752512445036 8.450280134592154
