27
Energy = -151.92660023 eV
Co 11.58168714656258 13.935831972234231 9.835830186836917
Co 12.992845653671566 12.323990999644463 8.725921927335424
Co 13.233281269002774 12.818539820175287 11.06605761803484
Co 10.660322110139397 12.233072350724782 8.470864396297703
Co 11.37768877510829 13.642899550755846 12.203095395251147
Co 14.14122364468388 10.769954256766212 10.255092286844016
Co 9.790473787692976 12.711423865080214 10.71562987246923
Co 13.11500468158031 12.897526511767623 13.5077218652635
Co 11.959791371293992 11.216324304930648 6.823979010218703
Co 11.621756033597215 11.152872586437542 10.361005328243436
Co 13.106569670684117 10.86433778152057 12.337950061364198
Co 12.826557681261043 10.003490135859485 8.53481001879335
Co 10.793708212824539 11.354434126975686 12.665316755695557
Co 11.59121736664273 8.936168860119826 6.887363002524251
Co 9.862163775511343 10.318792837878291 7.394083593432899
Co 12.487942988765132 9.046996350208458 10.905165406853886
Co 9.112617569929306 13.514043586291661 12.764971450820992
Co 9.249341760422432 10.708794890700334 9.693338179770928
Co 10.844928147463584 9.051437220890334 9.12738485820328
Co 8.561551544100402 11.095198054955109 11.941133951011613
Co 11.732712281247922 9.141451707860861 13.166663449523393
Co 12.290273736205428 10.988968868323651 14.558429312180401
Co 10.900709974560538 12.884977372953946 14.46600126452166
Co 10.174670609392779 9.397636143786032 11.387261803412704
Co 8.82007577615371 11.830550981314854 14.21200594672491
Co 9.517239156057023 9.671424985546672 13.738853202684592
Co 10.307958624462112 10.792991581613636 15.596303909177797
