23
Energy = -127.68659669 eV
Co 11.585748606020827 11.508872888144055 7.743039069407824
Co 12.31618569010821 8.773449837087952 10.375385651947692
Co 10.051681679354926 12.748031108261298 9.321039398138883
Co 11.335442681342302 11.042380342164243 10.125371334538197
Co 11.180505225528645 9.408462313527226 8.51467814280408
Co 10.299288214215787 7.683881822163343 10.075480292119266
Co 9.013292315680351 10.316335755706927 13.226131993574878
Co 9.390008081287775 11.105714869718241 7.911259661708629
Co 9.391555631004973 11.624583787983735 11.366486229760579
Co 10.71384685261473 9.590010040164046 11.801873118858959
Co 10.370600617249806 9.624965924372239 6.397677339982571
Co 9.17454473294366 9.798496115036702 9.99702533803442
Co 7.866796283962293 11.738432305802302 9.527662693041211
Co 11.037558341636416 5.815465197307454 9.114210591960287
Co 8.770810559988984 8.392087003513147 11.954621069079565
Co 10.822253028802617 7.406651864512623 7.571966253094793
Co 8.823101317656741 8.671322729937096 7.858317180880374
Co 7.412532469662645 10.349262259187908 7.16169705784392
Co 7.432277122426603 10.237975213599132 11.443406475224196
Co 6.865352411689098 9.616706794991812 9.195403172564856
Co 7.743874784865118 7.707596899533832 10.086399921286933
Co 8.86374654862809 6.465117305431828 8.566448324379655
Co 6.763681399544035 7.684230808184776 7.944054985282034
