26
Energy = -146.54433271 eV
Co 7.22040315649287 8.74370595241216 7.910849713113615
Co 8.861346191440854 9.97475851615287 6.549678115891454
Co 7.027468121366289 9.705488337792948 10.13937448352185
Co 7.286660671209125 11.12144712531801 7.963541986317876
Co 8.490091395166834 7.841368385329343 9.970256301585326
Co 9.803591874932831 7.85225199166157 7.855293324451081
Co 10.653079634444968 6.465642584120805 9.803852760225691
Co 12.214620699339143 7.68302222426666 8.473375904590073
Co 12.389875667485844 7.711748061039325 10.923480036782664
Co 10.046384944192589 7.838042561853349 11.86219974557861
Co 10.736787294866138 8.700622881324287 9.80455153218001
Co 11.1106209045964 9.882012854084353 7.739120393045675
Co 9.139540783766199 9.861099819186888 11.121127848493623
Co 7.666139415609731 8.678515164864677 12.308522049801548
Co 8.943838419039775 9.861623050636917 8.766056743816822
Co 8.426667742320117 11.891455682791518 10.00202578053462
Co 9.784881946307596 11.869562035332873 7.825311110067325
Co 7.688159558059417 11.087860063437008 12.292799797464337
Co 10.697412725233987 11.066975231032092 9.809251668740949
Co 12.165446637325832 12.126848691847163 8.493824245957015
Co 9.98697708706435 11.909134204555638 11.86787400595813
Co 10.552488133327266 13.293916933033953 9.84811508150773
Co 12.35236870335025 12.081392945066627 10.918603984695691
Co 9.533819478974674 9.92164390737916 13.319812841620589
Co 11.474299063862741 9.879875433892568 11.781765884041398
Co 12.721716920654934 9.938749774265311 9.643266172438615
