20
Energy = -109.46594934 eV
Co 8.141635289687397 12.38795855607475 9.858678921324007
Co 8.406359827850961 7.736419110409546 6.250030524094087
Co 7.573159412594643 11.12983683659274 8.111623814475584
Co 9.01832656909919 9.258908688848006 7.930237239574784
Co 7.503623234567705 7.996406790623669 9.458760585549665
Co 6.757163195350151 8.900861897440576 7.428342912456766
Co 9.846260627210766 8.245388796948847 10.121743411674403
Co 8.21730129631727 10.150606173226796 10.156729181271524
Co 8.12459325610808 8.559634428969279 11.687378330953848
Co 10.294684850875853 10.402307121423357 11.219558873981423
Co 10.739578444780419 8.006671226339975 6.827849647112898
Co 9.257254850606174 6.893892751538647 8.22664340761479
Co 6.061113111696437 9.935530607660496 9.347425064086924
Co 12.102410247189155 11.097865529655325 9.948244324848973
Co 11.497969704637311 7.207890164746807 8.857326924728914
Co 10.358595417346587 8.461464318272938 12.354939349744972
Co 9.952165570672719 11.346662976204463 9.072543441484074
Co 12.00879041961053 8.876094095186629 10.673295221686237
Co 7.013239953899586 6.610381558427118 7.6544581239963625
Co 11.28887132889483 9.4714226602993 8.538089711413622
