24
Energy = -133.40865316 eV
Co 11.647990024102763 8.819303714325196 7.905470542673611
Co 9.992500321770397 9.114548400977116 11.763152304224205
Co 8.303648455713004 8.393699142387845 6.688418766535218
Co 8.280304406019983 10.6890261883073 12.253697496867462
Co 9.556154114906702 10.164555077609537 7.699506432800458
Co 10.065774488806738 12.056358548436775 11.466360310067074
Co 7.527615618111469 9.20949645006532 8.67566431996108
Co 9.842581868133236 8.305741325852113 9.427422974411048
Co 11.608690654295737 6.813086335274537 9.0249318837454
Co 8.938131544779873 10.480476309294708 10.080174234031904
Co 9.792157359288636 12.333802341492433 8.962044898494568
Co 8.113204894955109 7.008936954866565 8.662638858758209
Co 11.81950318617813 12.622319784203391 10.153612028675651
Co 7.889835274674326 8.43070610999185 10.83773766155551
Co 7.864195000443869 12.462247314406905 10.573697792359471
Co 11.920190436248324 8.80273617110729 12.879767188257235
Co 10.080333412748695 7.167030486285708 7.351260559737592
Co 7.6220039450696 11.520647869168608 8.421588458594709
Co 11.946841445832558 10.689589798388552 11.651205975731191
Co 10.466840012832384 9.002683757106025 5.942112053631532
Co 11.922612618929122 8.554237874943018 10.517491139482036
Co 11.249224774710255 10.531488603122343 9.419811318929094
Co 10.3893679451361 10.677359313485372 13.390400636552386
Co 6.608857669082785 10.470339552953485 10.47713355260679
