22
Energy = -121.9035449 eV
Co 6.6274713878951355 8.06676463480382 10.751526414644486
Co 7.153607287118285 10.408638465091917 10.673032471578722
Co 7.419953881244992 8.755789390510817 8.758754768851949
Co 8.599510734263077 7.3712532400390325 7.27740059555806
Co 8.510675955043096 6.858040839931942 9.689030235130497
Co 8.774840049138353 8.746268563331462 11.054676187763121
Co 8.79835596619065 10.656286868919384 9.170474689414986
Co 8.950209144303193 9.8063081287207 7.008847794441597
Co 9.82181349449695 8.53825882417359 8.818564811033376
Co 10.659254668920374 6.463383265229031 8.388079051806557
Co 9.315101015605942 11.0055795275806 11.539968872293134
Co 10.724472587832384 7.479700913976094 10.669006145964298
Co 10.811019392152083 8.282057594996505 6.781014933890374
Co 8.395880015253033 12.673802461496585 10.140861380640409
Co 10.594843648406918 9.115417965087703 12.454691518589069
Co 9.534654093542645 12.231851822255818 7.739182785218498
Co 12.134723235699363 8.320604404803198 8.769462859863845
Co 11.183920548042995 9.804361491643194 10.350010748421253
Co 11.005792091177053 10.413049900777832 7.926657875454086
Co 11.5843390363356 11.264500567017281 12.018972527315084
Co 10.646281344602334 12.04181593854595 9.75979258491178
Co 10.170639004241135 13.113623772573606 11.677349328720569
