36
Energy = -207.38958111 eV
Co 6.958479867562426 10.860995354888813 8.800609061169439
Co 7.233017212595011 8.61953543412907 9.472517258850194
Co 6.897869305822796 13.169644209350578 8.363984902548607
Co 8.280882286697326 6.451356625120428 10.009095290139976
Co 8.625331387757775 12.050095609737731 7.347908206907536
Co 8.579974760735444 9.66011351153326 7.584191849594929
Co 8.406247021495856 7.36204774563532 7.789059133191445
Co 7.564243565696311 10.238846616436279 11.17403087202119
Co 8.500416486922019 5.103481559077284 8.174324698403845
Co 8.367883201280705 8.060888057541806 11.698656118615725
Co 7.465042294753756 12.497271605396417 10.45458159590598
Co 9.174659710186233 11.052373971732308 9.490521988669173
Co 9.525524706218853 8.504194953592865 9.609925589648231
Co 8.519831586316556 9.824591338377596 13.466760135490347
Co 9.137023153862694 13.504586281892161 9.113985720873208
Co 10.448637253621701 6.885114111255297 11.08071919593304
Co 10.74078816202754 10.92100472181764 7.550244374901416
Co 7.862041032391851 11.94417998835118 12.729533488818566
Co 9.925537039693266 9.98724933845525 11.651704286885908
Co 10.622490636483024 13.25659840944289 7.321792685881274
Co 11.562717811659004 9.93461988083061 13.43636879131813
Co 11.428322036216924 10.015815295841021 9.692478418268214
Co 10.288149560120115 6.361125980697018 8.74108131045917
Co 9.65622980765895 12.518267139032844 11.327029201752504
Co 11.783202233586666 11.487701513639358 11.608004457663663
Co 10.168460337634363 8.07235845114579 13.115377477474238
Co 10.71418311004201 8.549626455805319 7.575693853742034
Co 10.050837360821253 11.653721178390716 13.45883153407961
Co 12.755530934501907 12.126207218231713 7.6541999373984515
Co 12.036490656442732 7.7587469481343945 9.289636882112443
Co 13.353893249070081 11.308242486651714 9.793050744588605
Co 11.955904895820192 8.611485313087686 11.548698804543628
Co 12.85615787834027 9.7993219710693 7.913456304774914
Co 11.249713743600193 12.395306075938363 9.418574361264051
Co 13.759353529320132 9.057885498948975 10.141874004144494
Co 13.59245052921328 10.233875739364173 12.139654127219263
