31
Energy = -174.92769653 eV
Co 10.258496945493238 11.562277452381325 7.790704134373569
Co 12.585420852862294 11.604692837725572 7.768243242056194
Co 12.595713106386265 8.790322149926673 10.548927825519016
Co 8.886964841638559 10.926944879898311 12.142617589327987
Co 11.608333583827982 9.653240029804916 8.593680494889949
Co 5.782870972340712 11.195797172789998 8.774834515532822
Co 8.982827295465931 9.913787566128955 9.178054221596366
Co 10.63270115870418 9.878466060694294 10.950004343520824
Co 6.889323066640782 11.89831925448068 12.625007621279762
Co 12.165871754436875 6.595518853739838 10.972213109804699
Co 9.840934409148218 8.562099215702103 7.3887151912796
Co 10.614625400428219 7.7683433186250435 12.009975892182306
Co 10.55533266089783 7.754656054534703 9.621796430663606
Co 8.98278371738025 6.429666402304115 10.854673705539895
Co 7.964381724005632 7.687653808461572 9.083639789638152
Co 6.761301853231116 7.339822583363421 11.130741730598073
Co 6.514628506924699 9.340120979895513 9.891648363512756
Co 9.7411366465385 11.970805257815558 10.113143886767167
Co 12.186890328713933 11.442153536792006 10.096568467286625
Co 7.172899812115462 9.608228630724975 7.675031191657933
Co 8.574718131195235 8.732352565948373 11.265983701335664
Co 7.916949410014836 7.586546967652238 6.732091784764071
Co 9.483682631660054 6.33492772450056 8.09755945978618
Co 7.935809209257954 11.783894133388129 8.170288022190173
Co 8.89024919255005 10.387095403398455 6.350458332766841
Co 11.27126883962455 10.077156153802171 6.3429499195984915
Co 13.841915806712043 10.193811949837466 9.244448553303918
Co 6.719807118495964 9.7239308696081 12.137783531190808
Co 10.662009711871947 5.34792738691079 9.803567850196503
Co 7.393806014714424 11.435410990835013 10.443033543014021
Co 11.336915031051557 13.22459954266009 8.952183289156537
