30
Energy = -170.27246629 eV
Co 6.28282314349968 8.302036940900882 8.076007667804365
Co 7.515700913616793 6.778511770687032 6.542529479072591
Co 7.795123328437323 9.097115373148444 6.33608148192889
Co 7.061710900521959 6.142292683891826 8.69331421938322
Co 7.380515472952262 7.976317957514246 10.23942947771516
Co 7.525327770182074 10.266399068962937 8.317367519797187
Co 9.34052055985634 11.833177830666454 8.601974333950833
Co 7.815072875317343 11.402052855763538 10.353689357985372
Co 8.570965682589721 7.946582634136642 8.223097895307266
Co 10.675288661213049 7.760641946556484 7.206701032686424
Co 9.310227204821125 5.814297733325004 7.945230327034578
Co 9.748996312870416 9.887904531866216 7.399260343253475
Co 6.107342137953503 9.835962439932349 10.134367489613156
Co 8.748592397799761 5.942738753138029 10.246818857474413
Co 9.522184723028964 13.068395444699803 10.575881047293699
Co 7.89443141169226 9.61525247439715 11.876368704930808
Co 11.205093959011862 13.338413947941264 8.945350132106473
Co 10.465916982966187 7.319519208012173 9.517746283110776
Co 9.303529517674018 9.57382086969105 9.93019869705095
Co 11.12198028465779 11.234778242907304 10.050240502633901
Co 11.545866023510442 11.346221563700105 7.742257408382025
Co 11.648967049154585 9.2146469183365 8.750938699360148
Co 9.349419986135464 7.803656333910761 11.5688000756638
Co 9.669141844495098 11.144538062225791 11.8812538000129
Co 11.646126309298172 12.934424815569825 11.573528499893385
Co 11.340449928928981 8.901154228298568 11.078210326053965
Co 10.21769340687217 9.336067722409187 13.078594351218337
Co 13.076564417620599 12.453746562495464 9.87120197372144
Co 13.199123623751422 10.172046046001256 10.289888109821609
Co 12.05811536849466 10.810558943375328 12.24092777723688
