32
Energy = -182.04185892 eV
Co 10.849288110244645 7.738212358368443 10.77193890201199
Co 8.70083435300658 10.06931100551214 13.062582283775988
Co 9.008511929681466 7.674112662230515 12.312042890989567
Co 8.23521999960482 11.96186518185955 11.505588378593357
Co 8.677586381095804 13.690960637871095 9.831984421818659
Co 10.418584312167718 11.277691609413695 11.903919383325409
Co 13.684317877672049 10.551242270603826 9.48710639142564
Co 14.774279458200773 12.516476819222946 10.147264020817177
Co 10.570824827565463 6.939960343133023 13.78362967758197
Co 12.89117836048157 13.803460151373312 9.642890496197218
Co 9.666552701359006 8.789687771507415 14.727463823944754
Co 9.13803000522719 12.360583186267842 13.696638929563978
Co 9.516437848916368 11.520779160786683 9.615924393822402
Co 11.360386282735666 12.922038657178522 13.083832218215512
Co 13.90695007902101 12.392498611276416 8.048674139316601
Co 12.679370985376748 11.878781013236631 11.104863480365903
Co 12.071518074320425 13.83576737092842 7.4672402497893176
Co 10.873300852268185 9.04717524234314 12.606531287830924
Co 12.498300114452356 7.310779698492347 12.601346492879134
Co 10.838595488488313 13.34401708690274 10.71906049341165
Co 14.609982146962778 10.725199445275397 11.742280034054144
Co 13.010898667450839 9.140408059876993 11.317522777605756
Co 11.283114195614669 9.973005292523858 10.092643708349001
Co 12.676165690599062 10.71774994420234 13.165564919698124
Co 10.69207537797433 10.817751469865797 14.355741570505556
Co 14.12836645544483 8.893339896220903 13.334243635476534
Co 9.212234260140649 14.015597775904972 12.129511851317034
Co 12.147576888292193 8.764082442395905 14.479153544436533
Co 9.09711678989436 9.506420231920982 10.840143568290245
Co 9.907209481606609 13.028727309646692 7.910242428505115
Co 11.77858537126952 11.892269225409706 8.792971174637655
Co 10.741816794200137 14.826656033879269 9.038170294784742
