45
Energy = -263.5764333 eV
Co 11.4826010207451 10.468736094879231 9.329537921049127
Co 12.399399415215333 11.31860011723422 7.151065800464698
Co 8.080179636841375 11.14635712243964 12.94527250324131
Co 11.892848359231623 11.049478521069382 12.729521721734057
Co 12.553303278754544 6.960673718750642 11.662739705858296
Co 8.699899719865524 6.786010039004093 8.732779517842584
Co 13.286182425348862 10.862478566991225 10.909531742628747
Co 10.619998629066497 12.66921000988349 8.136572216431478
Co 8.558251881436181 12.554837096103007 11.109170022712265
Co 6.709646590508202 11.287079440354098 9.048212399110934
Co 7.592761964947461 9.01491882362494 8.680959358164797
Co 10.248083771581632 10.410017700445513 7.259172232024422
Co 9.034180957083015 11.109499565631056 9.186962712555419
Co 10.52008795523794 6.196456184595054 12.674535388976398
Co 9.60177123802451 12.19422580206086 6.086810070569646
Co 11.719265792266363 9.087478661889335 11.359992973211972
Co 12.976938518154313 12.372202228880633 9.15558738592462
Co 8.172643027461975 12.787465916290646 7.788637797769453
Co 10.073496558451 12.398848541546412 12.997538702485983
Co 7.974243493108014 10.592714437863517 7.002208706614267
Co 9.540982088035381 8.149141091809286 11.962175764681279
Co 12.022556700841154 9.94725260631444 14.69741987992724
Co 7.646444263392822 8.924352981367893 13.00162447072006
Co 13.470861324242849 9.227584475892263 12.910972709616098
Co 6.95336933305016 13.469698295812046 9.689169095742738
Co 10.556990645340726 6.718261636964165 10.378818963957837
Co 12.518345203623046 13.709829077630037 7.371118223728738
Co 9.9222769750046 9.874250222591854 13.688521984237614
Co 11.21750029368184 12.423132471194926 10.772978870800097
Co 11.932914671098084 8.904622316626684 7.237966464126038
Co 6.395681681991404 11.759442857347759 11.343068760669345
Co 9.253435455049578 8.366024343820134 7.143919921512476
Co 11.561163483638222 8.051684279028018 13.499524327041977
Co 10.865608422459369 6.8624270615131095 7.976318837467007
Co 7.6375130071704405 9.899336483920932 10.867035300479557
Co 9.784328597767571 8.764778781524319 9.502891254088917
Co 11.625023177463216 14.3219853659484 9.51073754719575
Co 9.294082967347396 13.980668094763347 9.488452905319994
Co 9.318663802905315 7.691201970123767 14.221233640361405
Co 10.173099206221774 14.305462515875497 11.560742637390547
Co 9.884346198567547 10.54970950065982 11.377684206384355
Co 7.790502359005319 7.59694715236199 10.655637191263871
Co 14.046076032886662 8.68639415866965 10.690959548532074
Co 13.626743638213663 9.952314223485775 8.654743716328168
Co 12.262153037947504 8.092656245490522 9.345921699329166
