47
Energy = -275.72048841 eV
Co 9.940316016797604 8.206728340664768 4.447080815160646
Co 7.686148144518352 7.978942831515513 5.101258341927281
Co 8.666939396770957 10.175659034878361 5.157935585934488
Co 11.02461119705951 9.997932367302699 5.84897719869232
Co 11.47326137551512 7.619498318543275 6.347806182293892
Co 9.379941023128268 6.3749595665321435 5.93119857383617
Co 9.33486669963971 10.85094769199011 7.3692417362068765
Co 7.264874918997239 9.753331154917051 7.0979217715532945
Co 7.578788755126201 7.222156730027342 7.352519328561051
Co 11.838258445004282 11.342925587174495 7.774924579227225
Co 9.311975329650403 8.53044471110999 6.62999439358742
Co 13.081217247151898 9.368581686002313 6.984441137663009
Co 5.579981938092002 10.695825505790298 8.468526333353184
Co 11.028349717789327 9.137423633592443 8.076320368321992
Co 9.90170348021998 12.899846191321302 8.182558375103481
Co 13.348470907529483 12.077292795072728 9.405726658691258
Co 10.196307041984182 6.792499583893654 8.305061580363637
Co 12.550185909575013 7.478862436075422 8.593401007273194
Co 6.312493284158178 8.478585497046229 8.868244490762477
Co 7.53823342673521 12.220691796781686 7.942388460054825
Co 7.824423913360544 6.277535002340438 9.372983363716886
Co 8.775070386453176 8.514401569037581 9.038729270756933
Co 12.138998945177157 13.568826642333915 8.080896641863509
Co 10.184243374808055 10.815092567776496 9.621157895109631
Co 11.253750521737096 12.8361455310445 10.156998508296656
Co 13.026083387343798 9.72780856076644 9.281571569723624
Co 6.276203069280387 12.275542176858474 10.084410097214477
Co 11.713679886844949 6.382201630957706 10.423678509438368
Co 8.65566533896605 12.613256832938486 10.113989742680427
Co 9.458604630951145 6.9331681910483685 10.812072890534868
Co 7.6816485216938455 10.516938594260662 9.475078923928479
Co 7.264841957633314 7.988921416824823 10.909805273900973
Co 11.005604146901021 8.620619611763018 10.327548810433878
Co 5.855954780559506 9.923583020123482 10.838081040078176
Co 12.986616394441292 8.27685629610632 11.276277365723397
Co 12.11469985344529 10.825911961519383 11.052781877254205
Co 9.989719528390763 11.673452800377556 11.863720843901849
Co 9.024931595901487 9.49659561169994 11.325336408027942
Co 11.106843225200729 7.237000191428173 12.562247332882054
Co 7.542880571752827 11.315798270997304 11.883468425550943
Co 6.897692022991311 9.2389398552608 12.856076696407905
Co 8.799327383826686 7.798343003312057 12.976555161056602
Co 11.138161332817953 9.498278389005664 12.611827921623464
Co 9.100768684576414 10.240784945995564 13.579118274332908
Co 10.286045000330558 8.447303970867027 14.538031892971263
Co 7.08907942787473 11.02751254498715 14.225227826256322
Co 7.9312143322141635 8.88572182105196 14.986476988681444
