4
Energy = -13.58971784 eV
Co 7.827238823235054 8.547631951370153 11.269954471537712
Co 9.079439011860838 9.424053385312638 12.494253194124038
Co 10.449923417831714 9.83882397367799 5.773966848640738
Co 9.78879827786834 9.307053950678984 7.554989853554331
