49
Energy = -283.71679193 eV
Co 13.937129992798207 11.23315320129971 8.185253570121638
Co 13.959186133246979 14.877909993528057 8.6479125642811
Co 12.475519733959178 12.969922226870704 8.500014997806487
Co 11.675204673073905 9.527975086594353 11.098109202333834
Co 11.116020774891057 11.473611808056694 9.605971075247563
Co 12.733549306277968 9.509811977516119 9.070907948301146
Co 16.081867529279684 11.15723501035421 9.22233768111505
Co 14.788845372192819 13.024753445128784 9.507342300166282
Co 9.502669111833512 12.873950571972475 10.255257726864059
Co 13.253097642932069 11.502515893238376 10.393784264487802
Co 12.848281788092574 14.177288809749482 10.508177466329288
Co 15.488402447166942 11.86058255854429 11.463530551675138
Co 13.992103382219062 7.678960440232377 9.596138082639872
Co 11.424469844628673 11.694885089002948 12.044435084957335
Co 14.77399257527573 9.707365023267348 10.28836640486637
Co 9.489180140706704 10.513092876080796 10.99034954838286
Co 10.960372029171078 14.0364648162035 11.573726940511014
Co 14.953269012271203 14.717946349051614 11.260360442391901
Co 12.709066716979754 16.203627308619573 11.702555345224653
Co 9.212031554233995 12.249584390995494 12.476229883255838
Co 13.55058061505513 12.700367489679236 12.41341926093994
Co 12.191947749003292 18.0145107092077 13.124301108825788
Co 13.262011555006643 8.078549489787802 11.671375110264105
Co 13.790009389547413 10.180949031282529 12.366961285736846
Co 15.634895004160738 13.67652218441689 13.224860932183923
Co 15.687439718666301 16.039676231794868 13.156488916259576
Co 12.349776988697903 8.838361360369985 13.805426300785708
Co 9.49724608355812 14.617256793880493 13.226833691817411
Co 10.296426542935093 9.92789793062081 13.112617259545097
Co 8.285754739492322 13.038354044254705 14.45056769635007
Co 13.530177022525086 14.811699562602572 13.265361661545958
Co 13.856367259176709 16.89151423001139 14.149116488097727
Co 15.179808520299495 11.445275360063421 13.78822590546539
Co 12.488259150735502 11.140127687508725 14.15498904966772
Co 11.647083181727995 13.463013970548841 13.794547109538803
Co 15.049882741591846 15.013306131951177 15.243099624201255
Co 11.349994870898772 15.865610954645058 13.578358709963991
Co 16.1163709015519 12.982082934691599 15.359386245970002
Co 14.195228523917109 9.68013781976004 14.863965395710501
Co 10.813385745767004 9.752618679481198 15.375538226462197
Co 13.850695170826542 12.96714816222854 14.962968744005154
Co 10.167769310153556 11.81317104170349 14.604419737825152
Co 11.911857794846085 17.288843745438104 15.322439914260126
Co 11.863134030477935 12.568804625583178 16.10988070119265
Co 12.725779815623847 10.461525247990613 16.396031436871457
Co 12.531183741507284 15.104550133788633 15.54286858181613
Co 10.100804803593446 14.138727803234232 15.39218406735762
Co 13.918278506059941 16.655171599232443 16.421845584643222
Co 11.36647067048704 14.436468077055284 17.31404008085805
