46
Energy = -269.99151547 eV
Co 5.556783942984506 10.537953716963978 12.108869384194016
Co 12.892901400816077 9.40834302153809 7.868991444364323
Co 8.529700110573456 7.064772112998974 8.307075202929182
Co 5.910689111856281 8.264147360654235 11.211681838226466
Co 8.819099414004324 11.638146843487833 7.088243713021203
Co 7.707944827361232 9.84535163187102 11.3954533228733
Co 10.351429863552037 12.906523117880754 8.35624612078602
Co 10.529539742047685 8.046500954554686 11.85924476076885
Co 10.579202980609956 5.937621116853389 8.050061615875723
Co 8.208814053970096 7.560260682220635 11.770013110983317
Co 8.051977618967333 13.125807212666947 9.031159171361482
Co 5.3091928862958335 10.089928986423875 9.841158361870793
Co 12.6024446751628 10.677223604083233 11.831391770275046
Co 9.048009749208616 11.113177085068305 9.584890471951885
Co 11.643511055519943 5.8939515189572615 6.014585238481716
Co 11.752482003493213 9.410406258069301 10.015645118717167
Co 7.696549934047782 13.938079893871603 11.218876599711223
Co 10.796802396239585 8.23615378944073 8.025781132031891
Co 11.645111642517094 11.824220865984405 9.997426148064362
Co 10.179591193612978 9.754441703080772 5.929612785906689
Co 11.454834831682886 9.438029476974894 13.42887423929699
Co 8.464249211976997 11.968207045025059 12.202203081621443
Co 10.267984198314467 10.523826448596775 11.630317213151772
Co 12.417815434291896 10.524776485568328 5.901312768277976
Co 9.749554452428438 7.322438657301171 6.207167820806364
Co 9.37232199820947 8.693105447647238 9.920509594926106
Co 6.986191068349137 10.943050583024572 8.356119284354538
Co 11.935620131413767 8.16711406599245 5.95197125980687
Co 7.072278132212172 6.497754638908757 10.049454275308362
Co 6.268148405859097 12.694796278059941 12.713248696427085
Co 12.828243930245455 8.29107610056419 11.791810440029092
Co 9.068506956113119 9.350957785915327 13.276182108060912
Co 9.467786422295227 6.253931802452707 10.26465420674038
Co 12.765214200142026 11.833935986775618 7.9398733535057255
Co 10.805815456119054 10.609829937353798 8.031733899876485
Co 6.782392306920273 8.586256104926841 13.344201023292062
Co 8.622495210921285 9.351945114636752 7.629495996124817
Co 10.90530111920867 12.170677920348307 6.201504565372929
Co 11.64023823799824 7.039522036574006 9.96561821845433
Co 13.736160348701926 10.609846150400594 9.720801505552812
Co 7.057387195152352 8.703408101735809 9.264318266942013
Co 6.723980743820376 11.898991372789423 10.54458859840712
Co 9.8044015915979 13.07282923383781 10.691241521531857
Co 12.740495367851633 6.951813275360746 7.8163612920782795
Co 7.202976614468479 10.787402025066577 13.709431652587808
Co 13.765636916132467 8.15927553275923 9.658406890338341
