49
Energy = -284.09761281 eV
Co 14.855304828114113 12.351391437745585 9.084321467099679
Co 15.255515806713293 10.496583325257017 10.444795211198949
Co 11.41212718141963 14.08357970431394 9.658079248130946
Co 12.652313035461631 12.060348996357073 9.47311478753584
Co 9.961658323413667 12.37878700780758 10.16346315993108
Co 14.462678208294495 12.53329176675433 11.25899760912666
Co 9.166755769985965 10.14733401189741 10.543888688825128
Co 15.175361052309547 14.615968569288892 10.133852890458424
Co 16.91148601367049 16.12855934237322 11.017727275222398
Co 13.116356422708414 10.543665703755796 11.190257196407178
Co 13.707667240960145 16.418180801538558 10.645798115963622
Co 11.775278836310388 15.379048343282939 11.511234264661327
Co 11.106599836012114 9.00813063128618 11.418223081202036
Co 16.511481812195157 11.8515681062932 12.073310768129616
Co 12.17983286275448 13.000050761257867 11.537822070473704
Co 10.822133088886481 11.191382957480622 11.954819716142168
Co 8.437133198288645 11.872477919664298 11.929463243580045
Co 9.238177612986403 9.735277792293951 12.873148720851514
Co 15.275158213388945 16.651673316574037 12.431391898471224
Co 12.912954024206215 16.607844065848795 13.17509306215324
Co 16.336532795082213 14.262647882426254 12.153807685324557
Co 18.342095284377006 15.116562703567773 12.758429883773099
Co 13.901716577103752 14.660038871238234 12.049118183709014
Co 10.015803122731494 13.756557147479752 12.060913488419976
Co 7.585471624495626 11.006579981483702 13.774102895004269
Co 12.861829031354766 11.55328677348526 13.370130602924611
Co 10.768365879370927 8.097111525901063 13.520136379508159
Co 17.537612293934508 13.073864790904793 13.773645236043976
Co 10.706085500914853 15.505778043689995 13.601588817400659
Co 8.736021014858414 14.159615044527913 13.870529151202538
Co 9.692213203816205 12.039956494298606 13.97911156232247
Co 12.78876005266018 9.130557279071454 13.025340838726565
Co 14.85025648990293 10.56033254335925 13.006205962045755
Co 14.410176614022594 15.276733133736142 14.265025986126847
Co 15.073677503420251 17.402015714303182 14.64916051734226
Co 12.426427522085744 13.848845680882427 13.82930534483262
Co 10.530958449703768 13.890265400832964 15.28598478018257
Co 14.91690262811997 12.983831079964508 13.589317723676732
Co 11.104475594715916 10.23146576333683 14.315582846196257
Co 16.755225200714598 15.86009518760388 14.110400302674496
Co 13.226754715568992 9.918520687484504 15.1879875770144
Co 16.145039262825378 13.92325895210141 15.331045726120813
Co 12.375479326034714 15.507483260949503 15.458301119170967
Co 13.848495997345962 13.709204859909775 15.96215964125435
Co 14.71578547491644 11.635083704567492 15.389044957604488
Co 15.140051105973402 15.756591892032311 16.373460999093574
Co 12.037476196010319 12.083194762177598 15.569510373242688
Co 11.911118902648166 13.824408280968623 17.124379806232497
Co 13.395050881172734 11.242799610602386 17.16930075122323
