49
Energy = -285.515984 eV
Co 13.038766494840813 12.023526488184553 8.167009827409087
Co 14.943574940469277 12.236384393154408 6.99328580854977
Co 13.11016037180822 9.659110118564573 8.06302426699883
Co 11.117708069569213 12.919122938378832 9.186950818310265
Co 10.847142378959871 10.726457670792616 8.08393555446225
Co 12.197601159361035 10.710508098169264 9.931837313580733
Co 15.102678834627836 10.689212422011783 8.55953743205164
Co 9.16808600713646 11.832476483371014 9.341697726975065
Co 13.068170838330945 12.917980221871288 10.518840733930356
Co 15.010866151037025 13.109836628935414 9.12259899165529
Co 14.226327479375522 9.385556594608245 10.361168615939627
Co 9.93138563234716 9.867086086444957 10.253495612203974
Co 13.901539738632566 7.732548162807395 8.940225261066775
Co 10.666228359174907 11.859384263809856 11.28304172213879
Co 11.851330249313412 14.860796525132844 10.283786379924468
Co 14.244914863169885 14.979205885258198 10.275188108026658
Co 15.065530173980243 11.499253524003972 10.765354177043122
Co 8.180267274402928 11.887107778256482 11.416875805076955
Co 11.968200530349513 8.45940797988612 9.99279827439447
Co 13.089762640024714 10.743594164470128 12.050948307268047
Co 11.239966413834008 9.381009777965602 12.145837982781384
Co 9.254704285156155 10.403671853923765 12.786516740383885
Co 11.368639781500805 16.23624754268096 12.012007241331782
Co 9.693652432800809 13.98532661623414 10.92962629674277
Co 11.565017407523142 13.824577351827095 12.447220380910279
Co 11.723262911273768 15.459622795909356 14.237988892248367
Co 15.638291219903424 13.675609066988736 11.563143349181203
Co 13.842611542530515 12.862636090051973 12.697567842294193
Co 16.9405302747675 11.830673082950641 12.015058573452196
Co 13.446003574061791 15.162115113261816 12.4370631780066
Co 15.732815350177221 12.3521716479121 13.829680284294687
Co 9.66179174541714 15.172849235571986 13.069032891776354
Co 15.202205319049026 10.216969117864526 12.746009422315884
Co 10.68768806581459 9.506850088524068 14.560702501342428
Co 13.31632642515212 8.224657030595338 12.015434368052171
Co 7.544963894870169 11.81913168736638 13.886658404588976
Co 11.517447758570288 11.56171011743033 13.594837181828757
Co 9.22206001965922 15.38713549163192 15.260856135709124
Co 9.392111737599096 12.875688042924263 13.110823183353856
Co 12.852726333410981 9.248049581424835 13.988909070277806
Co 13.81842210844659 11.181135824668761 14.440198909302175
Co 7.630047972980829 14.234183430857975 13.86606703212659
Co 8.262758251873102 9.64473762219619 14.667962279234136
Co 12.94777871709421 13.506836583049093 14.686995211165327
Co 10.637383880634962 13.533574412851602 15.054912914756096
Co 9.568989328990465 11.429455304889453 15.115771059220089
Co 11.893731880597677 11.555987220079025 15.830265646077079
Co 8.364911066432674 13.289044950189654 15.748261538515829
Co 14.583697251497465 12.620566028598429 15.943769890255323
