41
Energy = -239.34648758 eV
Co 7.937654355712925 12.633662089113955 8.551119096505557
Co 8.648668717090889 11.026851005564483 7.038397377131036
Co 10.149836335828832 13.287175430208347 8.894986192602582
Co 7.005062119896586 11.557103638760875 10.405866636068303
Co 8.926837425055503 12.873640179533641 10.815544276024713
Co 10.57735685141731 9.877693023723007 6.13294463806841
Co 7.251100631212417 9.94453820696859 8.77020140750172
Co 10.920835963658666 11.731161606116206 7.4943890264599204
Co 12.667002766091887 13.287878113744972 8.972253367495536
Co 9.199216175326614 8.904607109195354 7.809184180926919
Co 11.018702403800955 13.942062029922443 10.913333432350322
Co 9.464918920292462 13.6779623050867 12.89406186536323
Co 7.473349581602423 12.37525184643835 12.58559036962256
Co 9.379672099898311 10.87749943994801 9.267479025084059
Co 5.553732872828702 11.09196845299087 12.124567443230495
Co 11.061315192049555 7.709862636555909 6.851257993508973
Co 11.398521546074008 9.570314997269302 8.39801971474123
Co 6.806645839334412 9.354084451625619 11.178212296588233
Co 13.138284716363643 11.272193866704946 7.957939780525539
Co 11.607927136815961 11.539654760312716 9.957473721793331
Co 12.844970894298765 9.37005408741333 6.569002835565515
Co 8.810915820528468 10.6189522847608 11.669181508527384
Co 8.738745281344908 8.57988712291965 10.090817014540093
Co 7.277708593131114 10.103792843410915 13.368186138793448
Co 12.967407662464206 12.866429482023657 11.354979676928238
Co 14.45484941993532 9.467701815171818 8.335973482274548
Co 14.016618947454333 11.27097312579481 10.07078707815798
Co 10.80080317628501 11.954472055817261 12.20869745642133
Co 10.786295547815733 9.402044008184827 10.866158370824621
Co 10.689067252253146 7.498843199482667 9.2130680180154
Co 9.210738353845553 11.463239155708205 13.880878490467557
Co 8.732166225708891 8.425925375407587 12.567620194860647
Co 12.934234773483698 7.708313058983851 8.26629796023439
Co 13.078769613418384 9.091364349727863 10.167786407940248
Co 12.696689355175117 10.55505987732958 11.95434648943329
Co 10.678298909827909 9.763050478782247 13.234681666677206
Co 10.355832359722935 7.126981600758633 11.505353247894801
Co 8.997110068845789 9.234123279887417 14.733730037031455
Co 12.536809140985838 6.832102109117593 10.430953596091536
Co 12.278980034007807 8.208474666428192 12.321434810411262
Co 10.535120310409122 7.531824224400224 13.786017068610967
