48
Energy = -282.69387726 eV
Co 11.553165378856574 8.20200711571022 6.968148788809183
Co 11.536481393294908 8.028093965421402 9.258550608870038
Co 11.491459461215396 7.204174386596979 11.60811101633175
Co 13.659280903735757 8.359061790920105 8.211945851634347
Co 15.659835457130244 8.211203879213619 9.330650654336056
Co 13.626118705747917 7.660744654032598 10.424756618968841
Co 12.60538397706336 10.312013138359749 7.5135583825642
Co 14.81701098548067 10.3452272834038 8.746890380053426
Co 11.335758403759202 8.154668992003856 13.818564736276171
Co 9.487840480059806 7.4732916891111785 10.237998002311475
Co 10.408899909463043 10.150950875401957 6.5997471139620405
Co 9.432646600108018 8.652841618799492 8.154927932022066
Co 12.987287835385795 8.903187626999554 12.282119634217224
Co 10.73861782833888 10.47431547232471 8.933524510080547
Co 14.989363494197795 9.608814425096538 10.986460719072555
Co 10.769940985984153 9.365834388572452 11.079840198099712
Co 12.90693909478588 9.856102525009415 10.000830518019562
Co 8.59351362291254 10.991736154052917 7.900948730109179
Co 7.30521343081135 8.158284084521041 8.959760450762918
Co 7.501108539718324 7.558781216706829 11.351654240853659
Co 11.260996673431706 12.285906480200248 7.293812501588837
Co 9.459706823299705 8.227687214109734 12.574866186864767
Co 12.965980908889469 12.060645587596445 9.052123890761868
Co 9.356506890270715 12.097442829075938 5.952223606647902
Co 6.095517914128378 9.21380080666895 10.736328017684354
Co 6.663031918728009 10.565733494458447 8.958638075455932
Co 8.487345175502663 9.658157636458485 10.27214519411768
Co 11.479207368348606 11.630552551058406 10.945092150983198
Co 9.179827978326207 13.250853254661545 7.923256291469024
Co 11.43432565880407 10.363841586316237 13.160192637291917
Co 14.818386116222001 11.996106524501895 10.429175015181304
Co 13.486919786653617 11.228567072272705 12.084977956570517
Co 9.2231621796168 12.063605665898955 9.997322980141204
Co 11.097439504956748 13.440741760161481 9.356030383398652
Co 12.921186374941282 13.422136509417452 11.040935235432917
Co 7.564100323601413 9.598768464430712 12.614663549527341
Co 7.2041065076044015 12.881857366600626 9.238862230450987
Co 9.37983482885131 11.181132258743903 12.218266955573434
Co 7.116492743183833 11.389640048664225 11.10064786009796
Co 11.915378445506324 12.662824739047185 13.143866145176068
Co 8.925451211342802 14.452568139481036 9.93721208967553
Co 9.344093870322615 9.940939178508136 14.26560539999237
Co 10.435915495757488 13.609766473499805 11.625255327807881
Co 10.918367776955789 11.568826153868216 15.038223965207933
Co 8.137559095400533 13.28204118761079 11.84089747416254
Co 7.6006121372546485 11.672623530121188 13.625906809212884
Co 9.568472963720925 13.000570403259095 13.783234578450145
Co 8.736667927174466 11.763788887895545 15.603709490564855
