49
Energy = -286.43240398 eV
Co 9.678092385701648 11.20555420871531 8.003488418555527
Co 14.514669906698739 12.799816765079209 9.131137330473045
Co 12.54662159411282 14.094258111774598 9.472142053980281
Co 8.324396451844171 12.773430695437186 9.165645896346906
Co 12.400062602123555 12.09325317632515 8.152004286319293
Co 11.257487354541855 10.2879262173487 9.314645619705114
Co 10.58414468881989 12.834710308086771 9.32765326525199
Co 12.297380281249106 8.3479251967936 9.383343600603801
Co 13.617349076142267 10.368151102389355 9.01344347431511
Co 8.941972782807428 10.493228554137913 10.097507584203434
Co 8.800593690975159 12.675860115607419 11.362961409224326
Co 16.685477160702927 12.0759244329804 9.835602817132497
Co 11.96285440677714 15.85020266581856 10.873479089911509
Co 15.533330136119433 13.35101864524198 11.254849823760237
Co 9.674500787117818 14.785524336812134 10.319097542209057
Co 10.678086633209958 11.453514324435245 11.188641965818602
Co 13.053376514773024 9.655973047873067 11.202758342596143
Co 12.880768152094038 12.10796398477817 10.691303137166509
Co 14.54928194062903 15.112334803736783 10.106762763310051
Co 14.75321465449132 9.723389002953578 12.837838357406753
Co 9.93429668783586 16.528619270634476 11.766039663060953
Co 12.318674677432172 7.460183027325211 11.512792039953277
Co 11.213364193199073 13.71001697277124 11.612859428315213
Co 15.017716342151633 10.950391952018851 10.749086907048065
Co 16.43339438807953 11.554859993049995 12.540126264129045
Co 14.080332665834527 11.98830151778285 12.786140314857594
Co 9.286888634387015 14.574537385839069 12.768380494027172
Co 11.961133135501658 10.963341012654071 12.919860757640274
Co 10.70531276458324 9.07521771299339 11.49306277668803
Co 13.45688967246032 14.402984334455361 12.005047269606102
Co 15.57106264805895 11.279473678768667 14.624316217323356
Co 10.18114018295137 12.440116442325793 13.40071985316155
Co 12.449755332644266 8.72119238913378 13.424507440699852
Co 7.856479529215663 12.491977031284529 13.413418013814402
Co 15.4662727026932 15.485997190326854 12.351652083245934
Co 11.526461246374575 15.492864708724612 13.198623329654263
Co 15.501062432427883 13.58368701213956 13.659666275112878
Co 9.246012002609753 10.399096285881724 12.813824900866994
Co 10.3620842649529 14.156937098458112 14.928931249249894
Co 12.315578390273638 13.373921193912631 13.87422373805099
Co 13.813093204188375 15.132902143558589 14.138893464433608
Co 13.444273761676977 10.491119497619966 14.677858007389561
Co 9.04920432273295 11.57540885073618 15.156051051452197
Co 12.319553558884238 8.877284572703722 15.763908627257168
Co 13.92852465894469 12.782308044683715 15.35067265056607
Co 11.48515794451665 11.909437558293074 15.524277740570705
Co 9.906514749113114 12.866903608116425 16.779213531574033
Co 10.677710791891919 9.914267726576494 14.632452714476765
Co 13.160133566761003 11.12843174421351 16.80082607079152
