40
Energy = -233.85804191 eV
Co 12.893572793069026 8.804573638332204 10.291122664901799
Co 11.39227403051442 12.532449668594921 9.115621944215059
Co 7.462401921663603 12.341258295687465 10.33938190853351
Co 13.667811059223174 14.974996502520412 11.587456001325963
Co 13.152398947973253 10.825726900088942 13.942995160109612
Co 8.972314249008196 9.326214968814956 10.312340114881705
Co 7.160947887515497 10.259343910910967 11.515729139396873
Co 9.861697782516464 15.485001173695679 11.60410879282478
Co 10.830194432599223 8.366381930610407 9.079714561093754
Co 11.67852439585601 14.628302150214099 10.388552301788911
Co 9.534370591058966 13.471169049860087 12.757989836260391
Co 12.815857916170254 8.811090552701355 7.940996825156386
Co 11.4077330573954 12.56962463280753 11.525577307149472
Co 9.008066796957916 9.325463436914344 12.76535275376059
Co 9.23573048490031 11.383301966945547 9.090918289753168
Co 7.70565334107476 14.347152070913776 11.578449867940032
Co 11.403219293945655 12.501204384039582 13.974908999461155
Co 14.89619780735861 9.224613702712805 11.47586488797329
Co 13.460799588817272 12.986363237541688 10.331305699242472
Co 15.178626277790585 11.305639432394782 12.727101723896249
Co 11.130826265884371 10.423490381562493 12.762542786438207
Co 9.218388289852788 11.377218524701544 11.574220270318463
Co 13.21173689485345 10.843921471222176 11.555661337163695
Co 11.686062407309004 14.606117918504722 12.76930264617748
Co 10.847370353340297 8.361478553842892 11.52842421407
Co 9.526321065477664 13.513505615049151 10.343187170595623
Co 7.447435336889062 12.356121747740836 12.754493701280222
Co 13.464086923874413 12.935766429129993 12.744079181279215
Co 11.117006286151588 10.432721806299524 10.264635310980506
Co 12.893456814644619 8.81021162360633 12.75083455146117
Co 15.449658434151186 13.300021390074045 11.547526946191638
Co 11.097706517468502 10.410725965459475 7.893862835940436
Co 13.17196184145358 10.86477935956883 9.075413451870203
Co 9.27689940322208 11.346594878736198 13.95865938845527
Co 9.017417512255044 9.320838827402785 7.966020950326172
Co 7.153575372075986 10.290657509541024 9.19163335925775
Co 14.887769089663793 9.262934851714638 9.149368267908043
Co 15.14455709846606 11.311115521703329 10.309896558051618
Co 11.133273944005715 10.434807493510053 15.11553321132788
Co 10.855857865602278 8.398153547730754 13.912980098011147
