51
Energy = -301.96708454 eV
Co 8.559294310473907 8.1787134100813 13.194049737032577
Co 7.116568597411201 7.318132244158458 11.469707383029405
Co 6.703583589799918 9.561983567231035 12.53506425082522
Co 8.122050025817217 10.15114694185645 14.397809194282786
Co 9.535376216277417 7.139057806044406 11.198769727519737
Co 10.041773814237816 8.72433782184974 14.911266333141937
Co 6.28545808091096 9.057627544761598 10.03938687352998
Co 10.529186398340048 10.840122753967592 15.464823573766571
Co 11.01167191220598 7.970359720335269 12.864155860608157
Co 8.456751309523195 9.25370990277184 11.123847106500628
Co 8.036558360618804 11.53082335181924 12.491665196905627
Co 8.06698370645419 7.624857866668023 9.29678894942157
Co 9.285905198658753 12.30796686753612 14.297942355445743
Co 6.712888671597427 8.636792511315072 7.653606364760922
Co 6.913809380816239 11.222272147158579 10.541856962809378
Co 9.980007883336249 10.203919945175562 13.003479876883421
Co 13.135941676515499 8.8553870101582 11.999119338081389
Co 10.340942394695379 7.440821534007089 9.001269203189178
Co 12.001719120466309 7.1496866595378625 10.718110608053525
Co 12.111333277736358 9.757060492626016 13.958255075307145
Co 10.835294835565678 9.187897440914242 10.861634340840702
Co 6.071159611700566 10.735798283473729 8.29331156612923
Co 9.55270602647822 11.271373649889396 10.491678008167595
Co 11.645418906983155 12.162622408008186 13.857128623893546
Co 9.010856810429395 8.638432305434634 7.1848152908075535
Co 14.250127200666526 7.515431553675024 10.213318648435946
Co 12.054876213401387 10.948790298446134 11.966871054462219
Co 10.74112631329739 9.656922956899404 8.531383184317402
Co 12.954250314651416 9.491462546229922 9.754074842899877
Co 8.231505167830035 10.002776251270383 8.892448909099505
Co 11.162484702030644 8.089259606658663 6.677214978589169
Co 8.06995173964016 10.871338273482879 6.759999558371247
Co 11.788809678397776 11.548378953738716 9.665731707730878
Co 10.145639616245822 12.766117128480163 12.17378747470077
Co 12.606923973940928 7.577392155103202 8.425911232895483
Co 7.639757906708191 12.424985417930257 8.650563902720695
Co 8.257323210223365 13.259062438813123 10.778428526256068
Co 13.92585238874761 11.56922667867906 10.77236948487519
Co 15.15668613315734 9.62728176660105 10.456896101505905
Co 9.86615823061006 11.870043326724797 8.185756303511425
Co 12.322394914555572 13.200547750600636 11.46349167246129
Co 10.403769395514116 10.477111139039856 6.344532079687094
Co 14.649484676411292 8.870180921343085 8.271862996559152
Co 12.712194791755627 9.6897651201271 7.230042546026842
Co 13.96407439534729 11.263933035782472 8.520986579253258
Co 12.076314318156738 11.95523716859275 7.299115546090909
Co 8.823359025312906 13.069224408253218 6.58028616162233
Co 8.826385412014051 14.388136659749849 8.544111960578205
Co 10.524858278078641 13.533366542833061 9.922859488916929
Co 12.818731732190887 13.461336974930934 9.031803867103372
Co 10.908117551722542 13.964828067096638 7.641739614638532
