53
Energy = -313.45324344 eV
Co 9.582876103090044 9.769148827414787 6.249115744598801
Co 11.285290906428953 11.309233715120145 6.230531444316198
Co 7.223555268513024 10.163645839642507 6.569962115184078
Co 10.70725991354853 8.028966191550913 5.025191766050122
Co 8.110404704499958 7.804841773043181 5.8041591555513765
Co 9.640414720162342 5.821414577791907 5.712259401210418
Co 10.46335863663679 13.007841830279157 7.553072993749875
Co 8.697649070618905 12.046494232920445 6.2819414902014
Co 11.844142537621616 9.055204381584248 6.919153604306414
Co 6.1680167265496335 7.846582386778395 7.384586306880057
Co 10.409537981583725 9.24060209806029 8.783335084617416
Co 11.856803952156962 6.150197950987518 6.653294167371903
Co 8.220739592551926 8.711781597196305 7.968009944739019
Co 7.941281301061694 6.194218190672771 7.525268514050014
Co 11.750593929728112 11.165256025093472 8.511497746322581
Co 6.7807165486757555 11.85618502389916 8.142747471569512
Co 10.07830669046619 7.523696273742466 7.1062895911715955
Co 10.330976288385706 14.756485561248342 9.298483716160906
Co 10.210636438358813 5.259140204819113 8.083332580325608
Co 9.04707262534424 11.044142779946231 8.272479414697349
Co 12.419902305321859 5.121860631970374 8.886958665444617
Co 12.28658089908261 13.417599572243535 9.271592954447101
Co 8.397253758184322 13.4046238307387 8.545060430509517
Co 6.144843694310302 5.45513249190404 8.86199016833429
Co 11.889202895148875 7.2942214957268625 8.722199389789434
Co 6.971583990518009 7.4325472554293395 9.581309993427567
Co 10.258462635012268 12.497381241710974 9.855420336976794
Co 9.356954671184763 7.079018282468708 9.30922340114712
Co 8.253700087709051 5.134928712718044 9.72822507179783
Co 6.417119727123411 9.740444393855004 9.038450737655163
Co 6.4746261354818335 13.206492829568697 10.114168085311825
Co 6.471417575779451 6.019086362009454 11.261855366413021
Co 12.502544744701591 9.368261439910109 9.835157124116229
Co 5.255998175978855 8.413604180004329 10.682255895753595
Co 10.781220033169081 8.02390057739085 10.831835492810127
Co 10.763424706040935 5.553877225526963 10.487651432678566
Co 8.593125497206259 14.008549800885579 10.802220114350968
Co 8.069721135598767 11.610798602565845 10.35091340803239
Co 12.19332884722446 11.656945544906474 11.02192917312515
Co 11.227396092648984 13.97011676525993 11.335613088048381
Co 10.316799818344132 10.36563648437638 11.001822000165538
Co 6.2991150678577705 10.403954821969355 11.312899510070249
Co 8.3992398431555 9.190340430936509 10.40306860153141
Co 12.738744036085683 6.878978861210648 10.872933230879019
Co 8.791352086119621 6.639584949227769 11.555306350620297
Co 7.12282505529645 8.247613680430971 12.080873771594723
Co 7.278288452528107 12.646950706899222 12.301506099514187
Co 12.211504245884154 9.308877706232657 12.143800874194909
Co 11.025288860348619 6.5786630738359175 12.571381628637646
Co 9.70170431016555 12.390718726718164 12.182138745131033
Co 8.287285569081362 10.486966051884755 12.508786516061488
Co 10.68687060881159 10.630006370815902 13.2958941952239
Co 9.601827936289173 8.606124870253478 12.709733326506393
