6
Energy = -29.09903083 eV
Co 11.505638971247034 9.275738199479038 10.46762454862985
Co 11.12989764893227 11.51207772391734 10.318761158805478
Co 10.49674205511701 10.131055075841013 8.632996876591783
Co 9.297223719136129 8.886345310533383 10.10942026127677
Co 9.947729998443954 10.259565702236586 11.79242654951692
Co 8.929343322508975 11.114643031289742 9.948298959122917
