7
Energy = -32.9504504 eV
Co 7.894898118998882 9.006619317658059 6.438730791540769
Co 6.765851103379038 9.024655671876687 8.384923825373665
Co 8.858651046991843 9.955768601991497 8.230822037698282
Co 9.670781501194698 7.988300780645751 7.365510311155034
Co 8.553884128892209 7.992786927615819 9.354367847927902
Co 7.5760090501731225 7.058110080022975 7.522215921311737
Co 9.139206704657356 7.554441771042396 11.318065222102291
