8
Energy = -38.35408351 eV
Co 9.136217434341432 6.9793082146146 6.259780534951395
Co 9.796384709074662 8.289477884809477 7.833747986230744
Co 7.073281842971514 6.377958000922418 6.126258781168692
Co 7.95514463584083 6.789796331957586 8.384682557433187
Co 8.393065218476753 9.025657175497656 9.291951122433828
Co 5.675266347038626 7.108792073128355 7.59180981742477
Co 7.512012649228178 8.616762065273845 7.036879433019744
Co 6.325695002338175 8.438566558688606 9.154556946687107
