   41   41 1000    2
  0.3019831E+03  0.2313425E-08  0.2313425E-08  0.2313425E-08  0.1000000E-15
  1.000000000000000E-004
  CAR 
 unknown system                          
    451      1    292
 
  0.0000000E+00  0.0000000E+00  0.0000000E+00  0.1000000E+01
    1       -9.717213     -9.699703
    2       -9.241551     -9.227971
    3       -9.204972     -9.195928
    4       -9.188427     -9.174404
    5       -9.098287     -9.090229
    6       -9.053022     -9.040498
    7       -9.041318     -9.031958
    8       -8.976262     -8.966369
    9       -8.975265     -8.964077
   10       -8.961771     -8.951683
   11       -8.900103     -8.891411
   12       -8.892052     -8.884729
   13       -8.858752     -8.849664
   14       -8.849886     -8.841550
   15       -8.836022     -8.825573
   16       -8.817649     -8.809611
   17       -8.804157     -8.794765
   18       -8.791787     -8.782334
   19       -8.763340     -8.755423
   20       -8.733361     -8.724548
   21       -8.732077     -8.722956
   22       -8.718494     -8.705055
   23       -8.699733     -8.691175
   24       -8.686306     -8.678316
   25       -8.668597     -8.660507
   26       -8.660087     -8.650834
   27       -8.644113     -8.635810
   28       -8.613646     -8.604348
   29       -8.593120     -8.585758
   30       -8.591885     -8.584393
   31       -8.582722     -8.573579
   32       -8.566699     -8.558198
   33       -8.559218     -8.550506
   34       -8.538752     -8.531424
   35       -8.522160     -8.513435
   36       -8.489894     -8.482546
   37       -8.481438     -8.474358
   38       -8.468397     -8.460271
   39       -8.457889     -8.449726
   40       -8.449363     -8.441225
   41       -8.431523     -8.424120
   42       -8.399361     -8.390066
   43       -8.388705     -8.379999
   44       -8.367642     -8.360846
   45       -8.365918     -8.358086
   46       -8.344386     -8.337349
   47       -8.326428     -8.319695
   48       -8.319951     -8.312360
   49       -8.314401     -8.308099
   50       -8.302425     -8.294925
   51       -8.277612     -8.270179
   52       -8.258298     -8.251631
   53       -8.231732     -8.225511
   54       -8.211231     -8.204811
   55       -8.200667     -8.192676
   56       -8.197693     -8.191106
   57       -8.187653     -8.179420
   58       -8.171342     -8.163431
   59       -8.158162     -8.147921
   60       -8.141912     -8.134793
   61       -8.118744     -8.111910
   62       -8.102107     -8.094513
   63       -8.090199     -8.081480
   64       -8.078154     -8.070613
   65       -8.056162     -8.047787
   66       -8.049918     -8.041951
   67       -8.018756     -8.012159
   68       -7.990539     -7.984111
   69       -7.981508     -7.974267
   70       -7.961902     -7.953406
   71       -7.959051     -7.950047
   72       -7.937919     -7.930358
   73       -7.922170     -7.914840
   74       -7.916339     -7.909286
   75       -7.880127     -7.872924
   76       -7.874089     -7.866750
   77       -7.861078     -7.854703
   78       -7.836156     -7.828879
   79       -7.823028     -7.816226
   80       -7.807398     -7.801216
   81       -7.794168     -7.787174
   82       -7.775151     -7.768627
   83       -7.742905     -7.735332
   84       -7.736263     -7.729531
   85       -7.722454     -7.717315
   86       -7.710145     -7.703320
   87       -7.693713     -7.687055
   88       -7.676342     -7.669671
   89       -7.666780     -7.660769
   90       -7.659989     -7.652682
   91       -7.620099     -7.612187
   92       -7.603908     -7.596279
   93       -7.602148     -7.594661
   94       -7.576742     -7.570500
   95       -7.572987     -7.566595
   96       -7.549260     -7.542196
   97       -7.542215     -7.534717
   98       -7.515497     -7.509021
   99       -7.493484     -7.486260
  100       -7.474068     -7.466901
  101       -7.455748     -7.449051
  102       -7.450701     -7.442312
  103       -7.444573     -7.437577
  104       -7.434569     -7.428069
  105       -7.425792     -7.419208
  106       -7.408779     -7.402413
  107       -7.380778     -7.374597
  108       -7.357664     -7.351749
  109       -7.326070     -7.319395
  110       -7.323600     -7.316652
  111       -7.310756     -7.302098
  112       -7.296291     -7.290141
  113       -7.281419     -7.275185
  114       -7.270074     -7.264386
  115       -7.264230     -7.258481
  116       -7.252393     -7.245340
  117       -7.219217     -7.212464
  118       -7.210696     -7.203847
  119       -7.193231     -7.186209
  120       -7.183121     -7.177237
  121       -7.181912     -7.175707
  122       -7.143028     -7.137144
  123       -7.126413     -7.118965
  124       -7.115692     -7.108941
  125       -7.108430     -7.101761
  126       -7.090727     -7.083262
  127       -7.081564     -7.074940
  128       -7.067692     -7.062288
  129       -7.056029     -7.050333
  130       -7.047928     -7.040880
  131       -7.039711     -7.033812
  132       -7.013820     -7.007333
  133       -7.001864     -6.995649
  134       -6.987845     -6.981007
  135       -6.984203     -6.979363
  136       -6.964011     -6.957758
  137       -6.956793     -6.951570
  138       -6.947673     -6.942517
  139       -6.944235     -6.937675
  140       -6.928110     -6.921524
  141       -6.922322     -6.916051
  142       -6.910650     -6.904373
  143       -6.894944     -6.889418
  144       -6.881985     -6.876431
  145       -6.877977     -6.873511
  146       -6.866226     -6.859424
  147       -6.864971     -6.858731
  148       -6.852812     -6.845335
  149       -6.847752     -6.841538
  150       -6.842150     -6.836760
  151       -6.820678     -6.813574
  152       -6.814758     -6.808819
  153       -6.810215     -6.802519
  154       -6.799304     -6.792164
  155       -6.798806     -6.791231
  156       -6.777260     -6.771608
  157       -6.772036     -6.764365
  158       -6.767025     -6.759722
  159       -6.757967     -6.753109
  160       -6.752873     -6.747211
  161       -6.734591     -6.728083
  162       -6.729762     -6.724024
  163       -6.720506     -6.712987
  164       -6.709642     -6.703531
  165       -6.705169     -6.698684
  166       -6.696073     -6.690374
  167       -6.681624     -6.674780
  168       -6.674730     -6.666032
  169       -6.659164     -6.652933
  170       -6.651283     -6.644352
  171       -6.650531     -6.643100
  172       -6.631749     -6.626454
  173       -6.624184     -6.617714
  174       -6.620885     -6.612706
  175       -6.606614     -6.599731
  176       -6.589933     -6.583861
  177       -6.583528     -6.577216
  178       -6.572929     -6.566787
  179       -6.565460     -6.558825
  180       -6.550646     -6.544443
  181       -6.548510     -6.541067
  182       -6.543518     -6.537864
  183       -6.527864     -6.520834
  184       -6.513529     -6.508067
  185       -6.502384     -6.495681
  186       -6.495008     -6.487710
  187       -6.488715     -6.482364
  188       -6.472375     -6.467974
  189       -6.455851     -6.448315
  190       -6.437545     -6.429178
  191       -6.431744     -6.425278
  192       -6.421174     -6.415114
  193       -6.407969     -6.402256
  194       -6.407022     -6.400607
  195       -6.388033     -6.380870
  196       -6.383173     -6.376726
  197       -6.371029     -6.364086
  198       -6.351081     -6.344603
  199       -6.337009     -6.329829
  200       -6.329243     -6.324214
  201       -6.308542     -6.303208
  202       -6.282803     -6.276381
  203       -6.272085     -6.264782
  204       -6.254058     -6.247513
  205       -6.241932     -6.236787
  206       -6.228130     -6.219347
  207       -6.204565     -6.199106
  208       -6.186269     -6.181867
  209       -6.184291     -6.177325
  210       -6.128290     -6.119206
  211       -6.101492     -6.093849
  212       -5.902682     -5.887610
  213       -5.750831     -5.735500
  214       -5.581508     -5.552785
  215       -5.288217     -5.270708
  216       -5.160448     -5.134669
  217       -5.054902     -5.039173
  218       -4.713013     -4.693239
  219       -4.524817     -4.506875
  220       -4.305843     -4.280409
  221       -4.140870     -4.117861
  222       -4.023125     -4.003285
  223       -3.938279     -3.920267
  224       -3.679251     -3.664604
  225       -3.605541     -3.584710
  226       -3.307483     -3.227697
  227       -3.167709     -3.146787
  228       -3.101475     -3.077789
  229       -2.924694     -2.902784
  230       -2.885301     -2.862641
  231       -2.628293     -2.608057
  232       -2.585636     -2.564479
  233       -2.473668     -2.450551
  234       -2.314801     -2.290007
  235       -2.245600     -2.219062
  236       -2.116189     -2.095507
  237       -2.107967     -2.091300
  238       -1.983022     -1.943965
  239       -1.860102     -1.817175
  240       -1.758575     -1.726415
  241       -1.633226     -1.610341
  242       -1.581433     -1.563426
  243       -1.438828     -1.404235
  244       -1.302952     -1.254931
  245       -1.196834     -1.173611
  246       -1.116213     -1.094793
  247       -1.044458     -1.021737
  248       -0.934985     -0.912941
  249       -0.815658     -0.787651
  250       -0.754103     -0.734034
  251       -0.631959     -0.604606
  252       -0.600115     -0.577134
  253       -0.503146     -0.476954
  254       -0.453385     -0.429432
  255       -0.356084     -0.334004
  256       -0.198668     -0.167939
  257       -0.164121     -0.139863
  258       -0.094415     -0.071539
  259        0.083709      0.115682
  260        0.173877      0.199774
  261        0.208394      0.243659
  262        0.361814      0.390024
  263        0.405682      0.439544
  264        0.507353      0.521840
  265        0.580989      0.607738
  266        0.595660      0.622468
  267        0.627573      0.646636
  268        0.674185      0.692051
  269        0.705742      0.722909
  270        0.741301      0.749926
  271        0.760104      0.787425
  272        0.788661      0.808325
  273        0.816450      0.853911
  274        0.833372      0.861826
  275        0.850922      0.874289
  276        0.928312      0.945860
  277        0.961341      0.968051
  278        1.003103      1.020382
  279        1.016030      1.027088
  280        1.034812      1.045049
  281        1.063117      1.059796
  282        1.069612      1.069164
  283        1.088555      1.098653
  284        1.116666      1.128747
  285        1.138889      1.148547
  286        1.174834      1.174972
  287        1.184998      1.201628
  288        1.213970      1.230544
  289        1.234875      1.257383
  290        1.260005      1.281250
  291        1.284809      1.285386
  292        1.327407      1.333437
