  11  11   0   0
  0.5198207E+03  0.1788197E-08  0.1788197E-08  0.1788197E-08  0.1000000E-15
  1.000000000000000E-004
  CAR 
 unknown system                          
      1.19809195     -9.67721780  301     -3.49641675      1.00000000
     -9.677  0.0000E+00  0.0000E+00  0.0000E+00  0.0000E+00
     -9.641  0.0000E+00  0.0000E+00  0.0000E+00  0.0000E+00
     -9.605  0.0000E+00  0.0000E+00  0.0000E+00  0.0000E+00
     -9.568  0.0000E+00  0.0000E+00  0.0000E+00  0.0000E+00
     -9.532  0.0000E+00  0.0000E+00  0.0000E+00  0.0000E+00
     -9.496  0.0000E+00  0.0000E+00  0.0000E+00  0.0000E+00
     -9.460  0.0000E+00  0.0000E+00  0.0000E+00  0.0000E+00
     -9.423  0.0000E+00  0.0000E+00  0.0000E+00  0.0000E+00
     -9.387  0.0000E+00  0.0000E+00  0.0000E+00  0.0000E+00
     -9.351  0.0000E+00  0.0000E+00  0.0000E+00  0.0000E+00
     -9.315  0.0000E+00  0.0000E+00  0.0000E+00  0.0000E+00
     -9.278  0.0000E+00  0.0000E+00  0.0000E+00  0.0000E+00
     -9.242  0.0000E+00  0.0000E+00  0.0000E+00  0.0000E+00
     -9.206  0.0000E+00  0.0000E+00  0.0000E+00  0.0000E+00
     -9.170  0.0000E+00  0.1562E-15  0.1000E-02  0.5662E-17
     -9.133  0.0000E+00  0.0000E+00  0.1000E-02  0.1000E-02
     -9.097  0.0000E+00  0.0000E+00  0.1000E-02  0.1000E-02
     -9.061  0.0000E+00  0.0000E+00  0.1000E-02  0.1000E-02
     -9.025  0.0000E+00  0.0000E+00  0.1000E-02  0.1000E-02
     -8.988  0.0000E+00  0.0000E+00  0.1000E-02  0.1000E-02
     -8.952  0.0000E+00  0.0000E+00  0.1000E-02  0.1000E-02
     -8.916  0.0000E+00  0.0000E+00  0.3000E-02  0.2000E-02
     -8.880  0.0000E+00  0.0000E+00  0.4000E-02  0.3000E-02
     -8.843  0.0000E+00  0.0000E+00  0.4000E-02  0.4000E-02
     -8.807  0.0000E+00  0.0000E+00  0.5000E-02  0.5000E-02
     -8.771  0.0000E+00  0.0000E+00  0.5000E-02  0.5000E-02
     -8.735  0.0000E+00  0.0000E+00  0.6000E-02  0.6000E-02
     -8.698  0.0000E+00  0.0000E+00  0.6000E-02  0.6000E-02
     -8.662  0.0000E+00  0.0000E+00  0.7000E-02  0.7000E-02
     -8.626  0.0000E+00  0.0000E+00  0.7000E-02  0.7000E-02
     -8.590  0.0000E+00  0.0000E+00  0.7000E-02  0.7000E-02
     -8.553  0.0000E+00  0.0000E+00  0.7000E-02  0.7000E-02
     -8.517  0.0000E+00  0.0000E+00  0.7000E-02  0.7000E-02
     -8.481  0.0000E+00  0.0000E+00  0.8000E-02  0.8000E-02
     -8.445  0.0000E+00  0.0000E+00  0.9000E-02  0.9000E-02
     -8.408  0.0000E+00  0.0000E+00  0.1100E-01  0.9000E-02
     -8.372  0.0000E+00  0.0000E+00  0.1100E-01  0.1100E-01
     -8.336  0.0000E+00  0.0000E+00  0.1100E-01  0.1100E-01
     -8.300  0.0000E+00  0.0000E+00  0.1300E-01  0.1200E-01
     -8.263  0.0000E+00  0.0000E+00  0.1300E-01  0.1300E-01
     -8.227  0.0000E+00  0.0000E+00  0.1300E-01  0.1300E-01
     -8.191  0.2759E-01  0.0000E+00  0.1400E-01  0.1300E-01
     -8.155  0.2759E-01  0.0000E+00  0.1500E-01  0.1400E-01
     -8.118  0.0000E+00  0.0000E+00  0.1500E-01  0.1500E-01
     -8.082  0.0000E+00  0.0000E+00  0.1500E-01  0.1500E-01
     -8.046  0.0000E+00  0.0000E+00  0.1700E-01  0.1600E-01
     -8.010  0.0000E+00  0.2759E-01  0.1800E-01  0.1800E-01
     -7.973  0.0000E+00  0.0000E+00  0.1800E-01  0.1800E-01
     -7.937  0.0000E+00  0.2437E-01  0.1900E-01  0.1888E-01
     -7.901  0.0000E+00  0.0000E+00  0.1900E-01  0.1900E-01
     -7.865  0.0000E+00  0.0000E+00  0.2000E-01  0.2000E-01
     -7.828  0.0000E+00  0.0000E+00  0.2000E-01  0.2000E-01
     -7.792  0.0000E+00  0.0000E+00  0.2100E-01  0.2000E-01
     -7.756  0.0000E+00  0.0000E+00  0.2200E-01  0.2200E-01
     -7.720  0.0000E+00  0.0000E+00  0.2200E-01  0.2200E-01
     -7.683  0.0000E+00  0.0000E+00  0.2200E-01  0.2200E-01
     -7.647  0.0000E+00  0.0000E+00  0.2300E-01  0.2300E-01
     -7.611  0.0000E+00  0.0000E+00  0.2300E-01  0.2300E-01
     -7.575  0.0000E+00  0.0000E+00  0.2400E-01  0.2300E-01
     -7.538  0.0000E+00  0.0000E+00  0.2500E-01  0.2500E-01
     -7.502  0.0000E+00  0.0000E+00  0.2500E-01  0.2500E-01
     -7.466  0.0000E+00  0.0000E+00  0.2600E-01  0.2500E-01
     -7.430  0.0000E+00  0.0000E+00  0.2600E-01  0.2600E-01
     -7.393  0.0000E+00  0.0000E+00  0.2700E-01  0.2700E-01
     -7.357  0.0000E+00  0.0000E+00  0.2800E-01  0.2800E-01
     -7.321  0.0000E+00  0.0000E+00  0.2800E-01  0.2800E-01
     -7.285  0.0000E+00  0.0000E+00  0.2900E-01  0.2900E-01
     -7.248  0.0000E+00  0.0000E+00  0.3000E-01  0.2900E-01
     -7.212  0.0000E+00  0.0000E+00  0.3100E-01  0.3000E-01
     -7.176  0.0000E+00  0.0000E+00  0.3200E-01  0.3100E-01
     -7.140  0.0000E+00  0.0000E+00  0.3300E-01  0.3200E-01
     -7.103  0.0000E+00  0.0000E+00  0.3400E-01  0.3400E-01
     -7.067  0.0000E+00  0.0000E+00  0.3500E-01  0.3500E-01
     -7.031  0.0000E+00  0.0000E+00  0.3600E-01  0.3500E-01
     -6.995  0.0000E+00  0.0000E+00  0.3800E-01  0.3600E-01
     -6.958  0.0000E+00  0.0000E+00  0.4000E-01  0.3800E-01
     -6.922  0.0000E+00  0.0000E+00  0.4100E-01  0.4000E-01
     -6.886  0.0000E+00  0.0000E+00  0.4200E-01  0.4200E-01
     -6.850  0.0000E+00  0.0000E+00  0.4300E-01  0.4300E-01
     -6.813  0.0000E+00  0.0000E+00  0.4500E-01  0.4400E-01
     -6.777  0.0000E+00  0.0000E+00  0.4500E-01  0.4500E-01
     -6.741  0.0000E+00  0.0000E+00  0.4600E-01  0.4600E-01
     -6.705  0.2759E-01  0.0000E+00  0.4800E-01  0.4700E-01
     -6.668  0.0000E+00  0.0000E+00  0.4900E-01  0.4900E-01
     -6.632  0.0000E+00  0.0000E+00  0.5000E-01  0.5000E-01
     -6.596  0.0000E+00  0.0000E+00  0.5100E-01  0.5000E-01
     -6.560  0.0000E+00  0.0000E+00  0.5200E-01  0.5100E-01
     -6.523  0.0000E+00  0.0000E+00  0.5300E-01  0.5200E-01
     -6.487  0.0000E+00  0.0000E+00  0.5400E-01  0.5300E-01
     -6.451  0.0000E+00  0.0000E+00  0.5500E-01  0.5400E-01
     -6.415  0.0000E+00  0.0000E+00  0.5500E-01  0.5500E-01
     -6.378  0.0000E+00  0.0000E+00  0.5600E-01  0.5500E-01
     -6.342  0.0000E+00  0.0000E+00  0.5600E-01  0.5600E-01
     -6.306  0.0000E+00  0.0000E+00  0.5600E-01  0.5600E-01
     -6.270  0.0000E+00  0.0000E+00  0.5600E-01  0.5600E-01
     -6.233  0.0000E+00  0.0000E+00  0.5600E-01  0.5600E-01
     -6.197  0.0000E+00  0.0000E+00  0.5600E-01  0.5600E-01
     -6.161  0.0000E+00  0.0000E+00  0.5600E-01  0.5600E-01
     -6.125  0.0000E+00  0.0000E+00  0.5600E-01  0.5600E-01
     -6.088  0.0000E+00  0.0000E+00  0.5600E-01  0.5600E-01
     -6.052  0.0000E+00  0.0000E+00  0.5600E-01  0.5600E-01
     -6.016  0.0000E+00  0.0000E+00  0.5600E-01  0.5600E-01
     -5.980  0.0000E+00  0.0000E+00  0.5600E-01  0.5600E-01
     -5.943  0.0000E+00  0.0000E+00  0.5600E-01  0.5600E-01
     -5.907  0.0000E+00  0.0000E+00  0.5700E-01  0.5600E-01
     -5.871  0.0000E+00  0.0000E+00  0.5700E-01  0.5600E-01
     -5.835  0.0000E+00  0.0000E+00  0.5700E-01  0.5700E-01
     -5.798  0.0000E+00  0.0000E+00  0.5700E-01  0.5700E-01
     -5.762  0.0000E+00  0.0000E+00  0.5700E-01  0.5700E-01
     -5.726  0.0000E+00  0.0000E+00  0.5700E-01  0.5700E-01
     -5.690  0.0000E+00  0.0000E+00  0.5700E-01  0.5700E-01
     -5.653  0.0000E+00  0.0000E+00  0.5700E-01  0.5700E-01
     -5.617  0.0000E+00  0.0000E+00  0.5700E-01  0.5700E-01
     -5.581  0.0000E+00  0.0000E+00  0.5700E-01  0.5700E-01
     -5.545  0.0000E+00  0.0000E+00  0.5800E-01  0.5700E-01
     -5.508  0.0000E+00  0.0000E+00  0.5800E-01  0.5700E-01
     -5.472  0.0000E+00  0.0000E+00  0.5800E-01  0.5700E-01
     -5.436  0.0000E+00  0.0000E+00  0.5800E-01  0.5800E-01
     -5.400  0.0000E+00  0.0000E+00  0.5800E-01  0.5800E-01
     -5.363  0.0000E+00  0.0000E+00  0.5800E-01  0.5800E-01
     -5.327  0.0000E+00  0.0000E+00  0.5800E-01  0.5800E-01
     -5.291  0.0000E+00  0.0000E+00  0.5800E-01  0.5800E-01
     -5.255  0.0000E+00  0.0000E+00  0.5800E-01  0.5800E-01
     -5.218  0.0000E+00  0.0000E+00  0.5800E-01  0.5800E-01
     -5.182  0.0000E+00  0.0000E+00  0.5800E-01  0.5800E-01
     -5.146  0.0000E+00  0.0000E+00  0.5800E-01  0.5800E-01
     -5.110  0.0000E+00  0.0000E+00  0.5800E-01  0.5800E-01
     -5.073  0.0000E+00  0.0000E+00  0.5800E-01  0.5800E-01
     -5.037  0.0000E+00  0.0000E+00  0.5800E-01  0.5800E-01
     -5.001  0.0000E+00  0.0000E+00  0.5800E-01  0.5800E-01
     -4.965  0.0000E+00  0.0000E+00  0.5800E-01  0.5800E-01
     -4.928  0.0000E+00  0.0000E+00  0.5800E-01  0.5800E-01
     -4.892  0.0000E+00  0.0000E+00  0.5800E-01  0.5800E-01
     -4.856  0.0000E+00  0.0000E+00  0.5800E-01  0.5800E-01
     -4.820  0.0000E+00  0.0000E+00  0.5800E-01  0.5800E-01
     -4.783  0.0000E+00  0.0000E+00  0.5800E-01  0.5800E-01
     -4.747  0.0000E+00  0.0000E+00  0.5800E-01  0.5800E-01
     -4.711  0.0000E+00  0.0000E+00  0.5800E-01  0.5800E-01
     -4.675  0.0000E+00  0.0000E+00  0.5800E-01  0.5800E-01
     -4.638  0.0000E+00  0.0000E+00  0.5800E-01  0.5800E-01
     -4.602  0.0000E+00  0.0000E+00  0.5800E-01  0.5800E-01
     -4.566  0.0000E+00  0.0000E+00  0.5800E-01  0.5800E-01
     -4.530  0.0000E+00  0.0000E+00  0.5900E-01  0.5800E-01
     -4.493  0.0000E+00  0.0000E+00  0.5900E-01  0.5900E-01
     -4.457  0.0000E+00  0.0000E+00  0.5900E-01  0.5900E-01
     -4.421  0.0000E+00  0.0000E+00  0.5900E-01  0.5900E-01
     -4.385  0.0000E+00  0.0000E+00  0.5900E-01  0.5900E-01
     -4.348  0.0000E+00  0.0000E+00  0.5900E-01  0.5900E-01
     -4.312  0.0000E+00  0.0000E+00  0.5900E-01  0.5900E-01
     -4.276  0.0000E+00  0.0000E+00  0.5900E-01  0.5900E-01
     -4.240  0.0000E+00  0.0000E+00  0.5900E-01  0.5900E-01
     -4.203  0.0000E+00  0.0000E+00  0.5900E-01  0.5900E-01
     -4.167  0.0000E+00  0.0000E+00  0.5900E-01  0.5900E-01
     -4.131  0.0000E+00  0.0000E+00  0.6000E-01  0.5900E-01
     -4.095  0.0000E+00  0.0000E+00  0.6000E-01  0.6000E-01
     -4.058  0.0000E+00  0.0000E+00  0.6000E-01  0.6000E-01
     -4.022  0.0000E+00  0.0000E+00  0.6000E-01  0.6000E-01
     -3.986  0.0000E+00  0.0000E+00  0.6000E-01  0.6000E-01
     -3.950  0.0000E+00  0.0000E+00  0.6000E-01  0.6000E-01
     -3.913  0.0000E+00  0.0000E+00  0.6000E-01  0.6000E-01
     -3.877  0.0000E+00  0.0000E+00  0.6000E-01  0.6000E-01
     -3.841  0.0000E+00  0.0000E+00  0.6000E-01  0.6000E-01
     -3.805  0.0000E+00  0.0000E+00  0.6000E-01  0.6000E-01
     -3.768  0.0000E+00  0.0000E+00  0.6000E-01  0.6000E-01
     -3.732  0.0000E+00  0.0000E+00  0.6000E-01  0.6000E-01
     -3.696  0.0000E+00  0.0000E+00  0.6000E-01  0.6000E-01
     -3.660  0.0000E+00  0.0000E+00  0.6000E-01  0.6000E-01
     -3.623  0.0000E+00  0.0000E+00  0.6000E-01  0.6000E-01
     -3.587  0.0000E+00  0.0000E+00  0.6000E-01  0.6000E-01
     -3.551  0.0000E+00  0.0000E+00  0.6000E-01  0.6000E-01
     -3.515  0.0000E+00  0.0000E+00  0.6000E-01  0.6000E-01
     -3.478  0.0000E+00  0.0000E+00  0.6100E-01  0.6000E-01
     -3.442  0.0000E+00  0.0000E+00  0.6100E-01  0.6000E-01
     -3.406  0.0000E+00  0.0000E+00  0.6100E-01  0.6000E-01
     -3.370  0.0000E+00  0.0000E+00  0.6100E-01  0.6000E-01
     -3.333  0.0000E+00  0.0000E+00  0.6100E-01  0.6000E-01
     -3.297  0.0000E+00  0.0000E+00  0.6100E-01  0.6000E-01
     -3.261  0.0000E+00  0.0000E+00  0.6100E-01  0.6100E-01
     -3.225  0.0000E+00  0.0000E+00  0.6100E-01  0.6100E-01
     -3.188  0.0000E+00  0.0000E+00  0.6100E-01  0.6100E-01
     -3.152  0.0000E+00  0.0000E+00  0.6100E-01  0.6100E-01
     -3.116  0.0000E+00  0.0000E+00  0.6100E-01  0.6100E-01
     -3.080  0.0000E+00  0.0000E+00  0.6100E-01  0.6100E-01
     -3.043  0.0000E+00  0.0000E+00  0.6200E-01  0.6100E-01
     -3.007  0.0000E+00  0.0000E+00  0.6200E-01  0.6100E-01
     -2.971  0.0000E+00  0.0000E+00  0.6200E-01  0.6200E-01
     -2.935  0.0000E+00  0.0000E+00  0.6200E-01  0.6200E-01
     -2.898  0.0000E+00  0.0000E+00  0.6200E-01  0.6200E-01
     -2.862  0.0000E+00  0.0000E+00  0.6200E-01  0.6200E-01
     -2.826  0.0000E+00  0.0000E+00  0.6200E-01  0.6200E-01
     -2.790  0.0000E+00  0.0000E+00  0.6200E-01  0.6200E-01
     -2.753  0.0000E+00  0.0000E+00  0.6200E-01  0.6200E-01
     -2.717  0.0000E+00  0.0000E+00  0.6200E-01  0.6200E-01
     -2.681  0.0000E+00  0.0000E+00  0.6300E-01  0.6200E-01
     -2.645  0.0000E+00  0.0000E+00  0.6300E-01  0.6200E-01
     -2.608  0.0000E+00  0.0000E+00  0.6300E-01  0.6300E-01
     -2.572  0.0000E+00  0.0000E+00  0.6300E-01  0.6300E-01
     -2.536  0.0000E+00  0.0000E+00  0.6400E-01  0.6300E-01
     -2.500  0.0000E+00  0.0000E+00  0.6400E-01  0.6400E-01
     -2.463  0.0000E+00  0.0000E+00  0.6400E-01  0.6400E-01
     -2.427  0.0000E+00  0.0000E+00  0.6400E-01  0.6400E-01
     -2.391  0.0000E+00  0.0000E+00  0.6400E-01  0.6400E-01
     -2.355  0.0000E+00  0.0000E+00  0.6400E-01  0.6400E-01
     -2.318  0.0000E+00  0.0000E+00  0.6400E-01  0.6400E-01
     -2.282  0.0000E+00  0.0000E+00  0.6400E-01  0.6400E-01
     -2.246  0.0000E+00  0.0000E+00  0.6400E-01  0.6400E-01
     -2.210  0.0000E+00  0.0000E+00  0.6400E-01  0.6400E-01
     -2.173  0.0000E+00  0.0000E+00  0.6400E-01  0.6400E-01
     -2.137  0.0000E+00  0.0000E+00  0.6400E-01  0.6400E-01
     -2.101  0.0000E+00  0.0000E+00  0.6400E-01  0.6400E-01
     -2.065  0.0000E+00  0.0000E+00  0.6500E-01  0.6400E-01
     -2.028  0.0000E+00  0.0000E+00  0.6500E-01  0.6400E-01
     -1.992  0.0000E+00  0.0000E+00  0.6500E-01  0.6500E-01
     -1.956  0.0000E+00  0.0000E+00  0.6500E-01  0.6500E-01
     -1.919  0.0000E+00  0.0000E+00  0.6500E-01  0.6500E-01
     -1.883  0.0000E+00  0.0000E+00  0.6500E-01  0.6500E-01
     -1.847  0.0000E+00  0.0000E+00  0.6500E-01  0.6500E-01
     -1.811  0.0000E+00  0.0000E+00  0.6600E-01  0.6500E-01
     -1.774  0.0000E+00  0.0000E+00  0.6600E-01  0.6500E-01
     -1.738  0.0000E+00  0.0000E+00  0.6600E-01  0.6500E-01
     -1.702  0.0000E+00  0.0000E+00  0.6600E-01  0.6600E-01
     -1.666  0.0000E+00  0.0000E+00  0.6600E-01  0.6600E-01
     -1.629  0.0000E+00  0.0000E+00  0.6600E-01  0.6600E-01
     -1.593  0.0000E+00  0.0000E+00  0.6600E-01  0.6600E-01
     -1.557  0.0000E+00  0.0000E+00  0.6600E-01  0.6600E-01
     -1.521  0.0000E+00  0.0000E+00  0.6600E-01  0.6600E-01
     -1.484  0.0000E+00  0.0000E+00  0.6700E-01  0.6600E-01
     -1.448  0.0000E+00  0.0000E+00  0.6700E-01  0.6600E-01
     -1.412  0.0000E+00  0.0000E+00  0.6700E-01  0.6600E-01
     -1.376  0.0000E+00  0.0000E+00  0.6700E-01  0.6600E-01
     -1.339  0.0000E+00  0.0000E+00  0.6700E-01  0.6700E-01
     -1.303  0.0000E+00  0.0000E+00  0.6700E-01  0.6700E-01
     -1.267  0.0000E+00  0.0000E+00  0.6700E-01  0.6700E-01
     -1.231  0.0000E+00  0.0000E+00  0.6700E-01  0.6700E-01
     -1.194  0.0000E+00  0.0000E+00  0.6700E-01  0.6700E-01
     -1.158  0.0000E+00  0.0000E+00  0.6700E-01  0.6700E-01
     -1.122  0.0000E+00  0.0000E+00  0.6700E-01  0.6700E-01
     -1.086  0.0000E+00  0.0000E+00  0.6800E-01  0.6700E-01
     -1.049  0.0000E+00  0.0000E+00  0.6800E-01  0.6700E-01
     -1.013  0.0000E+00  0.0000E+00  0.6800E-01  0.6700E-01
     -0.977  0.0000E+00  0.0000E+00  0.6800E-01  0.6700E-01
     -0.941  0.0000E+00  0.0000E+00  0.6900E-01  0.6800E-01
     -0.904  0.0000E+00  0.0000E+00  0.6900E-01  0.6800E-01
     -0.868  0.0000E+00  0.0000E+00  0.6900E-01  0.6900E-01
     -0.832  0.0000E+00  0.0000E+00  0.6900E-01  0.6900E-01
     -0.796  0.0000E+00  0.0000E+00  0.7000E-01  0.6900E-01
     -0.759  0.0000E+00  0.0000E+00  0.7000E-01  0.6900E-01
     -0.723  0.0000E+00  0.0000E+00  0.7000E-01  0.7000E-01
     -0.687  0.0000E+00  0.0000E+00  0.7000E-01  0.7000E-01
     -0.651  0.0000E+00  0.0000E+00  0.7000E-01  0.7000E-01
     -0.614  0.0000E+00  0.0000E+00  0.7000E-01  0.7000E-01
     -0.578  0.0000E+00  0.0000E+00  0.7000E-01  0.7000E-01
     -0.542  0.0000E+00  0.0000E+00  0.7000E-01  0.7000E-01
     -0.506  0.0000E+00  0.0000E+00  0.7100E-01  0.7000E-01
     -0.469  0.0000E+00  0.0000E+00  0.7100E-01  0.7000E-01
     -0.433  0.0000E+00  0.0000E+00  0.7100E-01  0.7000E-01
     -0.397  0.0000E+00  0.0000E+00  0.7100E-01  0.7100E-01
     -0.361  0.0000E+00  0.0000E+00  0.7200E-01  0.7100E-01
     -0.324  0.0000E+00  0.0000E+00  0.7300E-01  0.7200E-01
     -0.288  0.0000E+00  0.0000E+00  0.7300E-01  0.7200E-01
     -0.252  0.0000E+00  0.0000E+00  0.7300E-01  0.7200E-01
     -0.216  0.0000E+00  0.0000E+00  0.7300E-01  0.7300E-01
     -0.179  0.0000E+00  0.0000E+00  0.7300E-01  0.7300E-01
     -0.143  0.0000E+00  0.0000E+00  0.7300E-01  0.7300E-01
     -0.107  0.0000E+00  0.0000E+00  0.7300E-01  0.7300E-01
     -0.071  0.0000E+00  0.0000E+00  0.7300E-01  0.7300E-01
     -0.034  0.0000E+00  0.0000E+00  0.7300E-01  0.7300E-01
      0.002  0.0000E+00  0.0000E+00  0.7400E-01  0.7300E-01
      0.038  0.0000E+00  0.0000E+00  0.7400E-01  0.7300E-01
      0.074  0.0000E+00  0.0000E+00  0.7500E-01  0.7400E-01
      0.111  0.0000E+00  0.0000E+00  0.7500E-01  0.7400E-01
      0.147  0.0000E+00  0.0000E+00  0.7500E-01  0.7400E-01
      0.183  0.0000E+00  0.0000E+00  0.7500E-01  0.7500E-01
      0.219  0.0000E+00  0.0000E+00  0.7500E-01  0.7500E-01
      0.256  0.0000E+00  0.0000E+00  0.7500E-01  0.7500E-01
      0.292  0.0000E+00  0.0000E+00  0.7500E-01  0.7500E-01
      0.328  0.0000E+00  0.0000E+00  0.7600E-01  0.7500E-01
      0.364  0.0000E+00  0.0000E+00  0.7700E-01  0.7600E-01
      0.401  0.0000E+00  0.0000E+00  0.7700E-01  0.7600E-01
      0.437  0.0000E+00  0.0000E+00  0.7700E-01  0.7700E-01
      0.473  0.0000E+00  0.0000E+00  0.7700E-01  0.7700E-01
      0.509  0.0000E+00  0.0000E+00  0.7700E-01  0.7700E-01
      0.546  0.0000E+00  0.0000E+00  0.7700E-01  0.7700E-01
      0.582  0.0000E+00  0.0000E+00  0.7700E-01  0.7700E-01
      0.618  0.0000E+00  0.0000E+00  0.7800E-01  0.7700E-01
      0.654  0.0000E+00  0.0000E+00  0.7900E-01  0.7900E-01
      0.691  0.0000E+00  0.0000E+00  0.8000E-01  0.7900E-01
      0.727  0.0000E+00  0.0000E+00  0.8000E-01  0.8000E-01
      0.763  0.0000E+00  0.0000E+00  0.8000E-01  0.8000E-01
      0.799  0.0000E+00  0.0000E+00  0.8000E-01  0.8000E-01
      0.836  0.0000E+00  0.0000E+00  0.8000E-01  0.8000E-01
      0.872  0.0000E+00  0.0000E+00  0.8000E-01  0.8000E-01
      0.908  0.0000E+00  0.0000E+00  0.8000E-01  0.8000E-01
      0.944  0.0000E+00  0.0000E+00  0.8000E-01  0.8000E-01
      0.981  0.0000E+00  0.0000E+00  0.8000E-01  0.8000E-01
      1.017  0.0000E+00  0.0000E+00  0.8000E-01  0.8000E-01
      1.053  0.0000E+00  0.0000E+00  0.8000E-01  0.8000E-01
      1.089  0.0000E+00  0.0000E+00  0.8000E-01  0.8000E-01
      1.126  0.0000E+00  0.0000E+00  0.8000E-01  0.8000E-01
      1.162  0.0000E+00  0.0000E+00  0.8000E-01  0.8000E-01
      1.198  0.0000E+00  0.0000E+00  0.8000E-01  0.8000E-01
