  13  13   0   0
  0.4627282E+03  0.1818681E-08  0.1818681E-08  0.1818681E-08  0.1000000E-15
  1.000000000000000E-004
  CAR 
 unknown system                          
      1.18360518    -10.00248405  301     -3.46794359      1.00000000
    -10.002  0.0000E+00  0.0000E+00  0.0000E+00  0.0000E+00
     -9.965  0.0000E+00  0.0000E+00  0.0000E+00  0.0000E+00
     -9.928  0.0000E+00  0.0000E+00  0.0000E+00  0.0000E+00
     -9.891  0.0000E+00  0.0000E+00  0.0000E+00  0.0000E+00
     -9.853  0.0000E+00  0.0000E+00  0.0000E+00  0.0000E+00
     -9.816  0.0000E+00  0.0000E+00  0.0000E+00  0.0000E+00
     -9.779  0.0000E+00  0.0000E+00  0.0000E+00  0.0000E+00
     -9.741  0.0000E+00  0.0000E+00  0.0000E+00  0.0000E+00
     -9.704  0.0000E+00  0.0000E+00  0.0000E+00  0.0000E+00
     -9.667  0.0000E+00  0.0000E+00  0.0000E+00  0.0000E+00
     -9.630  0.0000E+00  0.0000E+00  0.0000E+00  0.0000E+00
     -9.592  0.0000E+00  0.0000E+00  0.0000E+00  0.0000E+00
     -9.555  0.0000E+00  0.0000E+00  0.0000E+00  0.0000E+00
     -9.518  0.0000E+00  0.0000E+00  0.0000E+00  0.0000E+00
     -9.480  0.0000E+00  0.0000E+00  0.1000E-02  0.0000E+00
     -9.443  0.0000E+00  0.0000E+00  0.1000E-02  0.1000E-02
     -9.406  0.0000E+00  0.0000E+00  0.1000E-02  0.1000E-02
     -9.369  0.0000E+00  0.0000E+00  0.1000E-02  0.1000E-02
     -9.331  0.0000E+00  0.0000E+00  0.1000E-02  0.1000E-02
     -9.294  0.0000E+00  0.0000E+00  0.1000E-02  0.1000E-02
     -9.257  0.0000E+00  0.0000E+00  0.1000E-02  0.1000E-02
     -9.219  0.2682E-01  0.0000E+00  0.2000E-02  0.1000E-02
     -9.182  0.0000E+00  0.0000E+00  0.3000E-02  0.2000E-02
     -9.145  0.0000E+00  0.0000E+00  0.3000E-02  0.3000E-02
     -9.108  0.0000E+00  0.0000E+00  0.3000E-02  0.3000E-02
     -9.070  0.0000E+00  0.0000E+00  0.4000E-02  0.3000E-02
     -9.033  0.0000E+00  0.0000E+00  0.4000E-02  0.4000E-02
     -8.996  0.0000E+00  0.0000E+00  0.4000E-02  0.4000E-02
     -8.958  0.0000E+00  0.0000E+00  0.4000E-02  0.4000E-02
     -8.921  0.0000E+00  0.0000E+00  0.4000E-02  0.4000E-02
     -8.884  0.0000E+00  0.0000E+00  0.5000E-02  0.5000E-02
     -8.847  0.0000E+00  0.0000E+00  0.5000E-02  0.5000E-02
     -8.809  0.0000E+00  0.0000E+00  0.5000E-02  0.5000E-02
     -8.772  0.0000E+00  0.0000E+00  0.6000E-02  0.6000E-02
     -8.735  0.0000E+00  0.0000E+00  0.6000E-02  0.6000E-02
     -8.697  0.0000E+00  0.0000E+00  0.6000E-02  0.6000E-02
     -8.660  0.2682E-01  0.0000E+00  0.7000E-02  0.6000E-02
     -8.623  0.0000E+00  0.0000E+00  0.7000E-02  0.7000E-02
     -8.586  0.0000E+00  0.0000E+00  0.8000E-02  0.8000E-02
     -8.548  0.0000E+00  0.0000E+00  0.8000E-02  0.8000E-02
     -8.511  0.0000E+00  0.0000E+00  0.8000E-02  0.8000E-02
     -8.474  0.0000E+00  0.0000E+00  0.8000E-02  0.8000E-02
     -8.436  0.0000E+00  0.0000E+00  0.9000E-02  0.9000E-02
     -8.399  0.0000E+00  0.0000E+00  0.1000E-01  0.1000E-01
     -8.362  0.0000E+00  0.0000E+00  0.1000E-01  0.1000E-01
     -8.325  0.0000E+00  0.0000E+00  0.1100E-01  0.1000E-01
     -8.287  0.0000E+00  0.0000E+00  0.1200E-01  0.1100E-01
     -8.250  0.0000E+00  0.0000E+00  0.1300E-01  0.1300E-01
     -8.213  0.0000E+00  0.0000E+00  0.1300E-01  0.1300E-01
     -8.175  0.0000E+00  0.0000E+00  0.1400E-01  0.1300E-01
     -8.138  0.0000E+00  0.2557E-01  0.1500E-01  0.1495E-01
     -8.101  0.0000E+00  0.2060E-04  0.1700E-01  0.1500E-01
     -8.064  0.0000E+00  0.0000E+00  0.1700E-01  0.1700E-01
     -8.026  0.0000E+00  0.0000E+00  0.1700E-01  0.1700E-01
     -7.989  0.0000E+00  0.0000E+00  0.1800E-01  0.1800E-01
     -7.952  0.0000E+00  0.9166E-06  0.1900E-01  0.1800E-01
     -7.914  0.0000E+00  0.0000E+00  0.2000E-01  0.1900E-01
     -7.877  0.0000E+00  0.2682E-01  0.2100E-01  0.2100E-01
     -7.840  0.0000E+00  0.0000E+00  0.2100E-01  0.2100E-01
     -7.803  0.2978E-17  0.0000E+00  0.2200E-01  0.2100E-01
     -7.765  0.0000E+00  0.0000E+00  0.2300E-01  0.2300E-01
     -7.728  0.0000E+00  0.0000E+00  0.2400E-01  0.2400E-01
     -7.691  0.0000E+00  0.0000E+00  0.2600E-01  0.2500E-01
     -7.653  0.0000E+00  0.0000E+00  0.2600E-01  0.2600E-01
     -7.616  0.0000E+00  0.0000E+00  0.2700E-01  0.2700E-01
     -7.579  0.0000E+00  0.0000E+00  0.2800E-01  0.2700E-01
     -7.542  0.0000E+00  0.0000E+00  0.2900E-01  0.2800E-01
     -7.504  0.0000E+00  0.0000E+00  0.2900E-01  0.2900E-01
     -7.467  0.0000E+00  0.2682E-01  0.3000E-01  0.3000E-01
     -7.430  0.0000E+00  0.0000E+00  0.3100E-01  0.3000E-01
     -7.392  0.0000E+00  0.0000E+00  0.3200E-01  0.3100E-01
     -7.355  0.0000E+00  0.0000E+00  0.3200E-01  0.3200E-01
     -7.318  0.0000E+00  0.0000E+00  0.3200E-01  0.3200E-01
     -7.281  0.0000E+00  0.0000E+00  0.3300E-01  0.3300E-01
     -7.243  0.0000E+00  0.0000E+00  0.3400E-01  0.3300E-01
     -7.206  0.0000E+00  0.0000E+00  0.3500E-01  0.3500E-01
     -7.169  0.0000E+00  0.0000E+00  0.3600E-01  0.3600E-01
     -7.131  0.0000E+00  0.0000E+00  0.3800E-01  0.3600E-01
     -7.094  0.0000E+00  0.0000E+00  0.3900E-01  0.3800E-01
     -7.057  0.0000E+00  0.0000E+00  0.4100E-01  0.3900E-01
     -7.020  0.0000E+00  0.0000E+00  0.4200E-01  0.4100E-01
     -6.982  0.0000E+00  0.0000E+00  0.4300E-01  0.4300E-01
     -6.945  0.0000E+00  0.0000E+00  0.4300E-01  0.4300E-01
     -6.908  0.2682E-01  0.0000E+00  0.4500E-01  0.4300E-01
     -6.870  0.0000E+00  0.0000E+00  0.4700E-01  0.4600E-01
     -6.833  0.0000E+00  0.0000E+00  0.4800E-01  0.4800E-01
     -6.796  0.0000E+00  0.0000E+00  0.4900E-01  0.4900E-01
     -6.759  0.0000E+00  0.0000E+00  0.5200E-01  0.5000E-01
     -6.721  0.0000E+00  0.0000E+00  0.5300E-01  0.5200E-01
     -6.684  0.0000E+00  0.0000E+00  0.5400E-01  0.5300E-01
     -6.647  0.0000E+00  0.2682E-01  0.5500E-01  0.5500E-01
     -6.609  0.0000E+00  0.0000E+00  0.5600E-01  0.5600E-01
     -6.572  0.0000E+00  0.0000E+00  0.5800E-01  0.5700E-01
     -6.535  0.0000E+00  0.0000E+00  0.6000E-01  0.5900E-01
     -6.498  0.0000E+00  0.0000E+00  0.6100E-01  0.6000E-01
     -6.460  0.0000E+00  0.0000E+00  0.6200E-01  0.6100E-01
     -6.423  0.0000E+00  0.0000E+00  0.6300E-01  0.6300E-01
     -6.386  0.0000E+00  0.0000E+00  0.6400E-01  0.6400E-01
     -6.348  0.0000E+00  0.0000E+00  0.6600E-01  0.6500E-01
     -6.311  0.0000E+00  0.0000E+00  0.6600E-01  0.6600E-01
     -6.274  0.0000E+00  0.0000E+00  0.6600E-01  0.6600E-01
     -6.237  0.0000E+00  0.0000E+00  0.6600E-01  0.6600E-01
     -6.199  0.0000E+00  0.0000E+00  0.6700E-01  0.6600E-01
     -6.162  0.0000E+00  0.0000E+00  0.6700E-01  0.6600E-01
     -6.125  0.0000E+00  0.0000E+00  0.6700E-01  0.6700E-01
     -6.087  0.0000E+00  0.0000E+00  0.6700E-01  0.6700E-01
     -6.050  0.0000E+00  0.0000E+00  0.6700E-01  0.6700E-01
     -6.013  0.0000E+00  0.0000E+00  0.6700E-01  0.6700E-01
     -5.975  0.0000E+00  0.0000E+00  0.6700E-01  0.6700E-01
     -5.938  0.0000E+00  0.0000E+00  0.6700E-01  0.6700E-01
     -5.901  0.0000E+00  0.0000E+00  0.6700E-01  0.6700E-01
     -5.864  0.0000E+00  0.0000E+00  0.6700E-01  0.6700E-01
     -5.826  0.0000E+00  0.0000E+00  0.6700E-01  0.6700E-01
     -5.789  0.0000E+00  0.0000E+00  0.6700E-01  0.6700E-01
     -5.752  0.0000E+00  0.0000E+00  0.6700E-01  0.6700E-01
     -5.714  0.0000E+00  0.0000E+00  0.6700E-01  0.6700E-01
     -5.677  0.0000E+00  0.0000E+00  0.6700E-01  0.6700E-01
     -5.640  0.0000E+00  0.0000E+00  0.6700E-01  0.6700E-01
     -5.603  0.0000E+00  0.0000E+00  0.6700E-01  0.6700E-01
     -5.565  0.0000E+00  0.0000E+00  0.6700E-01  0.6700E-01
     -5.528  0.0000E+00  0.0000E+00  0.6700E-01  0.6700E-01
     -5.491  0.0000E+00  0.0000E+00  0.6700E-01  0.6700E-01
     -5.453  0.0000E+00  0.0000E+00  0.6800E-01  0.6700E-01
     -5.416  0.0000E+00  0.0000E+00  0.6800E-01  0.6800E-01
     -5.379  0.0000E+00  0.0000E+00  0.6800E-01  0.6800E-01
     -5.342  0.0000E+00  0.0000E+00  0.6800E-01  0.6800E-01
     -5.304  0.0000E+00  0.0000E+00  0.6800E-01  0.6800E-01
     -5.267  0.0000E+00  0.0000E+00  0.6800E-01  0.6800E-01
     -5.230  0.0000E+00  0.0000E+00  0.6800E-01  0.6800E-01
     -5.192  0.0000E+00  0.0000E+00  0.6800E-01  0.6800E-01
     -5.155  0.0000E+00  0.0000E+00  0.6900E-01  0.6800E-01
     -5.118  0.0000E+00  0.0000E+00  0.6900E-01  0.6800E-01
     -5.081  0.0000E+00  0.0000E+00  0.6900E-01  0.6900E-01
     -5.043  0.0000E+00  0.0000E+00  0.6900E-01  0.6900E-01
     -5.006  0.0000E+00  0.0000E+00  0.6900E-01  0.6900E-01
     -4.969  0.0000E+00  0.0000E+00  0.6900E-01  0.6900E-01
     -4.931  0.0000E+00  0.0000E+00  0.6900E-01  0.6900E-01
     -4.894  0.0000E+00  0.0000E+00  0.6900E-01  0.6900E-01
     -4.857  0.0000E+00  0.0000E+00  0.6900E-01  0.6900E-01
     -4.820  0.0000E+00  0.0000E+00  0.6900E-01  0.6900E-01
     -4.782  0.0000E+00  0.0000E+00  0.6900E-01  0.6900E-01
     -4.745  0.0000E+00  0.0000E+00  0.6900E-01  0.6900E-01
     -4.708  0.0000E+00  0.0000E+00  0.6900E-01  0.6900E-01
     -4.670  0.0000E+00  0.0000E+00  0.6900E-01  0.6900E-01
     -4.633  0.0000E+00  0.0000E+00  0.6900E-01  0.6900E-01
     -4.596  0.0000E+00  0.0000E+00  0.6900E-01  0.6900E-01
     -4.559  0.0000E+00  0.0000E+00  0.6900E-01  0.6900E-01
     -4.521  0.0000E+00  0.0000E+00  0.6900E-01  0.6900E-01
     -4.484  0.0000E+00  0.0000E+00  0.6900E-01  0.6900E-01
     -4.447  0.0000E+00  0.0000E+00  0.6900E-01  0.6900E-01
     -4.409  0.0000E+00  0.0000E+00  0.6900E-01  0.6900E-01
     -4.372  0.0000E+00  0.0000E+00  0.7000E-01  0.6900E-01
     -4.335  0.0000E+00  0.0000E+00  0.7000E-01  0.7000E-01
     -4.298  0.0000E+00  0.0000E+00  0.7000E-01  0.7000E-01
     -4.260  0.0000E+00  0.0000E+00  0.7000E-01  0.7000E-01
     -4.223  0.0000E+00  0.0000E+00  0.7000E-01  0.7000E-01
     -4.186  0.0000E+00  0.0000E+00  0.7000E-01  0.7000E-01
     -4.148  0.0000E+00  0.0000E+00  0.7000E-01  0.7000E-01
     -4.111  0.0000E+00  0.0000E+00  0.7000E-01  0.7000E-01
     -4.074  0.0000E+00  0.0000E+00  0.7000E-01  0.7000E-01
     -4.037  0.0000E+00  0.0000E+00  0.7000E-01  0.7000E-01
     -3.999  0.0000E+00  0.0000E+00  0.7000E-01  0.7000E-01
     -3.962  0.0000E+00  0.0000E+00  0.7000E-01  0.7000E-01
     -3.925  0.0000E+00  0.0000E+00  0.7000E-01  0.7000E-01
     -3.887  0.0000E+00  0.0000E+00  0.7000E-01  0.7000E-01
     -3.850  0.0000E+00  0.0000E+00  0.7000E-01  0.7000E-01
     -3.813  0.0000E+00  0.0000E+00  0.7000E-01  0.7000E-01
     -3.776  0.0000E+00  0.0000E+00  0.7100E-01  0.7000E-01
     -3.738  0.0000E+00  0.0000E+00  0.7100E-01  0.7100E-01
     -3.701  0.0000E+00  0.0000E+00  0.7100E-01  0.7100E-01
     -3.664  0.0000E+00  0.0000E+00  0.7100E-01  0.7100E-01
     -3.626  0.0000E+00  0.0000E+00  0.7100E-01  0.7100E-01
     -3.589  0.0000E+00  0.0000E+00  0.7100E-01  0.7100E-01
     -3.552  0.0000E+00  0.0000E+00  0.7100E-01  0.7100E-01
     -3.515  0.0000E+00  0.0000E+00  0.7100E-01  0.7100E-01
     -3.477  0.0000E+00  0.0000E+00  0.7200E-01  0.7100E-01
     -3.440  0.0000E+00  0.0000E+00  0.7200E-01  0.7100E-01
     -3.403  0.0000E+00  0.0000E+00  0.7200E-01  0.7100E-01
     -3.365  0.0000E+00  0.0000E+00  0.7200E-01  0.7100E-01
     -3.328  0.0000E+00  0.0000E+00  0.7200E-01  0.7100E-01
     -3.291  0.0000E+00  0.0000E+00  0.7200E-01  0.7200E-01
     -3.254  0.0000E+00  0.0000E+00  0.7200E-01  0.7200E-01
     -3.216  0.0000E+00  0.0000E+00  0.7200E-01  0.7200E-01
     -3.179  0.0000E+00  0.0000E+00  0.7200E-01  0.7200E-01
     -3.142  0.0000E+00  0.0000E+00  0.7200E-01  0.7200E-01
     -3.104  0.0000E+00  0.0000E+00  0.7200E-01  0.7200E-01
     -3.067  0.0000E+00  0.0000E+00  0.7200E-01  0.7200E-01
     -3.030  0.0000E+00  0.0000E+00  0.7300E-01  0.7200E-01
     -2.993  0.0000E+00  0.0000E+00  0.7300E-01  0.7300E-01
     -2.955  0.0000E+00  0.0000E+00  0.7300E-01  0.7300E-01
     -2.918  0.0000E+00  0.0000E+00  0.7300E-01  0.7300E-01
     -2.881  0.0000E+00  0.0000E+00  0.7300E-01  0.7300E-01
     -2.843  0.0000E+00  0.0000E+00  0.7300E-01  0.7300E-01
     -2.806  0.0000E+00  0.0000E+00  0.7300E-01  0.7300E-01
     -2.769  0.0000E+00  0.0000E+00  0.7300E-01  0.7300E-01
     -2.732  0.0000E+00  0.0000E+00  0.7300E-01  0.7300E-01
     -2.694  0.0000E+00  0.0000E+00  0.7400E-01  0.7300E-01
     -2.657  0.0000E+00  0.0000E+00  0.7400E-01  0.7400E-01
     -2.620  0.0000E+00  0.0000E+00  0.7400E-01  0.7400E-01
     -2.582  0.0000E+00  0.0000E+00  0.7400E-01  0.7400E-01
     -2.545  0.0000E+00  0.0000E+00  0.7400E-01  0.7400E-01
     -2.508  0.0000E+00  0.0000E+00  0.7400E-01  0.7400E-01
     -2.471  0.0000E+00  0.0000E+00  0.7500E-01  0.7400E-01
     -2.433  0.0000E+00  0.0000E+00  0.7500E-01  0.7400E-01
     -2.396  0.0000E+00  0.0000E+00  0.7500E-01  0.7500E-01
     -2.359  0.0000E+00  0.0000E+00  0.7500E-01  0.7500E-01
     -2.321  0.0000E+00  0.0000E+00  0.7500E-01  0.7500E-01
     -2.284  0.0000E+00  0.0000E+00  0.7500E-01  0.7500E-01
     -2.247  0.0000E+00  0.0000E+00  0.7500E-01  0.7500E-01
     -2.210  0.0000E+00  0.0000E+00  0.7600E-01  0.7500E-01
     -2.172  0.0000E+00  0.0000E+00  0.7600E-01  0.7500E-01
     -2.135  0.0000E+00  0.0000E+00  0.7600E-01  0.7600E-01
     -2.098  0.0000E+00  0.0000E+00  0.7600E-01  0.7600E-01
     -2.060  0.0000E+00  0.0000E+00  0.7600E-01  0.7600E-01
     -2.023  0.0000E+00  0.0000E+00  0.7600E-01  0.7600E-01
     -1.986  0.0000E+00  0.0000E+00  0.7600E-01  0.7600E-01
     -1.948  0.0000E+00  0.0000E+00  0.7700E-01  0.7600E-01
     -1.911  0.0000E+00  0.0000E+00  0.7700E-01  0.7700E-01
     -1.874  0.0000E+00  0.0000E+00  0.7700E-01  0.7700E-01
     -1.837  0.0000E+00  0.0000E+00  0.7700E-01  0.7700E-01
     -1.799  0.0000E+00  0.0000E+00  0.7700E-01  0.7700E-01
     -1.762  0.0000E+00  0.0000E+00  0.7700E-01  0.7700E-01
     -1.725  0.0000E+00  0.0000E+00  0.7700E-01  0.7700E-01
     -1.687  0.0000E+00  0.0000E+00  0.7800E-01  0.7700E-01
     -1.650  0.0000E+00  0.0000E+00  0.7800E-01  0.7700E-01
     -1.613  0.0000E+00  0.0000E+00  0.7800E-01  0.7700E-01
     -1.576  0.0000E+00  0.0000E+00  0.7800E-01  0.7700E-01
     -1.538  0.0000E+00  0.0000E+00  0.7800E-01  0.7800E-01
     -1.501  0.0000E+00  0.0000E+00  0.7800E-01  0.7800E-01
     -1.464  0.0000E+00  0.0000E+00  0.7800E-01  0.7800E-01
     -1.426  0.0000E+00  0.0000E+00  0.7800E-01  0.7800E-01
     -1.389  0.0000E+00  0.0000E+00  0.7800E-01  0.7800E-01
     -1.352  0.0000E+00  0.0000E+00  0.7800E-01  0.7800E-01
     -1.315  0.0000E+00  0.0000E+00  0.7800E-01  0.7800E-01
     -1.277  0.0000E+00  0.0000E+00  0.7800E-01  0.7800E-01
     -1.240  0.0000E+00  0.0000E+00  0.7800E-01  0.7800E-01
     -1.203  0.0000E+00  0.0000E+00  0.7800E-01  0.7800E-01
     -1.165  0.0000E+00  0.0000E+00  0.7900E-01  0.7800E-01
     -1.128  0.0000E+00  0.0000E+00  0.8000E-01  0.7800E-01
     -1.091  0.0000E+00  0.0000E+00  0.8000E-01  0.7900E-01
     -1.054  0.0000E+00  0.0000E+00  0.8000E-01  0.7900E-01
     -1.016  0.0000E+00  0.0000E+00  0.8000E-01  0.8000E-01
     -0.979  0.0000E+00  0.0000E+00  0.8000E-01  0.8000E-01
     -0.942  0.0000E+00  0.0000E+00  0.8100E-01  0.8000E-01
     -0.904  0.0000E+00  0.0000E+00  0.8100E-01  0.8100E-01
     -0.867  0.0000E+00  0.0000E+00  0.8100E-01  0.8100E-01
     -0.830  0.0000E+00  0.0000E+00  0.8200E-01  0.8100E-01
     -0.793  0.0000E+00  0.0000E+00  0.8200E-01  0.8100E-01
     -0.755  0.0000E+00  0.0000E+00  0.8200E-01  0.8100E-01
     -0.718  0.0000E+00  0.0000E+00  0.8200E-01  0.8100E-01
     -0.681  0.0000E+00  0.0000E+00  0.8200E-01  0.8200E-01
     -0.643  0.0000E+00  0.0000E+00  0.8200E-01  0.8200E-01
     -0.606  0.0000E+00  0.0000E+00  0.8200E-01  0.8200E-01
     -0.569  0.0000E+00  0.0000E+00  0.8300E-01  0.8200E-01
     -0.532  0.0000E+00  0.0000E+00  0.8300E-01  0.8300E-01
     -0.494  0.0000E+00  0.0000E+00  0.8400E-01  0.8300E-01
     -0.457  0.0000E+00  0.0000E+00  0.8400E-01  0.8300E-01
     -0.420  0.0000E+00  0.0000E+00  0.8400E-01  0.8400E-01
     -0.382  0.0000E+00  0.0000E+00  0.8400E-01  0.8400E-01
     -0.345  0.0000E+00  0.0000E+00  0.8500E-01  0.8400E-01
     -0.308  0.0000E+00  0.0000E+00  0.8500E-01  0.8400E-01
     -0.271  0.0000E+00  0.0000E+00  0.8500E-01  0.8500E-01
     -0.233  0.0000E+00  0.0000E+00  0.8500E-01  0.8500E-01
     -0.196  0.0000E+00  0.0000E+00  0.8500E-01  0.8500E-01
     -0.159  0.0000E+00  0.0000E+00  0.8600E-01  0.8500E-01
     -0.121  0.0000E+00  0.0000E+00  0.8600E-01  0.8600E-01
     -0.084  0.0000E+00  0.0000E+00  0.8600E-01  0.8600E-01
     -0.047  0.0000E+00  0.0000E+00  0.8700E-01  0.8600E-01
     -0.010  0.0000E+00  0.0000E+00  0.8700E-01  0.8600E-01
      0.028  0.0000E+00  0.0000E+00  0.8700E-01  0.8700E-01
      0.065  0.0000E+00  0.0000E+00  0.8700E-01  0.8700E-01
      0.102  0.0000E+00  0.0000E+00  0.8700E-01  0.8700E-01
      0.140  0.0000E+00  0.0000E+00  0.8700E-01  0.8700E-01
      0.177  0.0000E+00  0.0000E+00  0.8800E-01  0.8700E-01
      0.214  0.0000E+00  0.0000E+00  0.8800E-01  0.8700E-01
      0.251  0.0000E+00  0.0000E+00  0.8800E-01  0.8700E-01
      0.289  0.0000E+00  0.0000E+00  0.8900E-01  0.8800E-01
      0.326  0.0000E+00  0.0000E+00  0.8900E-01  0.8900E-01
      0.363  0.0000E+00  0.0000E+00  0.8900E-01  0.8900E-01
      0.401  0.0000E+00  0.0000E+00  0.9000E-01  0.8900E-01
      0.438  0.0000E+00  0.0000E+00  0.9000E-01  0.8900E-01
      0.475  0.0000E+00  0.0000E+00  0.9000E-01  0.9000E-01
      0.512  0.0000E+00  0.0000E+00  0.9000E-01  0.9000E-01
      0.550  0.0000E+00  0.0000E+00  0.9000E-01  0.9000E-01
      0.587  0.0000E+00  0.0000E+00  0.9100E-01  0.9000E-01
      0.624  0.0000E+00  0.0000E+00  0.9200E-01  0.9000E-01
      0.662  0.0000E+00  0.0000E+00  0.9200E-01  0.9100E-01
      0.699  0.0000E+00  0.0000E+00  0.9200E-01  0.9200E-01
      0.736  0.0000E+00  0.0000E+00  0.9200E-01  0.9200E-01
      0.773  0.0000E+00  0.0000E+00  0.9200E-01  0.9200E-01
      0.811  0.0000E+00  0.0000E+00  0.9200E-01  0.9200E-01
      0.848  0.0000E+00  0.0000E+00  0.9200E-01  0.9200E-01
      0.885  0.0000E+00  0.0000E+00  0.9200E-01  0.9200E-01
      0.923  0.0000E+00  0.0000E+00  0.9200E-01  0.9200E-01
      0.960  0.0000E+00  0.0000E+00  0.9200E-01  0.9200E-01
      0.997  0.0000E+00  0.0000E+00  0.9200E-01  0.9200E-01
      1.034  0.0000E+00  0.0000E+00  0.9200E-01  0.9200E-01
      1.072  0.0000E+00  0.0000E+00  0.9200E-01  0.9200E-01
      1.109  0.0000E+00  0.0000E+00  0.9200E-01  0.9200E-01
      1.146  0.0000E+00  0.0000E+00  0.9200E-01  0.9200E-01
      1.184  0.0000E+00  0.0000E+00  0.9200E-01  0.9200E-01
