   13   13 1000    2
  0.4627282E+03  0.1818681E-08  0.1818681E-08  0.1818681E-08  0.1000000E-15
  1.000000000000000E-004
  CAR 
 unknown system                          
    143      1     92
 
  0.0000000E+00  0.0000000E+00  0.0000000E+00  0.1000000E+01
    1       -9.494025     -9.478581
    2       -9.220128     -9.201097
    3       -9.189462     -9.167584
    4       -9.077400     -9.063550
    5       -8.913590     -8.894308
    6       -8.796004     -8.774308
    7       -8.660875     -8.643785
    8       -8.613953     -8.599327
    9       -8.468513     -8.446941
   10       -8.431729     -8.407388
   11       -8.327905     -8.305423
   12       -8.290073     -8.263393
   13       -8.280886     -8.255667
   14       -8.198171     -8.169748
   15       -8.158896     -8.138255
   16       -8.127213     -8.100625
   17       -8.106152     -8.078437
   18       -8.017304     -7.996445
   19       -7.973518     -7.951419
   20       -7.923557     -7.908791
   21       -7.896459     -7.877678
   22       -7.827243     -7.801863
   23       -7.801974     -7.783318
   24       -7.759335     -7.739363
   25       -7.727022     -7.711187
   26       -7.701324     -7.682759
   27       -7.649562     -7.634481
   28       -7.591671     -7.571128
   29       -7.566731     -7.540923
   30       -7.486920     -7.467703
   31       -7.447089     -7.428202
   32       -7.394408     -7.372415
   33       -7.314007     -7.299745
   34       -7.256584     -7.241232
   35       -7.239843     -7.220534
   36       -7.198964     -7.187542
   37       -7.148065     -7.130769
   38       -7.138967     -7.123906
   39       -7.095116     -7.070631
   40       -7.074009     -7.050210
   41       -7.061958     -7.045581
   42       -7.036229     -7.015797
   43       -7.017933     -7.000933
   44       -6.915220     -6.901286
   45       -6.908126     -6.890086
   46       -6.891756     -6.874981
   47       -6.874254     -6.851036
   48       -6.858303     -6.839038
   49       -6.818319     -6.805362
   50       -6.793424     -6.773972
   51       -6.777508     -6.752247
   52       -6.766833     -6.746161
   53       -6.739548     -6.719816
   54       -6.687493     -6.666441
   55       -6.663166     -6.647013
   56       -6.634651     -6.616648
   57       -6.596651     -6.580385
   58       -6.574483     -6.549854
   59       -6.562385     -6.548549
   60       -6.539607     -6.514784
   61       -6.500218     -6.467963
   62       -6.468204     -6.453057
   63       -6.445630     -6.425667
   64       -6.407017     -6.395113
   65       -6.380692     -6.365637
   66       -6.352626     -6.338141
   67       -6.205388     -6.152510
   68       -5.478753     -5.429290
   69       -5.165402     -5.095590
   70       -4.394467     -4.340896
   71       -3.788132     -3.743587
   72       -3.496310     -3.294148
   73       -3.061714     -3.001611
   74       -2.702791     -2.674753
   75       -2.475059     -2.398144
   76       -2.213044     -2.146169
   77       -1.968016     -1.925572
   78       -1.697807     -1.574057
   79       -1.198810     -1.120619
   80       -1.135987     -1.031820
   81       -0.976372     -0.922580
   82       -0.836170     -0.694168
   83       -0.601484     -0.549885
   84       -0.501557     -0.444179
   85       -0.350957     -0.297410
   86       -0.173569     -0.133977
   87       -0.070460      0.012325
   88        0.170896      0.274849
   89        0.287726      0.324568
   90        0.391465      0.457823
   91        0.554349      0.638208
   92        0.622363      0.675147
