11
Energy = -38.01620467 eV
Sn 12.657520546818954 9.686378850455316 12.536020675645691
Sn 11.002227038423255 11.954675897479643 11.15423139478675
Sn 10.35447554410018 9.898499566659925 7.4872269306600385
Sn 12.741325357311522 9.595720151748711 9.471886232702843
Sn 11.794165600933885 12.380176793437334 8.358585712375596
Sn 10.193445260218825 10.918761759608644 13.886507044453454
Sn 9.949066435956247 8.884110301749407 11.561229720709886
Sn 8.710038786859101 12.157058812609248 8.890432381123347
Sn 7.981256850441259 11.253926062422117 11.76358862353657
Sn 10.514466265671224 7.397220866833065 9.077681257129019
Sn 7.90431375762419 9.22753704266862 9.275803350604335
