20
Energy = -69.48407638 eV
Sn 9.66464297615702 12.176407657628166 7.4195115843704915
Sn 13.052495854658577 9.185842338243633 9.796854205961989
Sn 11.519751051380625 11.842930750660786 9.713924871886727
Sn 13.738048904558138 14.411225747511777 10.32153967221236
Sn 8.09442211117539 10.746538043423788 9.459928685127583
Sn 14.987951476984927 11.745589941069689 9.54034072924799
Sn 10.275580643108643 9.036966062925007 11.004173672492339
Sn 8.423693473591388 13.86107207132997 9.511368580531597
Sn 16.026959575256626 12.795367604612343 12.11201258660213
Sn 10.89304723755569 14.37843814045336 11.253403220204019
Sn 13.65274823910816 10.926240693111952 12.28673815008356
Sn 13.616936696167647 14.449090608593815 13.411029427067389
Sn 6.759476591015106 12.400605389919566 11.477704188543905
Sn 10.69455608991739 14.550898026267628 14.207806987802245
Sn 9.56947672070128 11.835804060762758 12.356130420566961
Sn 12.860730529513468 7.9253081024457455 12.537229891741593
Sn 15.12001691379389 12.188488830997844 14.911453205610362
Sn 11.999124704901273 11.907231122795869 14.437516155998042
Sn 10.453766212273175 9.280289327492122 14.10705325590488
Sn 13.54529930645361 9.304390788026229 15.083005816316243
