23
Energy = -79.06248728 eV
Sn 16.44937247966137 13.255550064021543 11.300483268826847
Sn 15.450717429454366 11.640270602390299 18.02833916017437
Sn 17.12901666047083 12.577300135445842 15.870767109527717
Sn 16.20584998280874 10.23757012588902 10.70397731082302
Sn 16.09122379716745 9.513482816136424 15.967177146967007
Sn 15.12231366974919 14.150555171365019 14.082355074998594
Sn 13.840785542338345 11.781149186914057 15.616164408610423
Sn 14.307219761354244 12.449701201008994 9.302251775841755
Sn 13.802439987970626 14.852447790970292 11.346838089848271
Sn 13.386190576813142 9.798339072883312 11.169611593357152
Sn 15.908765643066939 11.052888894593519 13.555962529462846
Sn 11.72904659357867 14.068355679572267 13.7144332291982
Sn 11.14971377015255 7.963881736869143 11.470699110075985
Sn 11.661029309731479 12.766070424151074 10.877032017621056
Sn 10.338381230011866 16.02249550433433 11.761859582148215
Sn 8.925596368678283 9.728404732817614 12.80941432327596
Sn 11.649537389847689 10.804812518250232 13.304310192205952
Sn 8.758155899242697 13.48216966726979 12.961824860255795
Sn 10.07255354358455 10.319497624998208 10.028475452597705
Sn 9.137382489090596 13.858370435859227 9.589321498028072
Sn 8.886618974878317 16.916874994382386 9.43581592269932
Sn 7.41911614502496 11.682682436279991 10.90331477862898
Sn 7.2820640924840125 15.565956899527828 11.52275461162765
