23
Energy = -79.72137722 eV
Sn 14.409413680694174 11.96062534729088 8.110905741980563
Sn 14.6498122043688 8.467982241866792 11.932473818092648
Sn 13.92723654778612 9.046167964565646 9.079433360608704
Sn 11.746992627687652 11.215793055631748 9.474146276204202
Sn 12.641135620026816 14.659213821437033 8.852339073138298
Sn 11.809197686367053 12.629629638236846 6.666106567433719
Sn 12.971903054667234 10.87271106461824 12.264738178953678
Sn 11.205759402448738 8.177434123460001 8.311285370593033
Sn 11.8802534897671 7.835498612425896 11.349470791287459
Sn 11.03028875606562 12.395588209211178 13.886275411261426
Sn 14.25042309189859 13.204185726445493 10.953922287458942
Sn 5.530682343372913 7.040762938344508 12.564255370857708
Sn 9.783059047469834 9.893992327190686 12.080413719559097
Sn 9.852015824638574 6.098246577726325 10.19436369872304
Sn 9.723349896423153 13.489236643705521 9.003505342799732
Sn 9.664829297842573 10.404702036482627 7.031975605236159
Sn 11.446107202419075 14.63882525466088 11.615909587185161
Sn 8.878380603891049 12.858971602295266 11.949330908579125
Sn 8.599948400344037 7.26461572709624 13.041076965447038
Sn 8.174955081513183 10.627436725608492 9.658393946762441
Sn 6.095383114614468 12.060306333332507 11.232952148875285
Sn 7.322750671891677 7.697837332368062 10.239413655132148
Sn 6.56869811727779 9.651877000281221 12.83190426837188
