27
Energy = -93.50882323 eV
Sn 16.037600046688713 13.37189454669603 11.597051033490246
Sn 10.079314896504936 11.653905148435538 14.765922932189484
Sn 9.814312852219677 10.467435887973721 9.069866382970913
Sn 7.779116326432597 7.820536778781129 14.050535443598562
Sn 12.069173414330612 13.522465641547566 10.149992478310116
Sn 13.989111958671458 8.744575642794867 14.154173517922136
Sn 9.701779702046657 6.796647905705166 11.882501685999445
Sn 14.23270475643735 10.951343790794088 11.952645225843629
Sn 12.733479538291741 11.186348101611044 8.386849111106631
Sn 7.334991789511082 10.89070238270661 13.814700769941402
Sn 6.691216918833385 9.346385673169792 8.566084980535088
Sn 10.212259611011214 13.425827032218615 7.8470093772669225
Sn 12.531467030165802 8.339672317060502 11.481587584981696
Sn 7.4576658195979295 8.972895845500975 11.34231881855921
Sn 9.198256514753089 7.620149881290427 8.971561900683286
Sn 16.61037761955951 14.801028961221766 9.12694466341399
Sn 8.181833881158113 12.213482719846816 11.258060908374459
Sn 11.015293885804846 10.950650387880223 11.911740525193105
Sn 14.101242077971413 15.766139185444027 10.597941697654674
Sn 14.190340977836716 11.63890288066043 14.934670338720208
Sn 12.060088656930033 10.115995231691636 16.40323179707127
Sn 7.462831621689301 12.338813579623883 8.387000376138186
Sn 13.491480719930362 13.984860263753006 13.091104948594374
Sn 14.145017435702519 13.964702923486513 7.951951395937374
Sn 12.33330756623527 13.05569559953548 5.89794496857857
Sn 10.78068382318996 8.64219174762864 14.09457491474529
Sn 10.338658445141492 13.864680697285412 12.734092877659581
