27
Energy = -94.53313334 eV
Sn 5.665207942849102 11.626057110484142 12.31371431347652
Sn 11.816579662158706 7.88163650096485 12.48511670516278
Sn 10.680579585119036 14.048036961238987 14.42257064967132
Sn 14.551015094935547 8.395919220983677 10.481261507700031
Sn 16.036194718913737 11.449014306337428 10.046061615140434
Sn 12.495558889545677 6.261201670236824 10.055113888541582
Sn 8.487029295339942 7.6705866423722355 12.732906420059134
Sn 8.056779979269628 12.81755556881969 13.837265033472576
Sn 15.402298626190335 13.608091922767576 12.232735541886026
Sn 12.36304644358148 13.178154531479484 12.118667269644423
Sn 9.587915230932914 14.57124953428128 11.62162613670941
Sn 5.502354666141179 8.724773111848425 13.05451032855016
Sn 11.446067959400361 13.552478752981083 9.208050175218458
Sn 13.024203643586468 10.929731300096377 9.561458736526484
Sn 13.969192013374128 10.711992461956651 12.479636172379152
Sn 10.415963932301173 10.007789961138206 8.390042315793824
Sn 14.206765965071277 13.166621716759808 7.81575095223346
Sn 9.78689929775941 7.395877682475894 9.767380081915457
Sn 9.065152441550211 12.502664738315042 7.681402536721425
Sn 7.712272111903291 9.940488845229053 14.643487697603199
Sn 13.649602971735195 15.405969499681376 10.146981867508078
Sn 10.558687611347509 10.818267308385085 14.290831616263892
Sn 7.962738203510018 12.174383201111898 10.474717708790127
Sn 9.888206671262319 10.156760946772524 11.4534768808689
Sn 12.795979598184598 8.252481461386672 7.781518447460663
Sn 6.999456907953267 9.206294313106559 10.486117162460996
Sn 16.36781919260593 14.445226250995988 9.451997156833547
