29
Energy = -101.57286811 eV
Sn 19.93691550417351 16.209543560735078 14.510085637148451
Sn 17.456808398953584 17.87354308524417 13.815881727726538
Sn 18.8071126345267 15.89198554560522 11.646661593014116
Sn 18.293856689454884 13.809329859355254 15.66321308582943
Sn 19.944871073410226 13.449706220459674 13.148848186021455
Sn 17.53808204963968 16.555981177564167 16.54417466642788
Sn 15.785031922081693 16.159066038576228 11.972016596376864
Sn 10.911216584559272 16.43175016430062 10.036319147242107
Sn 14.034503039865406 15.820863831095531 9.620705780764986
Sn 15.448325425579133 15.304057938913878 14.823244614362656
Sn 12.514030301979282 17.491253012757802 12.461901154364364
Sn 17.050807661252612 13.388595205716861 12.544615635637818
Sn 14.644249653340268 13.09570959630677 10.756989629541506
Sn 13.243289141507862 12.842049243682482 16.251319792420624
Sn 15.846340071454428 11.994629705217353 14.976853413684085
Sn 12.197526996447822 14.386658715481163 11.917966196526852
Sn 9.13422372288369 14.42825970240604 11.541323292971517
Sn 12.270759206337598 15.294996002857278 14.800769398117973
Sn 9.314201625055524 17.509151354929347 12.395156248684577
Sn 10.765395725828002 17.79873716584837 15.074145182388735
Sn 13.40325542516461 11.352894470551169 13.269543566051045
Sn 10.371005896143485 12.825366792242107 13.972724401083958
Sn 12.868389882340315 8.208345914421203 14.089258462779856
Sn 11.709362482301618 10.287838997817468 16.00307714162191
Sn 8.975532765722 15.373875809898333 14.586773018011174
Sn 10.739535464430325 10.096277364113966 12.655420105157114
Sn 11.94873854749556 7.60569726343785 17.062284633896986
Sn 11.078940773847616 5.982352925285704 14.764034342202162
Sn 9.568081060564971 8.495305114067136 15.009741804336514
