28
Energy = -98.4121628 eV
Sn 13.782830682665399 7.459555647540968 12.917672737014115
Sn 16.900047697054184 8.121320418739064 13.456397708358814
Sn 11.99840138184054 8.284366400592663 15.332545518647718
Sn 15.906606313496104 8.501584164579056 10.526041387690801
Sn 14.945176160742331 8.956442263427707 15.712025648623436
Sn 10.855519011771454 8.658373309250573 12.535828447176833
Sn 14.88421465795064 10.539202936766682 13.067954264623182
Sn 13.013575892211101 9.927806792917837 10.775801616430153
Sn 15.588982531297248 11.605152711891032 10.049113886133092
Sn 11.219731695124919 11.556152272268607 13.12298456321153
Sn 12.488260825495702 11.070398440366949 16.14667311683017
Sn 10.380284810453727 13.422366736541447 15.50589534892725
Sn 17.780138239230638 10.571186175608933 11.935831519035565
Sn 8.513966734881304 12.766733892333281 8.616320429142958
Sn 12.961327392139186 13.212947296225979 10.85001891526789
Sn 16.189836299646494 13.288610264989408 12.73136275807622
Sn 8.571398742707043 15.797540017407956 7.898113886313126
Sn 13.238771300011305 13.660996258090824 17.093866231968295
Sn 15.580201008301508 12.148302720968523 15.708080686107264
Sn 9.627864846818873 13.341793909164478 11.290818556324393
Sn 13.301987480167002 13.639202669604002 13.994277526480145
Sn 11.173465474988971 14.207300571049682 8.571428435797138
Sn 7.01031216456943 14.827722842656494 10.376203824275185
Sn 11.332228314318568 15.979499744715106 11.432421163959333
Sn 11.193351117241384 17.226248077810805 8.760683911264433
Sn 8.668550683630528 15.613014776428104 12.941136721248231
Sn 11.600470848602416 15.97332852641744 14.508133999625148
Sn 8.6532439090563 17.47724851717033 10.524906273462266
