29
Energy = -100.66622716 eV
Sn 13.918981785864755 13.593266355949707 8.750666749693396
Sn 8.617663776325266 8.532287147435046 6.423799896927242
Sn 7.232107820391653 10.652430641998311 8.402930353964807
Sn 11.650773789984138 14.45847687843366 10.633049252141552
Sn 11.85431277545969 8.035233358787794 7.092122362306868
Sn 5.584626257665982 10.194360948233715 10.997305476138273
Sn 8.355560623846396 14.333818663469692 11.995725080721622
Sn 6.182388303640646 13.114972269883426 10.281028409095658
Sn 9.28924838184983 12.385104745123007 14.342045896095756
Sn 9.583910418030076 5.87539854733605 10.658196863372636
Sn 13.57838915273863 9.878727936937752 5.627167149692248
Sn 9.769929173447132 5.924567853638373 7.64788334095058
Sn 14.36928154537606 10.69280518653138 8.424532445766799
Sn 7.811925363071487 8.365297450945084 11.845659253148995
Sn 11.753963927729501 12.294334627342812 7.190680995782287
Sn 11.962041570457947 12.836371748237562 13.098769949316624
Sn 9.17662602866326 13.016322473991863 9.085815829492187
Sn 11.952772383172295 7.1054628877871675 12.119444039696504
Sn 8.807652392635402 11.176799968941834 11.498580916102274
Sn 10.259978040582155 8.712881715314245 9.539777127051165
Sn 13.626979227368816 9.753293285958021 12.35289649454129
Sn 6.360054130514998 12.241311801807194 13.26274069017252
Sn 13.737097532289267 8.141587599261719 9.918744375651196
Sn 10.65225153269536 10.481519544873558 5.228371421310815
Sn 10.872224087611407 9.850758977771822 14.372372429011454
Sn 7.31708232692806 7.361511692470931 8.943568099435241
Sn 9.605759968977477 7.287875839232406 13.952882606033718
Sn 13.499678540932202 11.042195176254323 14.935914408235266
Sn 11.91636049760335 11.398952907098685 10.153488603723222
