31
Energy = -107.67015448 eV
Sn 16.109057350361 12.160780115937039 10.784236119515642
Sn 13.768456728424662 15.382043965828702 7.8569174451254895
Sn 15.440545806070206 17.81437088863664 8.876121816260685
Sn 18.558766948638752 12.609566278896974 12.453799399352093
Sn 13.466381523769819 13.471773830918957 10.137637046441707
Sn 17.15505615101024 11.48756771681415 14.938560324744808
Sn 16.286719204068334 14.962111851599204 9.476832313609979
Sn 15.642229931763493 14.14298264114013 13.236334435343448
Sn 14.473924872926128 11.277433553836104 13.322960384761396
Sn 13.242662811470037 16.615953374338293 10.526620161273707
Sn 14.778336389500168 10.14611446877732 16.271921839464117
Sn 19.019557175802216 16.509993610688223 15.782533683465276
Sn 16.293407695396585 11.981232701089546 18.077730409307495
Sn 17.00268461803025 18.701885039551076 15.745441640587368
Sn 16.17669745612349 17.173727990010935 11.760537450025138
Sn 18.327371635982875 15.523310643560587 13.119312855679526
Sn 15.586857330070451 16.612654394313985 17.17373948351975
Sn 11.551408650832704 12.518834005137903 12.728931410210215
Sn 14.234766640575534 13.32138426546801 16.135813901618057
Sn 17.20908258724289 14.239355304929642 16.255027038442847
Sn 12.800381983835399 15.357564878319971 13.161209325589176
Sn 15.504316375183988 19.55839480731904 13.290182281916712
Sn 11.939764552511045 11.240027213413626 15.485720200706211
Sn 10.885930080657369 12.67029039446098 18.022829648885875
Sn 14.019411288070495 17.56767691957858 14.806113072865587
Sn 12.248316941531558 15.625241979422473 17.038446683750166
Sn 10.490965571324594 14.022322773208236 15.15960391512171
Sn 13.530781426103868 13.559987773829478 19.22787955926955
Sn 12.865518015660392 14.921303818387198 21.697554874860515
Sn 13.584052310478533 16.79293364293901 19.49588323868279
Sn 10.719469827329208 15.235876736029903 19.645802268395613
