37
Energy = -129.30845933 eV
Sn 12.37689970266128 11.808112185609899 16.646396149194977
Sn 8.544738682757323 8.447292131072794 15.549945278666288
Sn 9.278372292009582 11.460273323131117 15.951045127797578
Sn 14.197140287947255 9.554081016790374 15.751110244100646
Sn 10.07730688567833 7.087104178943448 12.941116704975453
Sn 14.170635906500083 12.657453540385623 14.461161238232954
Sn 6.716407940758444 10.742460989187148 14.34878055473784
Sn 7.479193240645605 8.341786137220264 12.556664683758667
Sn 12.972504764274786 15.229616739772244 11.765818834784126
Sn 13.719226074801764 8.093301516875814 12.809496309658796
Sn 15.88136780483949 10.157941490490705 13.242732050460406
Sn 8.207056261247361 11.872309852206053 11.948791676609652
Sn 11.306001688931731 9.34372626867107 14.777374288903934
Sn 9.974655213231069 14.711753510932965 12.690052773724355
Sn 5.439932623682766 10.110612509700372 11.490336493336232
Sn 11.301603277140236 12.150902172320134 13.628092089729899
Sn 10.946963804448291 13.38691339484116 10.092489684568717
Sn 15.900281406162453 12.912997989587936 12.04211751116817
Sn 11.68216957919347 8.770602370478231 8.687209723628898
Sn 7.745199540209238 9.58145781886544 9.468361456521906
Sn 13.511777376397415 10.820146827215284 11.295242511239671
Sn 14.484058359627012 8.00676812809026 9.766803485276558
Sn 8.147134678935423 15.074776591467554 10.002311708944793
Sn 6.560649995662381 12.374151789142386 9.336580011690494
Sn 9.353632912449633 11.725811250908338 7.762830399703171
Sn 10.80354373554328 16.64051444533341 10.216239036608975
Sn 13.730986844397561 6.916147930826552 7.037543962151609
Sn 9.400097048454736 7.066161341879307 9.432875964155151
Sn 10.784734029418404 6.341021380960382 6.62973510094123
Sn 7.727095519220247 14.134781377392905 7.01339187552955
Sn 9.37798983834076 8.94541562394956 6.52540248304738
Sn 12.263240879135656 9.170764561858727 5.616918714558813
Sn 14.009289008670507 13.320163134642517 9.62279688647097
Sn 14.14806467974619 10.269713905801604 7.821022930160754
Sn 12.19269540701612 12.927670438029889 7.241483835348115
Sn 10.374314804103552 15.362166675257528 7.60939016330058
Sn 10.544072917458688 9.81416047185802 11.551373068009788
