30
Energy = -104.8789801 eV
Sn 11.693253496178865 14.04692797850963 7.483215383798979
Sn 14.341441084991418 12.589631170670858 8.14994867580281
Sn 9.61533633694035 15.510641349680425 9.37947353371374
Sn 9.148002035098266 12.600026814277474 8.536878093858956
Sn 13.858551959820812 15.593687342482928 9.08562097893183
Sn 11.747479538796114 10.860916866494197 9.184185062224383
Sn 9.361387843423085 10.824139389520752 11.217623513002103
Sn 16.403183704860304 13.823543675630914 10.075767913423158
Sn 17.39551643843822 11.941725516033694 12.26338868115502
Sn 15.195825519082877 10.762358372194429 10.395780069035972
Sn 11.860806536887672 13.550739024515336 10.59034430104826
Sn 16.683652389177862 14.871575314249986 12.992278529663862
Sn 12.716726553699745 9.664342372679416 12.029958833827777
Sn 14.440970543557647 7.458557579322858 13.251746160247258
Sn 7.616180494843912 13.437770401391488 11.044960795150102
Sn 9.842167778292657 15.031879605297785 12.361155570633505
Sn 14.306335440927432 12.680074851625596 12.593577229133928
Sn 13.903967782064468 15.584944251029649 12.08144904369674
Sn 8.554011573603885 12.340635256131787 13.838337027408507
Sn 11.413702892845487 11.632385392136273 13.840974011101567
Sn 11.407808508139809 7.156116781933454 13.15761490146314
Sn 14.418059176854154 9.945342219766207 14.812343472804454
Sn 9.281945371067637 14.946346671831277 15.269810868273883
Sn 15.968635074238216 12.529966178889387 15.142237945730912
Sn 9.976517280764408 9.136759055466841 14.989054165273064
Sn 13.05166849129823 13.389578924510102 15.529959719394395
Sn 11.7341539000912 16.731723870820797 13.876328723278302
Sn 12.726212082498689 7.571513717906855 15.869286791373423
Sn 11.699841361976638 15.635297944974823 16.71613993220459
Sn 12.044789771333816 10.558983071817972 16.648691035138008
