35
Energy = -121.62077985 eV
Sn 19.704859683819713 20.91328924061049 15.635217204756481
Sn 15.94897753429708 12.209954275381754 19.324214330077005
Sn 15.109225367017565 14.643057757662111 10.479418807518433
Sn 14.297653287541472 16.98408735768283 20.874398132952216
Sn 17.082721356560565 20.120193919613573 14.350387676668156
Sn 14.278668892881027 15.040927207345408 13.734218919583933
Sn 14.408964791233963 9.848989205442852 15.266169798540721
Sn 15.478794866934543 14.860677782034257 16.79576653289354
Sn 13.321542538615516 12.614467150103273 15.91279929974303
Sn 10.719778823758096 11.834273632898475 11.856057512430157
Sn 14.354554141917754 18.170262159367145 13.377484632563801
Sn 11.445839137638652 12.968591566093085 18.172077699530288
Sn 16.348961883540372 11.991656457066119 16.23188148553039
Sn 18.213901512264048 13.120008243894715 20.825826038768223
Sn 17.11582391923112 17.25214533012854 15.677818152426708
Sn 11.162118130547796 13.752192535584367 14.094385045847185
Sn 17.31526159743946 19.784534538640212 11.227786320595339
Sn 19.746245836650026 18.162557499277238 14.543019425711666
Sn 17.8382091118069 17.114581646282463 9.82056644411885
Sn 13.483995792738435 11.664808635924814 12.847060247622395
Sn 12.136914586111283 10.085643691643325 17.393626977574055
Sn 14.759573639160779 19.085527048751278 16.227723893365056
Sn 19.75809652278396 20.83773183671481 12.74030025807716
Sn 14.873489386724943 17.713084784178566 10.501296780924413
Sn 16.19192366575524 13.043308946739433 12.724082975725485
Sn 12.173757435486086 14.203761942430104 11.012760774477627
Sn 11.731153436991002 16.453962836358922 12.867338616447869
Sn 13.44509958168657 16.81799947715637 17.90150493540394
Sn 20.084674922027197 18.101316893734566 11.526933356826074
Sn 13.67088072258448 14.23202078747626 19.846016574309612
Sn 13.103448189383064 11.111439680330479 20.104798809767125
Sn 17.047699762785673 16.48682553190425 12.635837717207437
Sn 15.064449430597879 9.537893906645737 18.276329296318536
Sn 16.713679896310346 15.309353747553331 19.719243656299994
Sn 16.24120605745697 18.054421166397834 18.79509754107066
