33
Energy = -113.96394843 eV
Sn 12.488184561034894 13.877382543343789 17.115438428097534
Sn 15.975749850018572 15.74578337691164 17.111801491954697
Sn 14.958367531023674 18.36619022084119 18.23936147616756
Sn 17.209405077245616 21.39954959255916 14.074614056582213
Sn 10.15021814831067 15.379502576716941 16.096075154664742
Sn 16.20917825746072 14.61266481295613 12.449567342670774
Sn 14.745943007377017 9.54248440991504 15.732232913511604
Sn 13.650777296247675 19.04672575158804 12.90192711179491
Sn 18.856778609647606 14.606796377586342 17.420490280183415
Sn 16.66229697725929 19.268630953203626 11.74235697332924
Sn 13.845334267716021 15.243714308302579 19.47099406197266
Sn 13.762332126640208 12.679059154039864 12.269552239652999
Sn 14.637258197591906 20.364479911133813 15.658297696734309
Sn 14.781971766565915 21.704062453516098 12.43487560540767
Sn 12.220345926213108 17.122558387400897 17.474566274907637
Sn 12.691405840251592 11.561654121379231 14.845684317479583
Sn 13.287570727032744 16.053658195478313 14.967394187334506
Sn 18.94983543353197 18.889717426672224 13.762043318933868
Sn 15.044489757627417 13.494482087636152 15.075399997994205
Sn 16.767071822354346 11.689274692239678 16.65906888972504
Sn 14.421530885156201 9.727282176045295 12.598384202927228
Sn 18.17393837347444 15.868242457002903 14.639064678687035
Sn 16.928022061350372 14.449038779726168 19.75691524751807
Sn 16.696097897952786 11.622968618899623 11.522843672198452
Sn 14.322217971728723 6.936821353350321 16.65287912907584
Sn 17.567069375913352 19.39625692216972 16.498326559899734
Sn 18.256838875488462 17.223103649900708 18.829623348997398
Sn 17.197719285888006 9.858869094039907 14.01264664079376
Sn 18.198810303410244 12.669956100995444 14.130174267625476
Sn 11.20408998007941 14.280221807580904 13.444072677873143
Sn 13.340229793277247 15.970727773522617 11.987677826076101
Sn 15.960618908390055 17.866082903737603 14.397623864337609
Sn 16.047559373336185 17.195687997724498 20.825656379950196
