3
Energy = -7.55527082 eV
Sn 9.612751131076616 8.451203513029007 9.019365151926126
Sn 11.39439548215696 10.026228785641198 10.313726697133136
Sn 7.9653895998257855 10.495103914389038 9.639444364000328
