37
Energy = -130.41840565 eV
Sn 6.5287508072558245 11.457396565693681 8.002506439084923
Sn 6.977946223162764 10.423303127034083 12.440431405042286
Sn 6.0787472099756075 9.143592782422399 9.837829364876946
Sn 4.961421186714126 11.932991641977598 10.699878455038638
Sn 6.863109688601625 12.258282264004032 15.180017542423569
Sn 9.603983129905288 11.166749796540463 6.917182904829635
Sn 9.101674367622204 7.78280806130566 15.710789511085427
Sn 9.858544164215598 12.790652636174624 14.907025766507205
Sn 12.320601817830255 11.192138905021332 5.688642443715848
Sn 7.455464201133241 13.402497624312824 12.201865191128004
Sn 6.433931649078808 14.184704246044355 9.300120795757179
Sn 9.278079265328703 8.355152859886429 12.68653704841254
Sn 9.956819948940876 11.392011904140125 12.004082181301477
Sn 9.072443841953717 9.621236389690614 9.515744087453848
Sn 8.719910307405886 10.549810904406785 16.893570093889707
Sn 9.127072331503147 12.940041702090767 9.371571579886206
Sn 12.280940053696725 10.307730923607666 8.700529225902297
Sn 10.80046674232303 13.96395634143089 6.954238746003392
Sn 12.432378451812173 13.541742218898868 13.273053619517492
Sn 10.932514084918232 9.979785051510444 14.813866204746082
Sn 12.23750549131515 13.72047511482821 9.818294327204828
Sn 13.109954119339143 15.93494573190601 11.59272143534121
Sn 12.527316363813663 7.293403741951141 9.226630923421187
Sn 12.58938080019389 8.582111606075857 12.224463549359625
Sn 13.481549815537397 11.308216212353134 11.50022347160503
Sn 13.403410013883315 8.375660050875803 6.477631034458396
Sn 15.58431212893347 14.829247432205984 13.01624469805836
Sn 13.819781135580829 9.557730466361747 15.369598335696931
Sn 14.896555136364144 12.180671146133692 14.354316588563872
Sn 15.042283168273505 7.048603447525033 10.988246892995605
Sn 15.593468135024908 9.33377700709119 12.972703045743739
Sn 16.656949761897888 12.169187705754364 11.751451833786897
Sn 13.85635054323727 13.437994313169215 7.18027725139982
Sn 15.375589819124926 14.632861381295644 9.874954651241673
Sn 15.371990805358887 11.580807440679555 9.06589233180838
Sn 15.373930086211969 8.61013017063506 8.573730057474249
Sn 6.505565321427818 9.228283203860459 15.123829084133186
