38
Energy = -133.88057289 eV
Sn 5.881534748898002 9.74082261871474 6.9303188214286795
Sn 11.199230164290979 8.935118790779546 6.167059637020602
Sn 8.741634167709158 10.784468870866727 6.177109279309706
Sn 8.135179247658344 7.581819740304584 6.42717081419434
Sn 12.098448230245376 12.231265793398041 6.7007067086753285
Sn 14.270168428005178 10.000152543930477 7.456317760270354
Sn 10.526734694392044 6.34088387853634 7.847384906689909
Sn 14.323938554724181 13.00892281413483 8.888669572204826
Sn 7.047993657245685 11.775983432006734 8.844740285290735
Sn 9.359516117974177 13.575009855955988 7.599744410689609
Sn 4.556258294065593 9.708311307353657 9.567642153311173
Sn 13.510565405339241 7.044274912147757 7.558864668740005
Sn 12.114872753025711 15.079913635321516 8.158119757213179
Sn 12.93005435987277 8.979944635262605 10.042976068869649
Sn 15.576291435351626 10.376975117965985 10.330213265585716
Sn 6.995124862212874 7.874039169987303 9.333648640849253
Sn 9.604246500573813 9.32267154973276 8.83937894203856
Sn 12.614350013552317 14.49662098179469 11.113849028559425
Sn 9.626350896125222 14.525701492507135 10.494150108890818
Sn 11.254725117290834 12.046175680742445 9.643181126449992
Sn 15.151044775483234 7.863691057562387 12.050293080269382
Sn 5.5202053339241575 12.34178347399694 11.436374190065326
Sn 13.498158191827327 6.003284813209918 10.387898829248034
Sn 8.562086214896565 11.184603140310148 11.612513148210446
Sn 5.793053342273666 9.368449041911605 12.319302897021556
Sn 10.66576873470738 7.059638986815065 10.777511575358115
Sn 15.07931938281413 12.850264743711543 12.122028236140574
Sn 11.833267431292914 10.790991194636257 12.754112996219973
Sn 10.752150534753117 15.04997513379971 13.542536333551787
Sn 7.801822449368818 13.998242775838989 12.969287155049875
Sn 14.788720662392615 10.304971918709171 13.907777664005536
Sn 12.498373633445684 8.09036011168466 13.912931753356096
Sn 8.58949152847579 8.266235288718937 12.554075945351094
Sn 6.771344678575673 11.422961428673448 14.274817082278677
Sn 9.799970505795917 9.332393039129949 15.184471904637567
Sn 13.096587881670612 13.086230597034172 14.542477821543535
Sn 9.93121860375246 12.30141010152157 14.620504186442247
Sn 12.61548296792155 10.37072083321676 16.025123746893293
