46
Energy = -161.98280697 eV
Sn 0.8636459713846913 18.68236462489109 17.10852774107285
Sn 1.9345921957420549 17.04433787373032 19.484566051817204
Sn 19.070882090179342 15.042820342894254 -0.18677240188168667
Sn 20.359204822975475 17.147848625250973 -2.1861959529252815
Sn 18.964264010065534 0.44163309987766247 19.758640723464417
Sn 18.204917042881043 19.17015797768061 20.294450100450913
Sn 17.236082297554155 15.911023210469818 18.859214181256558
Sn 1.6978178090741618 15.596149496829826 16.814441195501697
Sn -0.3296829692235179 18.509017676502765 14.351996223276064
Sn 17.741437188714716 18.529266711115174 17.267580023607966
Sn 16.72084805050489 16.80880538767879 0.06984231305342074
Sn 0.2960862342844316 14.80039648440791 20.637667646909463
Sn 2.1816986737024324 16.713487169078046 14.049838998298263
Sn 0.016630745824272118 19.880542554378398 19.798838858941327
Sn 16.48602981757735 -0.37673963400005617 18.266518413844274
Sn 19.922868995526233 -0.97934859657788 17.339253601594223
Sn 17.043646211263948 13.009711276388106 18.485276522194198
Sn 19.822329802133396 12.666260457815488 19.608485663942755
Sn 21.00749122448965 13.70640490844706 17.062452493415485
Sn 16.518695704756105 18.10956737039928 14.642351573478729
Sn 16.432582860317122 15.431333452665928 13.465991597862086
Sn 11.412865561302928 14.467658358149993 14.55274522768713
Sn 11.343483177911546 20.3312403012979 15.109835318757648
Sn 14.566092086109501 20.372463664067972 13.888198273145628
Sn 11.523917118277204 -1.185642192704056 18.35832337926746
Sn 13.871492936261303 15.919691998598877 18.693523566154337
Sn 19.948306776461433 16.516513483933696 16.398456241407615
Sn 18.670020904241795 19.373593861883933 12.86596284955605
Sn 13.862315289974593 18.29785350468367 16.211614540121072
Sn 11.562198307301921 14.160005469762115 17.528419703580806
Sn 18.107774080989127 14.020762458433847 15.450600277387037
Sn 19.25206239582779 16.408146999475143 12.955152316634546
Sn 13.832811265515737 -0.12386305452192789 16.65805083098937
Sn 17.1622178617361 21.21544539200347 15.267801410474862
Sn 13.888369614981189 12.416631496975459 18.45406372021142
Sn 15.661159765887195 12.248712255490478 15.970118264527963
Sn 14.148516496366268 14.931812568774477 15.828002814338381
Sn 20.35896636869779 12.310929711470484 14.518045356386294
Sn 15.178188220637281 14.172730903768038 20.700996460963584
Sn 14.256135741550281 -2.480700270498929 19.06212315722426
Sn 20.12669162109267 -0.05613599935859306 14.521316754402543
Sn -0.01753915161104376 14.857078106221325 13.813715357869086
Sn 11.2000526469553 17.36006903607828 15.03611410330776
Sn 10.986215690523297 17.133912813103002 18.995197808315382
Sn 9.29903516407751 18.850090416198 16.972681021129464
Sn 9.177934658357795 15.804219621837476 16.751869035608998
