40
Energy = -141.04863841 eV
Sn 16.530942038032467 8.353385721477729 9.926899624360956
Sn 16.080792480840998 8.593152609779363 12.970510470223076
Sn 14.58247641491451 9.520479087225722 15.60118723342456
Sn 14.170819239605331 6.788708365174135 11.186475644306766
Sn 16.574150264975994 11.191801943731372 11.172611765623913
Sn 15.133200584199264 10.818034725324589 8.430721714299596
Sn 12.882427953073675 8.405549773925257 13.473790311872229
Sn 14.498893685751634 11.543431735008886 13.430675909935982
Sn 10.831612151201277 9.514668105393772 16.433144259642553
Sn 12.492563181769777 12.10191126720937 16.88535597484459
Sn 13.541057777382896 9.986921140512068 10.881146765104901
Sn 10.784553935348734 7.7156579464936135 10.376549408957375
Sn 13.679503793619604 8.082568990090914 8.370378817318093
Sn 9.574012749904112 11.81254794048487 18.10831712502254
Sn 15.518911095215065 14.952931132705324 12.15386567521972
Sn 15.204427088482424 14.13650530082257 9.15380633999155
Sn 11.410015747983492 11.682262563718526 14.070179378103507
Sn 9.614373689882719 9.2917434011168 13.60341913022836
Sn 13.164585477111848 14.433558053218528 14.461537524702285
Sn 7.866436573991033 10.442963690939616 15.885216446369016
Sn 7.398619140446767 13.340397633406978 16.350006865657555
Sn 12.47071930846381 12.45197258505328 8.066635074975345
Sn 10.47596643072685 10.768164130510385 10.263395958305086
Sn 12.80857020240377 14.030907149053473 11.189817173184636
Sn 14.540037609482106 17.055309872257183 9.933974232298903
Sn 10.76381616255383 8.981444635033629 7.442551715114251
Sn 6.823895144236903 10.384378224268806 12.609171023338641
Sn 8.77363134664796 6.863219728966167 8.164625426137116
Sn 7.7840358072702 8.7499643957685 10.291195461866971
Sn 13.395410855639529 17.12363972168739 12.89406330173599
Sn 10.480595373883402 15.214290921840576 12.99892624887799
Sn 10.26396872203746 14.030630665231962 16.00960934605606
Sn 12.527548766494222 15.48225415364886 8.089101062048616
Sn 8.562392017267745 12.681825253928762 13.5273007323297
Sn 12.929452359889583 19.296545062691656 10.93673279942443
Sn 7.615171903807661 11.72310815232769 9.679284610051017
Sn 9.5984157867385 11.79023241891962 7.27257194040599
Sn 10.059119144423267 13.947365498288413 9.872230625777693
Sn 7.487912484372297 9.52448037349503 7.2969937720824625
Sn 11.18852022035167 16.958338389613328 10.46602183764619
