51
Energy = -180.6858441 eV
Sn 17.67861485928642 10.301093622994719 10.313371513028748
Sn 18.410809586552023 12.954140423854888 11.888052203040456
Sn 16.693954760134687 10.949684575526916 13.366620391941156
Sn 15.983871450224733 14.468101248927068 13.000046362566811
Sn 15.876729424058816 15.668227004534929 9.000671518389955
Sn 15.38783857081369 13.061890478657293 15.705373776670214
Sn 17.826029211576408 13.336394001522159 8.851819020536414
Sn 15.332656263563047 17.0992153777895 11.607550035647852
Sn 16.648577095130687 8.308493222107472 14.673996896693463
Sn 16.1530126067748 8.008212112782667 11.805468240771054
Sn 15.324230617899191 12.772857422666908 10.500564192543838
Sn 15.829412840654175 11.143329514270055 7.886725950219302
Sn 13.097994126546496 15.090836586033953 10.530817793664337
Sn 13.453408604197982 15.10715957526516 7.363256626324433
Sn 12.980430052143943 16.54991435636172 13.888219943728924
Sn 13.190527841298056 15.042597053864567 16.44628759380463
Sn 13.091254087467252 13.490303514799272 13.583373635660962
Sn 12.411751366820976 18.141149746004338 11.188321862999517
Sn 12.615706888531314 11.863894930335357 16.152708206129304
Sn 13.673963533994124 8.385994795985921 14.2686213855079
Sn 12.89478308174541 12.213108028022925 8.08229491828916
Sn 13.870577204927605 10.68253582878885 12.450955107985596
Sn 14.400104897753797 9.266165513965339 9.76178155252575
Sn 13.147749540612422 5.955257839335645 12.455921135282951
Sn 13.030676822224462 6.600676853967215 9.442278272993192
Sn 10.99610764196793 10.096060312794288 7.188405451941478
Sn 11.494093077439398 11.882011405087727 10.738301271495704
Sn 10.240084113416351 10.272241431771976 13.649507209084108
Sn 10.40024743400726 16.254569377577948 15.874391371627397
Sn 10.076150167425741 14.087743622388027 8.818019864257462
Sn 11.6347497338753 8.51516517437846 11.343008462204752
Sn 11.321441765650329 16.740173420061595 8.620519074092568
Sn 10.408572854151556 6.964150857831026 14.051108652761492
Sn 9.290141438005163 10.10754951789467 9.724543599130014
Sn 10.132858722027581 17.072197692256186 12.910339609044206
Sn 9.885344640216834 14.280923617157073 11.87613614074803
Sn 11.3792017094786 9.034392540127735 16.22572091504252
Sn 10.168742642865832 5.69946143332321 11.222021395102045
Sn 10.188191900778701 13.45514995194771 14.942970866346867
Sn 8.524295938749416 11.969478017878483 7.398715282840669
Sn 8.809876980034076 11.016731188326446 16.291534601613076
Sn 10.20493115705745 7.402241296029424 8.48416408967904
Sn 7.87290172114923 11.77937268000072 12.156724160882618
Sn 7.514968105285786 8.83747319394416 14.707077305694812
Sn 6.996912037557981 14.141785644476611 10.199370101705362
Sn 8.28318307202726 8.085284365507551 11.80198421259881
Sn 6.965471475491893 14.468118857560821 13.425523614695104
Sn 6.269961490162916 11.15189008804203 9.58652509926796
Sn 6.078624731651061 11.816362686882536 14.61427278700359
Sn 5.423881243485025 9.777558734379676 12.336312562779543
Sn 4.758105887383371 12.952539383157974 11.925128173803412
