50
Energy = -177.01234938 eV
Sn 10.503111877669248 11.164408882751616 3.8185863227777257
Sn 11.263540818368169 13.80589140985746 5.1837683748839805
Sn 15.960157414353894 6.612675261216094 7.247155651066103
Sn 14.514872475931147 9.368580128342277 6.70642885810259
Sn 13.057702586648924 6.669929252689009 5.951372903991086
Sn 5.190236691121858 9.790557115513582 7.915845808131874
Sn 8.35536823259653 12.684966116389859 5.379462484885131
Sn 11.637222678858379 16.06832000200197 8.581690142658916
Sn 15.939873596740206 6.06974746662383 10.229145911033664
Sn 8.694194907353094 9.586261571063014 5.771821996170944
Sn 4.889052824469331 12.69408745046377 8.826451158348371
Sn 13.201693960618394 13.727828458620571 7.595012816216753
Sn 11.822195521463595 10.99973984482058 6.494820603636767
Sn 15.621186915144376 12.98715702464802 9.283994401959436
Sn 13.649495895071071 4.875255801636451 8.480211167425004
Sn 16.545102541498732 9.002540490390906 9.095961446402633
Sn 9.247451152237996 14.694926902135931 7.498814165565275
Sn 12.686626316342496 7.862082980131557 8.643856103824787
Sn 4.604546368528782 10.458634584044567 10.952342597474134
Sn 7.096399446168705 8.887552670955616 10.051835718650134
Sn 7.704351769994013 11.444385267095173 8.167777924289044
Sn 10.074287176822233 7.270349321132845 7.065103571070182
Sn 13.579894839819703 10.77041817083158 9.569367828102518
Sn 7.658013483854021 13.987469459783245 9.954508693570173
Sn 10.926640163574966 13.19079575337214 9.862562979109445
Sn 10.268598699631921 9.865631432850346 8.95908105041177
Sn 12.874076062948118 6.32861957868056 11.175544207276825
Sn 11.257164734684396 15.92144193837299 11.575956228268508
Sn 5.305120492936988 13.287901578379843 11.83590218417704
Sn 14.80907193210109 8.635881552816357 11.562632018308125
Sn 13.753792608369002 14.47958947351478 11.099416285025258
Sn 8.184675041280094 11.434781641682344 11.785336417197444
Sn 9.135435877637669 6.745171881895835 9.82622030715088
Sn 15.280863875697452 12.289098970247347 12.369669069408525
Sn 12.303449545698335 11.028995871460845 12.41149500897399
Sn 10.491909808310549 8.56626320302018 11.884066798195601
Sn 7.754913807411392 8.711156874570728 13.289649547374605
Sn 10.518321100386629 13.432396919285427 13.177152220013785
Sn 12.180140256020817 8.366249676983829 14.438768773474065
Sn 5.884392049702392 11.042373478787983 14.008810930211665
Sn 7.6187678711713485 13.68308547640754 14.125704464285082
Sn 14.725227311717573 9.995289187507282 14.309176393028277
Sn 9.67272423556691 10.62224464420081 14.936399434235726
Sn 13.26542755640946 13.436643043548642 14.44521046593618
Sn 10.627749439489948 8.3117477081043 17.02348615359583
Sn 12.281629414999264 11.021382900969925 16.528266067363422
Sn 7.657988715560758 8.96441291335286 16.51592268410625
Sn 10.08477984319851 13.344791037705727 16.482024953480806
Sn 7.169609784324361 12.084305303256077 16.740454144798644
Sn 9.624736375742218 10.879768422130798 18.31954066060014
