52
Energy = -184.15291752 eV
Sn 9.52775977763673 10.214373096115468 15.343417505788613
Sn 10.448444510404045 6.221148477287882 8.668820167035227
Sn 13.418174643355576 10.197955495089538 10.40572488410668
Sn 12.01283290029267 13.564059702290153 15.790470913556474
Sn 15.264644021667358 6.1131547723076585 12.403933150724306
Sn 12.746882872823841 10.558997347106974 15.837671497781383
Sn 14.129213296453116 11.826625303269315 7.848881555365668
Sn 6.225194351291534 7.177495701762886 11.96555428801912
Sn 8.86538290535849 14.166124645169864 9.00808541770483
Sn 9.006968514662148 13.183611766343253 14.83160840523099
Sn 6.124358183547659 16.23476037576868 8.976195426300142
Sn 16.546388885691332 10.725127644877244 9.827824031327232
Sn 11.553505158332309 7.374202442135882 15.805593265399304
Sn 5.561455877692008 13.367869596698327 10.135837850080058
Sn 7.96304055247383 16.288264637141424 6.4568790332269
Sn 7.232479319644841 7.604451907876408 9.068733355052109
Sn 15.251665067667968 13.191588475919854 14.958788518148443
Sn 11.348842239591448 11.070876786245645 6.968708344484124
Sn 6.830701491006638 9.950177008519187 13.287682579834161
Sn 9.785214063903604 9.24142735852789 12.028757450699477
Sn 6.443126726158663 13.074039989258168 13.148028245350234
Sn 6.361809044942723 13.626698083650437 7.049755213539058
Sn 13.640529256764225 15.62160168023773 13.919386321904168
Sn 8.236344329421213 11.6979803083164 11.081365290519425
Sn 13.818269763962887 5.479767157551504 15.003400291508475
Sn 9.902355510316417 9.27850139226927 9.009995013805767
Sn 17.408034751660228 12.140068174425751 12.746620507334523
Sn 16.944940111776635 8.939753172191551 12.487080845398165
Sn 11.316113229126973 11.556838293686631 13.233089272489915
Sn 11.686754932054335 12.652453566365296 9.639787108239958
Sn 12.721778122348217 8.131340871614476 8.303541921769538
Sn 14.958268576865175 8.292326776350482 14.984293403778846
Sn 13.913286985562328 14.771649981205533 8.35465041046745
Sn 7.799275900700693 15.469433029439568 11.496216162974026
Sn 7.292578847674865 10.818453150105945 8.312160497289785
Sn 9.4082354460484 13.407688319283452 6.127087549764251
Sn 12.63101378339308 5.627267964898624 10.841825554485728
Sn 11.0172400743501 15.797516978767383 7.241801516269368
Sn 16.7898612786605 13.859145929940379 10.17549114528548
Sn 15.500220774318176 7.874902226107961 9.841309562777079
Sn 16.714893423292093 15.181505269881416 12.951149678182343
Sn 14.482287906650956 10.762535526820265 13.159185496701902
Sn 9.06235487417394 17.40675069847763 9.158459494457901
Sn 9.07940719440677 6.117243478286589 11.335438341305291
Sn 11.708642802232204 16.018722988040942 10.413340688972657
Sn 10.886630877145446 14.505936762703412 12.936642264516195
Sn 8.785272035287832 7.317940950375428 14.220344959724924
Sn 5.499237714717396 9.853591454948948 10.521889907362745
Sn 14.777894905909656 16.443350105720466 10.807839426066694
Sn 11.074419978764427 5.081400006468563 13.62262385370611
Sn 12.528316119108633 7.7760267469552575 12.927967698473205
Sn 14.09910023247224 13.476920568965147 11.660708859477205
