51
Energy = -180.42634687 eV
Sn 8.541558693718267 14.524308278987192 15.333779066881853
Sn 11.857131854599798 14.932703424147308 15.972081554049193
Sn 10.136001014372093 16.962214378760873 14.378052375420845
Sn 9.858561070462732 12.382495306443797 17.098157715505224
Sn 7.454603916033489 12.928378627764824 13.118963218129117
Sn 15.14634572496605 13.536744867771343 16.07227998151025
Sn 14.101844127462797 16.245478752940812 14.33962256513937
Sn 12.717872653389104 12.711664200322074 17.96006184705154
Sn 12.539779532763312 17.846025298951854 12.25836047446837
Sn 9.637701595325582 16.693897729649567 11.435527867698392
Sn 10.330546015717305 14.100043529217185 12.803548273134593
Sn 9.42802712933233 9.442003939620035 16.558692031700566
Sn 7.740131875894538 10.072898717049194 14.118534093630707
Sn 7.8679976493528345 14.33686885306037 10.513580232997368
Sn 15.731892957056063 17.436711914272276 11.196895695504656
Sn 13.242669161254206 13.198307508286875 13.599753808200434
Sn 16.229215407108246 14.413405927647934 12.980419316095796
Sn 13.527266589691632 15.140764993258104 11.304581271119241
Sn 14.415495800995174 10.339604670370548 17.049027980673564
Sn 9.51999074155371 7.6481715821043785 13.440268652048728
Sn 11.798395373101302 10.981985577148805 15.246764027098656
Sn 13.649606375874653 19.389023906042645 9.953869669895314
Sn 10.172702631057343 10.762659224423885 12.307499087165914
Sn 12.23393725841954 8.245219250750873 16.571584249528176
Sn 11.505202175924985 17.36868678303838 9.065499947301115
Sn 14.66112703553409 17.103280948643082 8.144128183107123
Sn 6.742790073685189 7.860866288283593 12.281274191923615
Sn 8.192165784865447 9.498200758360595 10.19841698047668
Sn 16.58014360971888 8.566772015138033 15.508327817300767
Sn 15.978908041094417 11.288530315438893 14.19817460840294
Sn 11.46592095313539 8.271291452379844 10.948254276240622
Sn 7.123054062624777 11.990594365219618 8.661213581163931
Sn 12.205587021693981 6.486011001553873 14.085757780917703
Sn 13.974883832105194 8.939783257748086 13.634516752231677
Sn 10.265190302503196 12.184634073676154 9.485307017677556
Sn 9.74909767159807 14.862726821976338 8.049074439227544
Sn 13.3789351992182 11.001320073648923 11.366157129389899
Sn 16.693528909111134 11.673235219469323 11.187837431692863
Sn 12.986806423487904 14.579497257201762 8.422607036022145
Sn 8.92219473737268 6.35663079052881 10.684951327796645
Sn 16.142874017948287 14.88876032813853 9.663480093368344
Sn 10.024519815782297 7.6076817811302115 8.19758897570246
Sn 9.209972365514629 10.272928514875371 7.095430094785027
Sn 17.942011513671158 9.285143985266375 12.641292957344325
Sn 16.18523268848666 6.808313317528671 13.08339812244253
Sn 8.369561445030754 12.964598754178343 6.0779042917851
Sn 13.735195635831156 6.241757823251833 11.421940983874844
Sn 12.196592880228014 10.125027871037533 8.231890332369883
Sn 11.470526235230944 12.653006917263907 6.437298837693991
Sn 15.538851418812296 8.683728667405402 10.617749293232247
Sn 14.691922420443744 11.999377822214047 8.811415772503189
