55
Energy = -191.27599545 eV
Sn 30.002985922826312 30.002985922826312 30.002985922826312
Sn 30.002985922826312 1.8099163635975366 2.7045161660104844
Sn 30.002985922826312 1.8099163635975366 27.2984689722182
Sn 30.002985922826312 28.193069482055517 2.7045161660104844
Sn 30.002985922826312 28.193069482055517 27.2984689722182
Sn 1.8099163635975366 2.7045161660104844 30.002985922826312
Sn 28.193069482055517 2.7045161660104844 30.002985922826312
Sn 1.8099163635975366 27.2984689722182 30.002985922826312
Sn 28.193069482055517 27.2984689722182 30.002985922826312
Sn 2.7045161660104844 30.002985922826312 1.8099163635975366
Sn 2.7045161660104844 30.002985922826312 28.193069482055517
Sn 27.2984689722182 30.002985922826312 1.8099163635975366
Sn 27.2984689722182 30.002985922826312 28.193069482055517
Sn 24.3372972061996 30.002985922826312 27.06910179389449
Sn 30.002985922826312 2.9338840517583544 5.665688639453456
Sn 30.002985922826312 2.9338840517583513 24.3372972061996
Sn 30.002985922826312 27.06910179389449 5.665688639453456
Sn 30.002985922826312 27.06910179389449 24.3372972061996
Sn 2.9338840517583513 5.665688639453456 30.002985922826312
Sn 27.06910179389449 5.665688639453456 30.002985922826312
Sn 2.9338840517583513 24.3372972061996 30.002985922826312
Sn 27.06910179389449 24.3372972061996 30.002985922826312
Sn 5.665688639453456 30.002985922826312 2.9338840517583513
Sn 5.665688639453456 30.002985922826312 27.06910179389449
Sn 24.3372972061996 30.002985922826312 2.9338840517583544
Sn 30.002985922826312 5.753682990079242 30.002985922826312
Sn 30.002985922826312 24.249302855573802 30.002985922826312
Sn 24.249302855573802 30.002985922826312 30.002985922826312
Sn 5.753682990079242 30.002985922826312 30.002985922826312
Sn 30.002985922826312 30.002985922826312 24.249302855573802
Sn 30.002985922826312 30.002985922826312 5.753682990079242
Sn 1.6917576733351054 25.469038408930256 2.5438674931570433
Sn 28.311228172317513 25.469038408930256 2.5438674931570433
Sn 1.6917576733351054 25.469038408930256 27.459119059920152
Sn 28.311228172317513 25.469038408930256 27.459119059920152
Sn 4.533948144146949 27.459119059920152 28.311228172317513
Sn 4.533948144146949 27.459119059920152 1.6917576733351054
Sn 25.469038408930256 27.459119059920152 28.311228172317513
Sn 25.469038408930256 27.459119059920152 1.6917576733351054
Sn 1.6917576733351054 4.533948144146949 27.459119059920152
Sn 1.6917576733351054 4.533948144146949 2.5438674931570433
Sn 28.311228172317513 4.533948144146949 27.459119059920152
Sn 28.311228172317513 4.533948144146949 2.5438674931570433
Sn 27.459119059920152 1.6917576733351054 25.469038408930256
Sn 2.5438674931570433 1.6917576733351054 25.469038408930256
Sn 27.459119059920152 28.311228172317513 25.469038408930256
Sn 2.5438674931570433 28.311228172317513 25.469038408930256
Sn 25.469038408930256 2.5438674931570433 1.6917576733351054
Sn 25.469038408930256 2.5438674931570433 28.311228172317513
Sn 27.459119059920152 28.311228172317513 4.533948144146949
Sn 2.5438674931570433 28.311228172317513 4.533948144146949
Sn 2.5438674931570433 1.6917576733351054 4.533948144146949
Sn 27.459119059920152 1.6917576733351054 4.533948144146949
Sn 4.533948144146949 2.5438674931570433 28.311228172317513
Sn 4.533948144146949 2.5438674931570433 1.6917576733351054
