7
Energy = -19.84222346 eV
Sn 13.29339049444242 10.941073296153682 9.617515404181907
Sn 14.427850243581828 10.76872744337685 13.013140904750061
Sn 14.00849140969587 12.992520014584581 11.434843165735666
Sn 6.78749815070682 10.720840213768712 9.864566852704993
Sn 11.497299923304729 11.791722835034147 11.987281292056762
Sn 8.581143665988428 11.496150513126521 12.184318100175556
Sn 9.564346048016633 9.681780985954845 10.188409593884431
