 running on   32 total cores
 distrk:  each k-point on   32 cores,    1 groups
 distr:  one band on    8 cores,    4 groups
 using from now: INCAR     
 vasp.5.3.5 31Mar14 (build Feb 01 2018 12:10:03) gamma-only                     
  
 POSCAR found type information on POSCAR  Ag
 POSCAR found :  1 types and      10 ions
 scaLAPACK will be used
 LDA part: xc-table for Pade appr. of Perdew
 POSCAR, INCAR and KPOINTS ok, starting setup
 WARNING: small aliasing (wrap around) errors must be expected
 FFT: planning ...
 WAVECAR not read
 entering main loop
       N       E                     dE             d eps       ncg     rms          rms(c)
DAV:   1     0.969759359819E+03    0.96976E+03   -0.17397E+04   288   0.549E+02
DAV:   2     0.317130924313E+03   -0.65263E+03   -0.57580E+03   536   0.111E+02
DAV:   3     0.113443200806E+02   -0.30579E+03   -0.27922E+03   408   0.884E+01
DAV:   4    -0.158810614635E+02   -0.27225E+02   -0.26575E+02   328   0.305E+01
DAV:   5    -0.162472228831E+02   -0.36616E+00   -0.36555E+00   328   0.439E+00    0.175E+01
DAV:   6    -0.542260538821E+01    0.10825E+02   -0.30380E+01   288   0.136E+01    0.894E+00
DAV:   7     0.978932878097E-01    0.55205E+01   -0.28620E+00   304   0.380E+00    0.519E+00
DAV:   8    -0.292177095227E+01   -0.30197E+01   -0.14617E+00   304   0.296E+00    0.241E+00
DAV:   9    -0.653665174784E+01   -0.36149E+01   -0.12606E+00   312   0.233E+00    0.128E+00
DAV:  10    -0.106812622279E+02   -0.41446E+01   -0.16797E+00   288   0.272E+00    0.823E-01
DAV:  11    -0.131986712195E+02   -0.25174E+01   -0.87336E-01   304   0.157E+00    0.537E-01
DAV:  12    -0.150805315110E+02   -0.18819E+01   -0.47446E-01   304   0.114E+00    0.279E-01
DAV:  13    -0.157154354386E+02   -0.63490E+00   -0.79898E-02   296   0.527E-01    0.163E-01
DAV:  14    -0.159083649197E+02   -0.19293E+00   -0.79013E-03   328   0.173E-01    0.909E-02
DAV:  15    -0.160218770789E+02   -0.11351E+00   -0.34695E-03   280   0.996E-02    0.454E-02
DAV:  16    -0.160649491457E+02   -0.43072E-01   -0.21592E-03   248   0.718E-02    0.227E-02
DAV:  17    -0.160706700057E+02   -0.57209E-02   -0.72656E-04   216   0.403E-02    0.135E-02
DAV:  18    -0.160742887301E+02   -0.36187E-02   -0.44534E-04   224   0.293E-02    0.867E-03
DAV:  19    -0.160760414596E+02   -0.17527E-02   -0.25808E-04   216   0.213E-02    0.640E-03
DAV:  20    -0.160768441680E+02   -0.80271E-03   -0.72338E-05   208   0.130E-02    0.328E-03
DAV:  21    -0.160770244436E+02   -0.18028E-03   -0.31362E-05   216   0.818E-03    0.253E-03
DAV:  22    -0.160770953314E+02   -0.70888E-04   -0.12346E-05   208   0.620E-03
   1 F= -.16077095E+02 E0= -.16077095E+02  d E =-.160771E+02  mag=     1.9998
 curvature:   0.00 expect dE= 0.000E+00 dE for cont linesearch  0.000E+00
 trial: gam= 0.00000 g(F)=  0.531E-01 g(S)=  0.000E+00 ort = 0.000E+00 (trialstep = 0.100E+01)
 search vector abs. value=  0.531E-01
 bond charge predicted
       N       E                     dE             d eps       ncg     rms          rms(c)
DAV:   1    -0.161259452749E+02   -0.48921E-01   -0.36066E+00   304   0.603E+00    0.224E-01
DAV:   2    -0.161276509530E+02   -0.17057E-02   -0.17441E-02   320   0.582E-01    0.158E-01
DAV:   3    -0.161275994431E+02    0.51510E-04   -0.44774E-04   304   0.904E-02
   2 F= -.16127599E+02 E0= -.16127599E+02  d E =-.505041E-01  mag=     1.9999
 ZBRENT: can't locate minimum, use default step
 trial-energy change:   -0.050504  1 .order   -0.050342   -0.053123   -0.047561
 step:   4.0000(harm=  9.5514)  dis= 0.03242  next Energy=   -16.330795 (dE=-0.254E+00)
 bond charge predicted
       N       E                     dE             d eps       ncg     rms          rms(c)
DAV:   1    -0.162335552864E+02   -0.10590E+00   -0.32550E+01   304   0.181E+01    0.608E-01
DAV:   2    -0.162486805446E+02   -0.15125E-01   -0.15617E-01   320   0.175E+00    0.453E-01
DAV:   3    -0.162482406056E+02    0.43994E-03   -0.33879E-03   312   0.250E-01    0.242E-01
DAV:   4    -0.162481585994E+02    0.82006E-04   -0.95987E-04   296   0.124E-01
   3 F= -.16248159E+02 E0= -.16248159E+02  d E =-.171063E+00  mag=     2.0000
 curvature:  -2.76 expect dE=-0.594E-01 dE for cont linesearch -0.578E-01
 ZBRENT: increasing intervall
 opt :  10.0000  next Energy=   -16.362785 (dE=-0.286E+00)
 bond charge predicted
       N       E                     dE             d eps       ncg     rms          rms(c)
DAV:   1    -0.163132559660E+02   -0.65015E-01   -0.13097E+02   288   0.366E+01    0.991E-01
DAV:   2    -0.163736333089E+02   -0.60377E-01   -0.62011E-01   288   0.354E+00    0.825E-01
DAV:   3    -0.163729485976E+02    0.68471E-03   -0.10827E-02   312   0.447E-01    0.540E-01
DAV:   4    -0.163721926450E+02    0.75595E-03   -0.54230E-03   296   0.255E-01    0.107E-01
DAV:   5    -0.163723800509E+02   -0.18741E-03   -0.20866E-04   192   0.699E-02    0.388E-02
DAV:   6    -0.163724971776E+02   -0.11713E-03   -0.10722E-04   216   0.315E-02    0.224E-02
DAV:   7    -0.163726350923E+02   -0.13791E-03   -0.49381E-05   192   0.239E-02    0.706E-03
DAV:   8    -0.163727794285E+02   -0.14434E-03   -0.12927E-05   224   0.124E-02    0.329E-03
DAV:   9    -0.163728611270E+02   -0.81698E-04   -0.39772E-06   200   0.623E-03
   4 F= -.16372861E+02 E0= -.16372861E+02  d E =-.295766E+00  mag=     2.0000
 curvature:  -5.48 expect dE=-0.228E-01 dE for cont linesearch -0.933E-02
 ZBRENT: extrapolating
 opt :  12.3945  next Energy=   -16.384245 (dE=-0.307E+00)
 bond charge predicted
       N       E                     dE             d eps       ncg     rms          rms(c)
DAV:   1    -0.163767613374E+02   -0.39819E-02   -0.20706E+01   288   0.144E+01    0.368E-01
DAV:   2    -0.163864036931E+02   -0.96424E-02   -0.99697E-02   288   0.140E+00    0.277E-01
DAV:   3    -0.163862623879E+02    0.14131E-03   -0.18167E-03   312   0.179E-01    0.174E-01
DAV:   4    -0.163861489429E+02    0.11344E-03   -0.77564E-04   288   0.980E-02    0.342E-02
DAV:   5    -0.163861828522E+02   -0.33909E-04   -0.33030E-05   176   0.260E-02
   5 F= -.16386183E+02 E0= -.16386183E+02  d E =-.309088E+00  mag=     2.0000
 curvature:  -6.69 expect dE=-0.229E-01 dE for cont linesearch -0.472E-03
 trial: gam= 0.02797 g(F)=  0.342E-02 g(S)=  0.000E+00 ort = 0.194E-02 (trialstep = 0.328E+01)
 search vector abs. value=  0.357E-02
 bond charge predicted
       N       E                     dE             d eps       ncg     rms          rms(c)
DAV:   1    -0.163959211236E+02   -0.97722E-02   -0.25827E+00   296   0.509E+00    0.735E-02
DAV:   2    -0.163971436811E+02   -0.12226E-02   -0.12747E-02   304   0.509E-01    0.635E-02
DAV:   3    -0.163971427403E+02    0.94081E-06   -0.20636E-04   200   0.705E-02
   6 F= -.16397143E+02 E0= -.16397143E+02  d E =-.109599E-01  mag=     2.0000
 ZBRENT: can't locate minimum, use default step
 trial-energy change:   -0.010960  1 .order   -0.010529   -0.011401   -0.009657
 step:  13.1156(harm= 21.4340)  dis= 0.03068  next Energy=   -16.423446 (dE=-0.373E-01)
 bond charge predicted
       N       E                     dE             d eps       ncg     rms          rms(c)
DAV:   1    -0.164132832377E+02   -0.16140E-01   -0.23329E+01   288   0.153E+01    0.227E-01
DAV:   2    -0.164239518696E+02   -0.10669E-01   -0.11410E-01   296   0.152E+00    0.202E-01
DAV:   3    -0.164238336827E+02    0.11819E-03   -0.20144E-03   312   0.207E-01    0.134E-01
DAV:   4    -0.164236062489E+02    0.22743E-03   -0.55479E-04   296   0.838E-02    0.694E-02
DAV:   5    -0.164236892061E+02   -0.82957E-04   -0.23515E-04   224   0.562E-02
   7 F= -.16423689E+02 E0= -.16423689E+02  d E =-.375064E-01  mag=     2.0000
 curvature:  -8.70 expect dE=-0.223E-01 dE for cont linesearch -0.136E-01
 ZBRENT: increasing intervall
 opt :  32.7890  next Energy=   -16.458859 (dE=-0.727E-01)
 bond charge predicted
       N       E                     dE             d eps       ncg     rms          rms(c)
DAV:   1    -0.164064289417E+02    0.17177E-01   -0.93638E+01   288   0.308E+01    0.473E-01
DAV:   2    -0.164510842690E+02   -0.44655E-01   -0.46556E-01   288   0.308E+00    0.394E-01
DAV:   3    -0.164509479305E+02    0.13634E-03   -0.81706E-03   320   0.418E-01    0.253E-01
DAV:   4    -0.164502412307E+02    0.70670E-03   -0.18209E-03   296   0.155E-01    0.138E-01
DAV:   5    -0.164505063166E+02   -0.26509E-03   -0.91949E-04   312   0.107E-01    0.397E-02
DAV:   6    -0.164507717411E+02   -0.26542E-03   -0.33959E-05   216   0.202E-02    0.260E-02
DAV:   7    -0.164511261428E+02   -0.35440E-03   -0.50011E-05   208   0.215E-02    0.803E-03
DAV:   8    -0.164513994731E+02   -0.27333E-03   -0.12607E-05   216   0.105E-02    0.296E-03
DAV:   9    -0.164515939566E+02   -0.19448E-03   -0.56674E-06   200   0.590E-03    0.224E-03
DAV:  10    -0.164517667823E+02   -0.17283E-03   -0.52535E-06   192   0.382E-03    0.141E-03
DAV:  11    -0.164519050410E+02   -0.13826E-03   -0.10122E-05   208   0.407E-03    0.892E-04
DAV:  12    -0.164519231909E+02   -0.18150E-04   -0.17314E-06   192   0.193E-03
   8 F= -.16451923E+02 E0= -.16451923E+02  d E =-.657403E-01  mag=     2.0000
 curvature: -22.44 expect dE=-0.145E+00 dE for cont linesearch -0.147E-02
 trial: gam= 1.76575 g(F)=  0.647E-02 g(S)=  0.000E+00 ort = 0.484E-03 (trialstep = 0.170E+01)
 search vector abs. value=  0.193E-01
 bond charge predicted
       N       E                     dE             d eps       ncg     rms          rms(c)
DAV:   1    -0.164624892110E+02   -0.10584E-01   -0.37365E+00   304   0.608E+00    0.640E-02
DAV:   2    -0.164642980540E+02   -0.18088E-02   -0.17808E-02   304   0.592E-01    0.583E-02
DAV:   3    -0.164642933584E+02    0.46957E-05   -0.26903E-04   256   0.748E-02
   9 F= -.16464293E+02 E0= -.16464293E+02  d E =-.123702E-01  mag=     2.0000
 ZBRENT: can't locate minimum, use default step
 trial-energy change:   -0.012370  1 .order   -0.012007   -0.012440   -0.011574
 step:   6.7904(harm= 24.3952)  dis= 0.05382  next Energy=   -16.541304 (dE=-0.894E-01)
 bond charge predicted
       N       E                     dE             d eps       ncg     rms          rms(c)
DAV:   1    -0.164835312219E+02   -0.19233E-01   -0.33766E+01   288   0.183E+01    0.204E-01
DAV:   2    -0.164993737435E+02   -0.15843E-01   -0.16043E-01   304   0.178E+00    0.188E-01
DAV:   3    -0.164992343044E+02    0.13944E-03   -0.25747E-03   320   0.225E-01    0.138E-01
DAV:   4    -0.164988542969E+02    0.38001E-03   -0.49769E-04   304   0.765E-02    0.860E-02
DAV:   5    -0.164988053980E+02    0.48899E-04   -0.75014E-04   304   0.913E-02
  10 F= -.16498805E+02 E0= -.16498805E+02  d E =-.468822E-01  mag=     2.0000
 curvature: -12.81 expect dE=-0.690E-01 dE for cont linesearch -0.300E-01
 ZBRENT: increasing intervall
 opt :  16.9760  next Energy=   -16.566372 (dE=-0.114E+00)
 bond charge predicted
       N       E                     dE             d eps       ncg     rms          rms(c)
DAV:   1    -0.164924470182E+02    0.64073E-02   -0.13626E+02   288   0.370E+01    0.485E-01
DAV:   2    -0.165593387353E+02   -0.66892E-01   -0.67062E-01   296   0.367E+00    0.365E-01
DAV:   3    -0.165591024374E+02    0.23630E-03   -0.11008E-02   312   0.477E-01    0.245E-01
DAV:   4    -0.165580743573E+02    0.10281E-02   -0.14421E-03   296   0.135E-01    0.159E-01
DAV:   5    -0.165580071587E+02    0.67199E-04   -0.21141E-03   304   0.153E-01    0.431E-02
DAV:   6    -0.165582689924E+02   -0.26183E-03   -0.33702E-05   232   0.231E-02    0.292E-02
DAV:   7    -0.165585746035E+02   -0.30561E-03   -0.28966E-05   192   0.157E-02    0.116E-02
DAV:   8    -0.165587993102E+02   -0.22471E-03   -0.12783E-05   224   0.105E-02    0.385E-03
DAV:   9    -0.165590108024E+02   -0.21149E-03   -0.73684E-06   200   0.620E-03    0.233E-03
DAV:  10    -0.165591172321E+02   -0.10643E-03   -0.32204E-06   216   0.329E-03    0.165E-03
DAV:  11    -0.165592119288E+02   -0.94697E-04   -0.43898E-06   192   0.312E-03
  11 F= -.16559212E+02 E0= -.16559212E+02  d E =-.107289E+00  mag=     2.0000
 curvature: -28.86 expect dE=-0.120E+00 dE for cont linesearch -0.391E-01
 ZBRENT: increasing intervall
 opt :  37.3472  next Energy=   -16.630763 (dE=-0.179E+00)
 bond charge predicted
       N       E                     dE             d eps       ncg     rms          rms(c)
DAV:   1    -0.163250306443E+02    0.23409E+00   -0.56716E+02   288   0.774E+01    0.147E+00
DAV:   2    -0.166250919382E+02   -0.30006E+00   -0.29901E+00   296   0.797E+00    0.866E-01
DAV:   3    -0.166251187870E+02   -0.26849E-04   -0.51336E-02   312   0.106E+00    0.516E-01
DAV:   4    -0.166219838498E+02    0.31349E-02   -0.52638E-03   296   0.266E-01    0.356E-01
DAV:   5    -0.166215597374E+02    0.42411E-03   -0.59615E-03   304   0.259E-01    0.968E-02
DAV:   6    -0.166221201921E+02   -0.56045E-03   -0.11025E-04   240   0.467E-02    0.582E-02
DAV:   7    -0.166227543130E+02   -0.63412E-03   -0.61884E-05   216   0.257E-02    0.237E-02
DAV:   8    -0.166232056667E+02   -0.45135E-03   -0.27304E-05   216   0.161E-02    0.787E-03
DAV:   9    -0.166235813100E+02   -0.37564E-03   -0.14390E-05   208   0.949E-03    0.370E-03
DAV:  10    -0.166237879656E+02   -0.20666E-03   -0.71784E-06   208   0.514E-03    0.257E-03
DAV:  11    -0.166239480182E+02   -0.16005E-03   -0.69424E-06   200   0.450E-03    0.189E-03
DAV:  12    -0.166240696523E+02   -0.12163E-03   -0.10031E-05   200   0.428E-03    0.118E-03
DAV:  13    -0.166240879094E+02   -0.18257E-04   -0.25443E-06   208   0.225E-03
  12 F= -.16624088E+02 E0= -.16624088E+02  d E =-.172165E+00  mag=     2.0000
 curvature: -52.76 expect dE=-0.265E+00 dE for cont linesearch -0.109E-02
 trial: gam= 0.70619 g(F)=  0.502E-02 g(S)=  0.000E+00 ort = 0.631E-03 (trialstep = 0.883E+01)
 search vector abs. value=  0.155E-01
 bond charge predicted
       N       E                     dE             d eps       ncg     rms          rms(c)
DAV:   1    -0.166180162213E+02    0.60534E-02   -0.82236E+01   288   0.288E+01    0.407E-01
DAV:   2    -0.166577120069E+02   -0.39696E-01   -0.40624E-01   304   0.285E+00    0.343E-01
DAV:   3    -0.166574840021E+02    0.22800E-03   -0.69270E-03   328   0.379E-01    0.224E-01
DAV:   4    -0.166566636060E+02    0.82040E-03   -0.13928E-03   288   0.133E-01    0.134E-01
DAV:   5    -0.166566733718E+02   -0.97658E-05   -0.10045E-03   304   0.107E-01    0.412E-02
DAV:   6    -0.166568370974E+02   -0.16373E-03   -0.24847E-05   216   0.172E-02    0.271E-02
DAV:   7    -0.166570420552E+02   -0.20496E-03   -0.37478E-05   184   0.181E-02    0.891E-03
DAV:   8    -0.166571794066E+02   -0.13735E-03   -0.10325E-05   216   0.997E-03    0.312E-03
DAV:   9    -0.166572820396E+02   -0.10263E-03   -0.38060E-06   192   0.521E-03    0.169E-03
DAV:  10    -0.166573480794E+02   -0.66040E-04   -0.16152E-06   208   0.247E-03
  13 F= -.16657348E+02 E0= -.16657348E+02  d E =-.332602E-01  mag=     2.0000
 trial-energy change:   -0.033260  1 .order   -0.032734   -0.048256   -0.017212
 step:  13.0804(harm= 13.7217)  dis= 0.10073  next Energy=   -16.661553 (dE=-0.375E-01)
 bond charge predicted
       N       E                     dE             d eps       ncg     rms          rms(c)
DAV:   1    -0.166524443467E+02    0.48377E-02   -0.18945E+01   288   0.138E+01    0.190E-01
DAV:   2    -0.166614272311E+02   -0.89829E-02   -0.92043E-02   288   0.135E+00    0.172E-01
DAV:   3    -0.166613546528E+02    0.72578E-04   -0.15558E-03   328   0.178E-01    0.115E-01
DAV:   4    -0.166611003498E+02    0.25430E-03   -0.38135E-04   288   0.697E-02    0.664E-02
DAV:   5    -0.166611003163E+02    0.33542E-07   -0.22337E-04   208   0.536E-02
  14 F= -.16661100E+02 E0= -.16661100E+02  d E =-.370124E-01  mag=     2.0000
 curvature: -19.18 expect dE=-0.446E-01 dE for cont linesearch -0.230E-06
 trial: gam= 0.10060 g(F)=  0.232E-02 g(S)=  0.000E+00 ort = 0.136E-04 (trialstep = 0.968E+01)
 search vector abs. value=  0.249E-02
 bond charge predicted
       N       E                     dE             d eps       ncg     rms          rms(c)
DAV:   1    -0.166705607142E+02   -0.94604E-02   -0.15708E+01   288   0.126E+01    0.224E-01
DAV:   2    -0.166781011021E+02   -0.75404E-02   -0.77448E-02   304   0.122E+00    0.178E-01
DAV:   3    -0.166781039088E+02   -0.28067E-05   -0.12695E-03   320   0.149E-01    0.115E-01
DAV:   4    -0.166780560598E+02    0.47849E-04   -0.42434E-04   288   0.813E-02
  15 F= -.16678056E+02 E0= -.16678056E+02  d E =-.169557E-01  mag=     2.0000
 trial-energy change:   -0.016956  1 .order   -0.017193   -0.022515   -0.011871
 step:  20.4718(harm= 20.4718)  dis= 0.03773  next Energy=   -16.684913 (dE=-0.238E-01)
 bond charge predicted
       N       E                     dE             d eps       ncg     rms          rms(c)
DAV:   1    -0.166745938578E+02    0.35101E-02   -0.19547E+01   288   0.140E+01    0.254E-01
DAV:   2    -0.166840302337E+02   -0.94364E-02   -0.97271E-02   312   0.137E+00    0.196E-01
DAV:   3    -0.166840276164E+02    0.26173E-05   -0.15941E-03   320   0.167E-01    0.125E-01
DAV:   4    -0.166839449391E+02    0.82677E-04   -0.45964E-04   288   0.867E-02
  16 F= -.16683945E+02 E0= -.16683945E+02  d E =-.228446E-01  mag=     2.0000
 curvature: -10.93 expect dE=-0.977E-02 dE for cont linesearch -0.609E-05
 trial: gam= 0.39771 g(F)=  0.894E-03 g(S)=  0.000E+00 ort =-0.372E-04 (trialstep = 0.118E+02)
 search vector abs. value=  0.126E-02
 bond charge predicted
       N       E                     dE             d eps       ncg     rms          rms(c)
DAV:   1    -0.166867768212E+02   -0.27492E-02   -0.11856E+01   288   0.109E+01    0.151E-01
DAV:   2    -0.166924478436E+02   -0.56710E-02   -0.58088E-02   320   0.106E+00    0.119E-01
DAV:   3    -0.166924491625E+02   -0.13189E-05   -0.91699E-04   312   0.129E-01
  17 F= -.16692449E+02 E0= -.16692449E+02  d E =-.850422E-02  mag=     2.0000
 trial-energy change:   -0.008504  1 .order   -0.008583   -0.010406   -0.006759
 step:  33.7796(harm= 33.7796)  dis= 0.04391  next Energy=   -16.698793 (dE=-0.148E-01)
 bond charge predicted
       N       E                     dE             d eps       ncg     rms          rms(c)
DAV:   1    -0.166800554215E+02    0.12392E-01   -0.40858E+01   288   0.203E+01    0.312E-01
DAV:   2    -0.166994360471E+02   -0.19381E-01   -0.19900E-01   320   0.197E+00    0.241E-01
DAV:   3    -0.166992487005E+02    0.18735E-03   -0.31634E-03   320   0.238E-01    0.163E-01
DAV:   4    -0.166989164271E+02    0.33227E-03   -0.12466E-03   312   0.128E-01    0.670E-02
DAV:   5    -0.166990780215E+02   -0.16159E-03   -0.19612E-04   216   0.534E-02    0.225E-02
DAV:   6    -0.166992742542E+02   -0.19623E-03   -0.28337E-05   208   0.187E-02    0.150E-02
DAV:   7    -0.166995121118E+02   -0.23786E-03   -0.25388E-05   200   0.139E-02    0.458E-03
DAV:   8    -0.166996730368E+02   -0.16092E-03   -0.60415E-06   224   0.664E-03    0.202E-03
DAV:   9    -0.166998218981E+02   -0.14886E-03   -0.39056E-06   192   0.367E-03    0.138E-03
DAV:  10    -0.166999107868E+02   -0.88889E-04   -0.20009E-06   216   0.228E-03
  18 F= -.16699911E+02 E0= -.16699911E+02  d E =-.159658E-01  mag=     2.0000
 curvature: -24.16 expect dE=-0.225E-01 dE for cont linesearch -0.995E-04
 trial: gam= 0.90769 g(F)=  0.933E-03 g(S)=  0.000E+00 ort = 0.720E-04 (trialstep = 0.972E+01)
 search vector abs. value=  0.210E-02
 bond charge predicted
       N       E                     dE             d eps       ncg     rms          rms(c)
DAV:   1    -0.167027140659E+02   -0.28922E-02   -0.13298E+01   296   0.115E+01    0.131E-01
DAV:   2    -0.167090355041E+02   -0.63214E-02   -0.64682E-02   304   0.113E+00    0.108E-01
DAV:   3    -0.167089505495E+02    0.84955E-04   -0.10105E-03   328   0.138E-01    0.793E-02
DAV:   4    -0.167088162336E+02    0.13432E-03   -0.17495E-04   200   0.476E-02    0.469E-02
DAV:   5    -0.167088256859E+02   -0.94523E-05   -0.30841E-04   248   0.607E-02
  19 F= -.16708826E+02 E0= -.16708826E+02  d E =-.891490E-02  mag=     2.0000
 ZBRENT: can't locate minimum, use default step
 trial-energy change:   -0.008915  1 .order   -0.009478   -0.009700   -0.009256
 step:  38.8687(harm=212.2538)  dis= 0.05500  next Energy=   -16.805853 (dE=-0.106E+00)
 bond charge predicted
       N       E                     dE             d eps       ncg     rms          rms(c)
DAV:   1    -0.166713224419E+02    0.37494E-01   -0.12059E+02   288   0.350E+01    0.456E-01
DAV:   2    -0.167304286622E+02   -0.59106E-01   -0.59575E-01   304   0.344E+00    0.334E-01
DAV:   3    -0.167303276659E+02    0.10100E-03   -0.94968E-03   320   0.425E-01    0.232E-01
DAV:   4    -0.167296398881E+02    0.68778E-03   -0.15696E-03   296   0.140E-01    0.137E-01
DAV:   5    -0.167299631450E+02   -0.32326E-03   -0.19040E-03   304   0.141E-01    0.370E-02
DAV:   6    -0.167304414050E+02   -0.47826E-03   -0.34881E-05   224   0.212E-02    0.252E-02
DAV:   7    -0.167311237465E+02   -0.68234E-03   -0.49298E-05   216   0.185E-02    0.902E-03
DAV:   8    -0.167316021412E+02   -0.47839E-03   -0.20838E-05   232   0.108E-02    0.341E-03
DAV:   9    -0.167318844938E+02   -0.28235E-03   -0.59495E-06   200   0.503E-03    0.236E-03
DAV:  10    -0.167321193077E+02   -0.23481E-03   -0.63974E-06   216   0.370E-03    0.150E-03
DAV:  11    -0.167322893805E+02   -0.17007E-03   -0.74845E-06   200   0.327E-03    0.939E-04
DAV:  12    -0.167323291605E+02   -0.39780E-04   -0.32017E-06   200   0.216E-03
  20 F= -.16732329E+02 E0= -.16732329E+02  d E =-.324184E-01  mag=     2.0000
 curvature: -59.63 expect dE=-0.571E-01 dE for cont linesearch -0.138E-01
 ZBRENT: increasing intervall
 opt :  97.1717  next Energy=   -16.758133 (dE=-0.582E-01)
 bond charge predicted
       N       E                     dE             d eps       ncg     rms          rms(c)
DAV:   1    -0.164985652811E+02    0.23372E+00   -0.49511E+02   288   0.722E+01    0.126E+00
DAV:   2    -0.167455944103E+02   -0.24703E+00   -0.25052E+00   304   0.719E+00    0.774E-01
DAV:   3    -0.167450117278E+02    0.58268E-03   -0.41179E-02   312   0.898E-01    0.479E-01
DAV:   4    -0.167427570419E+02    0.22547E-02   -0.51763E-03   304   0.259E-01    0.314E-01
DAV:   5    -0.167433811893E+02   -0.62415E-03   -0.64563E-03   304   0.259E-01    0.793E-02
DAV:   6    -0.167445516908E+02   -0.11705E-02   -0.10949E-04   224   0.417E-02    0.523E-02
DAV:   7    -0.167459732306E+02   -0.14215E-02   -0.96724E-05   208   0.257E-02    0.212E-02
DAV:   8    -0.167469400145E+02   -0.96678E-03   -0.47923E-05   232   0.161E-02    0.679E-03
DAV:   9    -0.167475315893E+02   -0.59157E-03   -0.14782E-05   192   0.762E-03    0.367E-03
DAV:  10    -0.167479583472E+02   -0.42676E-03   -0.12796E-05   224   0.522E-03    0.261E-03
DAV:  11    -0.167482841999E+02   -0.32585E-03   -0.15333E-05   208   0.480E-03    0.198E-03
DAV:  12    -0.167484075089E+02   -0.12331E-03   -0.97291E-06   208   0.388E-03    0.133E-03
DAV:  13    -0.167484281302E+02   -0.20621E-04   -0.39699E-06   184   0.247E-03
  21 F= -.16748428E+02 E0= -.16748428E+02  d E =-.485173E-01  mag=     2.0000
 curvature: ****** expect dE=-0.478E+00 dE for cont linesearch -0.218E-02
 ZBRENT: bracketing found
 ZBRENT: interpolating
 opt :  84.0503  next Energy=   -16.749757 (dE=-0.498E-01)
 bond charge predicted
       N       E                     dE             d eps       ncg     rms          rms(c)
DAV:   1    -0.167380091364E+02    0.10398E-01   -0.24268E+01   288   0.156E+01    0.169E-01
DAV:   2    -0.167495977747E+02   -0.11589E-01   -0.11759E-01   312   0.152E+00    0.150E-01
DAV:   3    -0.167494793656E+02    0.11841E-03   -0.18583E-03   328   0.189E-01    0.110E-01
DAV:   4    -0.167492240048E+02    0.25536E-03   -0.27931E-04   232   0.606E-02    0.699E-02
DAV:   5    -0.167491903456E+02    0.33659E-04   -0.64660E-04   304   0.844E-02
  22 F= -.16749190E+02 E0= -.16749190E+02  d E =-.492796E-01  mag=     2.0000
 curvature: -67.99 expect dE=-0.213E+00 dE for cont linesearch -0.750E-04
 trial: gam= 3.53501 g(F)=  0.314E-02 g(S)=  0.000E+00 ort =-0.481E-04 (trialstep = 0.178E+01)
 search vector abs. value=  0.290E-01
 bond charge predicted
       N       E                     dE             d eps       ncg     rms          rms(c)
DAV:   1    -0.167518840853E+02   -0.26601E-02   -0.61527E+00   304   0.785E+00    0.772E-02
DAV:   2    -0.167550360405E+02   -0.31520E-02   -0.29437E-02   304   0.768E-01    0.795E-02
DAV:   3    -0.167550982730E+02   -0.62232E-04   -0.47676E-04   336   0.968E-02
  23 F= -.16755098E+02 E0= -.16755098E+02  d E =-.590793E-02  mag=     2.0000
 ZBRENT: can't locate minimum, use default step
 trial-energy change:   -0.005908  1 .order   -0.005372   -0.005274   -0.005471
 step:   7.1111(harm=  7.1111)  dis= 0.03883  next Energy=   -16.771860 (dE=-0.227E-01)
 bond charge predicted
       N       E                     dE             d eps       ncg     rms          rms(c)
DAV:   1    -0.167438600684E+02    0.11176E-01   -0.55513E+01   288   0.236E+01    0.256E-01
DAV:   2    -0.167697204426E+02   -0.25860E-01   -0.26551E-01   304   0.231E+00    0.255E-01
DAV:   3    -0.167695964960E+02    0.12395E-03   -0.42783E-03   328   0.288E-01    0.186E-01
DAV:   4    -0.167691343101E+02    0.46219E-03   -0.91880E-04   304   0.107E-01    0.118E-01
DAV:   5    -0.167692458654E+02   -0.11156E-03   -0.14897E-03   312   0.123E-01    0.370E-02
DAV:   6    -0.167694819762E+02   -0.23611E-03   -0.21117E-05   224   0.167E-02    0.253E-02
DAV:   7    -0.167698105204E+02   -0.32854E-03   -0.27351E-05   192   0.149E-02    0.906E-03
DAV:   8    -0.167700457260E+02   -0.23521E-03   -0.14111E-05   224   0.101E-02    0.230E-03
DAV:   9    -0.167701804244E+02   -0.13470E-03   -0.30271E-06   208   0.412E-03    0.155E-03
DAV:  10    -0.167702778928E+02   -0.97468E-04   -0.17602E-06   216   0.227E-03
  24 F= -.16770278E+02 E0= -.16770278E+02  d E =-.210875E-01  mag=     2.0000
 curvature: -53.03 expect dE=-0.170E+00 dE for cont linesearch -0.128E-01
 ZBRENT: increasing intervall
 opt :  17.7779  next Energy=   -16.793855 (dE=-0.447E-01)
 bond charge predicted
       N       E                     dE             d eps       ncg     rms          rms(c)
DAV:   1    -0.166828122140E+02    0.87368E-01   -0.22420E+02   288   0.480E+01    0.628E-01
DAV:   2    -0.167917082351E+02   -0.10890E+00   -0.10969E+00   304   0.474E+00    0.510E-01
DAV:   3    -0.167913720051E+02    0.33623E-03   -0.17961E-02   312   0.600E-01    0.336E-01
DAV:   4    -0.167898736741E+02    0.14983E-02   -0.26595E-03   312   0.186E-01    0.222E-01
DAV:   5    -0.167900115583E+02   -0.13788E-03   -0.40323E-03   296   0.203E-01    0.633E-02
DAV:   6    -0.167905077319E+02   -0.49617E-03   -0.53764E-05   224   0.284E-02    0.433E-02
DAV:   7    -0.167912083983E+02   -0.70067E-03   -0.60238E-05   208   0.207E-02    0.167E-02
DAV:   8    -0.167916732194E+02   -0.46482E-03   -0.25276E-05   232   0.132E-02    0.487E-03
DAV:   9    -0.167919800683E+02   -0.30685E-03   -0.73566E-06   216   0.599E-03    0.246E-03
DAV:  10    -0.167921779982E+02   -0.19793E-03   -0.49652E-06   224   0.349E-03    0.171E-03
DAV:  11    -0.167923537842E+02   -0.17579E-03   -0.61702E-06   200   0.305E-03    0.133E-03
DAV:  12    -0.167924423229E+02   -0.88539E-04   -0.67875E-06   208   0.284E-03
  25 F= -.16792442E+02 E0= -.16792442E+02  d E =-.432520E-01  mag=     2.0000
 curvature: -97.93 expect dE=-0.422E+00 dE for cont linesearch -0.570E-02
 ZBRENT: increasing intervall
 opt :  39.1113  next Energy=   -16.791483 (dE=-0.423E-01)
 bond charge predicted
       N       E                     dE             d eps       ncg     rms          rms(c)
DAV:   1    -0.162880443837E+02    0.50431E+00   -0.93281E+02   288   0.101E+02    0.206E+00
DAV:   2    -0.167640885999E+02   -0.47604E+00   -0.47752E+00   296   0.103E+01    0.134E+00
DAV:   3    -0.167632543553E+02    0.83424E-03   -0.81634E-02   320   0.129E+00    0.761E-01
DAV:   4    -0.167586082936E+02    0.46461E-02   -0.95910E-03   320   0.363E-01    0.529E-01
DAV:   5    -0.167589038278E+02   -0.29553E-03   -0.11596E-02   296   0.352E-01    0.144E-01
DAV:   6    -0.167600360024E+02   -0.11322E-02   -0.18351E-04   232   0.581E-02    0.923E-02
DAV:   7    -0.167613699702E+02   -0.13340E-02   -0.12585E-04   208   0.333E-02    0.390E-02
DAV:   8    -0.167621912509E+02   -0.82128E-03   -0.52462E-05   240   0.216E-02    0.119E-02
DAV:   9    -0.167627714975E+02   -0.58025E-03   -0.19483E-05   208   0.990E-03    0.423E-03
DAV:  10    -0.167630959124E+02   -0.32441E-03   -0.90036E-06   224   0.572E-03    0.294E-03
DAV:  11    -0.167633584212E+02   -0.26251E-03   -0.12013E-05   208   0.482E-03    0.281E-03
DAV:  12    -0.167635436004E+02   -0.18518E-03   -0.13930E-05   224   0.453E-03    0.159E-03
DAV:  13    -0.167635876843E+02   -0.44084E-04   -0.39856E-06   200   0.270E-03
  26 F= -.16763588E+02 E0= -.16763588E+02  d E =-.143973E-01  mag=     2.0000
 curvature:  16.50 expect dE= 0.148E+00 dE for cont linesearch  0.153E-01
 trial: gam= 0.00000 g(F)=  0.898E-02 g(S)=  0.000E+00 ort =-0.518E-02 (trialstep = 0.924E+01)
 search vector abs. value=  0.898E-02
 bond charge predicted
       N       E                     dE             d eps       ncg     rms          rms(c)
DAV:   1    -0.168053236955E+02   -0.41780E-01   -0.51851E+01   288   0.228E+01    0.385E-01
DAV:   2    -0.168292790188E+02   -0.23955E-01   -0.24846E-01   296   0.218E+00    0.291E-01
DAV:   3    -0.168290589776E+02    0.22004E-03   -0.40444E-03   320   0.271E-01    0.194E-01
DAV:   4    -0.168285774398E+02    0.48154E-03   -0.13647E-03   296   0.133E-01    0.740E-02
DAV:   5    -0.168287126237E+02   -0.13518E-03   -0.14503E-04   216   0.539E-02    0.233E-02
DAV:   6    -0.168288450418E+02   -0.13242E-03   -0.22165E-05   200   0.170E-02    0.159E-02
DAV:   7    -0.168290162181E+02   -0.17118E-03   -0.27796E-05   200   0.150E-02    0.479E-03
DAV:   8    -0.168291148667E+02   -0.98649E-04   -0.50839E-06   216   0.749E-03
  27 F= -.16829115E+02 E0= -.16829115E+02  d E =-.655272E-01  mag=     2.0000
 trial-energy change:   -0.065527  1 .order   -0.065672   -0.082983   -0.048360
 step:  22.1569(harm= 22.1569)  dis= 0.10047  next Energy=   -16.863033 (dE=-0.994E-01)
 bond charge predicted
       N       E                     dE             d eps       ncg     rms          rms(c)
DAV:   1    -0.168163570794E+02    0.12659E-01   -0.10159E+02   288   0.321E+01    0.558E-01
DAV:   2    -0.168632957380E+02   -0.46939E-01   -0.48931E-01   304   0.308E+00    0.392E-01
DAV:   3    -0.168628373368E+02    0.45840E-03   -0.80198E-03   328   0.384E-01    0.260E-01
DAV:   4    -0.168619948146E+02    0.84252E-03   -0.25008E-03   296   0.180E-01    0.983E-02
DAV:   5    -0.168622730951E+02   -0.27828E-03   -0.27487E-04   240   0.717E-02    0.314E-02
DAV:   6    -0.168625228886E+02   -0.24979E-03   -0.40089E-05   208   0.221E-02    0.203E-02
DAV:   7    -0.168628451428E+02   -0.32225E-03   -0.50382E-05   216   0.205E-02    0.611E-03
DAV:   8    -0.168630317943E+02   -0.18665E-03   -0.82650E-06   200   0.926E-03    0.280E-03
DAV:   9    -0.168632005705E+02   -0.16878E-03   -0.50843E-06   192   0.482E-03    0.178E-03
DAV:  10    -0.168633277187E+02   -0.12715E-03   -0.37965E-06   192   0.304E-03    0.106E-03
DAV:  11    -0.168634483207E+02   -0.12060E-03   -0.70157E-06   216   0.320E-03    0.820E-04
DAV:  12    -0.168634712201E+02   -0.22899E-04   -0.16354E-06   192   0.169E-03
  28 F= -.16863471E+02 E0= -.16863471E+02  d E =-.998835E-01  mag=     2.0000
 curvature: -11.08 expect dE=-0.469E-01 dE for cont linesearch -0.815E-05
 trial: gam= 0.46282 g(F)=  0.424E-02 g(S)=  0.000E+00 ort = 0.813E-04 (trialstep = 0.118E+02)
 search vector abs. value=  0.623E-02
 bond charge predicted
       N       E                     dE             d eps       ncg     rms          rms(c)
DAV:   1    -0.168730605170E+02   -0.96122E-02   -0.58796E+01   288   0.244E+01    0.418E-01
DAV:   2    -0.169006465758E+02   -0.27586E-01   -0.28976E-01   288   0.242E+00    0.317E-01
DAV:   3    -0.169004436814E+02    0.20289E-03   -0.52133E-03   320   0.333E-01    0.198E-01
DAV:   4    -0.169000093975E+02    0.43428E-03   -0.13570E-03   320   0.140E-01    0.918E-02
DAV:   5    -0.169001317383E+02   -0.12234E-03   -0.32488E-04   240   0.694E-02    0.256E-02
DAV:   6    -0.169002641030E+02   -0.13236E-03   -0.30057E-05   224   0.206E-02    0.175E-02
DAV:   7    -0.169004540227E+02   -0.18992E-03   -0.28391E-05   184   0.162E-02    0.563E-03
DAV:   8    -0.169005976259E+02   -0.14360E-03   -0.70444E-06   216   0.798E-03    0.218E-03
DAV:   9    -0.169007083354E+02   -0.11071E-03   -0.27387E-06   208   0.380E-03    0.144E-03
DAV:  10    -0.169007994209E+02   -0.91086E-04   -0.19372E-06   224   0.244E-03
  29 F= -.16900799E+02 E0= -.16900799E+02  d E =-.373282E-01  mag=     2.0000
 trial-energy change:   -0.037328  1 .order   -0.037117   -0.050541   -0.023692
 step:  22.2635(harm= 22.2635)  dis= 0.06136  next Energy=   -16.911041 (dE=-0.476E-01)
 bond charge predicted
       N       E                     dE             d eps       ncg     rms          rms(c)
DAV:   1    -0.168882430413E+02    0.12465E-01   -0.45752E+01   288   0.215E+01    0.391E-01
DAV:   2    -0.169099760432E+02   -0.21733E-01   -0.22594E-01   288   0.213E+00    0.295E-01
DAV:   3    -0.169097896406E+02    0.18640E-03   -0.40941E-03   312   0.295E-01    0.183E-01
DAV:   4    -0.169094299411E+02    0.35970E-03   -0.11704E-03   312   0.130E-01    0.779E-02
DAV:   5    -0.169095364575E+02   -0.10652E-03   -0.18875E-04   216   0.565E-02    0.216E-02
DAV:   6    -0.169096442621E+02   -0.10780E-03   -0.23209E-05   216   0.182E-02    0.147E-02
DAV:   7    -0.169097969850E+02   -0.15272E-03   -0.22021E-05   184   0.139E-02    0.464E-03
DAV:   8    -0.169099148370E+02   -0.11785E-03   -0.54707E-06   216   0.690E-03    0.186E-03
DAV:   9    -0.169100085496E+02   -0.93713E-04   -0.22693E-06   208   0.327E-03
  30 F= -.16910009E+02 E0= -.16910009E+02  d E =-.465373E-01  mag=     2.0000
 curvature: -16.24 expect dE=-0.345E-01 dE for cont linesearch -0.196E-03
 trial: gam= 0.51123 g(F)=  0.212E-02 g(S)=  0.000E+00 ort =-0.275E-03 (trialstep = 0.139E+02)
 search vector abs. value=  0.347E-02
 bond charge predicted
       N       E                     dE             d eps       ncg     rms          rms(c)
DAV:   1    -0.169091400798E+02    0.77476E-03   -0.45270E+01   288   0.214E+01    0.287E-01
DAV:   2    -0.169297292706E+02   -0.20589E-01   -0.22230E-01   296   0.212E+00    0.257E-01
DAV:   3    -0.169294517057E+02    0.27756E-03   -0.39304E-03   328   0.294E-01    0.170E-01
DAV:   4    -0.169290141334E+02    0.43757E-03   -0.73542E-04   296   0.996E-02    0.103E-01
DAV:   5    -0.169290640022E+02   -0.49869E-04   -0.77157E-04   296   0.937E-02
  31 F= -.16929064E+02 E0= -.16929064E+02  d E =-.190555E-01  mag=     2.0000
 trial-energy change:   -0.019055  1 .order   -0.020894   -0.027612   -0.014177
 step:  28.5966(harm= 28.5966)  dis= 0.05452  next Energy=   -16.938382 (dE=-0.284E-01)
 bond charge predicted
       N       E                     dE             d eps       ncg     rms          rms(c)
DAV:   1    -0.169101703335E+02    0.18844E-01   -0.50394E+01   288   0.226E+01    0.317E-01
DAV:   2    -0.169334604621E+02   -0.23290E-01   -0.24806E-01   288   0.224E+00    0.274E-01
DAV:   3    -0.169332457668E+02    0.21470E-03   -0.43335E-03   320   0.309E-01    0.178E-01
DAV:   4    -0.169329076476E+02    0.33812E-03   -0.84389E-04   288   0.109E-01    0.105E-01
DAV:   5    -0.169332718729E+02   -0.36423E-03   -0.71727E-04   304   0.920E-02    0.316E-02
DAV:   6    -0.169337004013E+02   -0.42853E-03   -0.26649E-05   224   0.168E-02    0.210E-02
DAV:   7    -0.169342735475E+02   -0.57315E-03   -0.45157E-05   216   0.183E-02    0.703E-03
DAV:   8    -0.169347687723E+02   -0.49522E-03   -0.22388E-05   224   0.106E-02    0.321E-03
DAV:   9    -0.169350871573E+02   -0.31838E-03   -0.96789E-06   216   0.596E-03    0.315E-03
DAV:  10    -0.169353258214E+02   -0.23866E-03   -0.10765E-05   208   0.467E-03    0.173E-03
DAV:  11    -0.169354553976E+02   -0.12958E-03   -0.13138E-05   208   0.429E-03    0.936E-04
DAV:  12    -0.169354763513E+02   -0.20954E-04   -0.15898E-06   208   0.210E-03
  32 F= -.16935476E+02 E0= -.16935476E+02  d E =-.254678E-01  mag=     2.0000
 curvature: -25.03 expect dE=-0.424E-01 dE for cont linesearch -0.763E-03
 trial: gam= 0.79058 g(F)=  0.170E-02 g(S)=  0.000E+00 ort =-0.325E-03 (trialstep = 0.169E+02)
 search vector abs. value=  0.335E-02
 bond charge predicted
       N       E                     dE             d eps       ncg     rms          rms(c)
DAV:   1    -0.169212756958E+02    0.14180E-01   -0.64287E+01   288   0.255E+01    0.340E-01
DAV:   2    -0.169507834423E+02   -0.29508E-01   -0.31116E-01   296   0.250E+00    0.310E-01
DAV:   3    -0.169505733060E+02    0.21014E-03   -0.52592E-03   328   0.331E-01    0.217E-01
DAV:   4    -0.169500765476E+02    0.49676E-03   -0.10940E-03   296   0.122E-01    0.128E-01
DAV:   5    -0.169502038548E+02   -0.12731E-03   -0.10335E-03   304   0.109E-01    0.388E-02
DAV:   6    -0.169505219620E+02   -0.31811E-03   -0.33912E-05   224   0.195E-02    0.257E-02
DAV:   7    -0.169509066040E+02   -0.38464E-03   -0.52663E-05   200   0.209E-02    0.870E-03
DAV:   8    -0.169511925158E+02   -0.28591E-03   -0.18298E-05   240   0.122E-02    0.310E-03
DAV:   9    -0.169513580222E+02   -0.16551E-03   -0.47616E-06   200   0.554E-03    0.252E-03
DAV:  10    -0.169514821883E+02   -0.12417E-03   -0.33925E-06   216   0.325E-03    0.159E-03
DAV:  11    -0.169516093202E+02   -0.12713E-03   -0.78208E-06   192   0.373E-03    0.957E-04
DAV:  12    -0.169516308721E+02   -0.21552E-04   -0.17764E-06   208   0.181E-03
  33 F= -.16951631E+02 E0= -.16951631E+02  d E =-.161545E-01  mag=     2.0000
 trial-energy change:   -0.016155  1 .order   -0.016122   -0.024235   -0.008008
 step:  25.1660(harm= 25.1660)  dis= 0.06611  next Energy=   -16.953574 (dE=-0.181E-01)
 bond charge predicted
       N       E                     dE             d eps       ncg     rms          rms(c)
DAV:   1    -0.169461741188E+02    0.54352E-02   -0.15593E+01   288   0.125E+01    0.165E-01
DAV:   2    -0.169533543822E+02   -0.71803E-02   -0.75509E-02   296   0.123E+00    0.145E-01
DAV:   3    -0.169532551019E+02    0.99280E-04   -0.12714E-03   336   0.163E-01    0.101E-01
DAV:   4    -0.169530798210E+02    0.17528E-03   -0.25318E-04   208   0.602E-02    0.590E-02
DAV:   5    -0.169530894753E+02   -0.96544E-05   -0.30692E-04   264   0.633E-02
  34 F= -.16953089E+02 E0= -.16953089E+02  d E =-.176131E-01  mag=     2.0000
 curvature: -29.33 expect dE=-0.254E-01 dE for cont linesearch -0.110E-04
 trial: gam= 0.28857 g(F)=  0.867E-03 g(S)=  0.000E+00 ort = 0.355E-04 (trialstep = 0.185E+02)
 search vector abs. value=  0.117E-02
 bond charge predicted
       N       E                     dE             d eps       ncg     rms          rms(c)
DAV:   1    -0.169512714207E+02    0.18084E-02   -0.26927E+01   288   0.165E+01    0.257E-01
DAV:   2    -0.169638658951E+02   -0.12594E-01   -0.13316E-01   304   0.165E+00    0.198E-01
DAV:   3    -0.169637679614E+02    0.97934E-04   -0.23814E-03   328   0.232E-01    0.127E-01
DAV:   4    -0.169636673049E+02    0.10066E-03   -0.48214E-04   312   0.838E-02    0.635E-02
DAV:   5    -0.169638788905E+02   -0.21159E-03   -0.23178E-04   208   0.539E-02    0.171E-02
DAV:   6    -0.169640401643E+02   -0.16127E-03   -0.22785E-05   232   0.183E-02    0.115E-02
DAV:   7    -0.169642208859E+02   -0.18072E-03   -0.15474E-05   192   0.110E-02    0.418E-03
DAV:   8    -0.169643568708E+02   -0.13598E-03   -0.55679E-06   224   0.583E-03    0.184E-03
DAV:   9    -0.169644596839E+02   -0.10281E-03   -0.30737E-06   208   0.343E-03    0.150E-03
DAV:  10    -0.169645284763E+02   -0.68792E-04   -0.19011E-06   208   0.226E-03
  35 F= -.16964528E+02 E0= -.16964528E+02  d E =-.114390E-01  mag=     2.0000
 trial-energy change:   -0.011439  1 .order   -0.011186   -0.016242   -0.006129
 step:  29.7351(harm= 29.7351)  dis= 0.04720  next Energy=   -16.966133 (dE=-0.130E-01)
 bond charge predicted
       N       E                     dE             d eps       ncg     rms          rms(c)
DAV:   1    -0.169617825339E+02    0.26771E-02   -0.98810E+00   288   0.998E+00    0.154E-01
DAV:   2    -0.169663533693E+02   -0.45708E-02   -0.48352E-02   288   0.993E-01    0.124E-01
DAV:   3    -0.169662758781E+02    0.77491E-04   -0.86426E-04   312   0.140E-01
  36 F= -.16966276E+02 E0= -.16966276E+02  d E =-.131864E-01  mag=     2.0000
 curvature: -19.77 expect dE=-0.190E-01 dE for cont linesearch -0.166E-04
 trial: gam= 1.16946 g(F)=  0.960E-03 g(S)=  0.000E+00 ort =-0.313E-04 (trialstep = 0.975E+01)
 search vector abs. value=  0.248E-02
 bond charge predicted
       N       E                     dE             d eps       ncg     rms          rms(c)
DAV:   1    -0.169664343489E+02   -0.80980E-04   -0.15900E+01   288   0.126E+01    0.170E-01
DAV:   2    -0.169736686329E+02   -0.72343E-02   -0.76442E-02   304   0.124E+00    0.153E-01
DAV:   3    -0.169735890970E+02    0.79536E-04   -0.12932E-03   328   0.165E-01    0.106E-01
DAV:   4    -0.169735294110E+02    0.59686E-04   -0.33640E-04   272   0.669E-02
  37 F= -.16973529E+02 E0= -.16973529E+02  d E =-.725353E-02  mag=     2.0000
 ZBRENT: can't locate minimum, use default step
 trial-energy change:   -0.007254  1 .order   -0.007951   -0.009011   -0.006891
 step:  39.0154(harm= 41.4600)  dis= 0.06273  next Energy=   -16.985428 (dE=-0.192E-01)
 bond charge predicted
       N       E                     dE             d eps       ncg     rms          rms(c)
DAV:   1    -0.169048808965E+02    0.68708E-01   -0.14452E+02   288   0.384E+01    0.623E-01
DAV:   2    -0.169754128068E+02   -0.70532E-01   -0.72277E-01   304   0.385E+00    0.441E-01
DAV:   3    -0.169752134372E+02    0.19937E-03   -0.12575E-02   312   0.534E-01    0.280E-01
DAV:   4    -0.169745940721E+02    0.61937E-03   -0.22802E-03   304   0.173E-01    0.151E-01
DAV:   5    -0.169752170828E+02   -0.62301E-03   -0.14201E-03   296   0.127E-01    0.415E-02
DAV:   6    -0.169755938125E+02   -0.37673E-03   -0.51066E-05   216   0.240E-02    0.263E-02
DAV:   7    -0.169760887344E+02   -0.49492E-03   -0.67080E-05   192   0.243E-02    0.847E-03
DAV:   8    -0.169764480496E+02   -0.35932E-03   -0.15320E-05   216   0.109E-02    0.335E-03
DAV:   9    -0.169766788108E+02   -0.23076E-03   -0.64270E-06   216   0.560E-03    0.230E-03
DAV:  10    -0.169768439159E+02   -0.16511E-03   -0.30047E-06   216   0.308E-03    0.143E-03
DAV:  11    -0.169770511616E+02   -0.20725E-03   -0.97563E-06   200   0.419E-03    0.103E-03
DAV:  12    -0.169770746660E+02   -0.23504E-04   -0.17083E-06   208   0.187E-03
  38 F= -.16977075E+02 E0= -.16977075E+02  d E =-.107988E-01  mag=     2.0000
 curvature: -55.38 expect dE=-0.102E+00 dE for cont linesearch -0.551E-02
 ZBRENT: interpolating
 opt :  26.9304  next Energy=   -16.980078 (dE=-0.138E-01)
 bond charge predicted
       N       E                     dE             d eps       ncg     rms          rms(c)
DAV:   1    -0.169686215872E+02    0.84296E-02   -0.24397E+01   288   0.157E+01    0.205E-01
DAV:   2    -0.169799294027E+02   -0.11308E-01   -0.11637E-01   288   0.153E+00    0.189E-01
DAV:   3    -0.169798406003E+02    0.88802E-04   -0.19642E-03   328   0.205E-01    0.132E-01
DAV:   4    -0.169795943237E+02    0.24628E-03   -0.43249E-04   296   0.752E-02    0.765E-02
DAV:   5    -0.169796379125E+02   -0.43589E-04   -0.38444E-04   304   0.662E-02
  39 F= -.16979638E+02 E0= -.16979638E+02  d E =-.133620E-01  mag=     2.0000
 curvature: -30.18 expect dE=-0.234E-01 dE for cont linesearch -0.674E-05
 trial: gam= 0.65658 g(F)=  0.777E-03 g(S)=  0.000E+00 ort =-0.235E-04 (trialstep = 0.132E+02)
 search vector abs. value=  0.182E-02
 bond charge predicted
       N       E                     dE             d eps       ncg     rms          rms(c)
DAV:   1    -0.169775924291E+02    0.20019E-02   -0.21282E+01   288   0.146E+01    0.196E-01
DAV:   2    -0.169878696153E+02   -0.10277E-01   -0.10074E-01   304   0.142E+00    0.185E-01
DAV:   3    -0.169878621710E+02    0.74444E-05   -0.16034E-03   336   0.179E-01    0.137E-01
DAV:   4    -0.169876242104E+02    0.23796E-03   -0.57083E-04   304   0.800E-02    0.708E-02
DAV:   5    -0.169876111858E+02    0.13025E-04   -0.26287E-04   240   0.583E-02
  40 F= -.16987611E+02 E0= -.16987611E+02  d E =-.797327E-02  mag=     2.0000
 trial-energy change:   -0.007973  1 .order   -0.008025   -0.010037   -0.006013
 step:  32.8930(harm= 32.8930)  dis= 0.05103  next Energy=   -16.992154 (dE=-0.125E-01)
 bond charge predicted
       N       E                     dE             d eps       ncg     rms          rms(c)
DAV:   1    -0.169681838151E+02    0.19440E-01   -0.47552E+01   288   0.219E+01    0.284E-01
DAV:   2    -0.169913094347E+02   -0.23126E-01   -0.22784E-01   304   0.214E+00    0.270E-01
DAV:   3    -0.169912888778E+02    0.20557E-04   -0.36078E-03   320   0.267E-01    0.197E-01
DAV:   4    -0.169908067311E+02    0.48215E-03   -0.93169E-04   312   0.105E-01    0.112E-01
DAV:   5    -0.169908683813E+02   -0.61650E-04   -0.68420E-04   304   0.907E-02
  41 F= -.16990868E+02 E0= -.16990868E+02  d E =-.112305E-01  mag=     2.0000
 curvature: -39.24 expect dE=-0.291E-01 dE for cont linesearch -0.105E-06
 trial: gam= 1.07777 g(F)=  0.742E-03 g(S)=  0.000E+00 ort =-0.221E-05 (trialstep = 0.109E+02)
 search vector abs. value=  0.285E-02
 bond charge predicted
       N       E                     dE             d eps       ncg     rms          rms(c)
DAV:   1    -0.169868753861E+02    0.39313E-02   -0.22813E+01   288   0.151E+01    0.163E-01
DAV:   2    -0.169976853851E+02   -0.10810E-01   -0.10981E-01   296   0.149E+00    0.155E-01
DAV:   3    -0.169976618024E+02    0.23583E-04   -0.18175E-03   312   0.200E-01    0.106E-01
DAV:   4    -0.169975235590E+02    0.13824E-03   -0.18937E-04   200   0.513E-02    0.766E-02
DAV:   5    -0.169976066543E+02   -0.83095E-04   -0.69400E-04   304   0.894E-02
  42 F= -.16997607E+02 E0= -.16997607E+02  d E =-.673827E-02  mag=     2.0000
 ZBRENT: can't locate minimum, use default step
 trial-energy change:   -0.006738  1 .order   -0.007335   -0.008080   -0.006590
 step:  43.7149(harm= 59.2451)  dis= 0.07948  next Energy=   -17.012770 (dE=-0.219E-01)
 bond charge predicted
       N       E                     dE             d eps       ncg     rms          rms(c)
DAV:   1    -0.169060574313E+02    0.91466E-01   -0.20823E+02   288   0.463E+01    0.627E-01
DAV:   2    -0.170065771598E+02   -0.10052E+00   -0.10179E+00   304   0.460E+00    0.499E-01
DAV:   3    -0.170061977251E+02    0.37943E-03   -0.17063E-02   320   0.622E-01    0.323E-01
DAV:   4    -0.170046587067E+02    0.15390E-02   -0.21854E-03   304   0.166E-01    0.218E-01
DAV:   5    -0.170045813472E+02    0.77360E-04   -0.35921E-03   288   0.200E-01    0.594E-02
DAV:   6    -0.170050257327E+02   -0.44439E-03   -0.56149E-05   224   0.288E-02    0.397E-02
DAV:   7    -0.170055963881E+02   -0.57066E-03   -0.46153E-05   216   0.195E-02    0.164E-02
DAV:   8    -0.170060627563E+02   -0.46637E-03   -0.18213E-05   224   0.123E-02    0.504E-03
DAV:   9    -0.170064285388E+02   -0.36578E-03   -0.99996E-06   216   0.674E-03    0.244E-03
DAV:  10    -0.170066025307E+02   -0.17399E-03   -0.34405E-06   200   0.342E-03    0.172E-03
DAV:  11    -0.170067996769E+02   -0.19715E-03   -0.79814E-06   216   0.386E-03    0.121E-03
DAV:  12    -0.170068667047E+02   -0.67028E-04   -0.51757E-06   208   0.276E-03
  43 F= -.17006867E+02 E0= -.17006867E+02  d E =-.159983E-01  mag=     2.0000
 curvature: ****** expect dE=-0.111E+00 dE for cont linesearch -0.121E-06
 trial: gam= 0.79131 g(F)=  0.109E-02 g(S)=  0.000E+00 ort =-0.184E-05 (trialstep = 0.174E+02)
 search vector abs. value=  0.287E-02
 bond charge predicted
       N       E                     dE             d eps       ncg     rms          rms(c)
DAV:   1    -0.169920777867E+02    0.14722E-01   -0.58252E+01   288   0.243E+01    0.374E-01
DAV:   2    -0.170199432716E+02   -0.27865E-01   -0.28480E-01   304   0.242E+00    0.284E-01
DAV:   3    -0.170197075793E+02    0.23569E-03   -0.51954E-03   320   0.353E-01    0.181E-01
DAV:   4    -0.170191546276E+02    0.55295E-03   -0.11654E-03   304   0.122E-01    0.949E-02
DAV:   5    -0.170192967933E+02   -0.14217E-03   -0.67763E-04   304   0.883E-02    0.285E-02
DAV:   6    -0.170195319877E+02   -0.23519E-03   -0.28364E-05   208   0.184E-02    0.178E-02
DAV:   7    -0.170198136047E+02   -0.28162E-03   -0.30389E-05   192   0.169E-02    0.556E-03
DAV:   8    -0.170200381491E+02   -0.22454E-03   -0.10160E-05   224   0.770E-03    0.195E-03
DAV:   9    -0.170201596074E+02   -0.12146E-03   -0.27484E-06   208   0.393E-03    0.149E-03
DAV:  10    -0.170202647273E+02   -0.10512E-03   -0.22906E-06   208   0.248E-03    0.923E-04
DAV:  11    -0.170203716423E+02   -0.10692E-03   -0.60650E-06   208   0.310E-03    0.599E-04
DAV:  12    -0.170203836809E+02   -0.12039E-04   -0.83752E-07   216   0.138E-03
  44 F= -.17020384E+02 E0= -.17020384E+02  d E =-.135170E-01  mag=     2.0000
 trial-energy change:   -0.013517  1 .order   -0.013506   -0.018855   -0.008156
 step:  30.5956(harm= 30.5956)  dis= 0.07715  next Energy=   -17.023481 (dE=-0.166E-01)
 bond charge predicted
       N       E                     dE             d eps       ncg     rms          rms(c)
DAV:   1    -0.170068702524E+02    0.13501E-01   -0.33791E+01   288   0.185E+01    0.284E-01
DAV:   2    -0.170229350291E+02   -0.16065E-01   -0.16469E-01   296   0.184E+00    0.225E-01
DAV:   3    -0.170227813500E+02    0.15368E-03   -0.30175E-03   328   0.270E-01    0.145E-01
DAV:   4    -0.170224026332E+02    0.37872E-03   -0.74188E-04   304   0.969E-02    0.742E-02
DAV:   5    -0.170224827309E+02   -0.80098E-04   -0.38148E-04   288   0.669E-02
  45 F= -.17022483E+02 E0= -.17022483E+02  d E =-.156160E-01  mag=     2.0000
 curvature: -40.38 expect dE=-0.435E-01 dE for cont linesearch -0.385E-06
 trial: gam= 1.15077 g(F)=  0.108E-02 g(S)=  0.000E+00 ort =-0.522E-05 (trialstep = 0.118E+02)
 search vector abs. value=  0.486E-02
 bond charge predicted
       N       E                     dE             d eps       ncg     rms          rms(c)
DAV:   1    -0.170095078133E+02    0.12895E-01   -0.45577E+01   288   0.214E+01    0.233E-01
DAV:   2    -0.170310102058E+02   -0.21502E-01   -0.21723E-01   304   0.210E+00    0.249E-01
DAV:   3    -0.170309102177E+02    0.99988E-04   -0.37325E-03   328   0.284E-01    0.173E-01
DAV:   4    -0.170304533578E+02    0.45686E-03   -0.52899E-04   296   0.826E-02    0.125E-01
DAV:   5    -0.170304665362E+02   -0.13178E-04   -0.12216E-03   288   0.115E-01    0.426E-02
DAV:   6    -0.170307093487E+02   -0.24281E-03   -0.21133E-05   200   0.166E-02    0.269E-02
DAV:   7    -0.170309789667E+02   -0.26962E-03   -0.22440E-05   208   0.132E-02    0.114E-02
DAV:   8    -0.170312134046E+02   -0.23444E-03   -0.11833E-05   224   0.984E-03    0.330E-03
DAV:   9    -0.170314029872E+02   -0.18958E-03   -0.55673E-06   216   0.489E-03    0.153E-03
DAV:  10    -0.170314970976E+02   -0.94110E-04   -0.17081E-06   208   0.242E-03
  46 F= -.17031497E+02 E0= -.17031497E+02  d E =-.901437E-02  mag=     2.0000
 trial-energy change:   -0.009014  1 .order   -0.008505   -0.012629   -0.004381
 step:  15.9741(harm= 18.0677)  dis= 0.06680  next Energy=   -17.032294 (dE=-0.981E-02)
 bond charge predicted
       N       E                     dE             d eps       ncg     rms          rms(c)
DAV:   1    -0.170299568697E+02    0.14461E-02   -0.56799E+00   304   0.753E+00    0.778E-02
DAV:   2    -0.170325846509E+02   -0.26278E-02   -0.26929E-02   296   0.737E-01    0.877E-02
DAV:   3    -0.170325545402E+02    0.30111E-04   -0.45636E-04   312   0.990E-02
  47 F= -.17032555E+02 E0= -.17032555E+02  d E =-.100718E-01  mag=     2.0000
 curvature: -36.45 expect dE=-0.228E-01 dE for cont linesearch -0.332E-04
 trial: gam= 0.01952 g(F)=  0.626E-03 g(S)=  0.000E+00 ort = 0.665E-04 (trialstep = 0.126E+02)
 search vector abs. value=  0.630E-03
 bond charge predicted
       N       E                     dE             d eps       ncg     rms          rms(c)
DAV:   1    -0.170344980668E+02   -0.19134E-02   -0.67890E+00   288   0.829E+00    0.183E-01
DAV:   2    -0.170375796043E+02   -0.30815E-02   -0.32415E-02   312   0.790E-01    0.130E-01
DAV:   3    -0.170375171759E+02    0.62428E-04   -0.55842E-04   320   0.102E-01
  48 F= -.17037517E+02 E0= -.17037517E+02  d E =-.496264E-02  mag=     2.0000
 trial-energy change:   -0.004963  1 .order   -0.004986   -0.007921   -0.002051
 step:  17.0515(harm= 17.0515)  dis= 0.01381  next Energy=   -17.037899 (dE=-0.534E-02)
 bond charge predicted
       N       E                     dE             d eps       ncg     rms          rms(c)
DAV:   1    -0.170375676594E+02    0.11945E-04   -0.83432E-01   304   0.291E+00    0.731E-02
DAV:   2    -0.170379963520E+02   -0.42869E-03   -0.41088E-03   312   0.277E-01    0.470E-02
DAV:   3    -0.170380210944E+02   -0.24742E-04   -0.62064E-05   200   0.344E-02
  49 F= -.17038021E+02 E0= -.17038021E+02  d E =-.546655E-02  mag=     2.0000
 curvature:  -8.57 expect dE=-0.177E-02 dE for cont linesearch -0.846E-05
 trial: gam= 0.37379 g(F)=  0.207E-03 g(S)=  0.000E+00 ort =-0.249E-04 (trialstep = 0.135E+02)
 search vector abs. value=  0.276E-03
 bond charge predicted
       N       E                     dE             d eps       ncg     rms          rms(c)
DAV:   1    -0.170389472853E+02   -0.95093E-03   -0.33962E+00   304   0.584E+00    0.738E-02
DAV:   2    -0.170405299195E+02   -0.15826E-02   -0.16405E-02   304   0.569E-01    0.645E-02
DAV:   3    -0.170405107204E+02    0.19199E-04   -0.23431E-04   200   0.715E-02
  50 F= -.17040511E+02 E0= -.17040511E+02  d E =-.248963E-02  mag=     2.0000
 trial-energy change:   -0.002490  1 .order   -0.001853   -0.002673   -0.001033
 step:  15.8047(harm= 22.0278)  dis= 0.00870  next Energy=   -17.040601 (dE=-0.258E-02)
 bond charge predicted
       N       E                     dE             d eps       ncg     rms          rms(c)
DAV:   1    -0.170407706607E+02   -0.24074E-03   -0.99908E-02   312   0.100E+00    0.275E-02
DAV:   2    -0.170408194296E+02   -0.48769E-04   -0.42355E-04   296   0.928E-02
  51 F= -.17040819E+02 E0= -.17040819E+02  d E =-.279834E-02  mag=     2.0000
 curvature:  -7.16 expect dE=-0.549E-03 dE for cont linesearch -0.292E-03
 trial: gam=-0.09944 g(F)=  0.766E-04 g(S)=  0.000E+00 ort = 0.106E-03 (trialstep = 0.140E+02)
 search vector abs. value=  0.582E-04
 bond charge predicted
       N       E                     dE             d eps       ncg     rms          rms(c)
DAV:   1    -0.170413770708E+02   -0.60641E-03   -0.76819E-01   288   0.278E+00    0.485E-02
DAV:   2    -0.170417456826E+02   -0.36861E-03   -0.37261E-03   304   0.269E-01    0.363E-02
DAV:   3    -0.170417448681E+02    0.81454E-06   -0.54689E-05   200   0.331E-02
  52 F= -.17041745E+02 E0= -.17041745E+02  d E =-.925438E-03  mag=     2.0000
 trial-energy change:   -0.000925  1 .order   -0.000725   -0.000923   -0.000528
 step:  32.6149(harm= 32.6149)  dis= 0.00708  next Energy=   -17.041897 (dE=-0.108E-02)
 bond charge predicted
       N       E                     dE             d eps       ncg     rms          rms(c)
DAV:   1    -0.170418739729E+02   -0.12829E-03   -0.13688E+00   304   0.371E+00    0.656E-02
DAV:   2    -0.170425173264E+02   -0.64335E-03   -0.66638E-03   296   0.358E-01    0.457E-02
DAV:   3    -0.170425058087E+02    0.11518E-04   -0.96218E-05   200   0.439E-02
  53 F= -.17042506E+02 E0= -.17042506E+02  d E =-.168638E-02  mag=     2.0000
 curvature: -14.38 expect dE=-0.138E-02 dE for cont linesearch -0.312E-05
 trial: gam= 1.06930 g(F)=  0.961E-04 g(S)=  0.000E+00 ort = 0.355E-05 (trialstep = 0.606E+01)
 search vector abs. value=  0.170E-03
 bond charge predicted
       N       E                     dE             d eps       ncg     rms          rms(c)
DAV:   1    -0.170430406916E+02   -0.52337E-03   -0.42108E-01   312   0.206E+00    0.214E-02
DAV:   2    -0.170432583830E+02   -0.21769E-03   -0.20097E-03   296   0.199E-01    0.210E-02
DAV:   3    -0.170432652580E+02   -0.68750E-05   -0.28170E-05   200   0.250E-02
  54 F= -.17043265E+02 E0= -.17043265E+02  d E =-.759449E-03  mag=     2.0000
 ZBRENT: can't locate minimum, use default step
 trial-energy change:   -0.000759  1 .order   -0.000592   -0.000605   -0.000580
 step:  24.2252(harm=148.3743)  dis= 0.00987  next Energy=   -17.049915 (dE=-0.741E-02)
 bond charge predicted
       N       E                     dE             d eps       ncg     rms          rms(c)
DAV:   1    -0.170433631000E+02   -0.10472E-03   -0.37738E+00   288   0.615E+00    0.661E-02
DAV:   2    -0.170451333488E+02   -0.17702E-02   -0.17982E-02   304   0.599E-01    0.676E-02
DAV:   3    -0.170451148025E+02    0.18546E-04   -0.25574E-04   232   0.746E-02
  55 F= -.17045115E+02 E0= -.17045115E+02  d E =-.260899E-02  mag=     2.0000
 curvature: -30.23 expect dE=-0.726E-03 dE for cont linesearch -0.340E-03
 trial: gam= 0.03403 g(F)=  0.240E-04 g(S)=  0.000E+00 ort = 0.437E-04 (trialstep = 0.969E+01)
 search vector abs. value=  0.272E-04
 bond charge predicted
       N       E                     dE             d eps       ncg     rms          rms(c)
DAV:   1    -0.170453461366E+02   -0.21279E-03   -0.17433E-01   304   0.132E+00    0.302E-02
DAV:   2    -0.170454108926E+02   -0.64756E-04   -0.77744E-04   304   0.124E-01
  56 F= -.17045411E+02 E0= -.17045411E+02  d E =-.296090E-03  mag=     2.0000
 ZBRENT: can't locate minimum, use default step
 trial-energy change:   -0.000296  1 .order   -0.000222   -0.000247   -0.000197
 step:  38.7603(harm= 47.8687)  dis= 0.00952  next Energy=   -17.045725 (dE=-0.611E-03)
 bond charge predicted
       N       E                     dE             d eps       ncg     rms          rms(c)
DAV:   1    -0.170454519055E+02   -0.10577E-03   -0.15521E+00   288   0.392E+00    0.579E-02
DAV:   2    -0.170461630179E+02   -0.71111E-03   -0.74744E-03   296   0.380E-01    0.496E-02
DAV:   3    -0.170461508136E+02    0.12204E-04   -0.10379E-04   192   0.460E-02
  57 F= -.17046151E+02 E0= -.17046151E+02  d E =-.103601E-02  mag=     2.0000
 curvature: -24.06 expect dE=-0.199E-02 dE for cont linesearch -0.483E-05
 trial: gam= 3.45663 g(F)=  0.829E-04 g(S)=  0.000E+00 ort = 0.234E-05 (trialstep = 0.994E+00)
 search vector abs. value=  0.424E-03
 reached required accuracy - stopping structural energy minimisation
Application 90920260 resources: utime ~11347s, stime ~206s, Rss ~52464, inblocks ~82503, outblocks ~153918
