  46  46   0   0
  0.2698472E+03  0.2315396E-08  0.2315396E-08  0.2315396E-08  0.1000000E-15
  1.000000000000000E-004
  CAR 
 unknown system                          
      2.03286393    -10.31490386  301     -3.33841506      1.00000000
    -10.315  0.0000E+00  0.0000E+00  0.0000E+00  0.0000E+00
    -10.274  0.0000E+00  0.0000E+00  0.0000E+00  0.0000E+00
    -10.233  0.0000E+00  0.0000E+00  0.0000E+00  0.0000E+00
    -10.191  0.0000E+00  0.0000E+00  0.0000E+00  0.0000E+00
    -10.150  0.0000E+00  0.0000E+00  0.0000E+00  0.0000E+00
    -10.109  0.0000E+00  0.0000E+00  0.0000E+00  0.0000E+00
    -10.068  0.0000E+00  0.0000E+00  0.0000E+00  0.0000E+00
    -10.027  0.0000E+00  0.0000E+00  0.0000E+00  0.0000E+00
     -9.986  0.0000E+00  0.0000E+00  0.0000E+00  0.0000E+00
     -9.944  0.0000E+00  0.0000E+00  0.0000E+00  0.0000E+00
     -9.903  0.0000E+00  0.0000E+00  0.0000E+00  0.0000E+00
     -9.862  0.0000E+00  0.0000E+00  0.0000E+00  0.0000E+00
     -9.821  0.0000E+00  0.0000E+00  0.0000E+00  0.0000E+00
     -9.780  0.0000E+00  0.0000E+00  0.0000E+00  0.0000E+00
     -9.739  0.0000E+00  0.0000E+00  0.1000E-02  0.1000E-02
     -9.698  0.0000E+00  0.0000E+00  0.1000E-02  0.1000E-02
     -9.656  0.0000E+00  0.0000E+00  0.1000E-02  0.1000E-02
     -9.615  0.0000E+00  0.0000E+00  0.1000E-02  0.1000E-02
     -9.574  0.0000E+00  0.0000E+00  0.1000E-02  0.1000E-02
     -9.533  0.0000E+00  0.0000E+00  0.1000E-02  0.1000E-02
     -9.492  0.0000E+00  0.0000E+00  0.1000E-02  0.1000E-02
     -9.451  0.0000E+00  0.0000E+00  0.1000E-02  0.1000E-02
     -9.409  0.0000E+00  0.0000E+00  0.1000E-02  0.1000E-02
     -9.368  0.0000E+00  0.0000E+00  0.1000E-02  0.1000E-02
     -9.327  0.0000E+00  0.0000E+00  0.2000E-02  0.2000E-02
     -9.286  0.0000E+00  0.0000E+00  0.2000E-02  0.2000E-02
     -9.245  0.0000E+00  0.0000E+00  0.2000E-02  0.2000E-02
     -9.204  0.0000E+00  0.0000E+00  0.2000E-02  0.2000E-02
     -9.162  0.0000E+00  0.0000E+00  0.3000E-02  0.3000E-02
     -9.121  0.0000E+00  0.0000E+00  0.4000E-02  0.4000E-02
     -9.080  0.0000E+00  0.0000E+00  0.4000E-02  0.4000E-02
     -9.039  0.1038E-15  0.1038E-15  0.6000E-02  0.6000E-02
     -8.998  0.0000E+00  0.0000E+00  0.7000E-02  0.7000E-02
     -8.957  0.0000E+00  0.0000E+00  0.9000E-02  0.9000E-02
     -8.915  0.0000E+00  0.0000E+00  0.1000E-01  0.1000E-01
     -8.874  0.0000E+00  0.0000E+00  0.1200E-01  0.1200E-01
     -8.833  0.0000E+00  0.0000E+00  0.1400E-01  0.1400E-01
     -8.792  0.0000E+00  0.0000E+00  0.1600E-01  0.1600E-01
     -8.751  0.0000E+00  0.0000E+00  0.1800E-01  0.1800E-01
     -8.710  0.0000E+00  0.0000E+00  0.2000E-01  0.2000E-01
     -8.669  0.0000E+00  0.0000E+00  0.2100E-01  0.2100E-01
     -8.627  0.0000E+00  0.0000E+00  0.2300E-01  0.2300E-01
     -8.586  0.0000E+00  0.0000E+00  0.2700E-01  0.2700E-01
     -8.545  0.0000E+00  0.0000E+00  0.2800E-01  0.2800E-01
     -8.504  0.0000E+00  0.0000E+00  0.3100E-01  0.3100E-01
     -8.463  0.0000E+00  0.0000E+00  0.3500E-01  0.3500E-01
     -8.422  0.0000E+00  0.0000E+00  0.3800E-01  0.3800E-01
     -8.380  0.0000E+00  0.0000E+00  0.4100E-01  0.4100E-01
     -8.339  0.0000E+00  0.0000E+00  0.4300E-01  0.4300E-01
     -8.298  0.0000E+00  0.0000E+00  0.4700E-01  0.4700E-01
     -8.257  0.0000E+00  0.0000E+00  0.4900E-01  0.4900E-01
     -8.216  0.0000E+00  0.0000E+00  0.5100E-01  0.5100E-01
     -8.175  0.0000E+00  0.0000E+00  0.5500E-01  0.5500E-01
     -8.133  0.8981E-04  0.8978E-04  0.5800E-01  0.5800E-01
     -8.092  0.0000E+00  0.0000E+00  0.6100E-01  0.6100E-01
     -8.051  0.0000E+00  0.0000E+00  0.6400E-01  0.6400E-01
     -8.010  0.0000E+00  0.0000E+00  0.6700E-01  0.6700E-01
     -7.969  0.0000E+00  0.0000E+00  0.7000E-01  0.7000E-01
     -7.928  0.0000E+00  0.0000E+00  0.7300E-01  0.7300E-01
     -7.887  0.0000E+00  0.0000E+00  0.7600E-01  0.7600E-01
     -7.845  0.0000E+00  0.0000E+00  0.7900E-01  0.7900E-01
     -7.804  0.0000E+00  0.0000E+00  0.8100E-01  0.8100E-01
     -7.763  0.0000E+00  0.0000E+00  0.8400E-01  0.8400E-01
     -7.722  0.0000E+00  0.0000E+00  0.8900E-01  0.8900E-01
     -7.681  0.0000E+00  0.0000E+00  0.9000E-01  0.9000E-01
     -7.640  0.4458E-04  0.4457E-04  0.9200E-01  0.9200E-01
     -7.598  0.0000E+00  0.0000E+00  0.9500E-01  0.9500E-01
     -7.557  0.2430E-01  0.2430E-01  0.9900E-01  0.9900E-01
     -7.516  0.0000E+00  0.0000E+00  0.1020E+00  0.1020E+00
     -7.475  0.0000E+00  0.0000E+00  0.1050E+00  0.1050E+00
     -7.434  0.0000E+00  0.0000E+00  0.1080E+00  0.1080E+00
     -7.393  0.0000E+00  0.0000E+00  0.1110E+00  0.1110E+00
     -7.351  0.0000E+00  0.0000E+00  0.1130E+00  0.1130E+00
     -7.310  0.0000E+00  0.0000E+00  0.1160E+00  0.1160E+00
     -7.269  0.2430E-01  0.2430E-01  0.1200E+00  0.1200E+00
     -7.228  0.0000E+00  0.0000E+00  0.1220E+00  0.1220E+00
     -7.187  0.0000E+00  0.0000E+00  0.1260E+00  0.1260E+00
     -7.146  0.0000E+00  0.0000E+00  0.1290E+00  0.1290E+00
     -7.104  0.0000E+00  0.0000E+00  0.1310E+00  0.1310E+00
     -7.063  0.0000E+00  0.0000E+00  0.1340E+00  0.1340E+00
     -7.022  0.0000E+00  0.0000E+00  0.1370E+00  0.1370E+00
     -6.981  0.0000E+00  0.0000E+00  0.1400E+00  0.1400E+00
     -6.940  0.0000E+00  0.0000E+00  0.1440E+00  0.1440E+00
     -6.899  0.0000E+00  0.0000E+00  0.1480E+00  0.1480E+00
     -6.858  0.0000E+00  0.0000E+00  0.1530E+00  0.1530E+00
     -6.816  0.0000E+00  0.0000E+00  0.1570E+00  0.1570E+00
     -6.775  0.0000E+00  0.0000E+00  0.1610E+00  0.1610E+00
     -6.734  0.0000E+00  0.0000E+00  0.1660E+00  0.1660E+00
     -6.693  0.0000E+00  0.0000E+00  0.1720E+00  0.1720E+00
     -6.652  0.0000E+00  0.0000E+00  0.1770E+00  0.1770E+00
     -6.611  0.0000E+00  0.0000E+00  0.1820E+00  0.1820E+00
     -6.569  0.0000E+00  0.0000E+00  0.1870E+00  0.1870E+00
     -6.528  0.0000E+00  0.0000E+00  0.1910E+00  0.1910E+00
     -6.487  0.0000E+00  0.0000E+00  0.1970E+00  0.1970E+00
     -6.446  0.3025E-12  0.3019E-12  0.2000E+00  0.2000E+00
     -6.405  0.0000E+00  0.0000E+00  0.2050E+00  0.2050E+00
     -6.364  0.0000E+00  0.0000E+00  0.2090E+00  0.2090E+00
     -6.322  0.0000E+00  0.0000E+00  0.2140E+00  0.2140E+00
     -6.281  0.2430E-01  0.2430E-01  0.2190E+00  0.2190E+00
     -6.240  0.2423E-01  0.2423E-01  0.2230E+00  0.2230E+00
     -6.199  0.2430E-01  0.2430E-01  0.2260E+00  0.2260E+00
     -6.158  0.0000E+00  0.0000E+00  0.2280E+00  0.2280E+00
     -6.117  0.2430E-01  0.2430E-01  0.2300E+00  0.2300E+00
     -6.076  0.0000E+00  0.0000E+00  0.2330E+00  0.2330E+00
     -6.034  0.0000E+00  0.0000E+00  0.2350E+00  0.2350E+00
     -5.993  0.0000E+00  0.0000E+00  0.2360E+00  0.2360E+00
     -5.952  0.0000E+00  0.0000E+00  0.2370E+00  0.2370E+00
     -5.911  0.0000E+00  0.0000E+00  0.2370E+00  0.2370E+00
     -5.870  0.0000E+00  0.0000E+00  0.2370E+00  0.2370E+00
     -5.829  0.0000E+00  0.0000E+00  0.2370E+00  0.2370E+00
     -5.787  0.0000E+00  0.0000E+00  0.2370E+00  0.2370E+00
     -5.746  0.0000E+00  0.0000E+00  0.2370E+00  0.2370E+00
     -5.705  0.0000E+00  0.0000E+00  0.2370E+00  0.2370E+00
     -5.664  0.0000E+00  0.0000E+00  0.2380E+00  0.2380E+00
     -5.623  0.0000E+00  0.0000E+00  0.2380E+00  0.2380E+00
     -5.582  0.0000E+00  0.0000E+00  0.2380E+00  0.2380E+00
     -5.540  0.0000E+00  0.0000E+00  0.2390E+00  0.2390E+00
     -5.499  0.0000E+00  0.0000E+00  0.2390E+00  0.2390E+00
     -5.458  0.0000E+00  0.0000E+00  0.2400E+00  0.2400E+00
     -5.417  0.0000E+00  0.0000E+00  0.2400E+00  0.2400E+00
     -5.376  0.0000E+00  0.0000E+00  0.2400E+00  0.2400E+00
     -5.335  0.0000E+00  0.0000E+00  0.2400E+00  0.2400E+00
     -5.293  0.0000E+00  0.0000E+00  0.2400E+00  0.2400E+00
     -5.252  0.0000E+00  0.0000E+00  0.2400E+00  0.2400E+00
     -5.211  0.0000E+00  0.0000E+00  0.2400E+00  0.2400E+00
     -5.170  0.0000E+00  0.0000E+00  0.2410E+00  0.2410E+00
     -5.129  0.0000E+00  0.0000E+00  0.2410E+00  0.2410E+00
     -5.088  0.0000E+00  0.0000E+00  0.2420E+00  0.2420E+00
     -5.047  0.0000E+00  0.0000E+00  0.2430E+00  0.2430E+00
     -5.005  0.0000E+00  0.0000E+00  0.2430E+00  0.2430E+00
     -4.964  0.0000E+00  0.0000E+00  0.2430E+00  0.2430E+00
     -4.923  0.0000E+00  0.0000E+00  0.2430E+00  0.2430E+00
     -4.882  0.0000E+00  0.0000E+00  0.2430E+00  0.2430E+00
     -4.841  0.0000E+00  0.0000E+00  0.2430E+00  0.2430E+00
     -4.800  0.0000E+00  0.0000E+00  0.2430E+00  0.2430E+00
     -4.758  0.0000E+00  0.0000E+00  0.2430E+00  0.2430E+00
     -4.717  0.0000E+00  0.0000E+00  0.2430E+00  0.2430E+00
     -4.676  0.0000E+00  0.0000E+00  0.2430E+00  0.2430E+00
     -4.635  0.0000E+00  0.0000E+00  0.2440E+00  0.2440E+00
     -4.594  0.0000E+00  0.0000E+00  0.2450E+00  0.2450E+00
     -4.553  0.0000E+00  0.0000E+00  0.2450E+00  0.2450E+00
     -4.511  0.0000E+00  0.0000E+00  0.2450E+00  0.2450E+00
     -4.470  0.0000E+00  0.0000E+00  0.2450E+00  0.2450E+00
     -4.429  0.0000E+00  0.0000E+00  0.2450E+00  0.2450E+00
     -4.388  0.0000E+00  0.0000E+00  0.2450E+00  0.2450E+00
     -4.347  0.0000E+00  0.0000E+00  0.2450E+00  0.2450E+00
     -4.306  0.0000E+00  0.0000E+00  0.2450E+00  0.2450E+00
     -4.264  0.0000E+00  0.0000E+00  0.2450E+00  0.2450E+00
     -4.223  0.0000E+00  0.0000E+00  0.2460E+00  0.2460E+00
     -4.182  0.0000E+00  0.0000E+00  0.2460E+00  0.2460E+00
     -4.141  0.0000E+00  0.0000E+00  0.2460E+00  0.2460E+00
     -4.100  0.0000E+00  0.0000E+00  0.2470E+00  0.2470E+00
     -4.059  0.0000E+00  0.0000E+00  0.2470E+00  0.2470E+00
     -4.018  0.0000E+00  0.0000E+00  0.2480E+00  0.2480E+00
     -3.976  0.0000E+00  0.0000E+00  0.2480E+00  0.2480E+00
     -3.935  0.0000E+00  0.0000E+00  0.2490E+00  0.2490E+00
     -3.894  0.0000E+00  0.0000E+00  0.2490E+00  0.2490E+00
     -3.853  0.0000E+00  0.0000E+00  0.2490E+00  0.2490E+00
     -3.812  0.0000E+00  0.0000E+00  0.2490E+00  0.2490E+00
     -3.771  0.0000E+00  0.0000E+00  0.2490E+00  0.2490E+00
     -3.729  0.0000E+00  0.0000E+00  0.2500E+00  0.2500E+00
     -3.688  0.0000E+00  0.0000E+00  0.2500E+00  0.2500E+00
     -3.647  0.0000E+00  0.0000E+00  0.2510E+00  0.2510E+00
     -3.606  0.0000E+00  0.0000E+00  0.2510E+00  0.2510E+00
     -3.565  0.0000E+00  0.0000E+00  0.2510E+00  0.2510E+00
     -3.524  0.0000E+00  0.0000E+00  0.2510E+00  0.2510E+00
     -3.482  0.0000E+00  0.0000E+00  0.2520E+00  0.2520E+00
     -3.441  0.0000E+00  0.0000E+00  0.2520E+00  0.2520E+00
     -3.400  0.0000E+00  0.0000E+00  0.2520E+00  0.2520E+00
     -3.359  0.1349E-17  0.1349E-17  0.2520E+00  0.2520E+00
     -3.318  0.0000E+00  0.0000E+00  0.2530E+00  0.2530E+00
     -3.277  0.0000E+00  0.0000E+00  0.2530E+00  0.2530E+00
     -3.236  0.0000E+00  0.0000E+00  0.2530E+00  0.2530E+00
     -3.194  0.0000E+00  0.0000E+00  0.2530E+00  0.2530E+00
     -3.153  0.0000E+00  0.0000E+00  0.2530E+00  0.2530E+00
     -3.112  0.0000E+00  0.0000E+00  0.2530E+00  0.2530E+00
     -3.071  0.0000E+00  0.0000E+00  0.2540E+00  0.2540E+00
     -3.030  0.0000E+00  0.0000E+00  0.2540E+00  0.2540E+00
     -2.989  0.0000E+00  0.0000E+00  0.2540E+00  0.2540E+00
     -2.947  0.0000E+00  0.0000E+00  0.2550E+00  0.2550E+00
     -2.906  0.0000E+00  0.0000E+00  0.2550E+00  0.2550E+00
     -2.865  0.0000E+00  0.0000E+00  0.2560E+00  0.2560E+00
     -2.824  0.0000E+00  0.0000E+00  0.2560E+00  0.2560E+00
     -2.783  0.0000E+00  0.0000E+00  0.2570E+00  0.2570E+00
     -2.742  0.0000E+00  0.0000E+00  0.2570E+00  0.2570E+00
     -2.700  0.0000E+00  0.0000E+00  0.2570E+00  0.2570E+00
     -2.659  0.0000E+00  0.0000E+00  0.2570E+00  0.2570E+00
     -2.618  0.0000E+00  0.0000E+00  0.2570E+00  0.2570E+00
     -2.577  0.0000E+00  0.0000E+00  0.2570E+00  0.2570E+00
     -2.536  0.0000E+00  0.0000E+00  0.2590E+00  0.2590E+00
     -2.495  0.0000E+00  0.0000E+00  0.2590E+00  0.2590E+00
     -2.453  0.0000E+00  0.0000E+00  0.2600E+00  0.2600E+00
     -2.412  0.0000E+00  0.0000E+00  0.2600E+00  0.2600E+00
     -2.371  0.0000E+00  0.0000E+00  0.2600E+00  0.2600E+00
     -2.330  0.0000E+00  0.0000E+00  0.2600E+00  0.2600E+00
     -2.289  0.0000E+00  0.0000E+00  0.2600E+00  0.2600E+00
     -2.248  0.0000E+00  0.0000E+00  0.2610E+00  0.2610E+00
     -2.207  0.0000E+00  0.0000E+00  0.2610E+00  0.2610E+00
     -2.165  0.0000E+00  0.0000E+00  0.2620E+00  0.2620E+00
     -2.124  0.0000E+00  0.0000E+00  0.2630E+00  0.2630E+00
     -2.083  0.0000E+00  0.0000E+00  0.2630E+00  0.2630E+00
     -2.042  0.0000E+00  0.0000E+00  0.2640E+00  0.2640E+00
     -2.001  0.0000E+00  0.0000E+00  0.2640E+00  0.2640E+00
     -1.960  0.0000E+00  0.0000E+00  0.2640E+00  0.2640E+00
     -1.918  0.0000E+00  0.0000E+00  0.2650E+00  0.2650E+00
     -1.877  0.0000E+00  0.0000E+00  0.2660E+00  0.2660E+00
     -1.836  0.0000E+00  0.0000E+00  0.2660E+00  0.2660E+00
     -1.795  0.0000E+00  0.0000E+00  0.2670E+00  0.2670E+00
     -1.754  0.0000E+00  0.0000E+00  0.2670E+00  0.2670E+00
     -1.713  0.0000E+00  0.0000E+00  0.2670E+00  0.2670E+00
     -1.671  0.0000E+00  0.0000E+00  0.2680E+00  0.2680E+00
     -1.630  0.0000E+00  0.0000E+00  0.2680E+00  0.2680E+00
     -1.589  0.0000E+00  0.0000E+00  0.2680E+00  0.2680E+00
     -1.548  0.0000E+00  0.0000E+00  0.2690E+00  0.2690E+00
     -1.507  0.0000E+00  0.0000E+00  0.2700E+00  0.2700E+00
     -1.466  0.0000E+00  0.0000E+00  0.2710E+00  0.2710E+00
     -1.425  0.0000E+00  0.0000E+00  0.2710E+00  0.2710E+00
     -1.383  0.0000E+00  0.0000E+00  0.2710E+00  0.2710E+00
     -1.342  0.0000E+00  0.0000E+00  0.2720E+00  0.2720E+00
     -1.301  0.0000E+00  0.0000E+00  0.2730E+00  0.2730E+00
     -1.260  0.0000E+00  0.0000E+00  0.2740E+00  0.2740E+00
     -1.219  0.0000E+00  0.0000E+00  0.2740E+00  0.2740E+00
     -1.178  0.0000E+00  0.0000E+00  0.2740E+00  0.2740E+00
     -1.136  0.0000E+00  0.0000E+00  0.2740E+00  0.2740E+00
     -1.095  0.0000E+00  0.0000E+00  0.2750E+00  0.2750E+00
     -1.054  0.0000E+00  0.0000E+00  0.2750E+00  0.2750E+00
     -1.013  0.0000E+00  0.0000E+00  0.2750E+00  0.2750E+00
     -0.972  0.0000E+00  0.0000E+00  0.2750E+00  0.2750E+00
     -0.931  0.0000E+00  0.0000E+00  0.2760E+00  0.2760E+00
     -0.889  0.0000E+00  0.0000E+00  0.2760E+00  0.2760E+00
     -0.848  0.0000E+00  0.0000E+00  0.2770E+00  0.2770E+00
     -0.807  0.0000E+00  0.0000E+00  0.2790E+00  0.2790E+00
     -0.766  0.0000E+00  0.0000E+00  0.2790E+00  0.2790E+00
     -0.725  0.0000E+00  0.0000E+00  0.2790E+00  0.2790E+00
     -0.684  0.0000E+00  0.0000E+00  0.2790E+00  0.2790E+00
     -0.642  0.0000E+00  0.0000E+00  0.2800E+00  0.2800E+00
     -0.601  0.0000E+00  0.0000E+00  0.2810E+00  0.2810E+00
     -0.560  0.0000E+00  0.0000E+00  0.2810E+00  0.2810E+00
     -0.519  0.0000E+00  0.0000E+00  0.2810E+00  0.2810E+00
     -0.478  0.0000E+00  0.0000E+00  0.2810E+00  0.2810E+00
     -0.437  0.0000E+00  0.0000E+00  0.2820E+00  0.2820E+00
     -0.396  0.0000E+00  0.0000E+00  0.2820E+00  0.2820E+00
     -0.354  0.0000E+00  0.0000E+00  0.2830E+00  0.2830E+00
     -0.313  0.0000E+00  0.0000E+00  0.2830E+00  0.2830E+00
     -0.272  0.0000E+00  0.0000E+00  0.2840E+00  0.2840E+00
     -0.231  0.0000E+00  0.0000E+00  0.2840E+00  0.2840E+00
     -0.190  0.0000E+00  0.0000E+00  0.2850E+00  0.2850E+00
     -0.149  0.0000E+00  0.0000E+00  0.2860E+00  0.2860E+00
     -0.107  0.0000E+00  0.0000E+00  0.2860E+00  0.2860E+00
     -0.066  0.0000E+00  0.0000E+00  0.2860E+00  0.2860E+00
     -0.025  0.0000E+00  0.0000E+00  0.2870E+00  0.2870E+00
      0.016  0.0000E+00  0.0000E+00  0.2870E+00  0.2870E+00
      0.057  0.0000E+00  0.0000E+00  0.2880E+00  0.2880E+00
      0.098  0.0000E+00  0.0000E+00  0.2880E+00  0.2880E+00
      0.140  0.0000E+00  0.0000E+00  0.2890E+00  0.2890E+00
      0.181  0.0000E+00  0.0000E+00  0.2890E+00  0.2890E+00
      0.222  0.0000E+00  0.0000E+00  0.2900E+00  0.2900E+00
      0.263  0.0000E+00  0.0000E+00  0.2900E+00  0.2900E+00
      0.304  0.0000E+00  0.0000E+00  0.2910E+00  0.2910E+00
      0.345  0.0000E+00  0.0000E+00  0.2920E+00  0.2920E+00
      0.386  0.0000E+00  0.0000E+00  0.2920E+00  0.2920E+00
      0.428  0.0000E+00  0.0000E+00  0.2930E+00  0.2930E+00
      0.469  0.0000E+00  0.0000E+00  0.2930E+00  0.2930E+00
      0.510  0.0000E+00  0.0000E+00  0.2940E+00  0.2940E+00
      0.551  0.0000E+00  0.0000E+00  0.2950E+00  0.2950E+00
      0.592  0.0000E+00  0.0000E+00  0.2950E+00  0.2950E+00
      0.633  0.0000E+00  0.0000E+00  0.2970E+00  0.2970E+00
      0.675  0.0000E+00  0.0000E+00  0.2980E+00  0.2980E+00
      0.716  0.0000E+00  0.0000E+00  0.2990E+00  0.2990E+00
      0.757  0.0000E+00  0.0000E+00  0.3000E+00  0.3000E+00
      0.798  0.0000E+00  0.0000E+00  0.3020E+00  0.3020E+00
      0.839  0.0000E+00  0.0000E+00  0.3030E+00  0.3030E+00
      0.880  0.0000E+00  0.0000E+00  0.3030E+00  0.3030E+00
      0.922  0.0000E+00  0.0000E+00  0.3040E+00  0.3040E+00
      0.963  0.0000E+00  0.0000E+00  0.3050E+00  0.3050E+00
      1.004  0.0000E+00  0.0000E+00  0.3070E+00  0.3070E+00
      1.045  0.0000E+00  0.0000E+00  0.3080E+00  0.3080E+00
      1.086  0.0000E+00  0.0000E+00  0.3090E+00  0.3090E+00
      1.127  0.0000E+00  0.0000E+00  0.3110E+00  0.3110E+00
      1.169  0.0000E+00  0.0000E+00  0.3140E+00  0.3140E+00
      1.210  0.0000E+00  0.0000E+00  0.3170E+00  0.3170E+00
      1.251  0.0000E+00  0.0000E+00  0.3180E+00  0.3180E+00
      1.292  0.0000E+00  0.0000E+00  0.3190E+00  0.3190E+00
      1.333  0.0000E+00  0.0000E+00  0.3210E+00  0.3210E+00
      1.374  0.0000E+00  0.0000E+00  0.3220E+00  0.3220E+00
      1.415  0.0000E+00  0.0000E+00  0.3240E+00  0.3240E+00
      1.457  0.0000E+00  0.0000E+00  0.3270E+00  0.3270E+00
      1.498  0.0000E+00  0.0000E+00  0.3280E+00  0.3280E+00
      1.539  0.0000E+00  0.0000E+00  0.3280E+00  0.3280E+00
      1.580  0.0000E+00  0.0000E+00  0.3280E+00  0.3280E+00
      1.621  0.0000E+00  0.0000E+00  0.3280E+00  0.3280E+00
      1.662  0.0000E+00  0.0000E+00  0.3280E+00  0.3280E+00
      1.704  0.0000E+00  0.0000E+00  0.3280E+00  0.3280E+00
      1.745  0.0000E+00  0.0000E+00  0.3280E+00  0.3280E+00
      1.786  0.0000E+00  0.0000E+00  0.3280E+00  0.3280E+00
      1.827  0.0000E+00  0.0000E+00  0.3280E+00  0.3280E+00
      1.868  0.0000E+00  0.0000E+00  0.3280E+00  0.3280E+00
      1.909  0.0000E+00  0.0000E+00  0.3280E+00  0.3280E+00
      1.951  0.0000E+00  0.0000E+00  0.3280E+00  0.3280E+00
      1.992  0.0000E+00  0.0000E+00  0.3280E+00  0.3280E+00
      2.033  0.0000E+00  0.0000E+00  0.3280E+00  0.3280E+00
