   50   50 1000    2
  0.2879190E+03  0.2432653E-08  0.2432653E-08  0.2432653E-08  0.1000000E-15
  1.000000000000000E-004
  CAR 
 unknown system                          
    550      1    356
 
  0.0000000E+00  0.0000000E+00  0.0000000E+00  0.1000000E+01
    1       -9.817055     -9.817055
    2       -9.333597     -9.333597
    3       -9.222377     -9.222377
    4       -9.147312     -9.147312
    5       -9.105230     -9.105230
    6       -9.097148     -9.097148
    7       -9.082031     -9.082031
    8       -9.046003     -9.046003
    9       -9.024079     -9.024079
   10       -9.005241     -9.005241
   11       -8.988176     -8.988176
   12       -8.963940     -8.963940
   13       -8.940345     -8.940345
   14       -8.907855     -8.907855
   15       -8.884434     -8.884434
   16       -8.879134     -8.879134
   17       -8.864454     -8.864454
   18       -8.848530     -8.848530
   19       -8.814963     -8.814963
   20       -8.791109     -8.791109
   21       -8.782662     -8.782662
   22       -8.768387     -8.768387
   23       -8.745327     -8.745327
   24       -8.732267     -8.732267
   25       -8.717603     -8.717603
   26       -8.696828     -8.696828
   27       -8.673284     -8.673284
   28       -8.656497     -8.656497
   29       -8.650496     -8.650496
   30       -8.642026     -8.642026
   31       -8.632824     -8.632824
   32       -8.627002     -8.627002
   33       -8.586828     -8.586828
   34       -8.581959     -8.581959
   35       -8.561668     -8.561668
   36       -8.549899     -8.549899
   37       -8.525670     -8.525670
   38       -8.496475     -8.496475
   39       -8.477634     -8.477634
   40       -8.454296     -8.454296
   41       -8.448359     -8.448359
   42       -8.436151     -8.436151
   43       -8.428003     -8.428003
   44       -8.403786     -8.403786
   45       -8.394550     -8.394550
   46       -8.378195     -8.378195
   47       -8.375489     -8.375489
   48       -8.354072     -8.354072
   49       -8.346967     -8.346967
   50       -8.336369     -8.336369
   51       -8.327967     -8.327967
   52       -8.323714     -8.323714
   53       -8.314065     -8.314065
   54       -8.293250     -8.293250
   55       -8.282458     -8.282458
   56       -8.276076     -8.276076
   57       -8.251769     -8.251769
   58       -8.244549     -8.244549
   59       -8.231588     -8.231588
   60       -8.221416     -8.221416
   61       -8.199964     -8.199964
   62       -8.192892     -8.192892
   63       -8.185255     -8.185255
   64       -8.182248     -8.182248
   65       -8.167141     -8.167141
   66       -8.158389     -8.158389
   67       -8.141276     -8.141276
   68       -8.133230     -8.133230
   69       -8.121596     -8.121596
   70       -8.114634     -8.114635
   71       -8.092870     -8.092870
   72       -8.072276     -8.072276
   73       -8.066126     -8.066126
   74       -8.039599     -8.039599
   75       -8.032917     -8.032917
   76       -8.020471     -8.020471
   77       -8.002660     -8.002660
   78       -7.995671     -7.995671
   79       -7.991305     -7.991305
   80       -7.975153     -7.975153
   81       -7.966668     -7.966668
   82       -7.940066     -7.940066
   83       -7.925379     -7.925379
   84       -7.916668     -7.916668
   85       -7.910135     -7.910135
   86       -7.899405     -7.899405
   87       -7.887474     -7.887474
   88       -7.871102     -7.871102
   89       -7.855589     -7.855589
   90       -7.844109     -7.844109
   91       -7.826610     -7.826610
   92       -7.817544     -7.817544
   93       -7.800782     -7.800782
   94       -7.793659     -7.793659
   95       -7.781046     -7.781046
   96       -7.772653     -7.772653
   97       -7.757196     -7.757196
   98       -7.736712     -7.736712
   99       -7.728570     -7.728570
  100       -7.714963     -7.714963
  101       -7.713053     -7.713053
  102       -7.699863     -7.699863
  103       -7.679889     -7.679889
  104       -7.661928     -7.661928
  105       -7.641021     -7.641021
  106       -7.639207     -7.639207
  107       -7.622381     -7.622381
  108       -7.610021     -7.610021
  109       -7.603788     -7.603788
  110       -7.590588     -7.590588
  111       -7.586416     -7.586416
  112       -7.563655     -7.563655
  113       -7.552941     -7.552941
  114       -7.544558     -7.544558
  115       -7.533464     -7.533464
  116       -7.527201     -7.527201
  117       -7.498666     -7.498666
  118       -7.489573     -7.489573
  119       -7.480567     -7.480567
  120       -7.448464     -7.448464
  121       -7.439538     -7.439538
  122       -7.438240     -7.438240
  123       -7.432569     -7.432569
  124       -7.424929     -7.424929
  125       -7.399224     -7.399224
  126       -7.396199     -7.396199
  127       -7.382832     -7.382832
  128       -7.372929     -7.372929
  129       -7.354848     -7.354848
  130       -7.344330     -7.344330
  131       -7.325942     -7.325942
  132       -7.312805     -7.312805
  133       -7.298903     -7.298903
  134       -7.287484     -7.287484
  135       -7.281964     -7.281964
  136       -7.257206     -7.257206
  137       -7.226894     -7.226894
  138       -7.220209     -7.220209
  139       -7.204095     -7.204095
  140       -7.193709     -7.193709
  141       -7.174396     -7.174396
  142       -7.161844     -7.161844
  143       -7.150059     -7.150059
  144       -7.132105     -7.132105
  145       -7.120367     -7.120367
  146       -7.113328     -7.113328
  147       -7.102698     -7.102698
  148       -7.090485     -7.090485
  149       -7.069076     -7.069076
  150       -7.067369     -7.067369
  151       -7.055321     -7.055321
  152       -7.048624     -7.048624
  153       -7.047493     -7.047493
  154       -7.031300     -7.031300
  155       -7.024439     -7.024439
  156       -7.016169     -7.016169
  157       -7.007279     -7.007279
  158       -6.998280     -6.998280
  159       -6.989729     -6.989729
  160       -6.979168     -6.979168
  161       -6.968036     -6.968036
  162       -6.964067     -6.964067
  163       -6.947764     -6.947764
  164       -6.943484     -6.943484
  165       -6.924742     -6.924742
  166       -6.922813     -6.922813
  167       -6.917696     -6.917696
  168       -6.901443     -6.901443
  169       -6.891795     -6.891795
  170       -6.887847     -6.887847
  171       -6.881965     -6.881965
  172       -6.875369     -6.875369
  173       -6.869001     -6.869001
  174       -6.860392     -6.860392
  175       -6.852021     -6.852021
  176       -6.847709     -6.847709
  177       -6.837185     -6.837185
  178       -6.824055     -6.824055
  179       -6.818161     -6.818161
  180       -6.808869     -6.808869
  181       -6.805839     -6.805839
  182       -6.797968     -6.797968
  183       -6.787792     -6.787792
  184       -6.780648     -6.780648
  185       -6.773439     -6.773439
  186       -6.763658     -6.763658
  187       -6.761671     -6.761671
  188       -6.754015     -6.754015
  189       -6.745538     -6.745538
  190       -6.737917     -6.737917
  191       -6.723138     -6.723138
  192       -6.708383     -6.708383
  193       -6.706476     -6.706476
  194       -6.696065     -6.696065
  195       -6.693728     -6.693728
  196       -6.687016     -6.687016
  197       -6.685508     -6.685508
  198       -6.674575     -6.674575
  199       -6.662401     -6.662401
  200       -6.660350     -6.660350
  201       -6.646697     -6.646697
  202       -6.643056     -6.643056
  203       -6.636570     -6.636570
  204       -6.623237     -6.623237
  205       -6.605824     -6.605824
  206       -6.601326     -6.601326
  207       -6.594084     -6.594084
  208       -6.588867     -6.588867
  209       -6.579315     -6.579315
  210       -6.574563     -6.574563
  211       -6.558194     -6.558194
  212       -6.550729     -6.550729
  213       -6.547276     -6.547276
  214       -6.540591     -6.540591
  215       -6.521599     -6.521599
  216       -6.512990     -6.512990
  217       -6.502880     -6.502880
  218       -6.498027     -6.498027
  219       -6.486742     -6.486742
  220       -6.479930     -6.479930
  221       -6.469262     -6.469262
  222       -6.466365     -6.466365
  223       -6.461998     -6.461998
  224       -6.454922     -6.454922
  225       -6.447689     -6.447689
  226       -6.433503     -6.433503
  227       -6.424287     -6.424287
  228       -6.417972     -6.417972
  229       -6.412310     -6.412310
  230       -6.401052     -6.401052
  231       -6.396452     -6.396452
  232       -6.383588     -6.383588
  233       -6.373117     -6.373117
  234       -6.369106     -6.369106
  235       -6.359287     -6.359287
  236       -6.351063     -6.351063
  237       -6.339565     -6.339565
  238       -6.330379     -6.330379
  239       -6.313336     -6.313336
  240       -6.311269     -6.311269
  241       -6.300899     -6.300899
  242       -6.285364     -6.285364
  243       -6.275932     -6.275932
  244       -6.267677     -6.267677
  245       -6.263422     -6.263422
  246       -6.249376     -6.249376
  247       -6.243375     -6.243375
  248       -6.229101     -6.229101
  249       -6.209682     -6.209682
  250       -6.206336     -6.206336
  251       -6.184766     -6.184766
  252       -6.170320     -6.170320
  253       -6.155007     -6.155007
  254       -6.145233     -6.145233
  255       -6.128500     -6.128500
  256       -6.106368     -6.106368
  257       -6.061584     -6.061584
  258       -5.915621     -5.915621
  259       -5.870800     -5.870800
  260       -5.614201     -5.614201
  261       -5.310562     -5.310562
  262       -5.139297     -5.139297
  263       -5.118375     -5.118375
  264       -5.082211     -5.082211
  265       -4.880095     -4.880095
  266       -4.618551     -4.618551
  267       -4.554678     -4.554678
  268       -4.325500     -4.325500
  269       -4.078493     -4.078493
  270       -3.936292     -3.936292
  271       -3.781555     -3.781555
  272       -3.704977     -3.704977
  273       -3.647644     -3.647644
  274       -3.551117     -3.551117
  275       -3.523426     -3.523426
  276       -3.255519     -3.255519
  277       -3.166563     -3.166563
  278       -3.048969     -3.048969
  279       -2.918786     -2.918786
  280       -2.786940     -2.786940
  281       -2.711586     -2.711586
  282       -2.507149     -2.507149
  283       -2.412698     -2.412698
  284       -2.269152     -2.269152
  285       -2.196584     -2.196584
  286       -2.105431     -2.105431
  287       -2.071601     -2.071601
  288       -1.983733     -1.983733
  289       -1.931892     -1.931892
  290       -1.867516     -1.867516
  291       -1.814556     -1.814556
  292       -1.760823     -1.760823
  293       -1.653263     -1.653263
  294       -1.569445     -1.569445
  295       -1.479389     -1.479389
  296       -1.405780     -1.405780
  297       -1.285440     -1.285439
  298       -1.211148     -1.211148
  299       -1.187996     -1.187995
  300       -0.996805     -0.996805
  301       -0.956228     -0.956228
  302       -0.821739     -0.821739
  303       -0.767582     -0.767583
  304       -0.721206     -0.721206
  305       -0.684415     -0.684415
  306       -0.612488     -0.612488
  307       -0.495837     -0.495837
  308       -0.436751     -0.436751
  309       -0.376655     -0.376655
  310       -0.319538     -0.319537
  311       -0.262104     -0.262104
  312       -0.216005     -0.216005
  313       -0.149955     -0.149955
  314       -0.078282     -0.078282
  315        0.009747      0.009748
  316        0.072977      0.072977
  317        0.144575      0.144575
  318        0.200643      0.200643
  319        0.306110      0.306110
  320        0.384585      0.384587
  321        0.459023      0.459025
  322        0.488734      0.488729
  323        0.611885      0.611883
  324        0.636972      0.636969
  325        0.669507      0.669504
  326        0.705173      0.705177
  327        0.742532      0.742526
  328        0.783191      0.783189
  329        0.819951      0.819950
  330        0.852238      0.852239
  331        0.867781      0.867779
  332        0.883757      0.883758
  333        0.924061      0.924061
  334        0.954204      0.954204
  335        0.976943      0.976944
  336        0.987542      0.987541
  337        1.004909      1.004907
  338        1.020718      1.020720
  339        1.033218      1.033219
  340        1.059579      1.059575
  341        1.081151      1.081152
  342        1.118007      1.118007
  343        1.140478      1.140480
  344        1.156561      1.156562
  345        1.211594      1.211593
  346        1.218462      1.218464
  347        1.238934      1.238935
  348        1.257412      1.257415
  349        1.268529      1.268527
  350        1.280715      1.280714
  351        1.297322      1.297321
  352        1.311425      1.311423
  353        1.315724      1.315725
  354        1.345470      1.345471
  355        1.359833      1.359834
  356        1.374958      1.374958
