       N       E                     dE             d eps       ncg     rms          rms(c)
DAV:   1     0.466982235064E+04    0.46698E+04   -0.11038E+05  1440   0.614E+02
DAV:   2     0.820245161078E+03   -0.38496E+04   -0.34483E+04  2320   0.162E+02
DAV:   3    -0.693483480071E+02   -0.88959E+03   -0.81545E+03  1784   0.849E+01
DAV:   4    -0.108191779316E+03   -0.38843E+02   -0.38438E+02  1552   0.189E+01
DAV:   5    -0.108761634073E+03   -0.56985E+00   -0.56926E+00  1592   0.270E+00    0.408E+01
DAV:   6    -0.517749827364E+02    0.56987E+02   -0.18265E+02  1424   0.163E+01    0.217E+01
DAV:   7    -0.437135652753E+02    0.80614E+01   -0.95708E+00  1520   0.443E+00    0.136E+01
DAV:   8    -0.344928172997E+02    0.92207E+01   -0.34285E+00  1540   0.313E+00    0.754E+00
DAV:   9    -0.380131656652E+02   -0.35203E+01   -0.97192E-01  1568   0.142E+00    0.504E+00
DAV:  10    -0.526437994750E+02   -0.14631E+02   -0.40853E+00  1472   0.254E+00    0.424E+00
DAV:  11    -0.637937163998E+02   -0.11150E+02   -0.44084E+00  1504   0.289E+00    0.301E+00
DAV:  12    -0.778768389886E+02   -0.14083E+02   -0.59037E+00  1448   0.238E+00    0.308E+00
DAV:  13    -0.810116826295E+02   -0.31348E+01   -0.68804E-01  1584   0.115E+00    0.245E+00
DAV:  14    -0.889491902757E+02   -0.79375E+01   -0.26532E+00  1460   0.175E+00    0.223E+00
DAV:  15    -0.920141602124E+02   -0.30650E+01   -0.51207E-01  1536   0.108E+00    0.167E+00
DAV:  16    -0.974919038801E+02   -0.54777E+01   -0.12561E+00  1456   0.112E+00    0.108E+00
DAV:  17    -0.101212873561E+03   -0.37210E+01   -0.62504E-01  1436   0.719E-01    0.759E-01
DAV:  18    -0.103070073508E+03   -0.18572E+01   -0.15084E-01  1472   0.405E-01    0.117E+00
DAV:  19    -0.103373751033E+03   -0.30368E+00   -0.90254E-03  1584   0.184E-01    0.101E+00
DAV:  20    -0.104322036303E+03   -0.94829E+00   -0.45341E-02  1480   0.355E-01    0.668E-01
DAV:  21    -0.105848913568E+03   -0.15269E+01   -0.10310E-01  1488   0.479E-01    0.245E-01
DAV:  22    -0.106240662630E+03   -0.39175E+00   -0.11902E-02  1520   0.152E-01    0.183E-01
DAV:  23    -0.106511333315E+03   -0.27067E+00   -0.51254E-03  1488   0.933E-02    0.110E-01
DAV:  24    -0.106680955139E+03   -0.16962E+00   -0.41524E-03  1516   0.748E-02    0.607E-02
DAV:  25    -0.106731592726E+03   -0.50638E-01   -0.58684E-04  1024   0.319E-02    0.440E-02
DAV:  26    -0.106757229805E+03   -0.25637E-01   -0.56596E-04   992   0.265E-02    0.302E-02
DAV:  27    -0.106777630591E+03   -0.20401E-01   -0.56382E-04  1008   0.228E-02    0.179E-02
DAV:  28    -0.106785918898E+03   -0.82883E-02   -0.14166E-04  1008   0.121E-02    0.137E-02
DAV:  29    -0.106793143947E+03   -0.72250E-02   -0.78468E-05  1000   0.872E-03    0.114E-02
DAV:  30    -0.106799108987E+03   -0.59650E-02   -0.69263E-05   980   0.708E-03    0.812E-03
DAV:  31    -0.106801032485E+03   -0.19235E-02   -0.10047E-05   976   0.466E-03    0.471E-03
DAV:  32    -0.106802440418E+03   -0.14079E-02   -0.94757E-06   944   0.451E-03    0.253E-03
DAV:  33    -0.106802950428E+03   -0.51001E-03   -0.32667E-06   940   0.223E-03    0.214E-03
DAV:  34    -0.106803146117E+03   -0.19569E-03   -0.88187E-07   912   0.136E-03    0.144E-03
DAV:  35    -0.106803343319E+03   -0.19720E-03   -0.77043E-07   920   0.128E-03    0.813E-04
DAV:  36    -0.106803454218E+03   -0.11090E-03   -0.37367E-07   912   0.650E-04    0.618E-04
DAV:  37    -0.106803524841E+03   -0.70622E-04   -0.23054E-07   904   0.488E-04
   1 F= -.10680352E+03 E0= -.10680352E+03  d E =-.106804E+03  mag=     2.0009
       N       E                     dE             d eps       ncg     rms          rms(c)
DAV:   1    -0.106847388091E+03   -0.43934E-01   -0.31073E+00  1468   0.255E+00    0.100E-01
DAV:   2    -0.106848785271E+03   -0.13972E-02   -0.14228E-02  1504   0.243E-01    0.793E-02
DAV:   3    -0.106848756196E+03    0.29075E-04   -0.22411E-04   928   0.335E-02
   2 F= -.10684876E+03 E0= -.10684876E+03  d E =-.452314E-01  mag=     2.0006
       N       E                     dE             d eps       ncg     rms          rms(c)
DAV:   1    -0.106958070696E+03   -0.10929E+00   -0.28027E+01  1424   0.765E+00    0.302E-01
DAV:   2    -0.106970568519E+03   -0.12498E-01   -0.12792E-01  1504   0.728E-01    0.239E-01
DAV:   3    -0.106970299373E+03    0.26915E-03   -0.21799E-03  1528   0.991E-02    0.160E-01
DAV:   4    -0.106969962211E+03    0.33716E-03   -0.10995E-03  1488   0.544E-02    0.466E-02
DAV:   5    -0.106969963511E+03   -0.13003E-05   -0.63660E-05   944   0.190E-02
   3 F= -.10696996E+03 E0= -.10696996E+03  d E =-.166439E+00  mag=     2.0003
       N       E                     dE             d eps       ncg     rms          rms(c)
DAV:   1    -0.107102032017E+03   -0.13207E+00   -0.11203E+02  1424   0.153E+01    0.566E-01
DAV:   2    -0.107152632761E+03   -0.50601E-01   -0.51365E-01  1460   0.146E+00    0.457E-01
DAV:   3    -0.107151725767E+03    0.90699E-03   -0.85766E-03  1508   0.195E-01    0.311E-01
DAV:   4    -0.107150416370E+03    0.13094E-02   -0.39549E-03  1476   0.103E-01    0.107E-01
DAV:   5    -0.107150471973E+03   -0.55602E-04   -0.43097E-04  1432   0.413E-02
   4 F= -.10715047E+03 E0= -.10715047E+03  d E =-.346947E+00  mag=     2.0002
       N       E                     dE             d eps       ncg     rms          rms(c)
DAV:   1    -0.107070174875E+03    0.80241E-01   -0.45053E+02  1424   0.308E+01    0.112E+00
DAV:   2    -0.107276463358E+03   -0.20629E+00   -0.20893E+00  1480   0.295E+00    0.888E-01
DAV:   3    -0.107273149053E+03    0.33143E-02   -0.34275E-02  1528   0.390E-01    0.608E-01
DAV:   4    -0.107268097178E+03    0.50519E-02   -0.13764E-02  1476   0.192E-01    0.237E-01
DAV:   5    -0.107268283393E+03   -0.18621E-03   -0.22151E-03  1512   0.861E-02    0.779E-02
DAV:   6    -0.107268289428E+03   -0.60345E-05   -0.30650E-04  1032   0.273E-02
   5 F= -.10726829E+03 E0= -.10726829E+03  d E =-.464765E+00  mag=     2.0001
       N       E                     dE             d eps       ncg     rms          rms(c)
DAV:   1    -0.107351520421E+03   -0.83237E-01   -0.78136E+01  1424   0.127E+01    0.387E-01
DAV:   2    -0.107387452075E+03   -0.35932E-01   -0.35790E-01  1492   0.123E+00    0.372E-01
DAV:   3    -0.107387067777E+03    0.38430E-03   -0.58255E-03  1520   0.162E-01    0.269E-01
DAV:   4    -0.107385943436E+03    0.11243E-02   -0.21854E-03  1488   0.727E-02    0.138E-01
DAV:   5    -0.107385971825E+03   -0.28389E-04   -0.11557E-03  1504   0.539E-02    0.482E-02
DAV:   6    -0.107386007981E+03   -0.36156E-04   -0.58552E-05   920   0.118E-02
   6 F= -.10738601E+03 E0= -.10738601E+03  d E =-.117719E+00  mag=     2.0000
       N       E                     dE             d eps       ncg     rms          rms(c)
DAV:   1    -0.107221896900E+03    0.16407E+00   -0.71205E+02  1424   0.388E+01    0.114E+00
DAV:   2    -0.107550437242E+03   -0.32854E+00   -0.33047E+00  1504   0.376E+00    0.114E+00
DAV:   3    -0.107547369678E+03    0.30676E-02   -0.53931E-02  1536   0.493E-01    0.822E-01
DAV:   4    -0.107537410337E+03    0.99593E-02   -0.14101E-02  1480   0.189E-01    0.501E-01
DAV:   5    -0.107535728360E+03    0.16820E-02   -0.13070E-02  1504   0.178E-01    0.161E-01
DAV:   6    -0.107535755603E+03   -0.27242E-04   -0.34872E-04  1080   0.303E-02
   7 F= -.10753576E+03 E0= -.10753576E+03  d E =-.267466E+00  mag=     2.0000
       N       E                     dE             d eps       ncg     rms          rms(c)
DAV:   1    -0.107586827360E+03   -0.51099E-01   -0.67184E+01  1424   0.118E+01    0.377E-01
DAV:   2    -0.107617232325E+03   -0.30405E-01   -0.30418E-01  1504   0.112E+00    0.314E-01
DAV:   3    -0.107616758330E+03    0.47400E-03   -0.47853E-03  1512   0.142E-01    0.221E-01
DAV:   4    -0.107615967493E+03    0.79084E-03   -0.20614E-03  1512   0.716E-02    0.895E-02
DAV:   5    -0.107616053756E+03   -0.86263E-04   -0.47297E-04  1504   0.373E-02
   8 F= -.10761605E+03 E0= -.10761605E+03  d E =-.802982E-01  mag=     2.0000
       N       E                     dE             d eps       ncg     rms          rms(c)
DAV:   1    -0.107533119306E+03    0.82848E-01   -0.28229E+02  1424   0.244E+01    0.792E-01
DAV:   2    -0.107662535986E+03   -0.12942E+00   -0.12902E+00  1492   0.231E+00    0.634E-01
DAV:   3    -0.107660546824E+03    0.19892E-02   -0.20441E-02  1504   0.295E-01    0.443E-01
DAV:   4    -0.107657093962E+03    0.34529E-02   -0.80794E-03  1500   0.143E-01    0.181E-01
DAV:   5    -0.107657087117E+03    0.68448E-05   -0.18693E-03  1496   0.749E-02    0.638E-02
DAV:   6    -0.107657103981E+03   -0.16864E-04   -0.19280E-04   992   0.221E-02
   9 F= -.10765710E+03 E0= -.10765710E+03  d E =-.121348E+00  mag=     2.0000
       N       E                     dE             d eps       ncg     rms          rms(c)
DAV:   1    -0.107655020258E+03    0.20669E-02   -0.16274E+01  1424   0.583E+00    0.182E-01
DAV:   2    -0.107662557979E+03   -0.75377E-02   -0.73362E-02  1528   0.549E-01    0.150E-01
DAV:   3    -0.107662538191E+03    0.19787E-04   -0.11719E-03  1560   0.701E-02    0.107E-01
DAV:   4    -0.107662584550E+03   -0.46358E-04   -0.54795E-04  1484   0.364E-02
  10 F= -.10766258E+03 E0= -.10766258E+03  d E =-.126829E+00  mag=     2.0000
       N       E                     dE             d eps       ncg     rms          rms(c)
DAV:   1    -0.107682343766E+03   -0.19806E-01   -0.70085E+01  1424   0.121E+01    0.347E-01
DAV:   2    -0.107714541779E+03   -0.32198E-01   -0.31822E-01  1492   0.115E+00    0.310E-01
DAV:   3    -0.107714025256E+03    0.51652E-03   -0.49866E-03  1520   0.148E-01    0.223E-01
DAV:   4    -0.107713070040E+03    0.95522E-03   -0.20290E-03  1476   0.693E-02    0.524E-01
DAV:   5    -0.107712519635E+03    0.55040E-03   -0.93796E-05   952   0.327E-02    0.109E-01
DAV:   6    -0.107712598523E+03   -0.78887E-04   -0.88174E-04  1512   0.482E-02
  11 F= -.10771260E+03 E0= -.10771259E+03  d E =-.500140E-01  mag=     1.9866
       N       E                     dE             d eps       ncg     rms          rms(c)
DAV:   1    -0.107640690249E+03    0.71829E-01   -0.25324E+02  1424   0.230E+01    0.137E+00
DAV:   2    -0.107638916360E+03    0.17739E-02   -0.12980E+00  1464   0.248E+00    0.139E+00
DAV:   3    -0.107679717347E+03   -0.40801E-01   -0.55437E-02  1488   0.789E-01    0.902E-01
DAV:   4    -0.107635401839E+03    0.44316E-01   -0.56413E-03  1544   0.186E-01    0.716E-01
DAV:   5    -0.107465053639E+03    0.17035E+00   -0.33580E-02  1488   0.469E-01    0.943E-01
DAV:   6    -0.107568786853E+03   -0.10373E+00   -0.15916E-02  1452   0.411E-01    0.495E-01
DAV:   7    -0.107582228576E+03   -0.13442E-01   -0.12110E-03  1568   0.669E-02    0.459E-01
DAV:   8    -0.107621817182E+03   -0.39589E-01   -0.19676E-03  1284   0.485E-02    0.416E-01
DAV:   9    -0.107652277376E+03   -0.30460E-01   -0.11863E-03  1176   0.455E-02    0.366E-01
DAV:  10    -0.107692781005E+03   -0.40504E-01   -0.21382E-03  1484   0.789E-02    0.281E-01
DAV:  11    -0.107719661922E+03   -0.26881E-01   -0.16903E-03  1552   0.901E-02    0.187E-01
DAV:  12    -0.107739733446E+03   -0.20072E-01   -0.13565E-03  1520   0.821E-02    0.102E-01
DAV:  13    -0.107750151199E+03   -0.10418E-01   -0.70870E-04  1104   0.503E-02    0.506E-02
DAV:  14    -0.107752241723E+03   -0.20905E-02   -0.15469E-04  1040   0.139E-02    0.429E-02
DAV:  15    -0.107751493640E+03    0.74808E-03   -0.27366E-04   960   0.884E-03    0.477E-02
DAV:  16    -0.107751492983E+03    0.65757E-06   -0.36878E-05   968   0.370E-03
  12 F= -.10775149E+03 E0= -.10775149E+03  d E =-.889084E-01  mag=     0.0704
       N       E                     dE             d eps       ncg     rms          rms(c)
DAV:   1    -0.107768846443E+03   -0.17353E-01   -0.46315E+01  1432   0.982E+00    0.275E-01
DAV:   2    -0.107792003198E+03   -0.23157E-01   -0.21050E-01  1476   0.937E-01    0.245E-01
DAV:   3    -0.107792367725E+03   -0.36453E-03   -0.33643E-03  1568   0.124E-01    0.177E-01
DAV:   4    -0.107793258256E+03   -0.89053E-03   -0.11806E-03  1484   0.550E-02    0.884E-02
DAV:   5    -0.107795169542E+03   -0.19113E-02   -0.80584E-04  1488   0.473E-02    0.314E-02
DAV:   6    -0.107795717021E+03   -0.54748E-03   -0.28292E-05   952   0.118E-02    0.212E-02
DAV:   7    -0.107796571993E+03   -0.85497E-03   -0.30720E-05   912   0.889E-03    0.751E-03
DAV:   8    -0.107797354974E+03   -0.78298E-03   -0.88892E-06   932   0.461E-03    0.419E-03
DAV:   9    -0.107797948199E+03   -0.59323E-03   -0.45818E-06   912   0.265E-03    0.355E-03
DAV:  10    -0.107798812411E+03   -0.86421E-03   -0.11891E-05   928   0.253E-03    0.221E-03
DAV:  11    -0.107799285866E+03   -0.47346E-03   -0.83756E-06   960   0.200E-03    0.127E-03
DAV:  12    -0.107799471061E+03   -0.18519E-03   -0.36977E-06   952   0.135E-03    0.577E-04
DAV:  13    -0.107799509382E+03   -0.38322E-04   -0.79865E-07   924   0.747E-04
  13 F= -.10779951E+03 E0= -.10779951E+03  d E =-.480164E-01  mag=     0.0006
       N       E                     dE             d eps       ncg     rms          rms(c)
DAV:   1    -0.107732837738E+03    0.66633E-01   -0.21527E+02  1424   0.212E+01    0.652E-01
DAV:   2    -0.107832907297E+03   -0.10007E+00   -0.98937E-01  1492   0.203E+00    0.524E-01
DAV:   3    -0.107830998435E+03    0.19089E-02   -0.15696E-02  1504   0.267E-01    0.366E-01
DAV:   4    -0.107827989977E+03    0.30085E-02   -0.63440E-03  1476   0.122E-01    0.158E-01
DAV:   5    -0.107827934104E+03    0.55873E-04   -0.21437E-03  1512   0.739E-02    0.567E-02
DAV:   6    -0.107827874412E+03    0.59692E-04   -0.16726E-04   936   0.206E-02
  14 F= -.10782787E+03 E0= -.10782787E+03  d E =-.763814E-01  mag=     0.0003
       N       E                     dE             d eps       ncg     rms          rms(c)
DAV:   1    -0.107848809206E+03   -0.20875E-01   -0.29159E+01  1432   0.780E+00    0.228E-01
DAV:   2    -0.107861856593E+03   -0.13047E-01   -0.13013E-01  1472   0.735E-01    0.207E-01
DAV:   3    -0.107861657683E+03    0.19891E-03   -0.21354E-03  1528   0.945E-02    0.149E-01
DAV:   4    -0.107861240656E+03    0.41703E-03   -0.88051E-04  1480   0.469E-02    0.694E-02
DAV:   5    -0.107861247293E+03   -0.66376E-05   -0.34305E-04  1152   0.310E-02
  15 F= -.10786125E+03 E0= -.10786125E+03  d E =-.333729E-01  mag=     0.0001
       N       E                     dE             d eps       ncg     rms          rms(c)
DAV:   1    -0.107825390776E+03    0.35850E-01   -0.14872E+02  1424   0.177E+01    0.521E-01
DAV:   2    -0.107892214776E+03   -0.66824E-01   -0.66588E-01  1468   0.166E+00    0.464E-01
DAV:   3    -0.107891229218E+03    0.98556E-03   -0.10870E-02  1520   0.213E-01    0.331E-01
DAV:   4    -0.107889136014E+03    0.20932E-02   -0.42756E-03  1464   0.104E-01    0.155E-01
DAV:   5    -0.107889111517E+03    0.24497E-04   -0.17122E-03  1504   0.674E-02    0.559E-02
DAV:   6    -0.107889066423E+03    0.45095E-04   -0.11474E-04   888   0.167E-02
  16 F= -.10788907E+03 E0= -.10788907E+03  d E =-.611920E-01  mag=     0.0001
       N       E                     dE             d eps       ncg     rms          rms(c)
DAV:   1    -0.107895553287E+03   -0.64418E-02   -0.44283E+01  1424   0.962E+00    0.264E-01
DAV:   2    -0.107915207513E+03   -0.19654E-01   -0.19530E-01  1496   0.896E-01    0.251E-01
DAV:   3    -0.107914866032E+03    0.34148E-03   -0.28742E-03  1504   0.106E-01    0.190E-01
DAV:   4    -0.107914118648E+03    0.74738E-03   -0.14697E-03  1488   0.595E-02    0.867E-02
DAV:   5    -0.107914107710E+03    0.10938E-04   -0.58718E-04  1504   0.394E-02
  17 F= -.10791411E+03 E0= -.10791411E+03  d E =-.250413E-01  mag=     0.0000
       N       E                     dE             d eps       ncg     rms          rms(c)
DAV:   1    -0.107806248791E+03    0.10787E+00   -0.24177E+02  1424   0.225E+01    0.604E-01
DAV:   2    -0.107914615728E+03   -0.10837E+00   -0.10722E+00  1496   0.211E+00    0.583E-01
DAV:   3    -0.107913054194E+03    0.15615E-02   -0.15830E-02  1496   0.250E-01    0.441E-01
DAV:   4    -0.107909217674E+03    0.38365E-02   -0.64196E-03  1504   0.126E-01    0.227E-01
DAV:   5    -0.107908940084E+03    0.27759E-03   -0.38095E-03  1488   0.982E-02    0.815E-02
DAV:   6    -0.107908903155E+03    0.36929E-04   -0.12160E-04   912   0.180E-02
  18 F= -.10790890E+03 E0= -.10790890E+03  d E =-.198367E-01  mag=     0.0000
       N       E                     dE             d eps       ncg     rms          rms(c)
DAV:   1    -0.107893055991E+03    0.15884E-01   -0.69222E+01  1424   0.120E+01    0.339E-01
DAV:   2    -0.107924132349E+03   -0.31076E-01   -0.30883E-01  1488   0.112E+00    0.296E-01
DAV:   3    -0.107923542645E+03    0.58970E-03   -0.46328E-03  1520   0.135E-01    0.217E-01
DAV:   4    -0.107922510945E+03    0.10317E-02   -0.23521E-03  1472   0.753E-02    0.889E-02
DAV:   5    -0.107922541138E+03   -0.30193E-04   -0.66481E-04  1520   0.425E-02
  19 F= -.10792254E+03 E0= -.10792254E+03  d E =-.334747E-01  mag=     0.0000
       N       E                     dE             d eps       ncg     rms          rms(c)
DAV:   1    -0.107924863221E+03   -0.23523E-02   -0.38429E+01  1424   0.896E+00    0.243E-01
DAV:   2    -0.107941757475E+03   -0.16894E-01   -0.16728E-01  1456   0.829E-01    0.232E-01
DAV:   3    -0.107941424538E+03    0.33294E-03   -0.24331E-03  1552   0.967E-02    0.176E-01
DAV:   4    -0.107940707078E+03    0.71746E-03   -0.14202E-03  1472   0.583E-02    0.782E-02
DAV:   5    -0.107940691303E+03    0.15775E-04   -0.49905E-04  1520   0.362E-02
  20 F= -.10794069E+03 E0= -.10794069E+03  d E =-.181502E-01  mag=     0.0000
       N       E                     dE             d eps       ncg     rms          rms(c)
DAV:   1    -0.107930415167E+03    0.10292E-01   -0.35437E+01  1424   0.861E+00    0.237E-01
DAV:   2    -0.107946151698E+03   -0.15737E-01   -0.15593E-01  1472   0.798E-01    0.217E-01
DAV:   3    -0.107945878568E+03    0.27313E-03   -0.22730E-03  1512   0.934E-02    0.161E-01
DAV:   4    -0.107945321417E+03    0.55715E-03   -0.11340E-03  1496   0.528E-02    0.727E-02
DAV:   5    -0.107945314659E+03    0.67581E-05   -0.41463E-04  1432   0.333E-02
  21 F= -.10794531E+03 E0= -.10794531E+03  d E =-.227735E-01  mag=     0.0000
       N       E                     dE             d eps       ncg     rms          rms(c)
DAV:   1    -0.107943505621E+03    0.18158E-02   -0.39459E+01  1424   0.908E+00    0.207E-01
DAV:   2    -0.107961202125E+03   -0.17697E-01   -0.17398E-01  1472   0.846E-01    0.207E-01
DAV:   3    -0.107960966952E+03    0.23517E-03   -0.26236E-03  1520   0.101E-01    0.161E-01
DAV:   4    -0.107960351383E+03    0.61557E-03   -0.77246E-04  1488   0.432E-02    0.910E-02
DAV:   5    -0.107960242121E+03    0.10926E-03   -0.99620E-04  1440   0.480E-02    0.329E-02
DAV:   6    -0.107960240285E+03    0.18356E-05   -0.18707E-05   832   0.737E-03
  22 F= -.10796024E+03 E0= -.10796024E+03  d E =-.149256E-01  mag=     0.0000
       N       E                     dE             d eps       ncg     rms          rms(c)
DAV:   1    -0.107932343356E+03    0.27899E-01   -0.84578E+01  1424   0.133E+01    0.303E-01
DAV:   2    -0.107970250794E+03   -0.37907E-01   -0.37227E-01  1488   0.124E+00    0.306E-01
DAV:   3    -0.107969687229E+03    0.56356E-03   -0.56042E-03  1536   0.148E-01    0.239E-01
DAV:   4    -0.107968300899E+03    0.13863E-02   -0.16683E-03  1472   0.633E-02    0.136E-01
DAV:   5    -0.107968019059E+03    0.28184E-03   -0.21935E-03  1440   0.711E-02    0.479E-02
DAV:   6    -0.107968015521E+03    0.35378E-05   -0.37196E-05   848   0.105E-02
  23 F= -.10796802E+03 E0= -.10796802E+03  d E =-.227009E-01  mag=     0.0000
       N       E                     dE             d eps       ncg     rms          rms(c)
DAV:   1    -0.107962933238E+03    0.50858E-02   -0.54849E+01  1424   0.107E+01    0.247E-01
DAV:   2    -0.107987791617E+03   -0.24858E-01   -0.24375E-01  1504   0.100E+00    0.239E-01
DAV:   3    -0.107987387207E+03    0.40441E-03   -0.35427E-03  1520   0.119E-01    0.185E-01
DAV:   4    -0.107986508749E+03    0.87846E-03   -0.11134E-03  1488   0.508E-02    0.100E-01
DAV:   5    -0.107986353752E+03    0.15500E-03   -0.12883E-03  1456   0.544E-02    0.343E-02
DAV:   6    -0.107986355687E+03   -0.19344E-05   -0.22320E-05   848   0.822E-03
  24 F= -.10798636E+03 E0= -.10798636E+03  d E =-.183402E-01  mag=     0.0000
       N       E                     dE             d eps       ncg     rms          rms(c)
DAV:   1    -0.107897868931E+03    0.88485E-01   -0.23252E+02  1424   0.221E+01    0.566E-01
DAV:   2    -0.108004768021E+03   -0.10690E+00   -0.10484E+00  1488   0.208E+00    0.496E-01
DAV:   3    -0.108002797224E+03    0.19708E-02   -0.16121E-02  1536   0.258E-01    0.370E-01
DAV:   4    -0.107999185729E+03    0.36115E-02   -0.50426E-03  1456   0.108E-01    0.188E-01
DAV:   5    -0.107998636374E+03    0.54935E-03   -0.39905E-03  1488   0.965E-02    0.591E-02
DAV:   6    -0.107998639911E+03   -0.35374E-05   -0.80971E-05   912   0.157E-02
  25 F= -.10799864E+03 E0= -.10799864E+03  d E =-.306244E-01  mag=     0.0000
       N       E                     dE             d eps       ncg     rms          rms(c)
DAV:   1    -0.107994873363E+03    0.37630E-02   -0.40131E+01  1424   0.912E+00    0.201E-01
DAV:   2    -0.108013063165E+03   -0.18190E-01   -0.17748E-01  1488   0.852E-01    0.203E-01
DAV:   3    -0.108012807461E+03    0.25570E-03   -0.26274E-03  1536   0.102E-01    0.160E-01
DAV:   4    -0.108012170002E+03    0.63746E-03   -0.72252E-04  1472   0.412E-02    0.928E-02
DAV:   5    -0.108012029450E+03    0.14055E-03   -0.11254E-03  1472   0.505E-02    0.320E-02
DAV:   6    -0.108012038093E+03   -0.86430E-05   -0.15985E-05   864   0.701E-03
  26 F= -.10801204E+03 E0= -.10801204E+03  d E =-.133982E-01  mag=     0.0000
       N       E                     dE             d eps       ncg     rms          rms(c)
DAV:   1    -0.107903734845E+03    0.10829E+00   -0.28384E+02  1424   0.243E+01    0.619E-01
DAV:   2    -0.108034526180E+03   -0.13079E+00   -0.12822E+00  1488   0.230E+00    0.545E-01
DAV:   3    -0.108032150463E+03    0.23757E-02   -0.19526E-02  1536   0.284E-01    0.405E-01
DAV:   4    -0.108027839016E+03    0.43114E-02   -0.56119E-03  1480   0.115E-01    0.217E-01
DAV:   5    -0.108027021111E+03    0.81790E-03   -0.51459E-03  1496   0.109E-01    0.653E-02
DAV:   6    -0.108027042193E+03   -0.21082E-04   -0.83948E-05   920   0.163E-02
  27 F= -.10802704E+03 E0= -.10802704E+03  d E =-.284023E-01  mag=     0.0000
       N       E                     dE             d eps       ncg     rms          rms(c)
DAV:   1    -0.108032852964E+03   -0.58319E-02   -0.27485E+01  1424   0.755E+00    0.190E-01
DAV:   2    -0.108045063852E+03   -0.12211E-01   -0.12000E-01  1488   0.699E-01    0.178E-01
DAV:   3    -0.108044866993E+03    0.19686E-03   -0.17757E-03  1568   0.826E-02    0.136E-01
DAV:   4    -0.108044431753E+03    0.43524E-03   -0.76385E-04  1472   0.423E-02    0.642E-02
DAV:   5    -0.108044420219E+03    0.11534E-04   -0.42943E-04  1488   0.325E-02
  28 F= -.10804442E+03 E0= -.10804442E+03  d E =-.173780E-01  mag=     0.0000
       N       E                     dE             d eps       ncg     rms          rms(c)
DAV:   1    -0.108012354825E+03    0.32077E-01   -0.10797E+02  1424   0.150E+01    0.382E-01
DAV:   2    -0.108060736383E+03   -0.48382E-01   -0.47478E-01  1488   0.139E+00    0.351E-01
DAV:   3    -0.108059998133E+03    0.73825E-03   -0.70757E-03  1536   0.165E-01    0.265E-01
DAV:   4    -0.108058359071E+03    0.16391E-02   -0.27512E-03  1488   0.808E-02    0.128E-01
DAV:   5    -0.108058256676E+03    0.10239E-03   -0.16098E-03  1520   0.628E-02    0.474E-02
DAV:   6    -0.108058244882E+03    0.11793E-04   -0.50022E-05   896   0.117E-02
  29 F= -.10805824E+03 E0= -.10805824E+03  d E =-.312027E-01  mag=     0.0000
       N       E                     dE             d eps       ncg     rms          rms(c)
DAV:   1    -0.108055686586E+03    0.25701E-02   -0.47632E+01  1424   0.996E+00    0.237E-01
DAV:   2    -0.108077132163E+03   -0.21446E-01   -0.20923E-01  1488   0.925E-01    0.228E-01
DAV:   3    -0.108076808881E+03    0.32328E-03   -0.31033E-03  1520   0.109E-01    0.177E-01
DAV:   4    -0.108076040800E+03    0.76808E-03   -0.11405E-03  1504   0.519E-02    0.902E-02
DAV:   5    -0.108075962620E+03    0.78181E-04   -0.93196E-04  1488   0.471E-02
  30 F= -.10807596E+03 E0= -.10807596E+03  d E =-.177177E-01  mag=     0.0000
       N       E                     dE             d eps       ncg     rms          rms(c)
DAV:   1    -0.108042695085E+03    0.33346E-01   -0.94227E+01  1424   0.140E+01    0.342E-01
DAV:   2    -0.108085516624E+03   -0.42822E-01   -0.41705E-01  1488   0.131E+00    0.318E-01
DAV:   3    -0.108084931037E+03    0.58559E-03   -0.62282E-03  1520   0.156E-01    0.242E-01
DAV:   4    -0.108083526592E+03    0.14044E-02   -0.21302E-03  1504   0.713E-02    0.123E-01
DAV:   5    -0.108083385166E+03    0.14143E-03   -0.16629E-03  1488   0.631E-02    0.446E-02
DAV:   6    -0.108083381214E+03    0.39517E-05   -0.38039E-05   896   0.103E-02
  31 F= -.10808338E+03 E0= -.10808338E+03  d E =-.251363E-01  mag=     0.0000
       N       E                     dE             d eps       ncg     rms          rms(c)
DAV:   1    -0.108075957383E+03    0.74278E-02   -0.50894E+01  1424   0.103E+01    0.222E-01
DAV:   2    -0.108099097285E+03   -0.23140E-01   -0.22463E-01  1504   0.959E-01    0.230E-01
DAV:   3    -0.108098836055E+03    0.26123E-03   -0.32850E-03  1520   0.112E-01    0.182E-01
DAV:   4    -0.108098040714E+03    0.79534E-03   -0.91503E-04  1472   0.471E-02    0.107E-01
DAV:   5    -0.108097859132E+03    0.18158E-03   -0.14080E-03  1472   0.565E-02    0.381E-02
DAV:   6    -0.108097869242E+03   -0.10110E-04   -0.15615E-05   864   0.715E-03
  32 F= -.10809787E+03 E0= -.10809787E+03  d E =-.144880E-01  mag=     0.0000
       N       E                     dE             d eps       ncg     rms          rms(c)
DAV:   1    -0.108044415189E+03    0.53444E-01   -0.14207E+02  1424   0.172E+01    0.382E-01
DAV:   2    -0.108109252395E+03   -0.64837E-01   -0.62894E-01  1488   0.161E+00    0.385E-01
DAV:   3    -0.108108424284E+03    0.82811E-03   -0.92297E-03  1536   0.189E-01    0.302E-01
DAV:   4    -0.108106209762E+03    0.22145E-02   -0.25735E-03  1472   0.788E-02    0.175E-01
DAV:   5    -0.108105705246E+03    0.50452E-03   -0.35633E-03  1480   0.900E-02    0.602E-02
DAV:   6    -0.108105721840E+03   -0.16594E-04   -0.40063E-05   880   0.115E-02
  33 F= -.10810572E+03 E0= -.10810572E+03  d E =-.223406E-01  mag=     0.0000
       N       E                     dE             d eps       ncg     rms          rms(c)
DAV:   1    -0.108094471502E+03    0.11234E-01   -0.66667E+01  1424   0.118E+01    0.243E-01
DAV:   2    -0.108124918751E+03   -0.30447E-01   -0.29447E-01  1488   0.110E+00    0.254E-01
DAV:   3    -0.108124587641E+03    0.33111E-03   -0.42277E-03  1536   0.126E-01    0.204E-01
DAV:   4    -0.108123553933E+03    0.10337E-02   -0.11255E-03  1488   0.519E-02    0.121E-01
DAV:   5    -0.108123289184E+03    0.26475E-03   -0.18771E-03  1488   0.652E-02    0.426E-02
DAV:   6    -0.108123306221E+03   -0.17037E-04   -0.18410E-05   848   0.801E-03
  34 F= -.10812331E+03 E0= -.10812331E+03  d E =-.175844E-01  mag=     0.0000
       N       E                     dE             d eps       ncg     rms          rms(c)
DAV:   1    -0.108004574706E+03    0.11871E+00   -0.30332E+02  1424   0.252E+01    0.563E-01
DAV:   2    -0.108143527382E+03   -0.13895E+00   -0.13481E+00  1488   0.235E+00    0.550E-01
DAV:   3    -0.108141630705E+03    0.18967E-02   -0.19539E-02  1520   0.274E-01    0.426E-01
DAV:   4    -0.108137014214E+03    0.46165E-02   -0.53739E-03  1472   0.113E-01    0.245E-01
DAV:   5    -0.108135912621E+03    0.11016E-02   -0.67375E-03  1448   0.124E-01    0.800E-02
DAV:   6    -0.108135957212E+03   -0.44591E-04   -0.71463E-05   928   0.160E-02
  35 F= -.10813596E+03 E0= -.10813596E+03  d E =-.302354E-01  mag=     0.0000
       N       E                     dE             d eps       ncg     rms          rms(c)
DAV:   1    -0.108110726918E+03    0.25186E-01   -0.10117E+02  1424   0.145E+01    0.326E-01
DAV:   2    -0.108156887773E+03   -0.46161E-01   -0.45272E-01  1472   0.136E+00    0.323E-01
DAV:   3    -0.108156287499E+03    0.60027E-03   -0.66549E-03  1552   0.159E-01    0.251E-01
DAV:   4    -0.108154715464E+03    0.15720E-02   -0.20257E-03  1472   0.699E-02    0.140E-01
DAV:   5    -0.108154450136E+03    0.26533E-03   -0.23050E-03  1472   0.723E-02    0.502E-02
DAV:   6    -0.108154456361E+03   -0.62246E-05   -0.36814E-05   896   0.103E-02
  36 F= -.10815446E+03 E0= -.10815446E+03  d E =-.184991E-01  mag=     0.0000
       N       E                     dE             d eps       ncg     rms          rms(c)
DAV:   1    -0.108137219823E+03    0.17230E-01   -0.47480E+01  1424   0.991E+00    0.220E-01
DAV:   2    -0.108158730179E+03   -0.21510E-01   -0.21184E-01  1488   0.929E-01    0.222E-01
DAV:   3    -0.108158454916E+03    0.27526E-03   -0.31075E-03  1520   0.109E-01    0.174E-01
DAV:   4    -0.108157711044E+03    0.74387E-03   -0.94487E-04  1472   0.478E-02    0.985E-02
DAV:   5    -0.108157587852E+03    0.12319E-03   -0.11652E-03  1456   0.514E-02    0.361E-02
DAV:   6    -0.108157593054E+03   -0.52022E-05   -0.18199E-05   848   0.724E-03
  37 F= -.10815759E+03 E0= -.10815759E+03  d E =-.216358E-01  mag=     0.0000
       N       E                     dE             d eps       ncg     rms          rms(c)
DAV:   1    -0.108149543912E+03    0.80439E-02   -0.50737E+01  1424   0.103E+01    0.266E-01
DAV:   2    -0.108172516459E+03   -0.22973E-01   -0.22660E-01  1488   0.961E-01    0.243E-01
DAV:   3    -0.108172117284E+03    0.39918E-03   -0.32655E-03  1504   0.112E-01    0.183E-01
DAV:   4    -0.108171322957E+03    0.79433E-03   -0.14983E-03  1464   0.594E-02    0.827E-02
DAV:   5    -0.108171304746E+03    0.18211E-04   -0.68380E-04  1504   0.414E-02
  38 F= -.10817130E+03 E0= -.10817130E+03  d E =-.137117E-01  mag=     0.0000
       N       E                     dE             d eps       ncg     rms          rms(c)
DAV:   1    -0.108164775369E+03    0.65476E-02   -0.18946E+01  1424   0.627E+00    0.167E-01
DAV:   2    -0.108173440941E+03   -0.86656E-02   -0.85359E-02  1488   0.589E-01    0.147E-01
DAV:   3    -0.108173316689E+03    0.12425E-03   -0.12366E-03  1488   0.690E-02    0.108E-01
DAV:   4    -0.108173067051E+03    0.24964E-03   -0.52030E-04  1472   0.354E-02    0.489E-02
DAV:   5    -0.108173070438E+03   -0.33869E-05   -0.20584E-04   864   0.242E-02
  39 F= -.10817307E+03 E0= -.10817307E+03  d E =-.154774E-01  mag=     0.0000
       N       E                     dE             d eps       ncg     rms          rms(c)
DAV:   1    -0.108167205186E+03    0.58619E-02   -0.32729E+01  1424   0.824E+00    0.199E-01
DAV:   2    -0.108181987910E+03   -0.14783E-01   -0.14578E-01  1472   0.772E-01    0.195E-01
DAV:   3    -0.108181796941E+03    0.19097E-03   -0.22041E-03  1536   0.923E-02    0.148E-01
DAV:   4    -0.108181309877E+03    0.48706E-03   -0.72644E-04  1456   0.417E-02    0.815E-02
DAV:   5    -0.108181263430E+03    0.46447E-04   -0.69503E-04  1488   0.403E-02
  40 F= -.10818126E+03 E0= -.10818126E+03  d E =-.819299E-02  mag=     0.0000
       N       E                     dE             d eps       ncg     rms          rms(c)
DAV:   1    -0.108177548747E+03    0.37611E-02   -0.10490E+01  1424   0.466E+00    0.117E-01
DAV:   2    -0.108182356881E+03   -0.48081E-02   -0.47215E-02  1472   0.439E-01    0.110E-01
DAV:   3    -0.108182309428E+03    0.47453E-04   -0.71858E-04  1520   0.528E-02
  41 F= -.10818231E+03 E0= -.10818231E+03  d E =-.923899E-02  mag=     0.0000
       N       E                     dE             d eps       ncg     rms          rms(c)
DAV:   1    -0.108175584103E+03    0.67728E-02   -0.31162E+01  1424   0.805E+00    0.184E-01
DAV:   2    -0.108189252781E+03   -0.13669E-01   -0.13397E-01  1456   0.740E-01    0.190E-01
DAV:   3    -0.108189033081E+03    0.21970E-03   -0.19465E-03  1552   0.836E-02    0.155E-01
DAV:   4    -0.108188430513E+03    0.60257E-03   -0.94932E-04  1472   0.467E-02    0.772E-02
DAV:   5    -0.108188387835E+03    0.42677E-04   -0.75553E-04  1472   0.420E-02
  42 F= -.10818839E+03 E0= -.10818839E+03  d E =-.607841E-02  mag=     0.0000
       N       E                     dE             d eps       ncg     rms          rms(c)
DAV:   1    -0.108183332908E+03    0.50976E-02   -0.13016E+01  1424   0.520E+00    0.121E-01
DAV:   2    -0.108189237924E+03   -0.59050E-02   -0.57346E-02  1472   0.483E-01    0.112E-01
DAV:   3    -0.108189168935E+03    0.68990E-04   -0.84443E-04  1536   0.560E-02
  43 F= -.10818917E+03 E0= -.10818917E+03  d E =-.685951E-02  mag=     0.0000
       N       E                     dE             d eps       ncg     rms          rms(c)
DAV:   1    -0.108182718819E+03    0.65191E-02   -0.26635E+01  1424   0.745E+00    0.172E-01
DAV:   2    -0.108194405094E+03   -0.11686E-01   -0.11395E-01  1440   0.686E-01    0.183E-01
DAV:   3    -0.108194214861E+03    0.19023E-03   -0.16648E-03  1536   0.782E-02    0.150E-01
DAV:   4    -0.108193662148E+03    0.55271E-03   -0.81048E-04  1472   0.429E-02    0.796E-02
DAV:   5    -0.108193609451E+03    0.52697E-04   -0.79546E-04  1488   0.427E-02
  44 F= -.10819361E+03 E0= -.10819361E+03  d E =-.444052E-02  mag=     0.0000
       N       E                     dE             d eps       ncg     rms          rms(c)
DAV:   1    -0.108185809851E+03    0.78523E-02   -0.19449E+01  1424   0.636E+00    0.145E-01
DAV:   2    -0.108194580817E+03   -0.87710E-02   -0.85240E-02  1440   0.591E-01    0.142E-01
DAV:   3    -0.108194475878E+03    0.10494E-03   -0.12592E-03  1504   0.693E-02    0.109E-01
DAV:   4    -0.108194193343E+03    0.28254E-03   -0.40362E-04  1440   0.308E-02    0.601E-02
DAV:   5    -0.108194162946E+03    0.30397E-04   -0.44205E-04  1464   0.320E-02
  45 F= -.10819416E+03 E0= -.10819416E+03  d E =-.499401E-02  mag=     0.0000
       N       E                     dE             d eps       ncg     rms          rms(c)
DAV:   1    -0.108191088512E+03    0.31048E-02   -0.14108E+01  1424   0.542E+00    0.132E-01
DAV:   2    -0.108197458692E+03   -0.63702E-02   -0.62932E-02  1448   0.510E-01    0.129E-01
DAV:   3    -0.108197387606E+03    0.71085E-04   -0.97465E-04  1568   0.627E-02
  46 F= -.10819739E+03 E0= -.10819739E+03  d E =-.322466E-02  mag=     0.0000
       N       E                     dE             d eps       ncg     rms          rms(c)
DAV:   1    -0.108196753525E+03    0.70517E-03   -0.16754E+00  1424   0.187E+00    0.805E-02
DAV:   2    -0.108197394842E+03   -0.64132E-03   -0.68529E-03  1488   0.170E-01    0.703E-02
DAV:   3    -0.108197337130E+03    0.57712E-04   -0.11728E-04   880   0.205E-02
  47 F= -.10819734E+03 E0= -.10819734E+03  d E =-.317418E-02  mag=     0.0000
       N       E                     dE             d eps       ncg     rms          rms(c)
DAV:   1    -0.108196662655E+03    0.73219E-03   -0.54010E+00  1424   0.336E+00    0.120E-01
DAV:   2    -0.108199052782E+03   -0.23901E-02   -0.24390E-02  1480   0.312E-01    0.940E-02
DAV:   3    -0.108199005760E+03    0.47022E-04   -0.40367E-04  1264   0.384E-02
  48 F= -.10819901E+03 E0= -.10819901E+03  d E =-.166863E-02  mag=     0.0000
       N       E                     dE             d eps       ncg     rms          rms(c)
DAV:   1    -0.108198858444E+03    0.19434E-03   -0.45884E-01  1464   0.976E-01    0.252E-02
DAV:   2    -0.108199070201E+03   -0.21176E-03   -0.20885E-03  1496   0.927E-02    0.225E-02
DAV:   3    -0.108199067435E+03    0.27654E-05   -0.31506E-05   864   0.116E-02
  49 F= -.10819907E+03 E0= -.10819907E+03  d E =-.173031E-02  mag=     0.0000
       N       E                     dE             d eps       ncg     rms          rms(c)
DAV:   1    -0.108199269522E+03   -0.19932E-03   -0.38503E+00  1424   0.283E+00    0.658E-02
DAV:   2    -0.108201027350E+03   -0.17578E-02   -0.17312E-02  1480   0.266E-01    0.639E-02
DAV:   3    -0.108201005219E+03    0.22131E-04   -0.22701E-04   896   0.315E-02
  50 F= -.10820101E+03 E0= -.10820101E+03  d E =-.193778E-02  mag=     0.0000
       N       E                     dE             d eps       ncg     rms          rms(c)
DAV:   1    -0.108201025692E+03    0.16577E-05   -0.14375E-02  1448   0.175E-01    0.230E-02
DAV:   2    -0.108201026037E+03   -0.34486E-06   -0.42617E-05   896   0.146E-02
  51 F= -.10820103E+03 E0= -.10820103E+03  d E =-.195860E-02  mag=     0.0000
       N       E                     dE             d eps       ncg     rms          rms(c)
DAV:   1    -0.108201303448E+03   -0.27776E-03   -0.12699E+00  1424   0.162E+00    0.472E-02
DAV:   2    -0.108201880378E+03   -0.57693E-03   -0.57594E-03  1472   0.152E-01    0.391E-02
DAV:   3    -0.108201872456E+03    0.79214E-05   -0.77702E-05   832   0.180E-02
  52 F= -.10820187E+03 E0= -.10820187E+03  d E =-.846419E-03  mag=     0.0000
       N       E                     dE             d eps       ncg     rms          rms(c)
DAV:   1    -0.108201930905E+03   -0.50528E-04   -0.44333E-02  1480   0.305E-01    0.153E-02
DAV:   2    -0.108201946997E+03   -0.16092E-04   -0.16550E-04   864   0.275E-02
  53 F= -.10820195E+03 E0= -.10820195E+03  d E =-.920960E-03  mag=     0.0000
