 vasp.5.3.5 31Mar14 (build Feb 01 2018 12:10:03) gamma-only                     
  
 executed on             LinuxIFC date 2019.03.24  05:44:35
 running on   64 total cores
 distrk:  each k-point on   64 cores,    1 groups
 distr:  one band on NCORES_PER_BAND=  16 cores,    4 groups


--------------------------------------------------------------------------------------------------------


 INCAR:
 POTCAR:    PAW_PBE Ag 02Apr2005                  
 POTCAR:    PAW_PBE Ag 02Apr2005                  
   VRHFIN =Ag : s1 d10                                                          
   LEXCH  = PE                                                                  
   EATOM  =  1037.2675 eV,   76.2370 Ry                                         
                                                                                
   TITEL  = PAW_PBE Ag 02Apr2005                                                
   LULTRA =        F    use ultrasoft PP ?                                      
   IUNSCR =        1    unscreen: 0-lin 1-nonlin 2-no                           
   RPACOR =    2.000    partial core radius                                     
   POMASS =  107.868; ZVAL   =   11.000    mass and valenz                      
   RCORE  =    2.500    outmost cutoff radius                                   
   RWIGS  =    2.840; RWIGS  =    1.503    wigner-seitz radius (au A)           
   ENMAX  =  249.844; ENMIN  =  187.383 eV                                      
   ICORE  =        3    local potential                                         
   LCOR   =        T    correct aug charges                                     
   LPAW   =        T    paw PP                                                  
   EAUG   =  412.496                                                            
   DEXC   =    0.000                                                            
   RMAX   =    2.560    core radius for proj-oper                               
   RAUG   =    1.300    factor for augmentation sphere                          
   RDEP   =    2.576    radius for radial grids                                 
   RDEPT  =    2.072    core radius for aug-charge                              
                                                                                
   Atomic configuration                                                         
   12 entries                                                                   
     n  l   j            E        occ.                                          
     1  0  0.50    -25324.9161   2.0000                                         
     2  0  0.50     -3728.5341   2.0000                                         
     2  1  1.50     -3344.0404   6.0000                                         
     3  0  0.50      -683.5581   2.0000                                         
     3  1  1.50      -557.3225   6.0000                                         
     3  2  2.50      -358.3853  10.0000                                         
     4  0  0.50       -95.0341   2.0000                                         
     4  1  1.50       -58.5511   6.0000                                         
     4  2  2.50        -7.4440  10.0000                                         
     5  0  0.50        -4.4045   1.0000                                         
     5  1  0.50        -1.3606   0.0000                                         
     4  3  2.50        -1.3606   0.0000                                         
   Description                                                                  
     l       E           TYP  RCUT    TYP  RCUT                                 
     2     -7.4439781     23  2.400                                             
     2     -8.8045607     23  2.400                                             
     0     -4.4044681     23  2.400                                             
     0      1.9520038     23  2.400                                             
     1     -1.3605826     23  2.500                                             
     1     27.2116520     23  2.500                                             
     3     -4.0817478     23  2.400                                             
  local pseudopotential read in
  partial core-charges read in
  partial kinetic energy density read in
  atomic valenz-charges read in
  non local Contribution for L=           2  read in
    real space projection operators read in
  non local Contribution for L=           2  read in
    real space projection operators read in
  non local Contribution for L=           0  read in
    real space projection operators read in
  non local Contribution for L=           0  read in
    real space projection operators read in
  non local Contribution for L=           1  read in
    real space projection operators read in
  non local Contribution for L=           1  read in
    real space projection operators read in
    PAW grid and wavefunctions read in
 
   number of l-projection  operators is LMAX  =           6
   number of lm-projection operators is LMMAX =          18
 

 ----------------------------------------------------------------------------- 
|                                                                             |
|  ADVICE TO THIS USER RUNNING 'VASP/VAMP'   (HEAR YOUR MASTER'S VOICE ...):  |
|                                                                             |
|      You have a (more or less) 'large supercell' and for larger cells       |
|      it might be more efficient to use real space projection opertators     |
|      So try LREAL= Auto  in the INCAR   file.                               |
|      Mind: At the moment your POTCAR file does not contain real space       |
|       projectors, and has to be modified,  BUT if you                       |
|      want to do an extremely  accurate calculation you might also keep the  |
|      reciprocal projection scheme          (i.e. LREAL=.FALSE.)             |
|                                                                             |
 ----------------------------------------------------------------------------- 

  PAW_PBE Ag 02Apr2005                  :
 energy of atom  1       EATOM=-1037.2675
 kinetic energy error for atom=    0.0689 (will be added to EATOM!!)
 
 
 POSCAR: Al47, -149.19682072 <s> Ag </s>         
  positions in direct lattice
  No initial velocities read in
 exchange correlation table for  LEXCH =        8
   RHO(1)=    0.500       N(1)  =     2000
   RHO(2)=  100.500       N(2)  =     4000
 


--------------------------------------------------------------------------------------------------------


 ion  position               nearest neighbor table
   1  0.555  0.657  0.457-   7 2.73   2 2.74  10 2.76   9 2.80   6 2.81  15 2.94   5 2.98   4 2.99
                            16 3.05
   2  0.466  0.715  0.501-   3 2.62   4 2.71   1 2.74   6 2.79  16 2.95  21 2.96
   3  0.364  0.679  0.480-   2 2.62  17 2.77  16 2.79  14 2.83   8 2.86   6 3.10  21 3.56
   4  0.552  0.701  0.574-  12 2.68   2 2.71   5 2.76  10 2.93  21 2.96   1 2.99
   5  0.650  0.651  0.538-   4 2.76  20 2.78   7 2.79  25 2.87  10 2.98   1 2.98
   6  0.458  0.674  0.391-   2 2.79  11 2.80   1 2.81  16 2.85  14 2.93   9 3.03   3 3.10
   7  0.662  0.635  0.423-  13 2.72   1 2.73   5 2.79  20 2.81   9 3.06
   8  0.345  0.593  0.562-  19 2.71  21 2.76  34 2.76  17 2.85   3 2.86  27 2.96  16 3.10  36 3.59

   9  0.561  0.612  0.348-   1 2.80  23 2.80  15 2.88  13 2.93  18 2.99   6 3.03   7 3.06  11 3.11

  10  0.545  0.582  0.545-  31 2.75  15 2.76   1 2.76  12 2.82  20 2.87  16 2.87  21 2.88   4 2.93
                            27 2.97   5 2.98  25 2.98
  11  0.438  0.596  0.306-  14 2.75  23 2.76   6 2.80  22 2.90   9 3.11
  12  0.554  0.623  0.656-   4 2.68  29 2.74  10 2.82  26 2.85  25 2.88  21 2.90  31 3.10
  13  0.648  0.531  0.379-   7 2.72  18 2.73  20 2.76  30 2.77  24 2.85   9 2.93  15 2.95  23 3.56

  14  0.358  0.603  0.388-  22 2.72  11 2.75  17 2.82   3 2.83   6 2.93  34 2.95  16 2.99
  15  0.539  0.535  0.439-  10 2.76  16 2.81  28 2.84  30 2.85   9 2.88  22 2.90  20 2.91   1 2.94
                            13 2.95  23 3.04  35 3.28
  16  0.445  0.594  0.479-  27 2.76   3 2.79  15 2.81  22 2.82   6 2.85  10 2.87  21 2.93   2 2.95
                            14 2.99  34 3.04   1 3.05   8 3.10
  17  0.272  0.608  0.469-   3 2.77  34 2.78  14 2.82   8 2.85
  18  0.618  0.533  0.268-  13 2.73  23 2.79  24 2.85   9 2.99
  19  0.358  0.529  0.656-   8 2.71  26 2.75  38 2.79  36 2.81  27 3.00
  20  0.647  0.542  0.495-  30 2.70  13 2.76   5 2.78  32 2.80   7 2.81  10 2.87  25 2.88  15 2.91

  21  0.449  0.635  0.595-   8 2.76  10 2.88  12 2.90  16 2.93   2 2.96   4 2.96  27 2.98  26 3.09
                             3 3.56
  22  0.428  0.513  0.394-  28 2.70  14 2.72  23 2.75  34 2.79  16 2.82  33 2.87  15 2.90  11 2.90

  23  0.514  0.509  0.317-  22 2.75  11 2.76  18 2.79   9 2.80  24 2.81  28 2.83  15 3.04  13 3.56

  24  0.602  0.432  0.330-  39 2.78  23 2.81  13 2.85  18 2.85  30 2.87  28 2.94
  25  0.646  0.557  0.615-   5 2.87  31 2.87  12 2.88  20 2.88  32 2.88  10 2.98  37 3.00  29 3.02

  26  0.465  0.553  0.694-  19 2.75  31 2.79  12 2.85  38 2.89  40 2.94  21 3.09  29 3.21  27 3.31

  27  0.441  0.514  0.562-  16 2.76  31 2.83  36 2.84  35 2.90  38 2.96   8 2.96  10 2.97  21 2.98
                            19 3.00  33 3.03  34 3.11  26 3.31
  28  0.502  0.428  0.403-  22 2.70  39 2.75  33 2.75  23 2.83  42 2.84  15 2.84  30 2.94  24 2.94
                            35 2.98
  29  0.594  0.546  0.730-  12 2.74  40 2.77  37 2.81  25 3.02  31 3.05  26 3.21
  30  0.615  0.443  0.449-  20 2.70  32 2.77  13 2.77  44 2.78  39 2.81  15 2.85  24 2.87  35 2.91
                            28 2.94
  31  0.542  0.498  0.624-  10 2.75  45 2.75  26 2.79  27 2.83  40 2.86  35 2.87  25 2.87  32 2.87
                            37 2.91  29 3.05  38 3.05  12 3.10
  32  0.634  0.448  0.564-  37 2.76  30 2.77  44 2.77  20 2.80  35 2.86  43 2.87  31 2.87  25 2.88
                            45 3.34
  33  0.413  0.426  0.476-  42 2.70  34 2.71  28 2.75  41 2.83  35 2.85  22 2.87  36 2.88  27 3.03

  34  0.344  0.516  0.476-  33 2.71   8 2.76  17 2.78  22 2.79  36 2.95  14 2.95  16 3.04  27 3.11

  35  0.521  0.430  0.526-  33 2.85  32 2.86  31 2.87  27 2.90  30 2.91  41 2.93  45 2.96  28 2.98
                            42 3.05  44 3.15  46 3.21  15 3.28
  36  0.347  0.443  0.576-  19 2.81  41 2.82  27 2.84  33 2.88  38 2.91  34 2.95   8 3.59
  37  0.639  0.449  0.680-  32 2.76  29 2.81  43 2.84  31 2.91  25 3.00  40 3.01  45 3.06
  38  0.434  0.440  0.662-  19 2.79  40 2.80  41 2.81  45 2.81  26 2.89  36 2.91  27 2.96  31 3.05

  39  0.580  0.342  0.401-  28 2.75  47 2.77  24 2.78  30 2.81  44 2.81  42 2.98
  40  0.525  0.453  0.734-  29 2.77  45 2.78  38 2.80  31 2.86  26 2.94  37 3.01
  41  0.432  0.361  0.574-  46 2.72  38 2.81  36 2.82  33 2.83  42 2.89  35 2.93  45 2.99
  42  0.472  0.329  0.464-  33 2.70  47 2.79  28 2.84  46 2.86  41 2.89  39 2.98  35 3.05
  43  0.646  0.344  0.624-  44 2.74  45 2.82  37 2.84  32 2.87  46 3.28
  44  0.622  0.345  0.511-  43 2.74  46 2.76  32 2.77  30 2.78  39 2.81  47 2.93  35 3.15
  45  0.536  0.384  0.641-  46 2.66  31 2.75  40 2.78  38 2.81  43 2.82  35 2.96  41 2.99  37 3.06
                            32 3.34
  46  0.529  0.301  0.566-  45 2.66  41 2.72  47 2.72  44 2.76  42 2.86  35 3.21  43 3.28
  47  0.557  0.249  0.468-  46 2.72  39 2.77  42 2.79  44 2.93
 
  LATTYP: Found a simple cubic cell.
 ALAT       =    23.8026619626
  
  Lattice vectors:
  
 A1 = (  23.8026619626,   0.0000000000,   0.0000000000)
 A2 = (   0.0000000000,  23.8026619626,   0.0000000000)
 A3 = (   0.0000000000,   0.0000000000,  23.8026619626)


Analysis of symmetry for initial positions (statically):
=====================================================================
 Subroutine PRICEL returns:
 Original cell was already a primitive cell.
 

 Routine SETGRP: Setting up the symmetry group for a 
 simple cubic supercell.


 Subroutine GETGRP returns: Found  1 space group operations
 (whereof  1 operations were pure point group operations)
 out of a pool of 48 trial point group operations.


The static configuration has the point symmetry C_1 .


Analysis of symmetry for dynamics (positions and initial velocities):
=====================================================================
 Subroutine PRICEL returns:
 Original cell was already a primitive cell.
 

 Routine SETGRP: Setting up the symmetry group for a 
 simple cubic supercell.


 Subroutine GETGRP returns: Found  1 space group operations
 (whereof  1 operations were pure point group operations)
 out of a pool of 48 trial point group operations.


The dynamic configuration has the point symmetry C_1 .


Analysis of magnetic symmetry:
=====================================================================
 Subroutine PRICEL returns:
 Original cell was already a primitive cell.
 

 Subroutine MAGSYM returns: Found  1 space group operations
 (whereof  1 operations were pure point group operations)
 out of a pool of  1 trial space group operations
 (whereof  1 operations were pure point group operations)
 and found also     1 'primitive' translations


The magnetic configuration has the point symmetry C_1 .
 
 
 KPOINTS: Gamma-point only                        
  k-points in reciprocal lattice
Space group operators:
 irot       det(A)        alpha          n_x          n_y          n_z        tau_x        tau_y        tau_z
    1     1.000000     0.000001     1.000000     0.000000     0.000000     0.000000     0.000000     0.000000


--------------------------------------------------------------------------------------------------------




 Dimension of arrays:
   k-points           NKPTS =      1   k-points in BZ     NKDIM =      1   number of bands    NBANDS=    336
   number of dos      NEDOS =    301   number of ions     NIONS =     47
   non local maximal  LDIM  =      6   non local SUM 2l+1 LMDIM =     18
   total plane-waves  NPLWV = 884736
   max r-space proj   IRMAX =      1   max aug-charges    IRDMAX=   3425
   dimension x,y,z NGX =    96 NGY =   96 NGZ =   96
   dimension x,y,z NGXF=   192 NGYF=  192 NGZF=  192
   support grid    NGXF=   192 NGYF=  192 NGZF=  192
   ions per type =              47
 NGX,Y,Z   is equivalent  to a cutoff of   6.70,  6.70,  6.70 a.u.
 NGXF,Y,Z  is equivalent  to a cutoff of  13.41, 13.41, 13.41 a.u.


 I would recommend the setting:
   dimension x,y,z NGX =    92 NGY =   92 NGZ =   92
 SYSTEM =  unknown system                          
 POSCAR =  Al47, -149.19682072 <s> Ag </s>         

 Startparameter for this run:
   NWRITE =      2    write-flag & timer
   PREC   = normal    normal or accurate (medium, high low for compatibility)
   ISTART =      0    job   : 0-new  1-cont  2-samecut
   ICHARG =      2    charge: 1-file 2-atom 10-const
   ISPIN  =      2    spin polarized calculation?
   LNONCOLLINEAR =      F non collinear calculations
   LSORBIT =      F    spin-orbit coupling
   INIWAV =      1    electr: 0-lowe 1-rand  2-diag
   LASPH  =      F    aspherical Exc in radial PAW
   METAGGA=      F    non-selfconsistent MetaGGA calc.

 Electronic Relaxation 1
   ENCUT  =  249.8 eV  18.36 Ry    4.29 a.u.  30.68 30.68 30.68*2*pi/ulx,y,z
   ENINI  =  249.8     initial cutoff
   ENAUG  =  412.5 eV  augmentation charge cutoff
   NELM   =     60;   NELMIN=  2; NELMDL= -5     # of ELM steps 
   EDIFF  = 0.1E-03   stopping-criterion for ELM
   LREAL  =      F    real-space projection
   NLSPLINE    = F    spline interpolate recip. space projectors
   LCOMPAT=      F    compatible to vasp.4.4
   GGA_COMPAT  = T    GGA compatible to vasp.4.4-vasp.4.6
   LMAXPAW     = -100 max onsite density
   LMAXMIX     =    2 max onsite mixed and CHGCAR
   VOSKOWN=      0    Vosko Wilk Nusair interpolation
   ROPT   =    0.00000
 Ionic relaxation
   EDIFFG = 0.1E-02   stopping-criterion for IOM
   NSW    =   1000    number of steps for IOM
   NBLOCK =      1;   KBLOCK =   1000    inner block; outer block 
   IBRION =      2    ionic relax: 0-MD 1-quasi-New 2-CG
   NFREE  =      1    steps in history (QN), initial steepest desc. (CG)
   ISIF   =      2    stress and relaxation
   IWAVPR =     11    prediction:  0-non 1-charg 2-wave 3-comb
   ISYM   =      2    0-nonsym 1-usesym 2-fastsym
   LCORR  =      T    Harris-Foulkes like correction to forces

   POTIM  = 0.1000    time-step for ionic-motion
   TEIN   =    0.0    initial temperature
   TEBEG  =    0.0;   TEEND  =   0.0 temperature during run
   SMASS  =  -3.00    Nose mass-parameter (am)
   estimated Nose-frequenzy (Omega)   =  0.10E-29 period in steps =****** mass=  -0.129E-25a.u.
   SCALEE = 1.0000    scale energy and forces
   NPACO  =    256;   APACO  = 16.0  distance and # of slots for P.C.
   PSTRESS=    0.0 pullay stress

  Mass of Ions in am
   POMASS = 107.87
  Ionic Valenz
   ZVAL   =  11.00
  Atomic Wigner-Seitz radii
   RWIGS  =  -1.00
  virtual crystal weights 
   VCA    =   1.00
   NELECT =     517.0000    total number of electrons
   NUPDOWN=      -1.0000    fix difference up-down

 DOS related values:
   EMIN   =  10.00;   EMAX   =-10.00  energy-range for DOS
   EFERMI =   0.00
   ISMEAR =     0;   SIGMA  =   0.00  broadening in eV -4-tet -1-fermi 0-gaus

 Electronic relaxation 2 (details)
   IALGO  =     38    algorithm
   LDIAG  =      T    sub-space diagonalisation (order eigenvalues)
   LSUBROT=      F    optimize rotation matrix (better conditioning)
   TURBO    =      0    0=normal 1=particle mesh
   IRESTART =      0    0=no restart 2=restart with 2 vectors
   NREBOOT  =      0    no. of reboots
   NMIN     =      0    reboot dimension
   EREF     =   0.00    reference energy to select bands
   IMIX   =      4    mixing-type and parameters
     AMIX     =   0.40;   BMIX     =  1.00
     AMIX_MAG =   1.60;   BMIX_MAG =  1.00
     AMIN     =   0.10
     WC   =   100.;   INIMIX=   1;  MIXPRE=   1;  MAXMIX= -45

 Intra band minimization:
   WEIMIN = 0.0010     energy-eigenvalue tresh-hold
   EBREAK =  0.74E-07  absolut break condition
   DEPER  =   0.30     relativ break condition  

   TIME   =   0.40     timestep for ELM

  volume/ion in A,a.u.               =     286.93      1936.31
  Fermi-wavevector in a.u.,A,eV,Ry     =   0.552009  1.043146  4.145885  0.304714
  Thomas-Fermi vector in A             =   1.584262
 
 Write flags
   LWAVE  =      F    write WAVECAR
   LCHARG =      F    write CHGCAR
   LVTOT  =      F    write LOCPOT, total local potential
   LVHAR  =      F    write LOCPOT, Hartree potential only
   LELF   =      F    write electronic localiz. function (ELF)
   LORBIT =      0    0 simple, 1 ext, 2 COOP (PROOUT)


 Dipole corrections
   LMONO  =      F    monopole corrections only (constant potential shift)
   LDIPOL =      F    correct potential (dipole corrections)
   IDIPOL =      0    1-x, 2-y, 3-z, 4-all directions 
   EPSILON=  1.0000000 bulk dielectric constant

 Exchange correlation treatment:
   GGA     =    PE    GGA type
   LEXCH   =     8    internal setting for exchange type
   VOSKOWN=      0    Vosko Wilk Nusair interpolation
   LHFCALC =     F    Hartree Fock is set to
   LHFONE  =     F    Hartree Fock one center treatment
   AEXX    =    0.0000 exact exchange contribution

 Linear response parameters
   LEPSILON=     F    determine dielectric tensor
   LRPA    =     F    only Hartree local field effects (RPA)
   LNABLA  =     F    use nabla operator in PAW spheres
   LVEL    =     F    velocity operator in full k-point grid
   LINTERFAST=   F  fast interpolation
   KINTER  =     0    interpolate to denser k-point grid
   CSHIFT  =0.1000    complex shift for real part using Kramers Kronig
   OMEGAMAX=  -1.0    maximum frequency
   DEG_THRESHOLD= 0.2000000E-02 threshold for treating states as degnerate
   RTIME   =    0.100 relaxation time in fs

 Orbital magnetization related:
   ORBITALMAG=     F  switch on orbital magnetization
   LCHIMAG   =     F  perturbation theory with respect to B field
   DQ        =  0.001000  dq finite difference perturbation B field



--------------------------------------------------------------------------------------------------------


 conjugate gradient relaxation of ions
 charge density and potential will be updated during run
 spin polarized calculation
 Variant of blocked Davidson
 Davidson routine will perform the subspace rotation
 perform sub-space diagonalisation
    after iterative eigenvector-optimisation
 modified Broyden-mixing scheme, WC =      100.0
 initial mixing is a Kerker type mixing with AMIX =  0.4000 and BMIX =      1.0000
 Hartree-type preconditioning will be used
 using additional bands           77
 reciprocal scheme for non local part
 use partial core corrections
 calculate Harris-corrections to forces 
   (improved forces if not selfconsistent)
 use gradient corrections 
 use of overlap-Matrix (Vanderbilt PP)
 Gauss-broadening in eV      SIGMA  =   0.00


--------------------------------------------------------------------------------------------------------


  energy-cutoff  :      249.84
  volume of cell :    13485.80
      direct lattice vectors                 reciprocal lattice vectors
    23.802661963  0.000000000  0.000000000     0.042012108  0.000000000  0.000000000
     0.000000000 23.802661963  0.000000000     0.000000000  0.042012108  0.000000000
     0.000000000  0.000000000 23.802661963     0.000000000  0.000000000  0.042012108

  length of vectors
    23.802661963 23.802661963 23.802661963     0.042012108  0.042012108  0.042012108


 
 k-points in units of 2pi/SCALE and weight: Gamma-point only                        
   0.00000000  0.00000000  0.00000000       1.000
 
 k-points in reciprocal lattice and weights: Gamma-point only                        
   0.00000000  0.00000000  0.00000000       1.000
 
 position of ions in fractional coordinates (direct lattice) 
   0.55484781  0.65666637  0.45670086
   0.46550173  0.71460880  0.50079646
   0.36357973  0.67887898  0.47975491
   0.55176133  0.70121470  0.57412942
   0.64968835  0.65061086  0.53842042
   0.45841429  0.67437583  0.39086753
   0.66240158  0.63504212  0.42303749
   0.34537716  0.59339329  0.56240142
   0.56056204  0.61189984  0.34803126
   0.54518988  0.58176543  0.54496333
   0.43821730  0.59617114  0.30557763
   0.55359448  0.62341864  0.65556011
   0.64773061  0.53063381  0.37923077
   0.35812131  0.60282813  0.38830378
   0.53912232  0.53526349  0.43890150
   0.44501611  0.59432554  0.47877136
   0.27194908  0.60786285  0.46916854
   0.61755092  0.53325881  0.26846191
   0.35819151  0.52919907  0.65578880
   0.64749933  0.54237560  0.49474501
   0.44857937  0.63518742  0.59479607
   0.42816792  0.51296512  0.39406118
   0.51357323  0.50866199  0.31665941
   0.60204259  0.43177078  0.32998535
   0.64623913  0.55724908  0.61489620
   0.46481682  0.55254451  0.69385461
   0.44145279  0.51428790  0.56243905
   0.50223378  0.42754677  0.40258244
   0.59438357  0.54607689  0.73023651
   0.61529264  0.44343306  0.44919971
   0.54154845  0.49775536  0.62405503
   0.63378501  0.44814171  0.56389756
   0.41287350  0.42553832  0.47593865
   0.34390886  0.51627451  0.47573934
   0.52134013  0.43001085  0.52623064
   0.34669315  0.44321443  0.57558476
   0.63914372  0.44937645  0.67965606
   0.43360563  0.43954462  0.66157375
   0.57959898  0.34196521  0.40087556
   0.52512759  0.45271375  0.73429212
   0.43151362  0.36069734  0.57396573
   0.47194132  0.32945405  0.46368736
   0.64603275  0.34425322  0.62379370
   0.62170714  0.34484223  0.51129037
   0.53558283  0.38355661  0.64071322
   0.52876751  0.30122359  0.56551197
   0.55749679  0.24933423  0.46760586
 
 position of ions in cartesian coordinates  (Angst):
  13.20685476 15.63040765 10.87069625
  11.08018040 17.00959168 11.92028891
   8.65416551 16.15912685 11.41944390
  13.13338843 16.69077652 13.66580854
  15.46431222 15.48627044 12.81583930
  10.91148039 16.05193987  9.30368763
  15.76692099 15.11569281 10.06941847
   8.22089569 14.12433986 13.38665095
  13.34286863 14.56484503  8.28407035
  12.97697038 13.84756587 12.97157794
  10.43073816 14.19046014  7.27356101
  13.17702236 14.83902321 15.60407558
  15.41771281 12.63049710  9.02670172
   8.52424054 14.34891416  9.24266367
  12.83254634 12.74069587 10.44702412
  10.59256794 14.14652984 11.39603285
   6.47311198 14.46875396 11.16746023
  14.69935573 12.69297920  6.39010811
   8.52591153 12.59634657 15.60951919
  15.41220773 12.90998301 11.77624828
  10.67738321 15.11915148 14.15772986
  10.19153628 12.20993543  9.37970497
  12.22441009 12.10750941  7.53733700
  14.33021632 10.27729391  7.85452963
  15.38221157 13.26401142 14.63616644
  11.06387776 13.15203016 16.51558668
  10.50775146 12.24142108 13.38754659
  11.95450079 10.17675120  9.58253367
  14.14791125 12.99808368 17.38157284
  14.64560270 10.55488723 10.69214891
  12.89029480 11.84790255 14.85417086
  15.08577037 10.66696572 13.42226295
   9.82748827 10.12894472 11.32860692
   8.18594634 12.28870772 11.32386274
  12.40928294 10.23540290 12.52569008
   8.25221995 10.54968326 13.70044945
  15.21332198 10.69635565 16.17762335
  10.32096816 10.46233209 15.74721623
  13.79599867  8.13968222  9.54190533
  12.49943448 10.77579234 17.47810713
  10.27117278  8.58555692 13.66191232
  11.23345961  7.84188349 11.03699339
  15.37729920  8.19414301 14.84795049
  14.79828493  8.20816300 12.17007182
  12.74829713  9.12966839 15.25068007
  12.58607425  7.16992334 13.46069020
  13.26990758  5.93481839 11.13026414
 


--------------------------------------------------------------------------------------------------------


 use parallel FFT for wavefunctions z direction half grid
 k-point  1 :   0.0000 0.0000 0.0000  plane waves:   60633

 maximum and minimum number of plane-waves per node :      3795     3785

 maximum number of plane-waves:     60633
 maximum index in each direction: 
   IXMAX=   30   IYMAX=   30   IZMAX=   30
   IXMIN=  -30   IYMIN=  -30   IZMIN=    0

 WARNING: aliasing errors must be expected set NGX to 122 to avoid them
 WARNING: aliasing errors must be expected set NGY to 122 to avoid them
 WARNING: aliasing errors must be expected set NGZ to 122 to avoid them
 aliasing errors are usually negligible using standard VASP settings
 and one can safely disregard these warnings

 parallel 3D FFT for wavefunctions:
    minimum data exchange during FFTs selected (reduces bandwidth)
 parallel 3D FFT for charge:
    minimum data exchange during FFTs selected (reduces bandwidth)


 total amount of memory used by VASP on root node    61161. kBytes
========================================================================

   base      :      30000. kBytes
   nonl-proj :       3401. kBytes
   fftplans  :       4967. kBytes
   grid      :      12469. kBytes
   one-center:         46. kBytes
   wavefun   :      10278. kBytes
 
     INWAV:  cpu time    0.00: real time    0.00
 Broyden mixing: mesh for mixing (old mesh)
   NGX = 61   NGY = 61   NGZ = 61
  (NGX  =192   NGY  =192   NGZ  =192)
  gives a total of 226981 points

 initial charge density was supplied:
 charge density of overlapping atoms calculated
 number of electron     517.0000000 magnetization      47.0000000
 keeping initial charge density in first step


--------------------------------------------------------------------------------------------------------


 Maximum index for augmentation-charges          256 (set IRDMAX)


--------------------------------------------------------------------------------------------------------


 First call to EWALD:  gamma=   0.074
 Maximum number of real-space cells 3x 3x 3
 Maximum number of reciprocal cells 3x 3x 3

 FEWALD executed in parallel
    FEWALD:  cpu time    0.00: real time    0.00


----------------------------------------- Iteration    1(   1)  ---------------------------------------


    POTLOK:  cpu time    0.25: real time    0.25
    SETDIJ:  cpu time    0.01: real time    0.01
     EDDAV:  cpu time    6.04: real time    6.04
       DOS:  cpu time    0.00: real time    0.00
    --------------------------------------------
      LOOP:  cpu time    6.30: real time    6.31

 eigenvalue-minimisations  :  1344
 total energy-change (2. order) : 0.4403355E+04  (-0.1036646E+05)
 number of electron     517.0000000 magnetization      47.0000000
 augmentation part      517.0000000 magnetization      47.0000000

 Free energy of the ion-electron system (eV)
  ---------------------------------------------------
  alpha Z        PSCENC =       139.32636605
  Ewald energy   TEWEN  =    139914.47016258
  -Hartree energ DENC   =   -186754.36118528
  -exchange      EXHF   =         0.00000000
  -V(xc)+E(xc)   XCENC  =      -512.11046195
  PAW double counting   =     47158.49236927   -44991.43661731
  entropy T*S    EENTRO =         0.00000000
  eigenvalues    EBANDS =       700.63871179
  atomic energy  EATOM  =     48748.33561406
  ---------------------------------------------------
  free energy    TOTEN  =      4403.35495922 eV

  energy without entropy =     4403.35495922  energy(sigma->0) =     4403.35495922


--------------------------------------------------------------------------------------------------------




----------------------------------------- Iteration    1(   2)  ---------------------------------------


     EDDAV:  cpu time    9.04: real time    9.04
       DOS:  cpu time    0.00: real time    0.00
    --------------------------------------------
      LOOP:  cpu time    9.04: real time    9.05

 eigenvalue-minimisations  :  2216
 total energy-change (2. order) :-0.3643581E+04  (-0.3267279E+04)
 number of electron     517.0000000 magnetization      47.0000000
 augmentation part      517.0000000 magnetization      47.0000000

 Free energy of the ion-electron system (eV)
  ---------------------------------------------------
  alpha Z        PSCENC =       139.32636605
  Ewald energy   TEWEN  =    139914.47016258
  -Hartree energ DENC   =   -186754.36118528
  -exchange      EXHF   =         0.00000000
  -V(xc)+E(xc)   XCENC  =      -512.11046195
  PAW double counting   =     47158.49236927   -44991.43661731
  entropy T*S    EENTRO =        -0.00000000
  eigenvalues    EBANDS =     -2942.94249456
  atomic energy  EATOM  =     48748.33561406
  ---------------------------------------------------
  free energy    TOTEN  =       759.77375286 eV

  energy without entropy =      759.77375286  energy(sigma->0) =      759.77375286


--------------------------------------------------------------------------------------------------------




----------------------------------------- Iteration    1(   3)  ---------------------------------------


     EDDAV:  cpu time    7.30: real time    7.30
       DOS:  cpu time    0.00: real time    0.00
    --------------------------------------------
      LOOP:  cpu time    7.30: real time    7.31

 eigenvalue-minimisations  :  1704
 total energy-change (2. order) :-0.8278936E+03  (-0.7599068E+03)
 number of electron     517.0000000 magnetization      47.0000000
 augmentation part      517.0000000 magnetization      47.0000000

 Free energy of the ion-electron system (eV)
  ---------------------------------------------------
  alpha Z        PSCENC =       139.32636605
  Ewald energy   TEWEN  =    139914.47016258
  -Hartree energ DENC   =   -186754.36118528
  -exchange      EXHF   =         0.00000000
  -V(xc)+E(xc)   XCENC  =      -512.11046195
  PAW double counting   =     47158.49236927   -44991.43661731
  entropy T*S    EENTRO =         0.00000000
  eigenvalues    EBANDS =     -3770.83614433
  atomic energy  EATOM  =     48748.33561406
  ---------------------------------------------------
  free energy    TOTEN  =       -68.11989691 eV

  energy without entropy =      -68.11989691  energy(sigma->0) =      -68.11989691


--------------------------------------------------------------------------------------------------------




----------------------------------------- Iteration    1(   4)  ---------------------------------------


     EDDAV:  cpu time    6.44: real time    6.44
       DOS:  cpu time    0.00: real time    0.00
    --------------------------------------------
      LOOP:  cpu time    6.44: real time    6.45

 eigenvalue-minimisations  :  1456
 total energy-change (2. order) :-0.3351409E+02  (-0.3319664E+02)
 number of electron     517.0000000 magnetization      47.0000000
 augmentation part      517.0000000 magnetization      47.0000000

 Free energy of the ion-electron system (eV)
  ---------------------------------------------------
  alpha Z        PSCENC =       139.32636605
  Ewald energy   TEWEN  =    139914.47016258
  -Hartree energ DENC   =   -186754.36118528
  -exchange      EXHF   =         0.00000000
  -V(xc)+E(xc)   XCENC  =      -512.11046195
  PAW double counting   =     47158.49236927   -44991.43661731
  entropy T*S    EENTRO =         0.00000000
  eigenvalues    EBANDS =     -3804.35023243
  atomic energy  EATOM  =     48748.33561406
  ---------------------------------------------------
  free energy    TOTEN  =      -101.63398500 eV

  energy without entropy =     -101.63398500  energy(sigma->0) =     -101.63398500


--------------------------------------------------------------------------------------------------------




----------------------------------------- Iteration    1(   5)  ---------------------------------------


     EDDAV:  cpu time    6.68: real time    6.68
       DOS:  cpu time    0.00: real time    0.00
    CHARGE:  cpu time    0.15: real time    0.15
    MIXING:  cpu time    0.01: real time    0.01
    --------------------------------------------
      LOOP:  cpu time    6.83: real time    6.84

 eigenvalue-minimisations  :  1520
 total energy-change (2. order) :-0.5010617E+00  (-0.5005808E+00)
 number of electron     517.0000415 magnetization      42.6225213
 augmentation part      242.2273612 magnetization      39.0058981

 Broyden mixing:
  rms(total) = 0.39229E+01    rms(broyden)= 0.39223E+01
  rms(prec ) = 0.39817E+01
  weight for this iteration     100.00

 Free energy of the ion-electron system (eV)
  ---------------------------------------------------
  alpha Z        PSCENC =       139.32636605
  Ewald energy   TEWEN  =    139914.47016258
  -Hartree energ DENC   =   -186754.36118528
  -exchange      EXHF   =         0.00000000
  -V(xc)+E(xc)   XCENC  =      -512.11046195
  PAW double counting   =     47158.49236927   -44991.43661731
  entropy T*S    EENTRO =         0.00000000
  eigenvalues    EBANDS =     -3804.85129416
  atomic energy  EATOM  =     48748.33561406
  ---------------------------------------------------
  free energy    TOTEN  =      -102.13504673 eV

  energy without entropy =     -102.13504673  energy(sigma->0) =     -102.13504673


--------------------------------------------------------------------------------------------------------




----------------------------------------- Iteration    1(   6)  ---------------------------------------


    POTLOK:  cpu time    0.24: real time    0.23
    SETDIJ:  cpu time    0.01: real time    0.01
     EDDAV:  cpu time    6.05: real time    6.06
       DOS:  cpu time    0.00: real time    0.00
    CHARGE:  cpu time    0.15: real time    0.15
    MIXING:  cpu time    0.01: real time    0.01
    --------------------------------------------
      LOOP:  cpu time    6.45: real time    6.57

 eigenvalue-minimisations  :  1344
 total energy-change (2. order) : 0.5245435E+02  (-0.1609229E+02)
 number of electron     517.0000424 magnetization      39.5590501
 augmentation part      248.2866750 magnetization      25.2395552

 Broyden mixing:
  rms(total) = 0.21368E+01    rms(broyden)= 0.21366E+01
  rms(prec ) = 0.21598E+01
  weight for this iteration     100.00

 eigenvalues of (default mixing * dielectric matrix)
  average eigenvalue GAMMA=   0.8522
  0.8522

 Free energy of the ion-electron system (eV)
  ---------------------------------------------------
  alpha Z        PSCENC =       139.32636605
  Ewald energy   TEWEN  =    139914.47016258
  -Hartree energ DENC   =   -186544.70845450
  -exchange      EXHF   =         0.00000000
  -V(xc)+E(xc)   XCENC  =      -491.36573573
  PAW double counting   =     48735.97858848   -46604.77008039
  entropy T*S    EENTRO =         0.00000000
  eigenvalues    EBANDS =     -3946.94716170
  atomic energy  EATOM  =     48748.33561406
  ---------------------------------------------------
  free energy    TOTEN  =       -49.68070115 eV

  energy without entropy =      -49.68070115  energy(sigma->0) =      -49.68070115


--------------------------------------------------------------------------------------------------------




----------------------------------------- Iteration    1(   7)  ---------------------------------------


    POTLOK:  cpu time    0.23: real time    0.23
    SETDIJ:  cpu time    0.01: real time    0.01
     EDDAV:  cpu time    6.21: real time    6.22
       DOS:  cpu time    0.00: real time    0.00
    CHARGE:  cpu time    0.15: real time    0.15
    MIXING:  cpu time    0.01: real time    0.01
    --------------------------------------------
      LOOP:  cpu time    6.61: real time    6.62

 eigenvalue-minimisations  :  1392
 total energy-change (2. order) : 0.1273944E+02  (-0.1093510E+01)
 number of electron     517.0000424 magnetization      34.6883208
 augmentation part      248.2781133 magnetization      20.7416340

 Broyden mixing:
  rms(total) = 0.13149E+01    rms(broyden)= 0.13149E+01
  rms(prec ) = 0.13254E+01
  weight for this iteration     100.00

 eigenvalues of (default mixing * dielectric matrix)
  average eigenvalue GAMMA=   0.9988
  0.7547  1.2428

 Free energy of the ion-electron system (eV)
  ---------------------------------------------------
  alpha Z        PSCENC =       139.32636605
  Ewald energy   TEWEN  =    139914.47016258
  -Hartree energ DENC   =   -186660.40303466
  -exchange      EXHF   =         0.00000000
  -V(xc)+E(xc)   XCENC  =      -481.22674024
  PAW double counting   =     49670.69627684   -47561.75365114
  entropy T*S    EENTRO =         0.00000000
  eigenvalues    EBANDS =     -3806.38625543
  atomic energy  EATOM  =     48748.33561406
  ---------------------------------------------------
  free energy    TOTEN  =       -36.94126194 eV

  energy without entropy =      -36.94126194  energy(sigma->0) =      -36.94126194


--------------------------------------------------------------------------------------------------------




----------------------------------------- Iteration    1(   8)  ---------------------------------------


    POTLOK:  cpu time    0.23: real time    0.24
    SETDIJ:  cpu time    0.01: real time    0.01
     EDDAV:  cpu time    6.44: real time    6.44
       DOS:  cpu time    0.00: real time    0.00
    CHARGE:  cpu time    0.15: real time    0.15
    MIXING:  cpu time    0.00: real time    0.01
    --------------------------------------------
      LOOP:  cpu time    6.84: real time    6.85

 eigenvalue-minimisations  :  1456
 total energy-change (2. order) : 0.3186406E+01  (-0.2536646E+00)
 number of electron     517.0000423 magnetization      31.0187511
 augmentation part      248.1078792 magnetization      17.2911376

 Broyden mixing:
  rms(total) = 0.75816E+00    rms(broyden)= 0.75815E+00
  rms(prec ) = 0.76135E+00
  weight for this iteration     100.00

 eigenvalues of (default mixing * dielectric matrix)
  average eigenvalue GAMMA=   1.2770
  2.3165  0.9041  0.6104

 Free energy of the ion-electron system (eV)
  ---------------------------------------------------
  alpha Z        PSCENC =       139.32636605
  Ewald energy   TEWEN  =    139914.47016258
  -Hartree energ DENC   =   -186786.77831450
  -exchange      EXHF   =         0.00000000
  -V(xc)+E(xc)   XCENC  =      -478.52615067
  PAW double counting   =     50796.78386843   -48711.54606088
  entropy T*S    EENTRO =         0.00000000
  eigenvalues    EBANDS =     -3655.82034099
  atomic energy  EATOM  =     48748.33561406
  ---------------------------------------------------
  free energy    TOTEN  =       -33.75485592 eV

  energy without entropy =      -33.75485592  energy(sigma->0) =      -33.75485592


--------------------------------------------------------------------------------------------------------




----------------------------------------- Iteration    1(   9)  ---------------------------------------


    POTLOK:  cpu time    0.23: real time    0.23
    SETDIJ:  cpu time    0.01: real time    0.01
     EDDAV:  cpu time    6.46: real time    6.47
       DOS:  cpu time    0.00: real time    0.00
    CHARGE:  cpu time    0.15: real time    0.15
    MIXING:  cpu time    0.00: real time    0.01
    --------------------------------------------
      LOOP:  cpu time    6.86: real time    6.87

 eigenvalue-minimisations  :  1464
 total energy-change (2. order) :-0.3241640E+01  (-0.8827973E-01)
 number of electron     517.0000423 magnetization      28.2571632
 augmentation part      248.0163875 magnetization      16.6675219

 Broyden mixing:
  rms(total) = 0.52967E+00    rms(broyden)= 0.52962E+00
  rms(prec ) = 0.53407E+00
  weight for this iteration     100.00

 eigenvalues of (default mixing * dielectric matrix)
  average eigenvalue GAMMA=   1.1565
  2.3776  0.9372  0.6555  0.6555

 Free energy of the ion-electron system (eV)
  ---------------------------------------------------
  alpha Z        PSCENC =       139.32636605
  Ewald energy   TEWEN  =    139914.47016258
  -Hartree energ DENC   =   -186841.02120722
  -exchange      EXHF   =         0.00000000
  -V(xc)+E(xc)   XCENC  =      -480.49158951
  PAW double counting   =     51271.23879937   -49195.68047034
  entropy T*S    EENTRO =         0.00000000
  eigenvalues    EBANDS =     -3593.17417107
  atomic energy  EATOM  =     48748.33561406
  ---------------------------------------------------
  free energy    TOTEN  =       -36.99649607 eV

  energy without entropy =      -36.99649607  energy(sigma->0) =      -36.99649607


--------------------------------------------------------------------------------------------------------




----------------------------------------- Iteration    1(  10)  ---------------------------------------


    POTLOK:  cpu time    0.23: real time    0.23
    SETDIJ:  cpu time    0.01: real time    0.01
     EDDAV:  cpu time    6.30: real time    6.31
       DOS:  cpu time    0.00: real time    0.00
    CHARGE:  cpu time    0.15: real time    0.15
    MIXING:  cpu time    0.00: real time    0.01
    --------------------------------------------
      LOOP:  cpu time    6.70: real time    6.71

 eigenvalue-minimisations  :  1416
 total energy-change (2. order) :-0.4955409E+01  (-0.1176397E+00)
 number of electron     517.0000423 magnetization      23.5390736
 augmentation part      247.9524108 magnetization      12.3055207

 Broyden mixing:
  rms(total) = 0.43925E+00    rms(broyden)= 0.43924E+00
  rms(prec ) = 0.44127E+00
  weight for this iteration     100.00

 eigenvalues of (default mixing * dielectric matrix)
  average eigenvalue GAMMA=   1.2017
  2.4332  1.3753  0.6789  0.7604  0.7604

 Free energy of the ion-electron system (eV)
  ---------------------------------------------------
  alpha Z        PSCENC =       139.32636605
  Ewald energy   TEWEN  =    139914.47016258
  -Hartree energ DENC   =   -186859.58727951
  -exchange      EXHF   =         0.00000000
  -V(xc)+E(xc)   XCENC  =      -483.64852121
  PAW double counting   =     51331.87145242   -49257.43419402
  entropy T*S    EENTRO =         0.00000000
  eigenvalues    EBANDS =     -3575.28550579
  atomic energy  EATOM  =     48748.33561406
  ---------------------------------------------------
  free energy    TOTEN  =       -41.95190543 eV

  energy without entropy =      -41.95190543  energy(sigma->0) =      -41.95190543


--------------------------------------------------------------------------------------------------------




----------------------------------------- Iteration    1(  11)  ---------------------------------------


    POTLOK:  cpu time    0.23: real time    0.23
    SETDIJ:  cpu time    0.01: real time    0.01
     EDDAV:  cpu time    6.24: real time    6.24
       DOS:  cpu time    0.00: real time    0.00
    CHARGE:  cpu time    0.15: real time    0.15
    MIXING:  cpu time    0.00: real time    0.01
    --------------------------------------------
      LOOP:  cpu time    6.64: real time    6.68

 eigenvalue-minimisations  :  1400
 total energy-change (2. order) :-0.1569206E+02  (-0.5869416E+00)
 number of electron     517.0000422 magnetization      18.5471970
 augmentation part      247.8558571 magnetization       9.8815998

 Broyden mixing:
  rms(total) = 0.36561E+00    rms(broyden)= 0.36555E+00
  rms(prec ) = 0.37074E+00
  weight for this iteration     100.00

 eigenvalues of (default mixing * dielectric matrix)
  average eigenvalue GAMMA=   1.3403
  2.8953  2.1779  0.8679  0.8679  0.5936  0.6393

 Free energy of the ion-electron system (eV)
  ---------------------------------------------------
  alpha Z        PSCENC =       139.32636605
  Ewald energy   TEWEN  =    139914.47016258
  -Hartree energ DENC   =   -186874.28809467
  -exchange      EXHF   =         0.00000000
  -V(xc)+E(xc)   XCENC  =      -494.94881598
  PAW double counting   =     51306.75571112   -49231.90920698
  entropy T*S    EENTRO =         0.00000000
  eigenvalues    EBANDS =     -3565.38569706
  atomic energy  EATOM  =     48748.33561406
  ---------------------------------------------------
  free energy    TOTEN  =       -57.64396089 eV

  energy without entropy =      -57.64396089  energy(sigma->0) =      -57.64396089


--------------------------------------------------------------------------------------------------------




----------------------------------------- Iteration    1(  12)  ---------------------------------------


    POTLOK:  cpu time    0.23: real time    0.23
    SETDIJ:  cpu time    0.01: real time    0.01
     EDDAV:  cpu time    6.23: real time    6.23
       DOS:  cpu time    0.00: real time    0.00
    CHARGE:  cpu time    0.15: real time    0.15
    MIXING:  cpu time    0.01: real time    0.01
    --------------------------------------------
      LOOP:  cpu time    6.63: real time    6.64

 eigenvalue-minimisations  :  1392
 total energy-change (2. order) :-0.1115228E+02  (-0.4822241E+00)
 number of electron     517.0000423 magnetization      15.6289152
 augmentation part      247.7932107 magnetization       9.5010906

 Broyden mixing:
  rms(total) = 0.29363E+00    rms(broyden)= 0.29354E+00
  rms(prec ) = 0.29986E+00
  weight for this iteration     100.00

 eigenvalues of (default mixing * dielectric matrix)
  average eigenvalue GAMMA=   1.3468
  3.5848  2.2466  0.8930  0.8930  0.6299  0.5901  0.5901

 Free energy of the ion-electron system (eV)
  ---------------------------------------------------
  alpha Z        PSCENC =       139.32636605
  Ewald energy   TEWEN  =    139914.47016258
  -Hartree energ DENC   =   -186884.12324599
  -exchange      EXHF   =         0.00000000
  -V(xc)+E(xc)   XCENC  =      -502.97412519
  PAW double counting   =     51282.12233898   -49207.24212591
  entropy T*S    EENTRO =         0.00000000
  eigenvalues    EBANDS =     -3558.71122852
  atomic energy  EATOM  =     48748.33561406
  ---------------------------------------------------
  free energy    TOTEN  =       -68.79624394 eV

  energy without entropy =      -68.79624394  energy(sigma->0) =      -68.79624394


--------------------------------------------------------------------------------------------------------




----------------------------------------- Iteration    1(  13)  ---------------------------------------


    POTLOK:  cpu time    0.24: real time    0.24
    SETDIJ:  cpu time    0.01: real time    0.01
     EDDAV:  cpu time    6.32: real time    6.32
       DOS:  cpu time    0.00: real time    0.00
    CHARGE:  cpu time    0.15: real time    0.15
    MIXING:  cpu time    0.01: real time    0.01
    --------------------------------------------
      LOOP:  cpu time    6.72: real time    6.73

 eigenvalue-minimisations  :  1416
 total energy-change (2. order) :-0.5916312E+01  (-0.1823315E+00)
 number of electron     517.0000423 magnetization      12.5781599
 augmentation part      247.7575039 magnetization       6.8091020

 Broyden mixing:
  rms(total) = 0.22566E+00    rms(broyden)= 0.22565E+00
  rms(prec ) = 0.23031E+00
  weight for this iteration     100.00

 eigenvalues of (default mixing * dielectric matrix)
  average eigenvalue GAMMA=   1.4736
  4.6630  2.3705  1.0889  1.0889  0.6630  0.6630  0.5962  0.6557

 Free energy of the ion-electron system (eV)
  ---------------------------------------------------
  alpha Z        PSCENC =       139.32636605
  Ewald energy   TEWEN  =    139914.47016258
  -Hartree energ DENC   =   -186883.79419536
  -exchange      EXHF   =         0.00000000
  -V(xc)+E(xc)   XCENC  =      -507.29347482
  PAW double counting   =     51251.24837149   -49176.48143055
  entropy T*S    EENTRO =         0.00000000
  eigenvalues    EBANDS =     -3560.52396936
  atomic energy  EATOM  =     48748.33561406
  ---------------------------------------------------
  free energy    TOTEN  =       -74.71255592 eV

  energy without entropy =      -74.71255592  energy(sigma->0) =      -74.71255592


--------------------------------------------------------------------------------------------------------




----------------------------------------- Iteration    1(  14)  ---------------------------------------


    POTLOK:  cpu time    0.23: real time    0.23
    SETDIJ:  cpu time    0.01: real time    0.01
     EDDAV:  cpu time    6.24: real time    6.24
       DOS:  cpu time    0.00: real time    0.00
    CHARGE:  cpu time    0.15: real time    0.15
    MIXING:  cpu time    0.01: real time    0.01
    --------------------------------------------
      LOOP:  cpu time    6.64: real time    6.65

 eigenvalue-minimisations  :  1392
 total energy-change (2. order) :-0.8917466E+01  (-0.3051513E+00)
 number of electron     517.0000424 magnetization      10.4172397
 augmentation part      247.7573703 magnetization       6.8933292

 Broyden mixing:
  rms(total) = 0.20992E+00    rms(broyden)= 0.20981E+00
  rms(prec ) = 0.21860E+00
  weight for this iteration     100.00

 eigenvalues of (default mixing * dielectric matrix)
  average eigenvalue GAMMA=   1.4675
  5.3774  2.3459  1.1437  1.1437  0.7748  0.7748  0.6129  0.5169  0.5169

 Free energy of the ion-electron system (eV)
  ---------------------------------------------------
  alpha Z        PSCENC =       139.32636605
  Ewald energy   TEWEN  =    139914.47016258
  -Hartree energ DENC   =   -186859.98171690
  -exchange      EXHF   =         0.00000000
  -V(xc)+E(xc)   XCENC  =      -514.51725231
  PAW double counting   =     51141.09886923   -49065.61385362
  entropy T*S    EENTRO =        -0.00000000
  eigenvalues    EBANDS =     -3586.74821093
  atomic energy  EATOM  =     48748.33561406
  ---------------------------------------------------
  free energy    TOTEN  =       -83.63002183 eV

  energy without entropy =      -83.63002183  energy(sigma->0) =      -83.63002183


--------------------------------------------------------------------------------------------------------




----------------------------------------- Iteration    1(  15)  ---------------------------------------


    POTLOK:  cpu time    0.23: real time    0.23
    SETDIJ:  cpu time    0.01: real time    0.01
     EDDAV:  cpu time    6.42: real time    6.42
       DOS:  cpu time    0.00: real time    0.00
    CHARGE:  cpu time    0.15: real time    0.15
    MIXING:  cpu time    0.01: real time    0.01
    --------------------------------------------
      LOOP:  cpu time    6.82: real time    6.82

 eigenvalue-minimisations  :  1440
 total energy-change (2. order) :-0.3298227E+01  (-0.5864519E-01)
 number of electron     517.0000423 magnetization       7.9281386
 augmentation part      247.7725908 magnetization       4.5988150

 Broyden mixing:
  rms(total) = 0.15392E+00    rms(broyden)= 0.15391E+00
  rms(prec ) = 0.16055E+00
  weight for this iteration     100.00

 eigenvalues of (default mixing * dielectric matrix)
  average eigenvalue GAMMA=   1.5698
  6.5717  2.2441  1.6198  1.1072  0.8544  0.8544  0.7237  0.5925  0.5649  0.5649

 Free energy of the ion-electron system (eV)
  ---------------------------------------------------
  alpha Z        PSCENC =       139.32636605
  Ewald energy   TEWEN  =    139914.47016258
  -Hartree energ DENC   =   -186845.21704464
  -exchange      EXHF   =         0.00000000
  -V(xc)+E(xc)   XCENC  =      -517.37871444
  PAW double counting   =     51104.89821485   -49029.45053521
  entropy T*S    EENTRO =         0.00000000
  eigenvalues    EBANDS =     -3601.91231177
  atomic energy  EATOM  =     48748.33561406
  ---------------------------------------------------
  free energy    TOTEN  =       -86.92824852 eV

  energy without entropy =      -86.92824852  energy(sigma->0) =      -86.92824852


--------------------------------------------------------------------------------------------------------




----------------------------------------- Iteration    1(  16)  ---------------------------------------


    POTLOK:  cpu time    0.23: real time    0.23
    SETDIJ:  cpu time    0.01: real time    0.01
     EDDAV:  cpu time    6.15: real time    6.15
       DOS:  cpu time    0.00: real time    0.00
    CHARGE:  cpu time    0.15: real time    0.15
    MIXING:  cpu time    0.01: real time    0.01
    --------------------------------------------
      LOOP:  cpu time    6.55: real time    9.33

 eigenvalue-minimisations  :  1368
 total energy-change (2. order) :-0.4664870E+01  (-0.9693094E-01)
 number of electron     517.0000423 magnetization       6.1297465
 augmentation part      247.7840921 magnetization       2.9782637

 Broyden mixing:
  rms(total) = 0.10608E+00    rms(broyden)= 0.10607E+00
  rms(prec ) = 0.11199E+00
  weight for this iteration     100.00

 eigenvalues of (default mixing * dielectric matrix)
  average eigenvalue GAMMA=   1.6938
  7.6518  2.3433  2.3433  1.1520  0.9888  0.9888  0.7432  0.6569  0.6075  0.5780
  0.5780

 Free energy of the ion-electron system (eV)
  ---------------------------------------------------
  alpha Z        PSCENC =       139.32636605
  Ewald energy   TEWEN  =    139914.47016258
  -Hartree energ DENC   =   -186817.39095769
  -exchange      EXHF   =         0.00000000
  -V(xc)+E(xc)   XCENC  =      -521.61629637
  PAW double counting   =     51054.79843493   -48979.22277080
  entropy T*S    EENTRO =         0.00000000
  eigenvalues    EBANDS =     -3630.29367091
  atomic energy  EATOM  =     48748.33561406
  ---------------------------------------------------
  free energy    TOTEN  =       -91.59311815 eV

  energy without entropy =      -91.59311815  energy(sigma->0) =      -91.59311815


--------------------------------------------------------------------------------------------------------




----------------------------------------- Iteration    1(  17)  ---------------------------------------


    POTLOK:  cpu time    0.23: real time    0.23
    SETDIJ:  cpu time    0.01: real time    0.01
     EDDAV:  cpu time    6.08: real time    6.09
       DOS:  cpu time    0.00: real time    0.00
    CHARGE:  cpu time    0.15: real time    0.15
    MIXING:  cpu time    0.01: real time    0.01
    --------------------------------------------
      LOOP:  cpu time    6.48: real time    6.49

 eigenvalue-minimisations  :  1344
 total energy-change (2. order) :-0.3928617E+01  (-0.6656006E-01)
 number of electron     517.0000424 magnetization       5.4693620
 augmentation part      247.7916952 magnetization       4.2866690

 Broyden mixing:
  rms(total) = 0.13453E+00    rms(broyden)= 0.13438E+00
  rms(prec ) = 0.14274E+00
  weight for this iteration     100.00

 eigenvalues of (default mixing * dielectric matrix)
  average eigenvalue GAMMA=   1.5985
  7.9478  2.3832  2.3832  1.0086  1.0086  1.0530  0.7359  0.7359  0.5999  0.5619
  0.5619  0.2020

 Free energy of the ion-electron system (eV)
  ---------------------------------------------------
  alpha Z        PSCENC =       139.32636605
  Ewald energy   TEWEN  =    139914.47016258
  -Hartree energ DENC   =   -186775.46649890
  -exchange      EXHF   =         0.00000000
  -V(xc)+E(xc)   XCENC  =      -525.50924046
  PAW double counting   =     51002.99684561   -48926.86479680
  entropy T*S    EENTRO =         0.00000000
  eigenvalues    EBANDS =     -3672.81018740
  atomic energy  EATOM  =     48748.33561406
  ---------------------------------------------------
  free energy    TOTEN  =       -95.52173526 eV

  energy without entropy =      -95.52173526  energy(sigma->0) =      -95.52173526


--------------------------------------------------------------------------------------------------------




----------------------------------------- Iteration    1(  18)  ---------------------------------------


    POTLOK:  cpu time    0.23: real time    0.23
    SETDIJ:  cpu time    0.01: real time    0.01
     EDDAV:  cpu time    6.60: real time    6.60
       DOS:  cpu time    0.00: real time    0.00
    CHARGE:  cpu time    0.15: real time    0.15
    MIXING:  cpu time    0.01: real time    0.01
    --------------------------------------------
      LOOP:  cpu time    7.00: real time    7.01

 eigenvalue-minimisations  :  1496
 total energy-change (2. order) :-0.3779666E+00  (-0.2253574E-02)
 number of electron     517.0000424 magnetization       4.1929123
 augmentation part      247.8057633 magnetization       3.0547823

 Broyden mixing:
  rms(total) = 0.11172E+00    rms(broyden)= 0.11171E+00
  rms(prec ) = 0.11943E+00
  weight for this iteration     100.00

 eigenvalues of (default mixing * dielectric matrix)
  average eigenvalue GAMMA=   1.6239
  8.6789  2.4025  2.4025  1.0708  1.0708  0.9642  0.6968  0.6968  0.7393  0.5907
  0.5907  0.6032  0.6032

 Free energy of the ion-electron system (eV)
  ---------------------------------------------------
  alpha Z        PSCENC =       139.32636605
  Ewald energy   TEWEN  =    139914.47016258
  -Hartree energ DENC   =   -186769.19179560
  -exchange      EXHF   =         0.00000000
  -V(xc)+E(xc)   XCENC  =      -525.92653267
  PAW double counting   =     50997.55626592   -48921.40757522
  entropy T*S    EENTRO =         0.00000000
  eigenvalues    EBANDS =     -3679.06220695
  atomic energy  EATOM  =     48748.33561406
  ---------------------------------------------------
  free energy    TOTEN  =       -95.89970183 eV

  energy without entropy =      -95.89970183  energy(sigma->0) =      -95.89970183


--------------------------------------------------------------------------------------------------------




----------------------------------------- Iteration    1(  19)  ---------------------------------------


    POTLOK:  cpu time    0.23: real time    0.23
    SETDIJ:  cpu time    0.01: real time    0.01
     EDDAV:  cpu time    6.20: real time    6.21
       DOS:  cpu time    0.00: real time    0.00
    CHARGE:  cpu time    0.15: real time    0.15
    MIXING:  cpu time    0.01: real time    0.01
    --------------------------------------------
      LOOP:  cpu time    6.60: real time    6.62

 eigenvalue-minimisations  :  1384
 total energy-change (2. order) :-0.9501789E+00  (-0.6302182E-02)
 number of electron     517.0000424 magnetization       2.1336731
 augmentation part      247.8119919 magnetization       1.0550343

 Broyden mixing:
  rms(total) = 0.75177E-01    rms(broyden)= 0.75173E-01
  rms(prec ) = 0.80970E-01
  weight for this iteration     100.00

 eigenvalues of (default mixing * dielectric matrix)
  average eigenvalue GAMMA=   1.7176
  9.8597  2.2424  2.2424  1.4459  1.3472  1.3472  0.9182  0.9182  0.8324  0.5460
  0.5460  0.6581  0.5711  0.5711

 Free energy of the ion-electron system (eV)
  ---------------------------------------------------
  alpha Z        PSCENC =       139.32636605
  Ewald energy   TEWEN  =    139914.47016258
  -Hartree energ DENC   =   -186756.28650505
  -exchange      EXHF   =         0.00000000
  -V(xc)+E(xc)   XCENC  =      -526.93030792
  PAW double counting   =     51004.03469954   -48927.88356931
  entropy T*S    EENTRO =         0.00000000
  eigenvalues    EBANDS =     -3691.91634071
  atomic energy  EATOM  =     48748.33561406
  ---------------------------------------------------
  free energy    TOTEN  =       -96.84988076 eV

  energy without entropy =      -96.84988076  energy(sigma->0) =      -96.84988076


--------------------------------------------------------------------------------------------------------




----------------------------------------- Iteration    1(  20)  ---------------------------------------


    POTLOK:  cpu time    0.23: real time    0.23
    SETDIJ:  cpu time    0.01: real time    0.01
     EDDAV:  cpu time    6.27: real time    6.28
       DOS:  cpu time    0.00: real time    0.00
    CHARGE:  cpu time    0.15: real time    0.15
    MIXING:  cpu time    0.01: real time    0.01
    --------------------------------------------
      LOOP:  cpu time    6.68: real time    6.79

 eigenvalue-minimisations  :  1400
 total energy-change (2. order) :-0.2062207E+01  (-0.2062687E-01)
 number of electron     517.0000424 magnetization       1.4551550
 augmentation part      247.8120935 magnetization       0.4470969

 Broyden mixing:
  rms(total) = 0.36157E-01    rms(broyden)= 0.36132E-01
  rms(prec ) = 0.39886E-01
  weight for this iteration     100.00

 eigenvalues of (default mixing * dielectric matrix)
  average eigenvalue GAMMA=   1.8297
 11.1837  3.1814  2.2007  2.2007  1.1786  1.1786  0.9085  0.9085  0.8270  0.7805
  0.5495  0.5495  0.6573  0.5955  0.5455

 Free energy of the ion-electron system (eV)
  ---------------------------------------------------
  alpha Z        PSCENC =       139.32636605
  Ewald energy   TEWEN  =    139914.47016258
  -Hartree energ DENC   =   -186722.51034783
  -exchange      EXHF   =         0.00000000
  -V(xc)+E(xc)   XCENC  =      -529.15818278
  PAW double counting   =     51012.91504245   -48936.43292826
  entropy T*S    EENTRO =         0.00000000
  eigenvalues    EBANDS =     -3725.85781357
  atomic energy  EATOM  =     48748.33561406
  ---------------------------------------------------
  free energy    TOTEN  =       -98.91208730 eV

  energy without entropy =      -98.91208730  energy(sigma->0) =      -98.91208730


--------------------------------------------------------------------------------------------------------




----------------------------------------- Iteration    1(  21)  ---------------------------------------


    POTLOK:  cpu time    0.24: real time    0.24
    SETDIJ:  cpu time    0.01: real time    0.01
     EDDAV:  cpu time    6.39: real time    6.40
       DOS:  cpu time    0.00: real time    0.00
    CHARGE:  cpu time    0.16: real time    0.15
    MIXING:  cpu time    0.01: real time    0.01
    --------------------------------------------
      LOOP:  cpu time    6.80: real time    6.81

 eigenvalue-minimisations  :  1440
 total energy-change (2. order) :-0.7546166E+00  (-0.3621176E-02)
 number of electron     517.0000424 magnetization       1.4799035
 augmentation part      247.8344452 magnetization       0.4945030

 Broyden mixing:
  rms(total) = 0.33956E-01    rms(broyden)= 0.33947E-01
  rms(prec ) = 0.36899E-01
  weight for this iteration     100.00

 eigenvalues of (default mixing * dielectric matrix)
  average eigenvalue GAMMA=   1.8045
 11.3062  3.3468  2.4640  1.6785  1.3347  1.3347  1.1077  0.9458  0.9458  0.7643
  0.7643  0.5449  0.5449  0.6216  0.5913  0.5757

 Free energy of the ion-electron system (eV)
  ---------------------------------------------------
  alpha Z        PSCENC =       139.32636605
  Ewald energy   TEWEN  =    139914.47016258
  -Hartree energ DENC   =   -186703.78347203
  -exchange      EXHF   =         0.00000000
  -V(xc)+E(xc)   XCENC  =      -530.02720853
  PAW double counting   =     51007.19044251   -48930.50969003
  entropy T*S    EENTRO =         0.00000000
  eigenvalues    EBANDS =     -3744.66891850
  atomic energy  EATOM  =     48748.33561406
  ---------------------------------------------------
  free energy    TOTEN  =       -99.66670389 eV

  energy without entropy =      -99.66670389  energy(sigma->0) =      -99.66670389


--------------------------------------------------------------------------------------------------------




----------------------------------------- Iteration    1(  22)  ---------------------------------------


    POTLOK:  cpu time    0.23: real time    0.23
    SETDIJ:  cpu time    0.01: real time    0.01
     EDDAV:  cpu time    6.46: real time    6.47
       DOS:  cpu time    0.00: real time    0.00
    CHARGE:  cpu time    0.15: real time    0.15
    MIXING:  cpu time    0.01: real time    0.01
    --------------------------------------------
      LOOP:  cpu time    6.87: real time    6.89

 eigenvalue-minimisations  :  1456
 total energy-change (2. order) :-0.2567193E+00  (-0.6007737E-03)
 number of electron     517.0000424 magnetization       1.3111373
 augmentation part      247.8276876 magnetization       0.3114774

 Broyden mixing:
  rms(total) = 0.19179E-01    rms(broyden)= 0.19177E-01
  rms(prec ) = 0.21671E-01
  weight for this iteration     100.00

 eigenvalues of (default mixing * dielectric matrix)
  average eigenvalue GAMMA=   1.8891
 11.7090  4.4398  2.2357  2.0110  2.0110  1.2808  1.2808  0.9269  0.9269  0.9329
  0.7398  0.7398  0.5469  0.5469  0.6173  0.6057  0.5634

 Free energy of the ion-electron system (eV)
  ---------------------------------------------------
  alpha Z        PSCENC =       139.32636605
  Ewald energy   TEWEN  =    139914.47016258
  -Hartree energ DENC   =   -186696.14340392
  -exchange      EXHF   =         0.00000000
  -V(xc)+E(xc)   XCENC  =      -530.31416746
  PAW double counting   =     51018.00713017   -48941.49034618
  entropy T*S    EENTRO =         0.00000000
  eigenvalues    EBANDS =     -3752.11477847
  atomic energy  EATOM  =     48748.33561406
  ---------------------------------------------------
  free energy    TOTEN  =       -99.92342317 eV

  energy without entropy =      -99.92342317  energy(sigma->0) =      -99.92342317


--------------------------------------------------------------------------------------------------------




----------------------------------------- Iteration    1(  23)  ---------------------------------------


    POTLOK:  cpu time    0.23: real time    0.23
    SETDIJ:  cpu time    0.01: real time    0.01
     EDDAV:  cpu time    6.26: real time    6.27
       DOS:  cpu time    0.00: real time    0.00
    CHARGE:  cpu time    0.15: real time    0.15
    MIXING:  cpu time    0.01: real time    0.01
    --------------------------------------------
      LOOP:  cpu time    6.67: real time    6.68

 eigenvalue-minimisations  :  1400
 total energy-change (2. order) :-0.3320332E+00  (-0.1260090E-02)
 number of electron     517.0000425 magnetization       1.2402945
 augmentation part      247.8414773 magnetization       0.2332045

 Broyden mixing:
  rms(total) = 0.95000E-02    rms(broyden)= 0.94952E-02
  rms(prec ) = 0.11373E-01
  weight for this iteration     100.00

 eigenvalues of (default mixing * dielectric matrix)
  average eigenvalue GAMMA=   1.8582
 11.8198  4.7073  2.3082  1.9313  1.9313  1.4295  1.4295  0.9195  0.9195  0.8829
  0.8829  0.8078  0.5470  0.5470  0.6442  0.5979  0.5979  0.5437

 Free energy of the ion-electron system (eV)
  ---------------------------------------------------
  alpha Z        PSCENC =       139.32636605
  Ewald energy   TEWEN  =    139914.47016258
  -Hartree energ DENC   =   -186679.91914884
  -exchange      EXHF   =         0.00000000
  -V(xc)+E(xc)   XCENC  =      -530.72612963
  PAW double counting   =     51016.02280381   -48939.39554074
  entropy T*S    EENTRO =         0.00000000
  eigenvalues    EBANDS =     -3768.36958366
  atomic energy  EATOM  =     48748.33561406
  ---------------------------------------------------
  free energy    TOTEN  =      -100.25545637 eV

  energy without entropy =     -100.25545637  energy(sigma->0) =     -100.25545637


--------------------------------------------------------------------------------------------------------




----------------------------------------- Iteration    1(  24)  ---------------------------------------


    POTLOK:  cpu time    0.23: real time    0.23
    SETDIJ:  cpu time    0.01: real time    0.01
     EDDAV:  cpu time    6.33: real time    6.34
       DOS:  cpu time    0.00: real time    0.00
    CHARGE:  cpu time    0.15: real time    0.15
    MIXING:  cpu time    0.01: real time    0.01
    --------------------------------------------
      LOOP:  cpu time    6.74: real time    7.14

 eigenvalue-minimisations  :  1416
 total energy-change (2. order) :-0.6940845E-01  (-0.1096138E-03)
 number of electron     517.0000425 magnetization       1.1698716
 augmentation part      247.8373721 magnetization       0.1617714

 Broyden mixing:
  rms(total) = 0.64906E-02    rms(broyden)= 0.64897E-02
  rms(prec ) = 0.79661E-02
  weight for this iteration     100.00

 eigenvalues of (default mixing * dielectric matrix)
  average eigenvalue GAMMA=   1.8280
 11.8911  4.7892  2.4467  1.8106  1.8106  1.5476  1.5476  1.0192  1.0192  0.9157
  0.9157  0.8267  0.5467  0.5467  0.6813  0.6813  0.5945  0.5945  0.5462

 Free energy of the ion-electron system (eV)
  ---------------------------------------------------
  alpha Z        PSCENC =       139.32636605
  Ewald energy   TEWEN  =    139914.47016258
  -Hartree energ DENC   =   -186677.16521922
  -exchange      EXHF   =         0.00000000
  -V(xc)+E(xc)   XCENC  =      -530.79445568
  PAW double counting   =     51023.23515696   -48946.66862001
  entropy T*S    EENTRO =         0.00000000
  eigenvalues    EBANDS =     -3771.06386957
  atomic energy  EATOM  =     48748.33561406
  ---------------------------------------------------
  free energy    TOTEN  =      -100.32486482 eV

  energy without entropy =     -100.32486482  energy(sigma->0) =     -100.32486482


--------------------------------------------------------------------------------------------------------




----------------------------------------- Iteration    1(  25)  ---------------------------------------


    POTLOK:  cpu time    0.23: real time    0.23
    SETDIJ:  cpu time    0.01: real time    0.01
     EDDAV:  cpu time    4.75: real time    4.76
       DOS:  cpu time    0.00: real time    0.00
    CHARGE:  cpu time    0.16: real time    0.15
    MIXING:  cpu time    0.01: real time    0.01
    --------------------------------------------
      LOOP:  cpu time    5.16: real time    9.92

 eigenvalue-minimisations  :   952
 total energy-change (2. order) :-0.5089290E-01  (-0.5513694E-04)
 number of electron     517.0000425 magnetization       1.0943147
 augmentation part      247.8356552 magnetization       0.0864147

 Broyden mixing:
  rms(total) = 0.42543E-02    rms(broyden)= 0.42539E-02
  rms(prec ) = 0.55968E-02
  weight for this iteration     100.00

 eigenvalues of (default mixing * dielectric matrix)
  average eigenvalue GAMMA=   1.8826
 12.0497  5.2681  2.5750  2.5750  1.7302  1.7302  1.5073  1.2255  1.2255  0.9096
  0.9096  1.0017  0.5468  0.5468  0.7316  0.7316  0.5494  0.6009  0.6009  0.6370

 Free energy of the ion-electron system (eV)
  ---------------------------------------------------
  alpha Z        PSCENC =       139.32636605
  Ewald energy   TEWEN  =    139914.47016258
  -Hartree energ DENC   =   -186673.69380206
  -exchange      EXHF   =         0.00000000
  -V(xc)+E(xc)   XCENC  =      -530.85236777
  PAW double counting   =     51026.55827346   -48950.00860767
  entropy T*S    EENTRO =         0.00000000
  eigenvalues    EBANDS =     -3774.51139638
  atomic energy  EATOM  =     48748.33561406
  ---------------------------------------------------
  free energy    TOTEN  =      -100.37575772 eV

  energy without entropy =     -100.37575772  energy(sigma->0) =     -100.37575772


--------------------------------------------------------------------------------------------------------




----------------------------------------- Iteration    1(  26)  ---------------------------------------


    POTLOK:  cpu time    0.23: real time    0.23
    SETDIJ:  cpu time    0.01: real time    0.01
     EDDAV:  cpu time    5.08: real time    5.08
       DOS:  cpu time    0.00: real time    0.00
    CHARGE:  cpu time    0.15: real time    0.15
    MIXING:  cpu time    0.02: real time    0.01
    --------------------------------------------
      LOOP:  cpu time    5.48: real time    5.57

 eigenvalue-minimisations  :  1048
 total energy-change (2. order) :-0.3174668E-01  (-0.1062879E-03)
 number of electron     517.0000425 magnetization       1.0857175
 augmentation part      247.8378129 magnetization       0.0768216

 Broyden mixing:
  rms(total) = 0.24468E-02    rms(broyden)= 0.24456E-02
  rms(prec ) = 0.32234E-02
  weight for this iteration     100.00

 eigenvalues of (default mixing * dielectric matrix)
  average eigenvalue GAMMA=   1.8651
 12.0357  5.6393  2.9613  2.1344  2.1344  1.5911  1.5911  1.3806  1.0303  1.0303
  0.9078  0.9078  0.8895  0.5467  0.5467  0.7445  0.6913  0.6533  0.6022  0.6022
  0.5472

 Free energy of the ion-electron system (eV)
  ---------------------------------------------------
  alpha Z        PSCENC =       139.32636605
  Ewald energy   TEWEN  =    139914.47016258
  -Hartree energ DENC   =   -186667.52172429
  -exchange      EXHF   =         0.00000000
  -V(xc)+E(xc)   XCENC  =      -530.90562029
  PAW double counting   =     51027.60210263   -48951.04582165
  entropy T*S    EENTRO =         0.00000000
  eigenvalues    EBANDS =     -3780.66858349
  atomic energy  EATOM  =     48748.33561406
  ---------------------------------------------------
  free energy    TOTEN  =      -100.40750440 eV

  energy without entropy =     -100.40750440  energy(sigma->0) =     -100.40750440


--------------------------------------------------------------------------------------------------------




----------------------------------------- Iteration    1(  27)  ---------------------------------------


    POTLOK:  cpu time    0.23: real time    0.23
    SETDIJ:  cpu time    0.01: real time    0.01
     EDDAV:  cpu time    4.77: real time    4.78
       DOS:  cpu time    0.00: real time    0.00
    CHARGE:  cpu time    0.15: real time    0.15
    MIXING:  cpu time    0.01: real time    0.01
    --------------------------------------------
      LOOP:  cpu time    5.18: real time    5.19

 eigenvalue-minimisations  :   960
 total energy-change (2. order) :-0.7625670E-02  (-0.1148097E-04)
 number of electron     517.0000425 magnetization       1.0610173
 augmentation part      247.8377313 magnetization       0.0514923

 Broyden mixing:
  rms(total) = 0.17880E-02    rms(broyden)= 0.17877E-02
  rms(prec ) = 0.23678E-02
  weight for this iteration     100.00

 eigenvalues of (default mixing * dielectric matrix)
  average eigenvalue GAMMA=   1.8648
 12.0335  5.8043  3.1881  2.3403  2.3403  1.5865  1.5865  1.2624  1.2002  1.2002
  0.9102  0.9102  0.8836  0.8836  0.5467  0.5467  0.7205  0.6687  0.6596  0.6030
  0.6030  0.5484

 Free energy of the ion-electron system (eV)
  ---------------------------------------------------
  alpha Z        PSCENC =       139.32636605
  Ewald energy   TEWEN  =    139914.47016258
  -Hartree energ DENC   =   -186665.76603440
  -exchange      EXHF   =         0.00000000
  -V(xc)+E(xc)   XCENC  =      -530.91756091
  PAW double counting   =     51028.18580582   -48951.64842468
  entropy T*S    EENTRO =         0.00000000
  eigenvalues    EBANDS =     -3782.40105859
  atomic energy  EATOM  =     48748.33561406
  ---------------------------------------------------
  free energy    TOTEN  =      -100.41513007 eV

  energy without entropy =     -100.41513007  energy(sigma->0) =     -100.41513007


--------------------------------------------------------------------------------------------------------




----------------------------------------- Iteration    1(  28)  ---------------------------------------


    POTLOK:  cpu time    0.23: real time    0.23
    SETDIJ:  cpu time    0.01: real time    0.01
     EDDAV:  cpu time    4.64: real time    4.64
       DOS:  cpu time    0.00: real time    0.00
    CHARGE:  cpu time    0.15: real time    0.15
    MIXING:  cpu time    0.01: real time    0.01
    --------------------------------------------
      LOOP:  cpu time    5.04: real time    5.05

 eigenvalue-minimisations  :   920
 total energy-change (2. order) :-0.7897021E-02  (-0.1520385E-04)
 number of electron     517.0000425 magnetization       1.0416288
 augmentation part      247.8387538 magnetization       0.0326811

 Broyden mixing:
  rms(total) = 0.15223E-02    rms(broyden)= 0.15221E-02
  rms(prec ) = 0.18584E-02
  weight for this iteration     100.00

 eigenvalues of (default mixing * dielectric matrix)
  average eigenvalue GAMMA=   1.8794
 12.0206  6.0325  3.6054  2.3122  2.3122  1.9918  1.6055  1.6055  1.1994  1.1994
  0.9082  0.9082  0.9192  0.9192  0.8478  0.5468  0.5468  0.6777  0.6777  0.5490
  0.6036  0.6036  0.6345

 Free energy of the ion-electron system (eV)
  ---------------------------------------------------
  alpha Z        PSCENC =       139.32636605
  Ewald energy   TEWEN  =    139914.47016258
  -Hartree energ DENC   =   -186663.61345795
  -exchange      EXHF   =         0.00000000
  -V(xc)+E(xc)   XCENC  =      -530.93271183
  PAW double counting   =     51027.39865521   -48950.86275989
  entropy T*S    EENTRO =         0.00000000
  eigenvalues    EBANDS =     -3784.54489532
  atomic energy  EATOM  =     48748.33561406
  ---------------------------------------------------
  free energy    TOTEN  =      -100.42302709 eV

  energy without entropy =     -100.42302709  energy(sigma->0) =     -100.42302709


--------------------------------------------------------------------------------------------------------




----------------------------------------- Iteration    1(  29)  ---------------------------------------


    POTLOK:  cpu time    0.23: real time    0.23
    SETDIJ:  cpu time    0.01: real time    0.01
     EDDAV:  cpu time    4.66: real time    4.66
       DOS:  cpu time    0.00: real time    0.00
    CHARGE:  cpu time    0.15: real time    0.15
    MIXING:  cpu time    0.02: real time    0.01
    --------------------------------------------
      LOOP:  cpu time    5.07: real time    5.73

 eigenvalue-minimisations  :   928
 total energy-change (2. order) :-0.5779183E-02  (-0.7942394E-05)
 number of electron     517.0000425 magnetization       1.0243974
 augmentation part      247.8384448 magnetization       0.0154785

 Broyden mixing:
  rms(total) = 0.11753E-02    rms(broyden)= 0.11751E-02
  rms(prec ) = 0.13518E-02
  weight for this iteration     100.00

 eigenvalues of (default mixing * dielectric matrix)
  average eigenvalue GAMMA=   1.9099
 11.9958  6.4257  4.3032  2.5900  2.2966  2.2966  1.5819  1.5819  1.1805  1.1805
  0.9076  0.9076  1.0067  1.0067  0.9351  0.5468  0.5468  0.7670  0.7313  0.5487
  0.6047  0.6047  0.6453  0.6453

 Free energy of the ion-electron system (eV)
  ---------------------------------------------------
  alpha Z        PSCENC =       139.32636605
  Ewald energy   TEWEN  =    139914.47016258
  -Hartree energ DENC   =   -186662.05851328
  -exchange      EXHF   =         0.00000000
  -V(xc)+E(xc)   XCENC  =      -530.94222732
  PAW double counting   =     51027.46073928   -48950.92336849
  entropy T*S    EENTRO =         0.00000000
  eigenvalues    EBANDS =     -3786.09757915
  atomic energy  EATOM  =     48748.33561406
  ---------------------------------------------------
  free energy    TOTEN  =      -100.42880627 eV

[...]
  2.895  -0.109   0.041   0.094  -0.152  -0.823   0.109  -0.027  -0.095   0.163   0.140  -0.019   0.036  -0.019   0.103   0.004
 -0.109   2.867   0.110  -0.111   0.023   0.109  -0.880  -0.163   0.149  -0.027  -0.138   0.019  -0.037   0.108  -0.009   0.002
  0.041   0.110   3.120  -0.012  -0.070  -0.027  -0.164  -1.145  -0.001   0.141  -0.337   0.051  -0.039  -0.070  -0.034  -0.001
  0.094  -0.111  -0.012   3.106   0.031  -0.095   0.149  -0.001  -1.110  -0.034  -0.054  -0.001  -0.006  -0.007   0.008   0.000
 -0.152   0.023  -0.070   0.031   3.034   0.163  -0.027   0.141  -0.034  -0.986  -0.340   0.061  -0.078   0.050  -0.005  -0.001
 -0.823   0.109  -0.027  -0.095   0.163   0.721  -0.109   0.016   0.097  -0.172  -0.143   0.028  -0.047   0.021  -0.105   0.002
  0.109  -0.880  -0.164   0.149  -0.027  -0.109   0.851   0.210  -0.179   0.030   0.140  -0.025   0.047  -0.110   0.014  -0.003
 -0.027  -0.163  -1.145  -0.001   0.141   0.016   0.210   1.125   0.011  -0.201   0.310  -0.050   0.044   0.063   0.036  -0.002
 -0.095   0.149  -0.001  -1.110  -0.034   0.097  -0.179   0.011   1.071   0.037   0.032   0.007   0.010  -0.002  -0.016  -0.001
  0.163  -0.027   0.141  -0.034  -0.986  -0.172   0.030  -0.201   0.037   0.903   0.323  -0.066   0.085  -0.053  -0.001  -0.005
  0.140  -0.138  -0.337  -0.054  -0.340  -0.143   0.140   0.310   0.032   0.323   1.970  -0.311  -0.094   0.020  -0.053   0.010
 -0.019   0.019   0.051  -0.001   0.061   0.028  -0.025  -0.050   0.007  -0.066  -0.311   0.070   0.028  -0.012   0.007  -0.002
  0.036  -0.037  -0.039  -0.006  -0.078  -0.047   0.047   0.044   0.010   0.085  -0.094   0.028   0.073   0.012  -0.015  -0.005
 -0.019   0.108  -0.070  -0.007   0.050   0.021  -0.110   0.063  -0.002  -0.053   0.020  -0.012   0.012   0.148  -0.004  -0.001
  0.103  -0.009  -0.034   0.008  -0.005  -0.105   0.014   0.036  -0.016  -0.001  -0.053   0.007  -0.015  -0.004   0.134   0.001
  0.004   0.002  -0.001   0.000  -0.001   0.002  -0.003  -0.002  -0.001  -0.005   0.010  -0.002  -0.005  -0.001   0.001   0.000
  0.001  -0.003   0.006   0.004  -0.002  -0.001   0.007  -0.004   0.001   0.002  -0.003   0.001  -0.001  -0.009   0.000   0.000
 -0.003   0.000  -0.001   0.001   0.002   0.007  -0.000  -0.002   0.000   0.002   0.005  -0.001   0.001   0.000  -0.008  -0.000
 total augmentation occupancy for first ion, spin component:           2
  0.003  -0.026   0.002   0.027  -0.022  -0.007   0.019  -0.002  -0.019   0.017   0.024   0.004   0.010  -0.013  -0.003  -0.000
 -0.026   0.009   0.001  -0.026   0.021   0.019  -0.013  -0.000   0.021  -0.017  -0.020  -0.005  -0.014   0.017   0.003   0.000
  0.002   0.001  -0.017   0.002  -0.005  -0.002  -0.000   0.007  -0.001   0.003  -0.002   0.001   0.000   0.000  -0.001  -0.000
  0.027  -0.026   0.002   0.008  -0.025  -0.019   0.021  -0.001  -0.011   0.019   0.019   0.003   0.009  -0.013  -0.003  -0.000
 -0.022   0.021  -0.005  -0.025   0.008   0.017  -0.017   0.003   0.019  -0.010  -0.022  -0.004  -0.013   0.015   0.003   0.000
 -0.007   0.019  -0.002  -0.019   0.017   0.011  -0.014   0.001   0.012  -0.013  -0.020  -0.002  -0.008   0.010   0.004   0.000
  0.019  -0.013  -0.000   0.021  -0.017  -0.014   0.018  -0.001  -0.016   0.015   0.014   0.004   0.009  -0.012  -0.003  -0.000
 -0.002  -0.000   0.007  -0.001   0.003   0.001  -0.001   0.002   0.001  -0.002   0.003  -0.001  -0.001  -0.002   0.001   0.000
 -0.019   0.021  -0.001  -0.011   0.019   0.012  -0.016   0.001   0.015  -0.014  -0.014  -0.003  -0.007   0.010   0.001   0.000
  0.017  -0.017   0.003   0.019  -0.010  -0.013   0.015  -0.002  -0.014   0.013   0.017   0.003   0.009  -0.012  -0.002  -0.000
  0.024  -0.020  -0.002   0.019  -0.022  -0.020   0.014   0.003  -0.014   0.017   0.035  -0.000   0.013  -0.017  -0.004  -0.000
  0.004  -0.005   0.001   0.003  -0.004  -0.002   0.004  -0.001  -0.003   0.003  -0.000   0.001   0.001  -0.002  -0.000  -0.000
  0.010  -0.014   0.000   0.009  -0.013  -0.008   0.009  -0.001  -0.007   0.009   0.013   0.001   0.005  -0.006  -0.002  -0.000
 -0.013   0.017   0.000  -0.013   0.015   0.010  -0.012  -0.002   0.010  -0.012  -0.017  -0.002  -0.006   0.009   0.002   0.000
 -0.003   0.003  -0.001  -0.003   0.003   0.004  -0.003   0.001   0.001  -0.002  -0.004  -0.000  -0.002   0.002   0.001   0.000
 -0.000   0.000  -0.000  -0.000   0.000   0.000  -0.000   0.000   0.000  -0.000  -0.000  -0.000  -0.000   0.000   0.000   0.000
  0.000  -0.000  -0.000   0.000  -0.000  -0.000   0.000   0.000  -0.000   0.000   0.000   0.000   0.000  -0.000  -0.000  -0.000
  0.000  -0.000   0.000  -0.000  -0.000  -0.000   0.000  -0.000   0.000   0.000   0.000   0.000   0.000  -0.000  -0.000  -0.000


------------------------ aborting loop because EDIFF is reached ----------------------------------------


    CHARGE:  cpu time    0.15: real time    0.15
    FORLOC:  cpu time    0.02: real time    0.02
    FORNL :  cpu time    4.63: real time    4.63
    STRESS:  cpu time    5.68: real time    5.69
    FORCOR:  cpu time    0.24: real time    0.24
    FORHAR:  cpu time    0.04: real time    0.04
    MIXING:  cpu time    0.00: real time    0.01
    OFIELD:  cpu time    0.00: real time    0.00

  FORCE on cell =-STRESS in cart. coord.  units (eV):
  Direction    XX          YY          ZZ          XY          YZ          ZX
  --------------------------------------------------------------------------------------
  Alpha Z   139.32637   139.32637   139.32637
  Ewald   32826.14563 52367.02953 52872.19692-10469.19019 -4335.44374  -256.21497
  Hartree 49140.78152 67634.79232 68055.85256 -9788.88078 -4023.17834  -240.09131
  E(xc)   -2726.90432 -2725.23931 -2725.12092    -0.99330    -0.62568     0.03160
  Local  -89671.33582************************ 20255.09182  8351.46129   499.35067
  n-local  -484.52341  -482.89767  -484.24440    -2.54980     1.23604    -0.77734
  augment  4321.37176  4317.70256  4317.35425     2.04073     1.92503    -0.62380
  Kinetic  6438.90518  6430.49661  6428.36127     4.20639     4.98594    -1.73431
  Fock        0.00000     0.00000     0.00000     0.00000     0.00000     0.00000
  -------------------------------------------------------------------------------------
  Total     -16.23310   -15.89500   -17.18048    -0.27514     0.36053    -0.05947
  in kB      -1.92857    -1.88840    -2.04112    -0.03269     0.04283    -0.00707
  external pressure =       -1.95 kB  Pullay stress =        0.00 kB


 VOLUME and BASIS-vectors are now :
 -----------------------------------------------------------------------------
  energy-cutoff  :      249.84
  volume of cell :    13485.80
      direct lattice vectors                 reciprocal lattice vectors
    23.802661963  0.000000000  0.000000000     0.042012108  0.000000000  0.000000000
     0.000000000 23.802661963  0.000000000     0.000000000  0.042012108  0.000000000
     0.000000000  0.000000000 23.802661963     0.000000000  0.000000000  0.042012108

  length of vectors
    23.802661963 23.802661963 23.802661963     0.042012108  0.042012108  0.042012108


 FORCES acting on ions
    electron-ion (+dipol)            ewald-force                    non-local-force                 convergence-correction
 -----------------------------------------------------------------------------------------------
   -.489E+03 -.144E+04 0.415E+03   0.487E+03 0.144E+04 -.415E+03   0.151E+01 0.113E+01 0.299E+00   -.516E-02 0.562E-01 0.117E-01
   0.435E+03 -.164E+04 -.240E+03   -.435E+03 0.164E+04 0.239E+03   0.409E+00 0.274E+01 0.823E+00   -.162E-01 0.963E-03 -.246E-01
   0.108E+04 -.129E+04 0.308E+03   -.108E+04 0.128E+04 -.307E+03   -.300E+01 0.289E+01 -.888E+00   -.149E-01 0.227E-01 0.570E-02
   -.358E+03 -.166E+04 -.586E+03   0.355E+03 0.166E+04 0.585E+03   0.214E+01 0.448E+01 0.798E+00   0.106E-01 -.136E-02 0.308E-01
   -.134E+04 -.116E+04 -.310E+03   0.134E+04 0.116E+04 0.309E+03   0.217E+01 0.297E+01 0.967E+00   -.423E-02 0.693E-02 0.373E-01
   0.281E+03 -.141E+04 0.948E+03   -.281E+03 0.141E+04 -.945E+03   0.580E+00 0.322E+01 -.300E+01   -.276E-01 0.124E-01 0.409E-01
   -.135E+04 -.101E+04 0.595E+03   0.134E+04 0.101E+04 -.595E+03   0.314E+01 0.304E+01 -.483E+00   -.227E-01 -.164E-01 0.252E-01
   0.132E+04 -.754E+03 -.590E+03   -.132E+04 0.753E+03 0.590E+03   -.229E+01 0.106E+01 0.396E+00   0.906E-02 -.476E-02 -.375E-01
   -.463E+03 -.101E+04 0.125E+04   0.463E+03 0.101E+04 -.125E+04   0.258E+00 0.135E+01 -.215E+01   -.124E-01 -.102E-01 0.385E-01
   -.375E+03 -.571E+03 -.263E+03   0.374E+03 0.570E+03 0.262E+03   0.953E+00 0.813E+00 0.771E+00   0.507E-02 0.313E-01 0.668E-02
   0.523E+03 -.517E+03 0.156E+04   -.522E+03 0.516E+03 -.156E+04   -.955E+00 0.103E+01 -.412E+01   0.812E-02 -.763E-02 0.220E-01
   -.517E+03 -.112E+04 -.122E+04   0.516E+03 0.112E+04 0.122E+04   0.898E+00 0.220E+01 0.109E+01   -.699E-02 0.278E-01 -.412E-01
   -.131E+04 -.173E+03 0.935E+03   0.131E+04 0.173E+03 -.933E+03   0.160E+01 -.519E+00 -.170E+01   0.656E-03 0.580E-02 0.194E-01
   0.122E+04 -.337E+03 0.110E+04   -.122E+04 0.336E+03 -.110E+04   -.206E+01 0.518E+00 -.158E+01   0.604E-02 0.333E-01 0.391E-01
   -.236E+03 -.129E+03 0.566E+03   0.236E+03 0.128E+03 -.566E+03   -.348E+00 0.552E+00 -.723E-01   0.142E-01 -.427E-01 -.185E-01
   0.492E+03 -.573E+03 0.303E+03   -.492E+03 0.572E+03 -.302E+03   -.491E+00 0.907E+00 -.913E+00   0.136E-01 0.376E-01 -.589E-01
   0.160E+04 -.263E+03 0.181E+03   -.159E+04 0.263E+03 -.181E+03   -.598E+01 0.127E+00 0.312E+00   0.658E-02 0.104E-01 0.164E-01
   -.649E+03 -.998E+02 0.141E+04   0.646E+03 0.972E+02 -.141E+04   0.248E+01 0.251E+01 -.568E+01   0.428E-01 -.142E-01 -.548E-02
   0.136E+04 -.258E+03 -.114E+04   -.136E+04 0.258E+03 0.114E+04   -.384E+01 -.503E-01 0.173E+01   -.726E-02 -.644E-03 -.180E-01
   -.155E+04 -.184E+03 0.117E+03   0.155E+04 0.183E+03 -.117E+03   0.120E+01 0.859E+00 0.297E+00   0.886E-02 -.190E-01 0.297E-02
   0.567E+03 -.110E+04 -.101E+04   -.567E+03 0.110E+04 0.101E+04   -.141E+00 0.505E+00 0.715E+00   0.207E-01 0.475E-02 0.196E-01
   0.941E+03 0.412E+03 0.115E+04   -.940E+03 -.412E+03 -.115E+04   -.102E+01 -.507E-01 -.948E+00   0.247E-01 -.758E-02 -.136E-01
   0.163E+03 0.155E+03 0.156E+04   -.163E+03 -.153E+03 -.156E+04   -.355E+00 -.148E+01 -.219E+01   -.115E-01 0.233E-01 0.227E-01
   -.695E+03 0.774E+03 0.130E+04   0.693E+03 -.773E+03 -.130E+04   0.133E+01 -.178E+01 -.284E+01   -.142E-02 -.595E-02 0.677E-02
   -.151E+04 -.386E+03 -.739E+03   0.151E+04 0.385E+03 0.738E+03   0.289E+01 0.832E+00 0.154E+01   0.165E-01 -.103E-01 0.656E-02
   0.505E+03 -.517E+03 -.159E+04   -.505E+03 0.516E+03 0.158E+04   0.320E-02 0.167E+01 0.289E+01   0.447E-02 0.431E-02 -.231E-01
   0.657E+03 0.678E+02 -.330E+03   -.657E+03 -.677E+02 0.330E+03   -.838E+00 -.319E-01 0.747E+00   -.156E-01 -.218E-01 0.115E-01
   0.367E+03 0.877E+03 0.111E+04   -.367E+03 -.876E+03 -.111E+04   0.199E+00 -.123E+01 -.505E+00   -.959E-02 0.142E-01 -.128E-01
   -.757E+03 -.406E+03 -.154E+04   0.755E+03 0.406E+03 0.154E+04   0.230E+01 0.483E+00 0.392E+01   -.154E-03 -.156E-01 0.286E-02
   -.127E+04 0.567E+03 0.531E+03   0.127E+04 -.567E+03 -.530E+03   0.109E+01 -.324E+00 -.126E+01   -.727E-02 -.106E-01 -.234E-02
   -.248E+03 0.757E+02 -.829E+03   0.247E+03 -.762E+02 0.828E+03   0.580E+00 0.526E+00 0.157E+01   -.367E-02 0.645E-02 -.257E-01
   -.145E+04 0.450E+03 -.289E+03   0.145E+04 -.450E+03 0.288E+03   0.191E+01 -.809E+00 0.105E+01   -.999E-02 -.320E-01 -.252E-01
   0.117E+04 0.959E+03 0.545E+03   -.117E+04 -.958E+03 -.545E+03   -.202E+01 -.705E+00 -.402E+00   0.139E-01 0.286E-02 -.453E-02
   0.152E+04 0.354E+03 0.291E+03   -.152E+04 -.354E+03 -.291E+03   -.179E+01 -.847E+00 0.703E+00   0.243E-02 -.309E-02 0.902E-02
   -.102E+03 0.572E+03 -.270E+02   0.102E+03 -.573E+03 0.267E+02   -.804E-01 0.446E+00 0.280E+00   0.233E-03 -.235E-01 0.497E-03
   0.160E+04 0.740E+03 -.452E+03   -.160E+04 -.739E+03 0.451E+03   -.485E+01 -.159E+01 0.154E+00   0.191E-01 0.758E-02 -.103E-01
   -.116E+04 0.494E+03 -.121E+04   0.115E+04 -.494E+03 0.121E+04   0.252E+01 0.333E+00 0.279E+01   -.117E-01 0.730E-03 0.103E-01
   0.939E+03 0.654E+03 -.125E+04   -.937E+03 -.653E+03 0.124E+04   -.170E+01 -.120E+01 0.172E+01   -.147E-01 0.161E-02 -.312E-01
   -.511E+03 0.122E+04 0.102E+04   0.510E+03 -.122E+04 -.102E+04   0.962E+00 -.303E+01 -.220E+01   0.232E-02 -.520E-02 -.122E-01
   0.972E+02 0.521E+03 -.168E+04   -.967E+02 -.518E+03 0.168E+04   -.487E+00 -.246E+01 0.416E+01   -.133E-02 0.838E-02 -.359E-02
   0.977E+03 0.128E+04 -.469E+03   -.974E+03 -.128E+04 0.468E+03   -.268E+01 -.432E+00 0.565E+00   -.629E-02 -.264E-01 -.736E-03
   0.645E+03 0.136E+04 0.516E+03   -.645E+03 -.136E+04 -.515E+03   -.339E-01 -.181E+01 -.147E+01   -.121E-01 0.882E-02 -.162E-02
   -.105E+04 0.116E+04 -.742E+03   0.105E+04 -.115E+04 0.740E+03   0.353E+01 -.367E+01 0.170E+01   -.151E-01 -.527E-02 -.111E-01
   -.102E+04 0.113E+04 0.816E+02   0.102E+04 -.113E+04 -.813E+02   0.569E+00 -.142E+01 -.264E+00   0.175E-01 -.154E-02 0.231E-02
   0.201E+02 0.111E+04 -.108E+04   -.213E+02 -.111E+04 0.108E+04   0.117E+01 -.462E+00 0.117E+01   -.913E-03 -.168E-01 -.230E-02
   0.136E+03 0.157E+04 -.557E+03   -.136E+03 -.156E+04 0.556E+03   -.103E+00 -.370E+01 0.130E+01   0.195E-02 0.270E-02 0.165E-02
   -.224E+03 0.152E+04 0.343E+03   0.224E+03 -.151E+04 -.343E+03   0.638E+00 -.617E+01 -.840E+00   -.382E-02 -.219E-01 -.111E-01
 -----------------------------------------------------------------------------------------------
   -.197E+01 -.339E+01 -.985E+00   -.165E-11 -.432E-11 -.625E-12   0.195E+01 0.342E+01 0.960E+00   0.662E-02 0.669E-02 -.534E-02
 
 
 POSITION                                       TOTAL-FORCE (eV/Angst)
 -----------------------------------------------------------------------------------
     12.99799     15.91911     11.02871         0.001111      0.027006      0.009178
     10.43992     16.84272     12.34859         0.011346      0.001535      0.016340
      8.14416     16.58201     10.87169        -0.020950      0.021793      0.005387
     12.84162     16.73600     13.69025        -0.012291      0.024307     -0.009908
     15.28916     15.39501     12.99488         0.003931     -0.001203      0.015309
     10.63984     16.34863      9.49986        -0.006182      0.022060     -0.014103
     15.52873     15.06390     10.14516        -0.008574     -0.000514      0.019192
      8.37784     14.82079     13.05878         0.017602      0.000021     -0.002106
     13.25795     14.80423      8.48062        -0.004000      0.003707      0.019023
     12.94182     13.84139     12.99272        -0.010537     -0.001600     -0.022750
     10.65853     14.27145      7.64025        -0.007180      0.012958      0.014289
     13.39804     14.85844     15.59583         0.019693     -0.018439      0.020610
     15.15538     12.64705      8.80982         0.002027     -0.005442     -0.007393
      8.42118     14.31929      9.29236         0.006665      0.003495      0.010164
     12.80208     12.66380     10.44703         0.005404     -0.006034      0.021312
     10.59776     14.25039     11.27549         0.017003     -0.034127      0.004818
      6.33317     14.41726     11.14269        -0.005817     -0.000408      0.007243
     14.75859     12.32205      6.07209         0.011473     -0.009935      0.012355
      8.83083     13.07893     15.25544        -0.006572      0.006791     -0.006843
     15.42175     12.80340     11.74614        -0.000503     -0.003870      0.011509
     10.74352     15.02338     14.54479        -0.012861      0.005294     -0.004387
     10.18624     12.08614      9.30454        -0.013044      0.004655      0.006673
     12.49791     12.18075      7.61096         0.026446     -0.003040     -0.018949
     14.41804     10.09954      7.72805        -0.002779      0.005106     -0.003147
     15.40148     13.04424     14.62230         0.001099     -0.009630      0.002594
     11.24774     13.24576     16.75599         0.001403      0.000651     -0.011279
     10.57628     12.26464     13.21740         0.015298      0.024715     -0.022125
     12.11786     10.03418      9.45106         0.004048     -0.016603     -0.006683
     14.18150     12.89319     17.31006        -0.004352      0.016462     -0.013549
     14.82936     10.37352     10.53415        -0.001912     -0.006352     -0.005670
     12.89754     11.83964     14.94830         0.003697     -0.004205     -0.005645
     15.24431     10.48194     13.41556         0.002715      0.003486      0.008194
      9.93560     10.12478     11.26661         0.001161      0.001355      0.002233
      8.28283     12.43800     11.44714         0.004373     -0.001301     -0.006513
     12.61424     10.45061     12.40732        -0.007602     -0.007281      0.000939
      8.34799     10.64984     13.68249        -0.005789     -0.009272     -0.007011
     15.03815     10.40128     16.22834        -0.005503     -0.004962     -0.008259
     10.36456     10.72123     15.66779         0.007652     -0.003661      0.000607
     13.93518      7.88660      9.39430        -0.004798     -0.004500      0.002142
     12.43682     10.75349     17.58621        -0.009074      0.001847     -0.010636
     10.51310      8.75123     13.62651        -0.005204     -0.009854     -0.000704
     11.68326      7.86790     11.22580         0.009770     -0.005900     -0.004309
     15.14303      7.94564     14.81021        -0.002005     -0.004378      0.003200
     14.51488      8.09999     12.12030        -0.004263     -0.020034     -0.016270
     12.68407      9.03963     15.30488        -0.008731      0.005511      0.005424
     12.60739      6.79805     13.67246         0.002716     -0.006601     -0.008979
     13.45491      5.72068     11.15222        -0.006108      0.006389     -0.001518
 -----------------------------------------------------------------------------------
    total drift:                               -0.008466      0.037307     -0.029867


--------------------------------------------------------------------------------------------------------



  FREE ENERGIE OF THE ION-ELECTRON SYSTEM (eV)
  ---------------------------------------------------
  free  energy   TOTEN  =      -101.62779764 eV

  energy  without entropy=     -101.62779764  energy(sigma->0) =     -101.62779764
 
 d Force = 0.2680730E-03[-0.107E-03, 0.643E-03]  d Energy = 0.4609929E-03-0.193E-03
 d Force =-0.4632654E+01[-0.464E+01,-0.462E+01]  d Ewald  =-0.4632655E+01 0.339E-06


--------------------------------------------------------------------------------------------------------


    POTLOK:  cpu time    0.25: real time    0.25


--------------------------------------------------------------------------------------------------------




--------------------------------------------------------------------------------------------------------


  
 reached required accuracy - stopping structural energy minimisation
     LOOP+:  cpu time   28.54: real time   30.93
    4ORBIT:  cpu time    0.00: real time    0.00

 total amount of memory used by VASP on root node    61161. kBytes
========================================================================

   base      :      30000. kBytes
   nonl-proj :       3401. kBytes
   fftplans  :       4967. kBytes
   grid      :      12469. kBytes
   one-center:         46. kBytes
   wavefun   :      10278. kBytes
 
  
  
 General timing and accounting informations for this job:
 ========================================================
  
                  Total CPU time used (sec):     2416.255
                            User time (sec):     2404.250
                          System time (sec):       12.005
                         Elapsed time (sec):     2503.160
  
                   Maximum memory used (kb):       76972.
                   Average memory used (kb):           0.
  
                          Minor page faults:       886679
                          Major page faults:            0
                 Voluntary context switches:        59769
