<?xml version="1.0" encoding="ISO-8859-1"?>
<modeling>
 <generator>
  <i name="program" type="string">vasp </i>
  <i name="version" type="string">5.3.5  </i>
  <i name="subversion" type="string">31Mar14 (build Feb 01 2018 12:10:03) gamma-only                       parallel </i>
  <i name="platform" type="string">LinuxIFC </i>
  <i name="date" type="string">2019 03 25 </i>
  <i name="time" type="string">04:04:09 </i>
 </generator>
 <incar>
  <i type="string" name="PREC">normal</i>
  <i type="int" name="ISPIN">     2</i>
  <i type="int" name="IBRION">     2</i>
  <i type="int" name="NSW">  1000</i>
  <i type="int" name="ISIF">     2</i>
  <i name="POTIM">      0.10000000</i>
  <i type="logical" name="LPLANE"> T  </i>
  <i type="int" name="ISMEAR">     0</i>
  <i name="SIGMA">      0.00010000</i>
  <i type="logical" name="LWAVE"> F  </i>
  <i type="logical" name="LCHARG"> F  </i>
  <i type="logical" name="LVTOT"> F  </i>
  <i type="string" name="GGA"> PE</i>
 </incar>
 <kpoints>
  <varray name="kpointlist" >
   <v>       0.00000000       0.00000000       0.00000000 </v>
  </varray>
  <varray name="weights" >
   <v>       1.00000000 </v>
  </varray>
 </kpoints>
 <parameters>
  <separator name="general" >
   <i type="string" name="SYSTEM">unknown system</i>
   <i type="logical" name="LCOMPAT"> F  </i>
  </separator>
  <separator name="electronic" >
   <i type="string" name="PREC">normal</i>
   <i name="ENMAX">    249.84400000</i>
   <i name="ENAUG">    412.49600000</i>
   <i name="EDIFF">      0.00010000</i>
   <i type="int" name="IALGO">    38</i>
   <i type="int" name="IWAVPR">    11</i>
   <i type="int" name="NBANDS">   372</i>
   <i name="NELECT">    572.00000000</i>
   <i type="int" name="TURBO">     0</i>
   <i type="int" name="IRESTART">     0</i>
   <i type="int" name="NREBOOT">     0</i>
   <i type="int" name="NMIN">     0</i>
   <i name="EREF">      0.00000000</i>
   <separator name="electronic smearing" >
    <i type="int" name="ISMEAR">     0</i>
    <i name="SIGMA">      0.00010000</i>
    <i name="KSPACING">      0.50000000</i>
    <i type="logical" name="KGAMMA"> T  </i>
   </separator>
   <separator name="electronic projectors" >
    <i type="logical" name="LREAL"> F  </i>
    <v name="ROPT">      0.00000000</v>
    <i type="int" name="LMAXPAW">  -100</i>
    <i type="int" name="LMAXMIX">     2</i>
    <i type="logical" name="NLSPLINE"> F  </i>
   </separator>
   <separator name="electronic startup" >
    <i type="int" name="ISTART">     0</i>
    <i type="int" name="ICHARG">     2</i>
    <i type="int" name="INIWAV">     1</i>
   </separator>
   <separator name="electronic spin" >
    <i type="int" name="ISPIN">     2</i>
    <i type="logical" name="LNONCOLLINEAR"> F  </i>
    <v name="MAGMOM">      1.00000000      1.00000000      1.00000000      1.00000000      1.00000000      1.00000000      1.00000000      1.00000000      1.00000000      1.00000000      1.00000000      1.00000000      1.00000000      1.00000000      1.00000000      1.00000000      1.00000000      1.00000000      1.00000000      1.00000000
      1.00000000      1.00000000      1.00000000      1.00000000      1.00000000      1.00000000      1.00000000      1.00000000      1.00000000      1.00000000      1.00000000      1.00000000      1.00000000      1.00000000      1.00000000      1.00000000      1.00000000      1.00000000      1.00000000      1.00000000
      1.00000000      1.00000000      1.00000000      1.00000000      1.00000000      1.00000000      1.00000000      1.00000000      1.00000000      1.00000000      1.00000000      1.00000000</v>
    <i name="NUPDOWN">     -1.00000000</i>
    <i type="logical" name="LSORBIT"> F  </i>
    <v name="SAXIS">      0.00000000      0.00000000      1.00000000</v>
    <i type="logical" name="LSPIRAL"> F  </i>
    <v name="QSPIRAL">      0.00000000      0.00000000      0.00000000</v>
    <i type="logical" name="LZEROZ"> F  </i>
   </separator>
   <separator name="electronic exchange-correlation" >
    <i type="logical" name="LASPH"> F  </i>
    <i type="logical" name="LMETAGGA"> F  </i>
   </separator>
   <separator name="electronic convergence" >
    <i type="int" name="NELM">    60</i>
    <i type="int" name="NELMDL">    -5</i>
    <i type="int" name="NELMIN">     2</i>
    <i name="ENINI">    249.84400000</i>
    <separator name="electronic convergence detail" >
     <i type="logical" name="LDIAG"> T  </i>
     <i type="logical" name="LSUBROT"> F  </i>
     <i name="WEIMIN">      0.00100000</i>
     <i name="EBREAK">      0.00000007</i>
     <i name="DEPER">      0.30000000</i>
     <i type="int" name="NRMM">     4</i>
     <i name="TIME">      0.40000000</i>
    </separator>
   </separator>
   <separator name="electronic mixer" >
    <i name="AMIX">      0.40000000</i>
    <i name="BMIX">      1.00000000</i>
    <i name="AMIN">      0.10000000</i>
    <i name="AMIX_MAG">      1.60000000</i>
    <i name="BMIX_MAG">      1.00000000</i>
    <separator name="electronic mixer details" >
     <i type="int" name="IMIX">     4</i>
     <i type="int" name="MAXMIX">   -45</i>
     <i name="WC">    100.00000000</i>
     <i type="int" name="INIMIX">     1</i>
     <i type="int" name="MIXPRE">     1</i>
     <i type="int" name="MREMOVE">     5</i>
    </separator>
   </separator>
   <separator name="electronic dipolcorrection" >
    <i type="logical" name="LDIPOL"> F  </i>
    <i type="logical" name="LMONO"> F  </i>
    <i type="int" name="IDIPOL">     0</i>
    <i name="EPSILON">      1.00000000</i>
    <v name="DIPOL">   -100.00000000   -100.00000000   -100.00000000</v>
    <i name="EFIELD">      0.00000000</i>
   </separator>
  </separator>
  <separator name="grids" >
   <i type="int" name="NGX">    96</i>
   <i type="int" name="NGY">    96</i>
   <i type="int" name="NGZ">    96</i>
   <i type="int" name="NGXF">   192</i>
   <i type="int" name="NGYF">   192</i>
   <i type="int" name="NGZF">   192</i>
   <i type="logical" name="ADDGRID"> F  </i>
  </separator>
  <separator name="ionic" >
   <i type="int" name="NSW">  1000</i>
   <i type="int" name="IBRION">     2</i>
   <i type="int" name="ISIF">     2</i>
   <i name="PSTRESS">      0.00000000</i>
   <i name="EDIFFG">      0.00100000</i>
   <i type="int" name="NFREE">     1</i>
   <i name="POTIM">      0.10000000</i>
   <i name="SMASS">     -3.00000000</i>
   <i name="SCALEE">      1.00000000</i>
  </separator>
  <separator name="ionic md" >
   <i name="TEBEG">      0.00010000</i>
   <i name="TEEND">      0.00010000</i>
   <i type="int" name="NBLOCK">     1</i>
   <i type="int" name="KBLOCK">  1000</i>
   <i type="int" name="NPACO">   256</i>
   <i name="APACO">     16.00000000</i>
  </separator>
  <separator name="symmetry" >
   <i type="int" name="ISYM">     2</i>
   <i name="SYMPREC">      0.00001000</i>
  </separator>
  <separator name="dos" >
   <i type="logical" name="LORBIT"> F  </i>
   <v name="RWIGS">     -1.00000000</v>
   <i type="int" name="NEDOS">   301</i>
   <i name="EMIN">     10.00000000</i>
   <i name="EMAX">    -10.00000000</i>
   <i name="EFERMI">      0.00000000</i>
  </separator>
  <separator name="writing" >
   <i type="int" name="NWRITE">     2</i>
   <i type="logical" name="LWAVE"> F  </i>
   <i type="logical" name="LCHARG"> F  </i>
   <i type="logical" name="LPARD"> F  </i>
   <i type="logical" name="LVTOT"> F  </i>
   <i type="logical" name="LVHAR"> F  </i>
   <i type="logical" name="LELF"> F  </i>
   <i type="logical" name="LOPTICS"> F  </i>
   <v name="STM">      0.00000000      0.00000000      0.00000000      0.00000000      0.00000000      0.00000000      0.00000000</v>
  </separator>
  <separator name="performance" >
   <i type="int" name="NPAR">     4</i>
   <i type="int" name="NSIM">     4</i>
   <i type="int" name="NBLK">    -1</i>
   <i type="logical" name="LPLANE"> T  </i>
   <i type="logical" name="LSCALAPACK"> T  </i>
   <i type="logical" name="LSCAAWARE"> F  </i>
   <i type="logical" name="LSCALU"> F  </i>
   <i type="logical" name="LASYNC"> F  </i>
   <i type="logical" name="LORBITALREAL"> F  </i>
  </separator>
  <separator name="miscellaneous" >
   <i type="int" name="IDIOT">     3</i>
   <i type="logical" name="LMUSIC"> F  </i>
   <v name="POMASS">    107.86800000</v>
   <v name="DARWINR">      0.00000000</v>
   <v name="DARWINV">      1.00000000</v>
   <i type="logical" name="LCORR"> T  </i>
  </separator>
  <i type="logical" name="GGA_COMPAT"> T  </i>
  <i type="logical" name="LBERRY"> F  </i>
  <i type="int" name="ICORELEVEL">     0</i>
  <i type="logical" name="LDAU"> F  </i>
  <i type="int" name="I_CONSTRAINED_M">     0</i>
  <separator name="electronic exchange-correlation" >
   <i type="string" name="GGA">PE</i>
   <i type="int" name="VOSKOWN">     0</i>
   <i type="logical" name="LHFCALC"> F  </i>
   <i type="string" name="PRECFOCK"></i>
   <i type="logical" name="LSYMGRAD"> F  </i>
   <i type="logical" name="LHFONE"> F  </i>
   <i type="logical" name="LRHFCALC"> F  </i>
   <i type="logical" name="LTHOMAS"> F  </i>
   <i type="logical" name="LMODELHF"> F  </i>
   <i name="ENCUT4O">     -1.00000000</i>
   <i type="int" name="EXXOEP">     0</i>
   <i type="int" name="FOURORBIT">     0</i>
   <i name="AEXX">      0.00000000</i>
   <i name="HFALPHA">      0.00000000</i>
   <i name="MCALPHA">      0.00000000</i>
   <i name="ALDAX">      1.00000000</i>
   <i name="AGGAX">      1.00000000</i>
   <i name="ALDAC">      1.00000000</i>
   <i name="AGGAC">      1.00000000</i>
   <i type="int" name="NKREDX">     1</i>
   <i type="int" name="NKREDY">     1</i>
   <i type="int" name="NKREDZ">     1</i>
   <i type="logical" name="SHIFTRED"> F  </i>
   <i type="logical" name="ODDONLY"> F  </i>
   <i type="logical" name="EVENONLY"> F  </i>
   <i type="int" name="LMAXFOCK">     0</i>
   <i type="int" name="NMAXFOCKAE">     0</i>
   <i type="logical" name="LFOCKAEDFT"> F  </i>
   <i name="HFSCREEN">      0.00000000</i>
   <i name="HFSCREENC">      0.00000000</i>
   <i type="int" name="NBANDSGWLOW">     0</i>
  </separator>
  <separator name="vdW DFT" >
   <i type="logical" name="LUSE_VDW"> F  </i>
   <i name="Zab_VDW">     -0.84910000</i>
   <i name="PARAM1">      0.12340000</i>
   <i name="PARAM2">      1.00000000</i>
   <i name="PARAM3">      0.00000000</i>
  </separator>
  <separator name="model GW" >
   <i type="int" name="MODEL_GW">     0</i>
   <i name="MODEL_EPS0">    155.70737822</i>
   <i name="MODEL_ALPHA">      1.00000000</i>
  </separator>
  <separator name="linear response parameters" >
   <i type="logical" name="LEPSILON"> F  </i>
   <i type="logical" name="LRPA"> F  </i>
   <i type="logical" name="LNABLA"> F  </i>
   <i type="logical" name="LVEL"> F  </i>
   <i type="int" name="KINTER">     0</i>
   <i name="CSHIFT">      0.10000000</i>
   <i name="OMEGAMAX">     -1.00000000</i>
   <i name="DEG_THRESHOLD">      0.00200000</i>
  </separator>
  <separator name="orbital magnetization" >
   <i type="logical" name="NUCIND"> F  </i>
   <v name="MAGPOS">      0.00000000      0.00000000      0.00000000</v>
   <i type="logical" name="LNICSALL"> T  </i>
   <i type="logical" name="ORBITALMAG"> F  </i>
   <i type="logical" name="LMAGBLOCH"> F  </i>
   <i type="logical" name="LCHIMAG"> F  </i>
   <i type="logical" name="LGAUGE"> T  </i>
   <i type="int" name="MAGATOM">     0</i>
   <v name="MAGDIPOL">      0.00000000      0.00000000      0.00000000</v>
   <v name="AVECCONST">      0.00000000      0.00000000      0.00000000</v>
  </separator>
  <separator name="response functions" >
   <i type="logical" name="LADDER"> F  </i>
   <i type="logical" name="LFXC"> F  </i>
   <i type="logical" name="LHARTREE"> T  </i>
   <i type="int" name="IBSE">     0</i>
   <i type="logical" name="LTCTE"> F  </i>
   <i type="logical" name="LTETE"> F  </i>
   <i type="logical" name="LTRIPLET"> F  </i>
   <i type="logical" name="LFXCEPS"> F  </i>
   <i type="logical" name="LFXHEG"> F  </i>
   <i type="logical" name="L2ORDER"> F  </i>
   <i type="logical" name="LUSEW"> F  </i>
   <i name="ENCUTGW">     -2.00000000</i>
   <i name="ENCUTGWSOFT">     -2.00000000</i>
   <i name="ENCUTLF">     -1.00000000</i>
   <i type="int" name="LMAXMP2">    -1</i>
   <i name="SCISSOR">      0.00000000</i>
   <i type="int" name="NOMEGA">     0</i>
   <i type="int" name="NOMEGAR">     0</i>
   <i type="int" name="NBANDSGW">    -1</i>
   <i type="int" name="NBANDSO">    -1</i>
   <i type="int" name="NBANDSV">    -1</i>
   <i type="int" name="NELM">     1</i>
   <i type="int" name="DIM">     3</i>
   <i type="int" name="ANTIRES">     0</i>
   <i name="OMEGAMAX">    -30.00000000</i>
   <i name="OMEGAMIN">    -30.00000000</i>
   <i name="OMEGATL">   -200.00000000</i>
   <i type="int" name="OMEGAGRID">     0</i>
   <i name="CSHIFT">     -0.10000000</i>
   <i type="logical" name="SELFENERGY"> F  </i>
   <i type="logical" name="LSPECTRAL"> F  </i>
   <i type="logical" name="ODDONLYGW"> F  </i>
   <i type="logical" name="EVENONLYGW"> F  </i>
   <i type="int" name="NKREDLFX">     1</i>
   <i type="int" name="NKREDLFY">     1</i>
   <i type="int" name="NKREDLFZ">     1</i>
   <i type="int" name="MAXMEM">  1800</i>
   <i type="int" name="TELESCOPE">     0</i>
   <i type="int" name="TAUPAR">     1</i>
  </separator>
  <separator name="External order field" >
   <i name="OFIELD_KAPPA">      0.00000000</i>
   <v name="OFIELD_K">      0.00000000      0.00000000      0.00000000</v>
   <i name="OFIELD_Q6_NEAR">      0.00000000</i>
   <i name="OFIELD_Q6_FAR">      0.00000000</i>
   <i name="OFIELD_A">      0.00000000</i>
  </separator>
 </parameters>
 <atominfo>
  <atoms>      52 </atoms>
  <types>       1 </types>
  <array name="atoms" >
   <dimension dim="1">ion</dimension>
   <field type="string">element</field>
   <field type="int">atomtype</field>
   <set>
    <rc><c>Ag</c><c>   1</c></rc>
    <rc><c>Ag</c><c>   1</c></rc>
    <rc><c>Ag</c><c>   1</c></rc>
    <rc><c>Ag</c><c>   1</c></rc>
    <rc><c>Ag</c><c>   1</c></rc>
    <rc><c>Ag</c><c>   1</c></rc>
    <rc><c>Ag</c><c>   1</c></rc>
    <rc><c>Ag</c><c>   1</c></rc>
    <rc><c>Ag</c><c>   1</c></rc>
    <rc><c>Ag</c><c>   1</c></rc>
    <rc><c>Ag</c><c>   1</c></rc>
    <rc><c>Ag</c><c>   1</c></rc>
    <rc><c>Ag</c><c>   1</c></rc>
    <rc><c>Ag</c><c>   1</c></rc>
    <rc><c>Ag</c><c>   1</c></rc>
    <rc><c>Ag</c><c>   1</c></rc>
    <rc><c>Ag</c><c>   1</c></rc>
    <rc><c>Ag</c><c>   1</c></rc>
    <rc><c>Ag</c><c>   1</c></rc>
    <rc><c>Ag</c><c>   1</c></rc>
    <rc><c>Ag</c><c>   1</c></rc>
    <rc><c>Ag</c><c>   1</c></rc>
    <rc><c>Ag</c><c>   1</c></rc>
    <rc><c>Ag</c><c>   1</c></rc>
    <rc><c>Ag</c><c>   1</c></rc>
    <rc><c>Ag</c><c>   1</c></rc>
    <rc><c>Ag</c><c>   1</c></rc>
    <rc><c>Ag</c><c>   1</c></rc>
    <rc><c>Ag</c><c>   1</c></rc>
    <rc><c>Ag</c><c>   1</c></rc>
    <rc><c>Ag</c><c>   1</c></rc>
    <rc><c>Ag</c><c>   1</c></rc>
    <rc><c>Ag</c><c>   1</c></rc>
    <rc><c>Ag</c><c>   1</c></rc>
    <rc><c>Ag</c><c>   1</c></rc>
    <rc><c>Ag</c><c>   1</c></rc>
    <rc><c>Ag</c><c>   1</c></rc>
    <rc><c>Ag</c><c>   1</c></rc>
    <rc><c>Ag</c><c>   1</c></rc>
    <rc><c>Ag</c><c>   1</c></rc>
    <rc><c>Ag</c><c>   1</c></rc>
    <rc><c>Ag</c><c>   1</c></rc>
    <rc><c>Ag</c><c>   1</c></rc>
    <rc><c>Ag</c><c>   1</c></rc>
    <rc><c>Ag</c><c>   1</c></rc>
    <rc><c>Ag</c><c>   1</c></rc>
    <rc><c>Ag</c><c>   1</c></rc>
    <rc><c>Ag</c><c>   1</c></rc>
    <rc><c>Ag</c><c>   1</c></rc>
    <rc><c>Ag</c><c>   1</c></rc>
    <rc><c>Ag</c><c>   1</c></rc>
    <rc><c>Ag</c><c>   1</c></rc>
   </set>
  </array>
  <array name="atomtypes" >
   <dimension dim="1">type</dimension>
   <field type="int">atomspertype</field>
   <field type="string">element</field>
   <field>mass</field>
   <field>valence</field>
   <field type="string">pseudopotential</field>
   <set>
    <rc><c>  52</c><c>Ag</c><c>    107.86800000</c><c>     11.00000000</c><c>  PAW_PBE Ag 02Apr2005                  </c></rc>
   </set>
  </array>
 </atominfo>
 <structure name="initialpos" >
  <crystal>
   <varray name="basis" >
    <v>      23.80786375       0.00000000       0.00000000 </v>
    <v>       0.00000000      23.80786375       0.00000000 </v>
    <v>       0.00000000       0.00000000      23.80786375 </v>
   </varray>
   <i name="volume">  13494.63944616 </i>
   <varray name="rec_basis" >
    <v>       0.04200293       0.00000000       0.00000000 </v>
    <v>       0.00000000       0.04200293       0.00000000 </v>
    <v>       0.00000000       0.00000000       0.04200293 </v>
   </varray>
  </crystal>
  <varray name="positions" >
   <v>       0.68223306       0.37642338       0.54307901 </v>
   <v>       0.66005387       0.59637858       0.57118391 </v>
   <v>       0.67683387       0.55614564       0.67872216 </v>
   <v>       0.68176153       0.47356033       0.48448919 </v>
   <v>       0.63826567       0.59088440       0.41482881 </v>
   <v>       0.60957596       0.64467082       0.66684254 </v>
   <v>       0.59556135       0.65839198       0.47572606 </v>
   <v>       0.66604527       0.47706466       0.59555113 </v>
   <v>       0.64082413       0.36781033       0.43912281 </v>
   <v>       0.61142402       0.48091560       0.39812917 </v>
   <v>       0.60641159       0.37951318       0.63139004 </v>
   <v>       0.61295976       0.46562135       0.71566665 </v>
   <v>       0.58983748       0.31429163       0.53183135 </v>
   <v>       0.55392972       0.65095383       0.57677773 </v>
   <v>       0.58693548       0.54269724       0.51013416 </v>
   <v>       0.58648165       0.56652215       0.31961967 </v>
   <v>       0.58585309       0.57042634       0.74033201 </v>
   <v>       0.58537561       0.42639089       0.52553459 </v>
   <v>       0.54676191       0.65884971       0.37032693 </v>
   <v>       0.57616848       0.54264947       0.62884839 </v>
   <v>       0.52432214       0.56388355       0.41783974 </v>
   <v>       0.53929218       0.31729138       0.43519571 </v>
   <v>       0.49479182       0.60709096       0.67504580 </v>
   <v>       0.57230412       0.37653142       0.34887498 </v>
   <v>       0.53296723       0.39111001       0.71983853 </v>
   <v>       0.50992389       0.45065098       0.62309990 </v>
   <v>       0.48068244       0.57254311       0.55863668 </v>
   <v>       0.48118089       0.66306160       0.47661202 </v>
   <v>       0.49363475       0.33971299       0.63178036 </v>
   <v>       0.51587550       0.42603458       0.43182883 </v>
   <v>       0.52317203       0.47189449       0.31658391 </v>
   <v>       0.43069361       0.41716198       0.69579127 </v>
   <v>       0.47690847       0.36704026       0.52366261 </v>
   <v>       0.49926761       0.50126595       0.73268269 </v>
   <v>       0.46626148       0.48239011       0.51575835 </v>
   <v>       0.47280203       0.57648148       0.30547151 </v>
   <v>       0.42184021       0.64852932       0.36924885 </v>
   <v>       0.43186445       0.49802866       0.38467091 </v>
   <v>       0.37078464       0.68793184       0.46512309 </v>
   <v>       0.39558215       0.63358396       0.56280830 </v>
   <v>       0.40294517       0.41186184       0.58957762 </v>
   <v>       0.41917943       0.52065356       0.64833045 </v>
   <v>       0.44586493       0.38925808       0.35714058 </v>
   <v>       0.39967977       0.57850777       0.46109123 </v>
   <v>       0.38649139       0.42791583       0.46275547 </v>
   <v>       0.41693012       0.47224801       0.27864653 </v>
   <v>       0.35115523       0.55576523       0.32864650 </v>
   <v>       0.31109251       0.62533756       0.40014843 </v>
   <v>       0.35800072       0.51812147       0.54732566 </v>
   <v>       0.30114514       0.60731719       0.50670340 </v>
   <v>       0.34179817       0.44246619       0.35451054 </v>
   <v>       0.30430473       0.51544162       0.43142069 </v>
  </varray>
 </structure>
 <calculation>
  <scstep>
   <time name="dav">    7.16    7.16</time>
   <time name="total">    7.42    7.49</time>
   <energy>
    <i name="alphaZ">    170.43531306 </i>
    <i name="ewald"> 172294.56324024 </i>
    <i name="hartreedc">-224069.38960009 </i>
    <i name="XCdc">   -555.24557377 </i>
    <i name="pawpsdc">  52175.35325962 </i>
    <i name="pawaedc"> -49777.75966170 </i>
    <i name="eentropy">      0.00000000 </i>
    <i name="bandstr">    708.13556767 </i>
    <i name="atom">  53934.32876449 </i>
    <i name="e_fr_energy">   4880.42130952 </i>
    <i name="e_wo_entrp">   4880.42130952 </i>
    <i name="e_0_energy">   4880.42130952 </i>
   </energy>
  </scstep>
  <scstep>
   <time name="dav">   10.56   10.57</time>
   <time name="total">   10.56   10.57</time>
   <energy>
    <i name="e_fr_energy">    750.19377291 </i>
    <i name="e_wo_entrp">    750.19377291 </i>
    <i name="e_0_energy">    750.19377291 </i>
   </energy>
  </scstep>
  <scstep>
   <time name="dav">    8.64    8.64</time>
   <time name="total">    8.64    8.66</time>
   <energy>
    <i name="e_fr_energy">    -79.83132210 </i>
    <i name="e_wo_entrp">    -79.83132210 </i>
    <i name="e_0_energy">    -79.83132210 </i>
   </energy>
  </scstep>
  <scstep>
   <time name="dav">    7.70    7.70</time>
   <time name="total">    7.70    7.75</time>
   <energy>
    <i name="e_fr_energy">   -110.95077286 </i>
    <i name="e_wo_entrp">   -110.95077286 </i>
    <i name="e_0_energy">   -110.95077286 </i>
   </energy>
  </scstep>
  <scstep>
   <time name="dav">    7.86    7.86</time>
   <time name="total">    8.03    8.07</time>
   <energy>
    <i name="e_fr_energy">   -111.41768992 </i>
    <i name="e_wo_entrp">   -111.41768992 </i>
    <i name="e_0_energy">   -111.41768992 </i>
   </energy>
  </scstep>
  <scstep>
   <time name="dav">    7.31    7.31</time>
   <time name="total">    7.73    7.79</time>
   <energy>
    <i name="e_fr_energy">    -47.08396946 </i>
    <i name="e_wo_entrp">    -47.08396946 </i>
    <i name="e_0_energy">    -47.08396946 </i>
   </energy>
  </scstep>
  <scstep>
   <time name="dav">    7.48    7.49</time>
   <time name="total">    7.90    7.97</time>
   <energy>
    <i name="e_fr_energy">    -38.45018528 </i>
    <i name="e_wo_entrp">    -38.45018528 </i>
    <i name="e_0_energy">    -38.45018528 </i>
   </energy>
  </scstep>
  <scstep>
   <time name="dav">    7.64    7.65</time>
   <time name="total">    8.07    8.53</time>
   <energy>
    <i name="e_fr_energy">    -32.16208719 </i>
    <i name="e_wo_entrp">    -32.16208719 </i>
    <i name="e_0_energy">    -32.16208719 </i>
   </energy>
  </scstep>
  <scstep>
   <time name="dav">    7.64    7.65</time>
   <time name="total">    8.06    9.77</time>
   <energy>
    <i name="e_fr_energy">    -35.78598148 </i>
    <i name="e_wo_entrp">    -35.78598148 </i>
    <i name="e_0_energy">    -35.78598148 </i>
   </energy>
  </scstep>
  <scstep>
   <time name="dav">    7.54    7.55</time>
   <time name="total">    7.97    7.98</time>
   <energy>
    <i name="e_fr_energy">    -41.82094354 </i>
    <i name="e_wo_entrp">    -41.82094354 </i>
    <i name="e_0_energy">    -41.82094354 </i>
   </energy>
  </scstep>
  <scstep>
   <time name="dav">    7.45    7.46</time>
   <time name="total">    7.88    8.22</time>
   <energy>
    <i name="e_fr_energy">    -57.13338294 </i>
    <i name="e_wo_entrp">    -57.13338294 </i>
    <i name="e_0_energy">    -57.13338294 </i>
   </energy>
  </scstep>
  <scstep>
   <time name="dav">    7.36    7.37</time>
   <time name="total">    7.79    8.10</time>
   <energy>
    <i name="e_fr_energy">    -71.43047197 </i>
    <i name="e_wo_entrp">    -71.43047197 </i>
    <i name="e_0_energy">    -71.43047197 </i>
   </energy>
  </scstep>
  <scstep>
   <time name="dav">    7.51    7.52</time>
   <time name="total">    7.94    7.96</time>
   <energy>
    <i name="e_fr_energy">    -79.77263354 </i>
    <i name="e_wo_entrp">    -79.77263354 </i>
    <i name="e_0_energy">    -79.77263354 </i>
   </energy>
  </scstep>
  <scstep>
   <time name="dav">    7.47    7.48</time>
   <time name="total">    7.90    7.94</time>
   <energy>
    <i name="e_fr_energy">    -85.23723183 </i>
    <i name="e_wo_entrp">    -85.23723183 </i>
    <i name="e_0_energy">    -85.23723183 </i>
   </energy>
  </scstep>
  <scstep>
   <time name="dav">    7.58    7.59</time>
   <time name="total">    8.01    8.06</time>
   <energy>
    <i name="e_fr_energy">    -89.42693323 </i>
    <i name="e_wo_entrp">    -89.42693323 </i>
    <i name="e_0_energy">    -89.42693323 </i>
   </energy>
  </scstep>
  <scstep>
   <time name="dav">    7.34    7.35</time>
   <time name="total">    7.77    7.88</time>
   <energy>
    <i name="e_fr_energy">    -96.47248415 </i>
    <i name="e_wo_entrp">    -96.47248415 </i>
    <i name="e_0_energy">    -96.47248415 </i>
   </energy>
  </scstep>
  <scstep>
   <time name="dav">    7.40    7.41</time>
   <time name="total">    7.83    7.87</time>
   <energy>
    <i name="e_fr_energy">   -101.77033451 </i>
    <i name="e_wo_entrp">   -101.77033451 </i>
    <i name="e_0_energy">   -101.77033451 </i>
   </energy>
  </scstep>
  <scstep>
   <time name="dav">    7.98    7.98</time>
   <time name="total">    8.40    8.42</time>
   <energy>
    <i name="e_fr_energy">   -102.48638889 </i>
    <i name="e_wo_entrp">   -102.48638889 </i>
    <i name="e_0_energy">   -102.48638889 </i>
   </energy>
  </scstep>
  <scstep>
   <time name="dav">    7.45    7.46</time>
   <time name="total">    7.88    7.92</time>
   <energy>
    <i name="e_fr_energy">   -104.26573597 </i>
    <i name="e_wo_entrp">   -104.26573597 </i>
    <i name="e_0_energy">   -104.26573597 </i>
   </energy>
  </scstep>
  <scstep>
   <time name="dav">    7.39    7.39</time>
   <time name="total">    7.82    7.85</time>
   <energy>
    <i name="e_fr_energy">   -106.81582799 </i>
    <i name="e_wo_entrp">   -106.81582799 </i>
    <i name="e_0_energy">   -106.81582799 </i>
   </energy>
  </scstep>
  <scstep>
   <time name="dav">    7.56    7.57</time>
   <time name="total">    7.99    8.16</time>
   <energy>
    <i name="e_fr_energy">   -107.66219139 </i>
    <i name="e_wo_entrp">   -107.66219139 </i>
    <i name="e_0_energy">   -107.66219139 </i>
   </energy>
  </scstep>
  <scstep>
   <time name="dav">    7.56    7.56</time>
   <time name="total">    7.99    8.80</time>
   <energy>
    <i name="e_fr_energy">   -108.12967911 </i>
    <i name="e_wo_entrp">   -108.12967911 </i>
    <i name="e_0_energy">   -108.12967911 </i>
   </energy>
  </scstep>
  <scstep>
   <time name="dav">    7.48    7.49</time>
   <time name="total">    7.92    7.94</time>
   <energy>
    <i name="e_fr_energy">   -108.54617573 </i>
    <i name="e_wo_entrp">   -108.54617573 </i>
    <i name="e_0_energy">   -108.54617573 </i>
   </energy>
  </scstep>
  <scstep>
   <time name="dav">    6.75    6.76</time>
   <time name="total">    7.19    7.45</time>
   <energy>
    <i name="e_fr_energy">   -108.62159353 </i>
    <i name="e_wo_entrp">   -108.62159353 </i>
    <i name="e_0_energy">   -108.62159353 </i>
   </energy>
  </scstep>
  <scstep>
   <time name="dav">    6.00    6.01</time>
   <time name="total">    6.43    6.46</time>
   <energy>
    <i name="e_fr_energy">   -108.68842811 </i>
    <i name="e_wo_entrp">   -108.68842811 </i>
    <i name="e_0_energy">   -108.68842811 </i>
   </energy>
  </scstep>
  <scstep>
   <time name="dav">    5.72    5.73</time>
   <time name="total">    6.16    6.18</time>
   <energy>
    <i name="e_fr_energy">   -108.72301479 </i>
    <i name="e_wo_entrp">   -108.72301479 </i>
    <i name="e_0_energy">   -108.72301479 </i>
   </energy>
  </scstep>
  <scstep>
   <time name="dav">    5.74    5.75</time>
   <time name="total">    6.18    6.18</time>
   <energy>
    <i name="e_fr_energy">   -108.73230357 </i>
    <i name="e_wo_entrp">   -108.73230357 </i>
    <i name="e_0_energy">   -108.73230357 </i>
   </energy>
  </scstep>
  <scstep>
   <time name="dav">    5.66    5.66</time>
   <time name="total">    6.09    6.09</time>
   <energy>
    <i name="e_fr_energy">   -108.74260488 </i>
    <i name="e_wo_entrp">   -108.74260488 </i>
    <i name="e_0_energy">   -108.74260488 </i>
   </energy>
  </scstep>
  <scstep>
   <time name="dav">    5.62    5.63</time>
   <time name="total">    6.06    6.07</time>
   <energy>
    <i name="e_fr_energy">   -108.74871266 </i>
    <i name="e_wo_entrp">   -108.74871266 </i>
    <i name="e_0_energy">   -108.74871266 </i>
   </energy>
  </scstep>
  <scstep>
   <time name="dav">    5.54    5.55</time>
   <time name="total">    5.98    5.98</time>
   <energy>
    <i name="e_fr_energy">   -108.75142037 </i>
    <i name="e_wo_entrp">   -108.75142037 </i>
    <i name="e_0_energy">   -108.75142037 </i>
   </energy>
  </scstep>
  <scstep>
   <time name="dav">    5.50    5.50</time>
   <time name="total">    5.94    5.97</time>
   <energy>
    <i name="e_fr_energy">   -108.75293125 </i>
    <i name="e_wo_entrp">   -108.75293125 </i>
    <i name="e_0_energy">   -108.75293125 </i>
   </energy>
  </scstep>
  <scstep>
   <time name="dav">    5.36    5.36</time>
   <time name="total">    5.79    5.92</time>
   <energy>
    <i name="e_fr_energy">   -108.75326935 </i>
    <i name="e_wo_entrp">   -108.75326935 </i>
    <i name="e_0_energy">   -108.75326935 </i>
   </energy>
  </scstep>
  <scstep>
   <time name="dav">    5.43    5.43</time>
   <time name="total">    5.86    5.87</time>
   <energy>
    <i name="e_fr_energy">   -108.75348864 </i>
    <i name="e_wo_entrp">   -108.75348864 </i>
    <i name="e_0_energy">   -108.75348864 </i>
   </energy>
  </scstep>
  <scstep>
   <time name="dav">    5.42    5.43</time>
   <time name="total">    5.68    5.69</time>
   <energy>
    <i name="alphaZ">    170.43531306 </i>
    <i name="ewald"> 172294.56324024 </i>
    <i name="hartreedc">-223931.98651220 </i>
    <i name="XCdc">   -577.49795822 </i>
    <i name="pawpsdc">  58071.90030174 </i>
    <i name="pawaedc"> -55798.07070518 </i>
    <i name="eentropy">      0.00000000 </i>
    <i name="bandstr">  -4272.42603244 </i>
    <i name="atom">  53934.32876449 </i>
    <i name="e_fr_energy">   -108.75358850 </i>
    <i name="e_wo_entrp">   -108.75358850 </i>
    <i name="e_0_energy">   -108.75358850 </i>
   </energy>
  </scstep>
  <structure>
   <crystal>
    <varray name="basis" >
     <v>      23.80786375       0.00000000       0.00000000 </v>
     <v>       0.00000000      23.80786375       0.00000000 </v>
     <v>       0.00000000       0.00000000      23.80786375 </v>
    </varray>
    <i name="volume">  13494.63944616 </i>
    <varray name="rec_basis" >
     <v>       0.04200293       0.00000000       0.00000000 </v>
     <v>       0.00000000       0.04200293       0.00000000 </v>
     <v>       0.00000000       0.00000000       0.04200293 </v>
    </varray>
   </crystal>
   <varray name="positions" >
    <v>       0.68223306       0.37642338       0.54307901 </v>
    <v>       0.66005387       0.59637858       0.57118391 </v>
    <v>       0.67683387       0.55614564       0.67872216 </v>
    <v>       0.68176153       0.47356033       0.48448919 </v>
    <v>       0.63826567       0.59088440       0.41482881 </v>
    <v>       0.60957596       0.64467082       0.66684254 </v>
    <v>       0.59556135       0.65839198       0.47572606 </v>
    <v>       0.66604527       0.47706466       0.59555113 </v>
    <v>       0.64082413       0.36781033       0.43912281 </v>
    <v>       0.61142402       0.48091560       0.39812917 </v>
    <v>       0.60641159       0.37951318       0.63139004 </v>
    <v>       0.61295976       0.46562135       0.71566665 </v>
    <v>       0.58983748       0.31429163       0.53183135 </v>
    <v>       0.55392972       0.65095383       0.57677773 </v>
    <v>       0.58693548       0.54269724       0.51013416 </v>
    <v>       0.58648165       0.56652215       0.31961967 </v>
    <v>       0.58585309       0.57042634       0.74033201 </v>
    <v>       0.58537561       0.42639089       0.52553459 </v>
    <v>       0.54676191       0.65884971       0.37032693 </v>
    <v>       0.57616848       0.54264947       0.62884839 </v>
    <v>       0.52432214       0.56388355       0.41783974 </v>
    <v>       0.53929218       0.31729138       0.43519571 </v>
    <v>       0.49479182       0.60709096       0.67504580 </v>
    <v>       0.57230412       0.37653142       0.34887498 </v>
    <v>       0.53296723       0.39111001       0.71983853 </v>
    <v>       0.50992389       0.45065098       0.62309990 </v>
    <v>       0.48068244       0.57254311       0.55863668 </v>
    <v>       0.48118089       0.66306160       0.47661202 </v>
    <v>       0.49363475       0.33971299       0.63178036 </v>
    <v>       0.51587550       0.42603458       0.43182883 </v>
    <v>       0.52317203       0.47189449       0.31658391 </v>
    <v>       0.43069361       0.41716198       0.69579127 </v>
    <v>       0.47690847       0.36704026       0.52366261 </v>
    <v>       0.49926761       0.50126595       0.73268269 </v>
    <v>       0.46626148       0.48239011       0.51575835 </v>
    <v>       0.47280203       0.57648148       0.30547151 </v>
    <v>       0.42184021       0.64852932       0.36924885 </v>
    <v>       0.43186445       0.49802866       0.38467091 </v>
    <v>       0.37078464       0.68793184       0.46512309 </v>
    <v>       0.39558215       0.63358396       0.56280830 </v>
    <v>       0.40294517       0.41186184       0.58957762 </v>
    <v>       0.41917943       0.52065356       0.64833045 </v>
    <v>       0.44586493       0.38925808       0.35714058 </v>
    <v>       0.39967977       0.57850777       0.46109123 </v>
    <v>       0.38649139       0.42791583       0.46275547 </v>
    <v>       0.41693012       0.47224801       0.27864653 </v>
    <v>       0.35115523       0.55576523       0.32864650 </v>
    <v>       0.31109251       0.62533756       0.40014843 </v>
    <v>       0.35800072       0.51812147       0.54732566 </v>
    <v>       0.30114514       0.60731719       0.50670340 </v>
    <v>       0.34179817       0.44246619       0.35451054 </v>
    <v>       0.30430473       0.51544162       0.43142069 </v>
   </varray>
  </structure>
  <varray name="forces" >
   <v>       1.57584066      -0.69607110       0.53382349 </v>
   <v>       0.93317878       0.63296025      -0.38266519 </v>
   <v>       1.54942357      -0.29400294       0.25619036 </v>
   <v>       0.72069780       0.69936013      -0.41301967 </v>
   <v>       1.98946961      -1.40326284      -1.05969163 </v>
   <v>       0.76850071       1.71018396       0.46856549 </v>
   <v>      -0.50322670       1.81900356       1.34729448 </v>
   <v>       0.28495817       0.10096362       0.55300640 </v>
   <v>       0.49283826       0.15354781      -0.34668754 </v>
   <v>       0.01727327      -0.34197326      -0.48364649 </v>
   <v>       0.19730808      -0.35682828       0.27843159 </v>
   <v>       0.73660314      -0.32830661      -0.20701613 </v>
   <v>      -0.34272721      -0.90249409       0.91899150 </v>
   <v>      -0.65873059       0.95184731      -0.48284225 </v>
   <v>      -0.36469409      -0.60944116      -0.05988760 </v>
   <v>       0.40550011      -0.23331030      -0.96221516 </v>
   <v>      -0.47076076       0.30057246       1.78155991 </v>
   <v>      -1.25114402       0.72322668       0.04841322 </v>
   <v>      -0.38281096       1.11182076      -0.44558803 </v>
   <v>      -0.52504043      -0.57941118      -0.43050689 </v>
   <v>      -1.13299402      -0.73719615       0.43075072 </v>
   <v>      -0.87980973      -1.10619337      -0.16585645 </v>
   <v>      -0.58853559       0.40372915       0.05533488 </v>
   <v>       0.31765436      -0.15673222      -1.18288905 </v>
   <v>       0.69768268      -0.78215826       1.34956054 </v>
   <v>       0.55179022       0.46912092      -0.82258405 </v>
   <v>       0.88769848       0.91279994       0.93366008 </v>
   <v>       0.27343933       0.21435257       0.08738993 </v>
   <v>      -0.25134537      -1.21159243      -0.49211592 </v>
   <v>       0.19303219       0.79309275       0.36312156 </v>
   <v>       0.54747059      -0.03052997      -0.31358760 </v>
   <v>      -1.36214442      -0.33199570       0.97210621 </v>
   <v>       0.41363208      -0.79753943      -0.65925408 </v>
   <v>      -0.35190113       0.24497880       0.25833908 </v>
   <v>       0.39368663      -1.19150669      -0.86524017 </v>
   <v>       0.14480480      -0.11516520      -0.63330712 </v>
   <v>       0.12851487       0.55784361       0.16024185 </v>
   <v>       0.59004453       0.84994297       1.11710673 </v>
   <v>       0.15979941       1.75171181       0.29422980 </v>
   <v>      -0.54880670       0.89066939       1.17982726 </v>
   <v>      -1.01141830       0.23451096      -0.34678929 </v>
   <v>      -0.44507408       0.54364047      -0.19429602 </v>
   <v>      -0.12305090      -1.22658159      -0.51874789 </v>
   <v>       1.05972479      -0.62447475      -0.40258905 </v>
   <v>      -0.61039185      -0.64093739       0.24500512 </v>
   <v>      -0.03066536      -0.00004582      -1.53954599 </v>
   <v>       0.11887925       0.04116009      -0.93759375 </v>
   <v>      -1.19595413       0.64047177      -1.06618851 </v>
   <v>      -0.18448081      -0.63040714       0.39116203 </v>
   <v>      -1.48274756      -0.11057039       0.99510940 </v>
   <v>      -1.23914562      -0.98147266      -0.07831597 </v>
   <v>      -0.21184603      -0.33131083       0.47344585 </v>
  </varray>
  <varray name="stress" >
   <v>       3.52618464       0.10073189       0.05261386 </v>
   <v>       0.10073188       4.51625747       0.89939650 </v>
   <v>       0.05261386       0.89939651       3.93254055 </v>
  </varray>
  <energy>
   <i name="e_fr_energy">   -108.75358850 </i>
   <i name="e_wo_entrp">   -108.75358850 </i>
   <i name="e_0_energy">      0.00000000 </i>
  </energy>
  <time name="totalsc">  267.00  272.08</time>
 </calculation>
 <calculation>
  <scstep>
   <time name="dav">    7.28    7.28</time>
   <time name="total">    7.71    7.73</time>
   <energy>
    <i name="alphaZ">    170.43531306 </i>
    <i name="ewald"> 171628.95068460 </i>
    <i name="hartreedc">-223273.28691087 </i>
    <i name="XCdc">   -578.48990274 </i>
    <i name="pawpsdc">  58071.88768557 </i>
    <i name="pawaedc"> -55798.05877121 </i>
    <i name="eentropy">      0.00000000 </i>
    <i name="bandstr">  -4265.28976643 </i>
    <i name="atom">  53934.32876449 </i>
    <i name="e_fr_energy">   -109.52290354 </i>
    <i name="e_wo_entrp">   -109.52290354 </i>
    <i name="e_0_energy">   -109.52290354 </i>
   </energy>
  </scstep>
  <scstep>
   <time name="dav">    7.52    7.53</time>
   <time name="total">    7.95    7.96</time>
   <energy>
    <i name="e_fr_energy">   -109.54934288 </i>
    <i name="e_wo_entrp">   -109.54934288 </i>
    <i name="e_0_energy">   -109.54934288 </i>
   </energy>
  </scstep>
  <scstep>
   <time name="dav">    7.36    7.37</time>
   <time name="total">    7.79    7.80</time>
   <energy>
    <i name="e_fr_energy">   -109.54806735 </i>
    <i name="e_wo_entrp">   -109.54806735 </i>
    <i name="e_0_energy">   -109.54806735 </i>
   </energy>
  </scstep>
  <scstep>
   <time name="dav">    7.54    7.55</time>
   <time name="total">    7.97    7.98</time>
   <energy>
    <i name="e_fr_energy">   -109.54797523 </i>
    <i name="e_wo_entrp">   -109.54797523 </i>
    <i name="e_0_energy">   -109.54797523 </i>
   </energy>
  </scstep>
  <scstep>
   <time name="dav">    5.87    5.88</time>
   <time name="total">    6.12    6.15</time>
   <energy>
    <i name="alphaZ">    170.43531306 </i>
    <i name="ewald"> 171628.95068460 </i>
    <i name="hartreedc">-223279.84571045 </i>
    <i name="XCdc">   -578.35171797 </i>
    <i name="pawpsdc">  57896.85562121 </i>
    <i name="pawaedc"> -55620.60086413 </i>
    <i name="eentropy">      0.00000000 </i>
    <i name="bandstr">  -4261.31997362 </i>
    <i name="atom">  53934.32876449 </i>
    <i name="e_fr_energy">   -109.54788281 </i>
    <i name="e_wo_entrp">   -109.54788281 </i>
    <i name="e_0_energy">   -109.54788281 </i>
   </energy>
  </scstep>
  <structure>
   <crystal>
    <varray name="basis" >
     <v>      23.80786375       0.00000000       0.00000000 </v>
     <v>       0.00000000      23.80786375       0.00000000 </v>
     <v>       0.00000000       0.00000000      23.80786375 </v>
    </varray>
    <i name="volume">  13494.63944616 </i>
    <varray name="rec_basis" >
     <v>       0.04200293       0.00000000       0.00000000 </v>
     <v>       0.00000000       0.04200293       0.00000000 </v>
     <v>       0.00000000       0.00000000       0.04200293 </v>
    </varray>
   </crystal>
   <varray name="positions" >
    <v>       0.68287170       0.37614129       0.54329535 </v>
    <v>       0.66043206       0.59663510       0.57102883 </v>
    <v>       0.67746180       0.55602649       0.67882598 </v>
    <v>       0.68205361       0.47384376       0.48432180 </v>
    <v>       0.63907193       0.59031570       0.41439936 </v>
    <v>       0.60988741       0.64536390       0.66703244 </v>
    <v>       0.59535741       0.65912916       0.47627207 </v>
    <v>       0.66616075       0.47710558       0.59577524 </v>
    <v>       0.64102386       0.36787256       0.43898231 </v>
    <v>       0.61143102       0.48077701       0.39793316 </v>
    <v>       0.60649155       0.37936857       0.63150288 </v>
    <v>       0.61325829       0.46548830       0.71558275 </v>
    <v>       0.58969859       0.31392588       0.53220379 </v>
    <v>       0.55366276       0.65133959       0.57658205 </v>
    <v>       0.58678768       0.54245026       0.51010989 </v>
    <v>       0.58664599       0.56642759       0.31922972 </v>
    <v>       0.58566231       0.57054816       0.74105401 </v>
    <v>       0.58486856       0.42668399       0.52555421 </v>
    <v>       0.54660677       0.65930029       0.37014635 </v>
    <v>       0.57595570       0.54241466       0.62867392 </v>
    <v>       0.52386297       0.56358479       0.41801431 </v>
    <v>       0.53893562       0.31684308       0.43512849 </v>
    <v>       0.49455330       0.60725457       0.67506823 </v>
    <v>       0.57243285       0.37646790       0.34839560 </v>
    <v>       0.53324997       0.39079303       0.72038547 </v>
    <v>       0.51014751       0.45084110       0.62276654 </v>
    <v>       0.48104220       0.57291304       0.55901506 </v>
    <v>       0.48129171       0.66314847       0.47664743 </v>
    <v>       0.49353288       0.33922197       0.63158092 </v>
    <v>       0.51595373       0.42635600       0.43197599 </v>
    <v>       0.52339391       0.47188212       0.31645682 </v>
    <v>       0.43014157       0.41702743       0.69618523 </v>
    <v>       0.47707610       0.36671705       0.52339544 </v>
    <v>       0.49912500       0.50136523       0.73278739 </v>
    <v>       0.46642103       0.48190723       0.51540769 </v>
    <v>       0.47286072       0.57643480       0.30521485 </v>
    <v>       0.42189230       0.64875539       0.36931379 </v>
    <v>       0.43210357       0.49837311       0.38512364 </v>
    <v>       0.37084940       0.68864175       0.46524233 </v>
    <v>       0.39535973       0.63394492       0.56328645 </v>
    <v>       0.40253528       0.41195688       0.58943708 </v>
    <v>       0.41899906       0.52087388       0.64825170 </v>
    <v>       0.44581507       0.38876099       0.35693035 </v>
    <v>       0.40010924       0.57825470       0.46092808 </v>
    <v>       0.38624402       0.42765608       0.46285477 </v>
    <v>       0.41691770       0.47224799       0.27802260 </v>
    <v>       0.35120341       0.55578191       0.32826652 </v>
    <v>       0.31060783       0.62559712       0.39971634 </v>
    <v>       0.35792595       0.51786598       0.54748419 </v>
    <v>       0.30054423       0.60727238       0.50710668 </v>
    <v>       0.34129598       0.44206843       0.35447880 </v>
    <v>       0.30421888       0.51530735       0.43161256 </v>
   </varray>
  </structure>
  <varray name="forces" >
   <v>       1.35397009      -0.59452984       0.45695997 </v>
   <v>       0.82172606       0.58380209      -0.34704283 </v>
   <v>       1.31397261      -0.21892343       0.25545539 </v>
   <v>       0.65152862       0.63274291      -0.34349079 </v>
   <v>       1.64469762      -1.02309550      -0.70667203 </v>
   <v>       0.69738000       1.44681279       0.42840639 </v>
   <v>      -0.23597520       1.40093910       0.88743616 </v>
   <v>       0.27227275       0.06519884       0.48342599 </v>
   <v>       0.40822471       0.14325943      -0.26574525 </v>
   <v>       0.02953004      -0.33911803      -0.47207641 </v>
   <v>       0.18160010      -0.34343254       0.25177003 </v>
   <v>       0.68774699      -0.26284207      -0.20735061 </v>
   <v>      -0.30505712      -0.77223748       0.83708753 </v>
   <v>      -0.55399593       0.95195025      -0.28371646 </v>
   <v>      -0.29791740      -0.51103117      -0.06422617 </v>
   <v>       0.35993311      -0.17250567      -0.86876411 </v>
   <v>      -0.36339693       0.31808203       1.52386049 </v>
   <v>      -1.00957414       0.57593244       0.08098075 </v>
   <v>      -0.34431397       0.91994424      -0.36716658 </v>
   <v>      -0.37389308      -0.39410754      -0.30316874 </v>
   <v>      -0.96776447      -0.58040435       0.35123126 </v>
   <v>      -0.78503447      -0.97113667      -0.18508749 </v>
   <v>      -0.51923364       0.38976398       0.06238141 </v>
   <v>       0.27089170      -0.17901791      -1.04166817 </v>
   <v>       0.53973583      -0.72206207       1.16976249 </v>
   <v>       0.41243150       0.31146770      -0.67994877 </v>
   <v>       0.68332489       0.61750637       0.76362708 </v>
   <v>       0.21990496       0.20813592       0.07982265 </v>
   <v>      -0.22528380      -1.04907554      -0.40416333 </v>
   <v>       0.20824908       0.63105837       0.17842675 </v>
   <v>       0.46024200      -0.03780023      -0.30512501 </v>
   <v>      -1.14942736      -0.30700357       0.84849733 </v>
   <v>       0.34202897      -0.77332000      -0.58100678 </v>
   <v>      -0.33819774       0.18999289       0.21312929 </v>
   <v>       0.37220143      -0.83451630      -0.66499884 </v>
   <v>       0.12900928      -0.09528252      -0.59022478 </v>
   <v>       0.11527802       0.51362435       0.15546778 </v>
   <v>       0.43693995       0.61417216       0.86476984 </v>
   <v>       0.09373260       1.50322834       0.25815192 </v>
   <v>      -0.51081297       0.78387849       1.05846902 </v>
   <v>      -0.88738394       0.20343259      -0.31823047 </v>
   <v>      -0.40952312       0.48811081      -0.17188313 </v>
   <v>      -0.09637983      -1.06956841      -0.46620422 </v>
   <v>       0.86138963      -0.44598127      -0.26503264 </v>
   <v>      -0.60336077      -0.62402219       0.20400870 </v>
   <v>      -0.03458829      -0.00698038      -1.29793027 </v>
   <v>       0.12900158       0.01759115      -0.85550530 </v>
   <v>      -1.05140321       0.59945552      -0.86138814 </v>
   <v>      -0.16749140      -0.55499280       0.33029534 </v>
   <v>      -1.26367779      -0.09225733       0.81810352 </v>
   <v>      -1.03157984      -0.85964438      -0.08697717 </v>
   <v>      -0.17167770      -0.27519353       0.44326742 </v>
  </varray>
  <varray name="stress" >
   <v>       2.94846681       0.15220319       0.07464597 </v>
   <v>       0.15220320       3.84634646       0.83195580 </v>
   <v>       0.07464598       0.83195579       3.30512131 </v>
  </varray>
  <energy>
   <i name="e_fr_energy">   -109.54788281 </i>
   <i name="e_wo_entrp">   -109.54788281 </i>
   <i name="e_0_energy">      0.00000000 </i>
  </energy>
  <time name="totalsc">   51.98   52.06</time>
 </calculation>
 <calculation>
  <scstep>
   <time name="dav">    7.26    7.26</time>
   <time name="total">    7.69    7.71</time>
   <energy>
    <i name="alphaZ">    170.43531306 </i>
    <i name="ewald"> 169663.69604755 </i>
    <i name="hartreedc">-221332.57771132 </i>
    <i name="XCdc">   -581.09475933 </i>
    <i name="pawpsdc">  57898.81002967 </i>
    <i name="pawaedc"> -55622.58359330 </i>
    <i name="eentropy">      0.00000000 </i>
    <i name="bandstr">  -4241.95235690 </i>
    <i name="atom">  53934.32876449 </i>
    <i name="e_fr_energy">   -110.93826609 </i>
    <i name="e_wo_entrp">   -110.93826609 </i>
    <i name="e_0_energy">   -110.93826609 </i>
   </energy>
  </scstep>
  <scstep>
   <time name="dav">    7.50    7.50</time>
   <time name="total">    7.92    7.93</time>
   <energy>
    <i name="e_fr_energy">   -111.17559881 </i>
    <i name="e_wo_entrp">   -111.17559881 </i>
    <i name="e_0_energy">   -111.17559881 </i>
   </energy>
  </scstep>
  <scstep>
   <time name="dav">    7.48    7.49</time>
   <time name="total">    7.91    8.17</time>
   <energy>
    <i name="e_fr_energy">   -111.16677378 </i>
    <i name="e_wo_entrp">   -111.16677378 </i>
    <i name="e_0_energy">   -111.16677378 </i>
   </energy>
  </scstep>
  <scstep>
   <time name="dav">    7.56    7.56</time>
   <time name="total">    7.98    9.16</time>
   <energy>
    <i name="e_fr_energy">   -111.16515327 </i>
    <i name="e_wo_entrp">   -111.16515327 </i>
    <i name="e_0_energy">   -111.16515327 </i>
   </energy>
  </scstep>
  <scstep>
   <time name="dav">    7.48    7.48</time>
   <time name="total">    7.90    7.91</time>
   <energy>
    <i name="e_fr_energy">   -111.16448111 </i>
    <i name="e_wo_entrp">   -111.16448111 </i>
    <i name="e_0_energy">   -111.16448111 </i>
   </energy>
  </scstep>
  <scstep>
   <time name="dav">    7.53    7.53</time>
   <time name="total">    7.96    8.03</time>
   <energy>
    <i name="e_fr_energy">   -111.16433167 </i>
    <i name="e_wo_entrp">   -111.16433167 </i>
    <i name="e_0_energy">   -111.16433167 </i>
   </energy>
  </scstep>
  <scstep>
   <time name="dav">    5.38    5.39</time>
   <time name="total">    5.64    6.15</time>
   <energy>
    <i name="alphaZ">    170.43531306 </i>
    <i name="ewald"> 169663.69604755 </i>
    <i name="hartreedc">-221350.91701751 </i>
    <i name="XCdc">   -580.67706299 </i>
    <i name="pawpsdc">  57456.19072045 </i>
    <i name="pawaedc"> -55173.55047620 </i>
    <i name="eentropy">      0.00000000 </i>
    <i name="bandstr">  -4230.67064571 </i>
    <i name="atom">  53934.32876449 </i>
    <i name="e_fr_energy">   -111.16435686 </i>
    <i name="e_wo_entrp">   -111.16435686 </i>
    <i name="e_0_energy">   -111.16435686 </i>
   </energy>
  </scstep>
  <structure>
   <crystal>
    <varray name="basis" >
     <v>      23.80786375       0.00000000       0.00000000 </v>
     <v>       0.00000000      23.80786375       0.00000000 </v>
     <v>       0.00000000       0.00000000      23.80786375 </v>
    </varray>
    <i name="volume">  13494.63944616 </i>
    <varray name="rec_basis" >
     <v>       0.04200293       0.00000000       0.00000000 </v>
     <v>       0.00000000       0.04200293       0.00000000 </v>
     <v>       0.00000000       0.00000000       0.04200293 </v>
    </varray>
   </crystal>
   <varray name="positions" >
    <v>       0.68478760       0.37529500       0.54394437 </v>
    <v>       0.66156662       0.59740465       0.57056358 </v>
    <v>       0.67934559       0.55566904       0.67913746 </v>
    <v>       0.68292983       0.47469404       0.48381966 </v>
    <v>       0.64149073       0.58860962       0.41311098 </v>
    <v>       0.61082175       0.64744314       0.66760212 </v>
    <v>       0.59474559       0.66134070       0.47791011 </v>
    <v>       0.66650721       0.47722833       0.59644759 </v>
    <v>       0.64162305       0.36805924       0.43856080 </v>
    <v>       0.61145202       0.48036124       0.39734515 </v>
    <v>       0.60673144       0.37893474       0.63184139 </v>
    <v>       0.61415385       0.46508914       0.71533106 </v>
    <v>       0.58928190       0.31282863       0.53332110 </v>
    <v>       0.55286187       0.65249684       0.57599501 </v>
    <v>       0.58634429       0.54170930       0.51003708 </v>
    <v>       0.58713899       0.56614394       0.31805986 </v>
    <v>       0.58508996       0.57091359       0.74322003 </v>
    <v>       0.58334742       0.42756329       0.52561307 </v>
    <v>       0.54614135       0.66065205       0.36960461 </v>
    <v>       0.57531736       0.54171021       0.62815051 </v>
    <v>       0.52248548       0.56268851       0.41853802 </v>
    <v>       0.53786595       0.31549817       0.43492684 </v>
    <v>       0.49383776       0.60774543       0.67513550 </v>
    <v>       0.57281906       0.37627735       0.34695744 </v>
    <v>       0.53409822       0.38984208       0.72202626 </v>
    <v>       0.51081838       0.45141145       0.62176644 </v>
    <v>       0.48212146       0.57402282       0.56015020 </v>
    <v>       0.48162416       0.66340908       0.47675368 </v>
    <v>       0.49322730       0.33774892       0.63098261 </v>
    <v>       0.51618842       0.42732024       0.43241747 </v>
    <v>       0.52405952       0.47184500       0.31607556 </v>
    <v>       0.42848548       0.41662379       0.69736712 </v>
    <v>       0.47757899       0.36574740       0.52259392 </v>
    <v>       0.49869716       0.50166308       0.73310148 </v>
    <v>       0.46689967       0.48045860       0.51435574 </v>
    <v>       0.47303677       0.57629479       0.30444487 </v>
    <v>       0.42204854       0.64943362       0.36950861 </v>
    <v>       0.43282095       0.49940647       0.38648182 </v>
    <v>       0.37104368       0.69077148       0.46560006 </v>
    <v>       0.39469249       0.63502779       0.56472088 </v>
    <v>       0.40130560       0.41224200       0.58901545 </v>
    <v>       0.41845794       0.52153483       0.64801548 </v>
    <v>       0.44566546       0.38726971       0.35629966 </v>
    <v>       0.40139765       0.57749546       0.46043861 </v>
    <v>       0.38550190       0.42687683       0.46315264 </v>
    <v>       0.41688041       0.47224793       0.27615082 </v>
    <v>       0.35134794       0.55583195       0.32712660 </v>
    <v>       0.30915379       0.62637581       0.39842007 </v>
    <v>       0.35770166       0.51709954       0.54795976 </v>
    <v>       0.29874150       0.60713795       0.50831654 </v>
    <v>       0.33978943       0.44087516       0.35438358 </v>
    <v>       0.30396131       0.51490455       0.43218817 </v>
   </varray>
  </structure>
  <varray name="forces" >
   <v>       0.79830784      -0.34153721       0.25988574 </v>
   <v>       0.51490401       0.45024240      -0.24934766 </v>
   <v>       0.73015720      -0.02628145       0.24196107 </v>
   <v>       0.46435758       0.46627743      -0.16534010 </v>
   <v>       0.89145982      -0.24157081       0.02546954 </v>
   <v>       0.50309848       0.77759087       0.30689085 </v>
   <v>       0.39197104       0.54151293      -0.17639753 </v>
   <v>       0.23559023      -0.03416940       0.28965468 </v>
   <v>       0.18618963       0.12064241      -0.05140951 </v>
   <v>       0.06714053      -0.33258309      -0.43647168 </v>
   <v>       0.13576743      -0.30530122       0.17647547 </v>
   <v>       0.54596723      -0.08514293      -0.20429433 </v>
   <v>      -0.21235162      -0.43320044       0.61763616 </v>
   <v>      -0.26996193       0.96630476       0.31259614 </v>
   <v>      -0.10762628      -0.22890030      -0.08214591 </v>
   <v>       0.24588562      -0.01154519      -0.61696263 </v>
   <v>      -0.10289443       0.34693771       0.88020431 </v>
   <v>      -0.38661620       0.18688762       0.17703100 </v>
   <v>      -0.25414903       0.45251148      -0.17193921 </v>
   <v>       0.03941969       0.10190421       0.02573478 </v>
   <v>      -0.49660619      -0.15149553       0.16661112 </v>
   <v>      -0.53274120      -0.62085402      -0.23690484 </v>
   <v>      -0.32383436       0.34955390       0.08945074 </v>
   <v>       0.14881156      -0.24313743      -0.66323797 </v>
   <v>       0.16040582      -0.55745688       0.72288948 </v>
   <v>       0.02678491      -0.11304714      -0.31659087 </v>
   <v>       0.11201807      -0.12194218       0.32852810 </v>
   <v>       0.05553924       0.18659954       0.04905373 </v>
   <v>      -0.15303603      -0.62819152      -0.18924561 </v>
   <v>       0.26956926       0.15900162      -0.38319952 </v>
   <v>       0.21426523      -0.05766439      -0.28460763 </v>
   <v>      -0.60603511      -0.23370812       0.51819369 </v>
   <v>       0.14288123      -0.71028618      -0.36438066 </v>
   <v>      -0.29937878       0.03871509       0.08349761 </v>
   <v>       0.24641095       0.07495407      -0.09969277 </v>
   <v>       0.08515831      -0.04590542      -0.46843696 </v>
   <v>       0.07486237       0.39259580       0.14382441 </v>
   <v>       0.03276764      -0.03616057       0.18236532 </v>
   <v>      -0.05208136       0.88741463       0.16865955 </v>
   <v>      -0.40117799       0.49696308       0.73822643 </v>
   <v>      -0.55668577       0.11392157      -0.23205543 </v>
   <v>      -0.30631621       0.33506673      -0.10677498 </v>
   <v>      -0.02333051      -0.66655798      -0.32764271 </v>
   <v>       0.35020348       0.03089401       0.13558399 </v>
   <v>      -0.58378061      -0.57179024       0.08751038 </v>
   <v>      -0.03620210      -0.03163818      -0.71223613 </v>
   <v>       0.15766001      -0.04464013      -0.62426161 </v>
   <v>      -0.68026352       0.47513793      -0.36838391 </v>
   <v>      -0.12973727      -0.34299225       0.15382593 </v>
   <v>      -0.72589121      -0.06041651       0.39203347 </v>
   <v>      -0.52575750      -0.55102959      -0.10269002 </v>
   <v>      -0.06109922      -0.12248346       0.36085648 </v>
  </varray>
  <varray name="stress" >
   <v>       1.47568210       0.28937770       0.10652688 </v>
   <v>       0.28937770       2.15367263       0.69842517 </v>
   <v>       0.10652687       0.69842518       1.70080568 </v>
  </varray>
  <energy>
   <i name="e_fr_energy">   -111.16435686 </i>
   <i name="e_wo_entrp">   -111.16435686 </i>
   <i name="e_0_energy">      0.00000000 </i>
  </energy>
  <time name="totalsc">   67.44   69.67</time>
 </calculation>
 <calculation>
  <scstep>
   <time name="dav">    7.26    7.26</time>
   <time name="total">    7.68    7.70</time>
   <energy>
    <i name="alphaZ">    170.43531306 </i>
    <i name="ewald"> 165867.75011813 </i>
    <i name="hartreedc">-217581.56800723 </i>
    <i name="XCdc">   -585.22929881 </i>
    <i name="pawpsdc">  57454.93909924 </i>
    <i name="pawaedc"> -55172.29741960 </i>
    <i name="eentropy">      0.00000000 </i>
    <i name="bandstr">  -4199.16209300 </i>
    <i name="atom">  53934.32876449 </i>
    <i name="e_fr_energy">   -110.80352372 </i>
    <i name="e_wo_entrp">   -110.80352372 </i>
    <i name="e_0_energy">   -110.80352372 </i>
   </energy>
  </scstep>
  <scstep>
   <time name="dav">    7.50    7.50</time>
   <time name="total">    7.92    7.94</time>
   <energy>
    <i name="e_fr_energy">   -111.81666358 </i>
    <i name="e_wo_entrp">   -111.81666358 </i>
    <i name="e_0_energy">   -111.81666358 </i>
   </energy>
  </scstep>
  <scstep>
   <time name="dav">    7.53    7.53</time>
   <time name="total">    7.95    7.96</time>
   <energy>
    <i name="e_fr_energy">   -111.80730675 </i>
    <i name="e_wo_entrp">   -111.80730675 </i>
    <i name="e_0_energy">   -111.80730675 </i>
   </energy>
  </scstep>
  <scstep>
   <time name="dav">    7.50    7.51</time>
   <time name="total">    7.93    9.37</time>
   <energy>
    <i name="e_fr_energy">   -111.78244932 </i>
    <i name="e_wo_entrp">   -111.78244932 </i>
    <i name="e_0_energy">   -111.78244932 </i>
   </energy>
  </scstep>
  <scstep>
   <time name="dav">    7.56    7.57</time>
   <time name="total">    7.99    8.01</time>
   <energy>
    <i name="e_fr_energy">   -111.78309149 </i>
    <i name="e_wo_entrp">   -111.78309149 </i>
    <i name="e_0_energy">   -111.78309149 </i>
   </energy>
  </scstep>
  <scstep>
   <time name="dav">    7.50    7.50</time>
   <time name="total">    7.92    7.93</time>
   <energy>
    <i name="e_fr_energy">   -111.78240076 </i>
    <i name="e_wo_entrp">   -111.78240076 </i>
    <i name="e_0_energy">   -111.78240076 </i>
   </energy>
  </scstep>
  <scstep>
   <time name="dav">    7.49    7.50</time>
   <time name="total">    7.74    7.75</time>
   <energy>
    <i name="alphaZ">    170.43531306 </i>
    <i name="ewald"> 165867.75011813 </i>
    <i name="hartreedc">-217612.02874891 </i>
    <i name="XCdc">   -584.43084004 </i>
    <i name="pawpsdc">  56838.35274863 </i>
    <i name="pawaedc"> -54545.80368006 </i>
    <i name="eentropy">      0.00000000 </i>
    <i name="bandstr">  -4180.38604484 </i>
    <i name="atom">  53934.32876449 </i>
    <i name="e_fr_energy">   -111.78236954 </i>
    <i name="e_wo_entrp">   -111.78236954 </i>
    <i name="e_0_energy">   -111.78236954 </i>
   </energy>
  </scstep>
  <structure>
   <crystal>
    <varray name="basis" >
     <v>      23.80786375       0.00000000       0.00000000 </v>
     <v>       0.00000000      23.80786375       0.00000000 </v>
     <v>       0.00000000       0.00000000      23.80786375 </v>
    </varray>
    <i name="volume">  13494.63944616 </i>
    <varray name="rec_basis" >
     <v>       0.04200293       0.00000000       0.00000000 </v>
     <v>       0.00000000       0.04200293       0.00000000 </v>
     <v>       0.00000000       0.00000000       0.04200293 </v>
    </varray>
   </crystal>
   <varray name="positions" >
    <v>       0.68861942       0.37360244       0.54524242 </v>
    <v>       0.66383573       0.59894376       0.56963310 </v>
    <v>       0.68311316       0.55495414       0.67976041 </v>
    <v>       0.68468228       0.47639460       0.48281536 </v>
    <v>       0.64632832       0.58519744       0.41053424 </v>
    <v>       0.61269044       0.65160163       0.66874148 </v>
    <v>       0.59352194       0.66576379       0.48118619 </v>
    <v>       0.66720011       0.47747384       0.59779227 </v>
    <v>       0.64282144       0.36843261       0.43771780 </v>
    <v>       0.61149402       0.47952970       0.39616911 </v>
    <v>       0.60721122       0.37806708       0.63251843 </v>
    <v>       0.61594497       0.46429083       0.71482768 </v>
    <v>       0.58844853       0.31063412       0.53555572 </v>
    <v>       0.55126010       0.65481135       0.57482093 </v>
    <v>       0.58545750       0.54022738       0.50989146 </v>
    <v>       0.58812501       0.56557662       0.31572013 </v>
    <v>       0.58394526       0.57164446       0.74755207 </v>
    <v>       0.58030514       0.42932188       0.52573079 </v>
    <v>       0.54521051       0.66335555       0.36852111 </v>
    <v>       0.57404067       0.54030131       0.62710369 </v>
    <v>       0.51973049       0.56089595       0.41958543 </v>
    <v>       0.53572660       0.31280835       0.43452355 </v>
    <v>       0.49240668       0.60872713       0.67527005 </v>
    <v>       0.57359146       0.37589624       0.34408113 </v>
    <v>       0.53579470       0.38794019       0.72530785 </v>
    <v>       0.51216011       0.45255217       0.61976625 </v>
    <v>       0.48427999       0.57624239       0.56242049 </v>
    <v>       0.48228905       0.66393029       0.47696618 </v>
    <v>       0.49261613       0.33480281       0.62978598 </v>
    <v>       0.51665780       0.42924872       0.43330044 </v>
    <v>       0.52539075       0.47177077       0.31531304 </v>
    <v>       0.42517329       0.41581651       0.69973089 </v>
    <v>       0.47858478       0.36380810       0.52099087 </v>
    <v>       0.49784148       0.50225877       0.73372966 </v>
    <v>       0.46785696       0.47756133       0.51225182 </v>
    <v>       0.47338888       0.57601475       0.30290492 </v>
    <v>       0.42236104       0.65079007       0.36989826 </v>
    <v>       0.43425570       0.50147319       0.38919817 </v>
    <v>       0.37143225       0.69503094       0.46631551 </v>
    <v>       0.39335802       0.63719355       0.56758975 </v>
    <v>       0.39884623       0.41281224       0.58817220 </v>
    <v>       0.41737569       0.52285675       0.64754303 </v>
    <v>       0.44536625       0.38428716       0.35503827 </v>
    <v>       0.40397448       0.57597699       0.45945967 </v>
    <v>       0.38401767       0.42531833       0.46374840 </v>
    <v>       0.41680585       0.47224782       0.27240726 </v>
    <v>       0.35163701       0.55593204       0.32484675 </v>
    <v>       0.30624571       0.62793318       0.39582753 </v>
    <v>       0.35725308       0.51556664       0.54891091 </v>
    <v>       0.29513606       0.60686909       0.51073624 </v>
    <v>       0.33677633       0.43848861       0.35419315 </v>
    <v>       0.30344619       0.51409893       0.43333940 </v>
   </varray>
  </structure>
  <varray name="forces" >
   <v>       0.04547270      -0.00989574       0.01607888 </v>
   <v>       0.03910465       0.22854848      -0.08837444 </v>
   <v>       0.00199510       0.22828209       0.20504096 </v>
   <v>       0.15628906       0.22825361       0.08088834 </v>
   <v>       0.14126177       0.38020242       0.61222154 </v>
   <v>       0.21046746      -0.08484405       0.09313898 </v>
   <v>       1.22930394      -0.14093051      -1.53880936 </v>
   <v>       0.17842197      -0.20257030      -0.02900785 </v>
   <v>      -0.13093729       0.10583307       0.25656196 </v>
   <v>       0.15051977      -0.31911701      -0.36695297 </v>
   <v>       0.05708754      -0.23728021       0.05020860 </v>
   <v>       0.30367861       0.17723028      -0.18740151 </v>
   <v>      -0.09916048       0.04832114       0.27637895 </v>
   <v>       0.16482033       1.11896469       1.52333610 </v>
   <v>       0.21656300       0.28649351      -0.13377545 </v>
   <v>       0.11190981       0.23649012      -0.23775229 </v>
   <v>       0.20948441       0.34195891       0.03461228 </v>
   <v>       0.57734808      -0.46601868       0.36634525 </v>
   <v>      -0.16162258      -0.17297856       0.07565706 </v>
   <v>       0.75486380       0.89752192       0.51866685 </v>
   <v>       0.48287066       0.60861309      -0.00402299 </v>
   <v>      -0.14611186      -0.13179662      -0.32186245 </v>
   <v>      -0.02092325       0.29479521       0.17580839 </v>
   <v>      -0.01911360      -0.32995936      -0.08311132 </v>
   <v>      -0.28724134      -0.28134394       0.12174443 </v>
   <v>      -0.65023505      -0.82609511       0.20003104 </v>
   <v>      -0.91392424      -1.15457167      -0.32303484 </v>
   <v>      -0.27890294       0.14154257      -0.04650418 </v>
   <v>      -0.03094867      -0.03662034       0.07829289 </v>
   <v>       0.50051358      -0.74898026      -1.59991891 </v>
   <v>      -0.20618495      -0.08516263      -0.26830847 </v>
   <v>       0.09971915      -0.09939059       0.04931101 </v>
   <v>      -0.18589128      -0.63529617      -0.01480943 </v>
   <v>      -0.23377048      -0.19617228      -0.13416563 </v>
   <v>      -0.26451428       1.41113149       0.98427700 </v>
   <v>       0.01200814       0.01627175      -0.26287688 </v>
   <v>       0.00121137       0.20057448       0.12762795 </v>
   <v>      -0.68745287      -1.31948338      -1.07619765 </v>
   <v>      -0.18057126       0.07441323       0.05862814 </v>
   <v>      -0.21115001       0.05429044       0.27409191 </v>
   <v>      -0.01971715      -0.06980812      -0.05456168 </v>
   <v>      -0.12309958       0.09958017       0.01249695 </v>
   <v>       0.09374053      -0.07749154      -0.11484881 </v>
   <v>      -0.45851285       0.88592696       0.94246103 </v>
   <v>      -0.54579709      -0.46233052      -0.11418527 </v>
   <v>      -0.01415183      -0.05669806       0.05512990 </v>
   <v>       0.20238900      -0.12782200      -0.23773597 </v>
   <v>      -0.16363254       0.24289592       0.22793995 </v>
   <v>      -0.11042263       0.02983629      -0.17107050 </v>
   <v>      -0.02431164      -0.05892348      -0.13288041 </v>
   <v>       0.11763489      -0.11465301      -0.10347341 </v>
   <v>       0.10962245       0.10826231       0.22866637 </v>
  </varray>
  <varray name="stress" >
   <v>      -0.40726148       0.51143273       0.06125671 </v>
   <v>       0.51143274       0.02969390       0.65727071 </v>
   <v>       0.06125671       0.65727071      -0.35047710 </v>
  </varray>
  <energy>
   <i name="e_fr_energy">   -111.78236954 </i>
   <i name="e_wo_entrp">   -111.78236954 </i>
   <i name="e_0_energy">      0.00000000 </i>
  </energy>
  <time name="totalsc">   69.60   71.22</time>
 </calculation>
 <calculation>
  <scstep>
   <time name="dav">    7.25    7.25</time>
   <time name="total">    7.67    7.69</time>
   <energy>
    <i name="alphaZ">    170.43531306 </i>
    <i name="ewald"> 166842.29037931 </i>
    <i name="hartreedc">-218582.64425478 </i>
    <i name="XCdc">   -583.31800721 </i>
    <i name="pawpsdc">  56838.91162901 </i>
    <i name="pawaedc"> -54546.34552157 </i>
    <i name="eentropy">      0.00000000 </i>
    <i name="bandstr">  -4185.49338204 </i>
    <i name="atom">  53934.32876449 </i>
    <i name="e_fr_energy">   -111.83507973 </i>
    <i name="e_wo_entrp">   -111.83507973 </i>
    <i name="e_0_energy">   -111.83507973 </i>
   </energy>
  </scstep>
  <scstep>
   <time name="dav">    7.44    7.45</time>
   <time name="total">    7.87    7.88</time>
   <energy>
    <i name="e_fr_energy">   -111.90178868 </i>
    <i name="e_wo_entrp">   -111.90178868 </i>
    <i name="e_0_energy">   -111.90178868 </i>
   </energy>
  </scstep>
  <scstep>
   <time name="dav">    7.46    7.47</time>
   <time name="total">    7.89    7.90</time>
   <energy>
    <i name="e_fr_energy">   -111.90013951 </i>
    <i name="e_wo_entrp">   -111.90013951 </i>
    <i name="e_0_energy">   -111.90013951 </i>
   </energy>
  </scstep>
  <scstep>
   <time name="dav">    7.56    7.56</time>
   <time name="total">    7.98    8.75</time>
   <energy>
    <i name="e_fr_energy">   -111.89957852 </i>
    <i name="e_wo_entrp">   -111.89957852 </i>
    <i name="e_0_energy">   -111.89957852 </i>
   </energy>
  </scstep>
  <scstep>
   <time name="dav">    5.87    5.88</time>
   <time name="total">    6.12    6.15</time>
   <energy>
    <i name="alphaZ">    170.43531306 </i>
    <i name="ewald"> 166842.29037931 </i>
    <i name="hartreedc">-218576.18157481 </i>
    <i name="XCdc">   -583.54161804 </i>
    <i name="pawpsdc">  56972.05236376 </i>
    <i name="pawaedc"> -54681.74977384 </i>
    <i name="eentropy">      0.00000000 </i>
    <i name="bandstr">  -4189.53342273 </i>
    <i name="atom">  53934.32876449 </i>
    <i name="e_fr_energy">   -111.89956881 </i>
    <i name="e_wo_entrp">   -111.89956881 </i>
    <i name="e_0_energy">   -111.89956881 </i>
   </energy>
  </scstep>
  <structure>
   <crystal>
    <varray name="basis" >
     <v>      23.80786375       0.00000000       0.00000000 </v>
     <v>       0.00000000      23.80786375       0.00000000 </v>
     <v>       0.00000000       0.00000000      23.80786375 </v>
    </varray>
    <i name="volume">  13494.63944616 </i>
    <varray name="rec_basis" >
     <v>       0.04200293       0.00000000       0.00000000 </v>
     <v>       0.00000000       0.04200293       0.00000000 </v>
     <v>       0.00000000       0.00000000       0.04200293 </v>
    </varray>
   </crystal>
   <varray name="positions" >
    <v>       0.68761887       0.37404439       0.54490348 </v>
    <v>       0.66324323       0.59854187       0.56987606 </v>
    <v>       0.68212939       0.55514081       0.67959775 </v>
    <v>       0.68422469       0.47595056       0.48307760 </v>
    <v>       0.64506514       0.58608842       0.41120707 </v>
    <v>       0.61220250       0.65051578       0.66844398 </v>
    <v>       0.59384146       0.66460885       0.48033075 </v>
    <v>       0.66701918       0.47740973       0.59744115 </v>
    <v>       0.64250852       0.36833511       0.43793792 </v>
    <v>       0.61148305       0.47974683       0.39647619 </v>
    <v>       0.60708594       0.37829364       0.63234164 </v>
    <v>       0.61547728       0.46449928       0.71495912 </v>
    <v>       0.58866613       0.31120714       0.53497222 </v>
    <v>       0.55167835       0.65420700       0.57512751 </v>
    <v>       0.58568906       0.54061434       0.50992948 </v>
    <v>       0.58786754       0.56572475       0.31633107 </v>
    <v>       0.58424416       0.57145362       0.74642090 </v>
    <v>       0.58109953       0.42886268       0.52570005 </v>
    <v>       0.54545357       0.66264962       0.36880403 </v>
    <v>       0.57437403       0.54066920       0.62737703 </v>
    <v>       0.52044986       0.56136401       0.41931194 </v>
    <v>       0.53628522       0.31351071       0.43462885 </v>
    <v>       0.49278036       0.60847079       0.67523492 </v>
    <v>       0.57338977       0.37599575       0.34483218 </v>
    <v>       0.53535172       0.38843680       0.72445097 </v>
    <v>       0.51180976       0.45225431       0.62028853 </v>
    <v>       0.48371636       0.57566282       0.56182768 </v>
    <v>       0.48211544       0.66379420       0.47691069 </v>
    <v>       0.49277571       0.33557209       0.63009844 </v>
    <v>       0.51653523       0.42874516       0.43306988 </v>
    <v>       0.52504314       0.47179015       0.31551215 </v>
    <v>       0.42603816       0.41602731       0.69911367 </v>
    <v>       0.47832215       0.36431449       0.52140945 </v>
    <v>       0.49806491       0.50210322       0.73356563 </v>
    <v>       0.46760699       0.47831786       0.51280119 </v>
    <v>       0.47329694       0.57608787       0.30330703 </v>
    <v>       0.42227944       0.65043588       0.36979651 </v>
    <v>       0.43388106       0.50093354       0.38848889 </v>
    <v>       0.37133079       0.69391872       0.46612869 </v>
    <v>       0.39370647       0.63662803       0.56684064 </v>
    <v>       0.39948841       0.41266334       0.58839238 </v>
    <v>       0.41765829       0.52251157       0.64766639 </v>
    <v>       0.44544438       0.38506595       0.35536764 </v>
    <v>       0.40330163       0.57637349       0.45971529 </v>
    <v>       0.38440523       0.42572528       0.46359284 </v>
    <v>       0.41682532       0.47224785       0.27338477 </v>
    <v>       0.35156153       0.55590590       0.32544205 </v>
    <v>       0.30700506       0.62752652       0.39650448 </v>
    <v>       0.35737021       0.51596690       0.54866255 </v>
    <v>       0.29607750       0.60693929       0.51010442 </v>
    <v>       0.33756310       0.43911178       0.35424287 </v>
    <v>       0.30358070       0.51430929       0.43303880 </v>
   </varray>
  </structure>
  <varray name="forces" >
   <v>       0.20466631      -0.07749026       0.06190888 </v>
   <v>       0.14206085       0.28087501      -0.12419599 </v>
   <v>       0.14925157       0.17582544       0.21565171 </v>
   <v>       0.22646728       0.27704151       0.02977638 </v>
   <v>       0.26979803       0.28503717       0.52548365 </v>
   <v>       0.27516755       0.08965658       0.14252167 </v>
   <v>       1.03392517      -0.05614458      -1.23773959 </v>
   <v>       0.19010116      -0.16267841       0.04483298 </v>
   <v>      -0.06201311       0.10772256       0.19068972 </v>
   <v>       0.12723805      -0.32392207      -0.38474569 </v>
   <v>       0.07553498      -0.25353723       0.07933660 </v>
   <v>       0.35910987       0.12053022      -0.19322161 </v>
   <v>      -0.11679704      -0.05348381       0.35017635 </v>
   <v>       0.07118032       1.06436739       1.19998183 </v>
   <v>       0.14100938       0.15769534      -0.11845256 </v>
   <v>       0.13761661       0.18009485      -0.32240843 </v>
   <v>       0.14990999       0.34621009       0.21457718 </v>
   <v>       0.35250643      -0.30576049       0.31722767 </v>
   <v>      -0.17634271      -0.04130821       0.02568084 </v>
   <v>       0.57610771       0.70894367       0.40443590 </v>
   <v>       0.21114511       0.41270589       0.01511505 </v>
   <v>      -0.23442440      -0.23694754      -0.30132323 </v>
   <v>      -0.08783673       0.30756424       0.14938258 </v>
   <v>       0.01505768      -0.31102618      -0.21174208 </v>
   <v>      -0.20261630      -0.34893602       0.25208402 </v>
   <v>      -0.47851678      -0.65076315       0.08518639 </v>
   <v>      -0.65493576      -0.92090693      -0.17274001 </v>
   <v>      -0.19091920       0.15199036      -0.01733934 </v>
   <v>      -0.05728537      -0.16246794       0.02495971 </v>
   <v>       0.42342621      -0.51126910      -1.26359325 </v>
   <v>      -0.10490181      -0.08007392      -0.26889941 </v>
   <v>      -0.04536273      -0.13415382       0.15252177 </v>
   <v>      -0.10846217      -0.64912572      -0.09617735 </v>
   <v>      -0.24844361      -0.14460743      -0.08383269 </v>
   <v>      -0.09363375       1.10680754       0.69534399 </v>
   <v>       0.02979207       0.00273296      -0.31185902 </v>
   <v>       0.01934901       0.24644959       0.13211493 </v>
   <v>      -0.50028294      -0.97045458      -0.74534364 </v>
   <v>      -0.16193675       0.24738987       0.08048551 </v>
   <v>      -0.25891749       0.15123002       0.37758706 </v>
   <v>      -0.14631415      -0.01961831      -0.10161068 </v>
   <v>      -0.16668335       0.15195410      -0.01717335 </v>
   <v>       0.06669556      -0.20374326      -0.16243411 </v>
   <v>      -0.26128191       0.66151237       0.72028647 </v>
   <v>      -0.55652459      -0.49336532      -0.06558421 </v>
   <v>      -0.02209360      -0.04916201      -0.10437432 </v>
   <v>       0.19341863      -0.11192466      -0.32799461 </v>
   <v>      -0.27868268       0.30222057       0.11145192 </v>
   <v>      -0.10689573      -0.06082877      -0.09041510 </v>
   <v>      -0.17409911      -0.05516621      -0.02944620 </v>
   <v>      -0.01642670      -0.20526517      -0.10671041 </v>
   <v>       0.07209497       0.05757376       0.26055611 </v>
  </varray>
  <varray name="stress" >
   <v>      -0.03744018       0.46033955       0.08652160 </v>
   <v>       0.46033955       0.45044465       0.64456138 </v>
   <v>       0.08652160       0.64456137       0.05611619 </v>
  </varray>
  <energy>
   <i name="e_fr_energy">   -111.89956881 </i>
   <i name="e_wo_entrp">   -111.89956881 </i>
   <i name="e_0_energy">      0.00000000 </i>
  </energy>
  <time name="totalsc">   51.98   52.81</time>
 </calculation>
 <calculation>
  <scstep>
   <time name="dav">    7.26    7.27</time>
   <time name="total">    7.69    7.70</time>
   <energy>
    <i name="alphaZ">    170.43531306 </i>
    <i name="ewald"> 165883.80631760 </i>
    <i name="hartreedc">-217623.40112297 </i>
    <i name="XCdc">   -584.50347182 </i>
    <i name="pawpsdc">  56969.87648205 </i>
    <i name="pawaedc"> -54679.55021959 </i>
    <i name="eentropy">      0.00000000 </i>
    <i name="bandstr">  -4183.26147304 </i>
    <i name="atom">  53934.32876449 </i>
    <i name="e_fr_energy">   -112.26941023 </i>
    <i name="e_wo_entrp">   -112.26941023 </i>
    <i name="e_0_energy">   -112.26941023 </i>
   </energy>
  </scstep>
  <scstep>
   <time name="dav">    7.38    7.38</time>
   <time name="total">    7.80    7.81</time>
   <energy>
    <i name="e_fr_energy">   -112.31399506 </i>
    <i name="e_wo_entrp">   -112.31399506 </i>
    <i name="e_0_energy">   -112.31399506 </i>
   </energy>
  </scstep>
  <scstep>
   <time name="dav">    7.57    7.58</time>
   <time name="total">    8.00    8.02</time>
   <energy>
    <i name="e_fr_energy">   -112.31214367 </i>
    <i name="e_wo_entrp">   -112.31214367 </i>
    <i name="e_0_energy">   -112.31214367 </i>
   </energy>
  </scstep>
  <scstep>
   <time name="dav">    7.50    7.51</time>
   <time name="total">    7.93    7.95</time>
   <energy>
[...]
       <r>     1.1901     0.0000   353.0000 </r>
       <r>     1.2320     0.0000   355.0000 </r>
       <r>     1.2739     0.0000   356.0000 </r>
       <r>     1.3158     0.0000   357.0000 </r>
       <r>     1.3578     0.0000   360.0000 </r>
       <r>     1.3997     0.0000   363.0000 </r>
       <r>     1.4416    23.8548   366.0000 </r>
       <r>     1.4835     0.0000   367.0000 </r>
       <r>     1.5254     0.0000   368.0000 </r>
       <r>     1.5674    23.8548   370.0000 </r>
       <r>     1.6093     0.0000   371.0000 </r>
       <r>     1.6512     0.0000   372.0000 </r>
       <r>     1.6931     0.0000   372.0000 </r>
       <r>     1.7350     0.0000   372.0000 </r>
       <r>     1.7770     0.0000   372.0000 </r>
       <r>     1.8189     0.0000   372.0000 </r>
       <r>     1.8608     0.0000   372.0000 </r>
       <r>     1.9027     0.0000   372.0000 </r>
       <r>     1.9446     0.0000   372.0000 </r>
       <r>     1.9866     0.0000   372.0000 </r>
       <r>     2.0285     0.0000   372.0000 </r>
       <r>     2.0704     0.0000   372.0000 </r>
       <r>     2.1123     0.0000   372.0000 </r>
       <r>     2.1542     0.0000   372.0000 </r>
       <r>     2.1962     0.0000   372.0000 </r>
      </set>
      <set comment="spin 2">
       <r>   -10.3799     0.0000     0.0000 </r>
       <r>   -10.3380     0.0000     0.0000 </r>
       <r>   -10.2961     0.0000     0.0000 </r>
       <r>   -10.2541     0.0000     0.0000 </r>
       <r>   -10.2122     0.0000     0.0000 </r>
       <r>   -10.1703     0.0000     0.0000 </r>
       <r>   -10.1284     0.0000     0.0000 </r>
       <r>   -10.0865     0.0000     0.0000 </r>
       <r>   -10.0445     0.0000     0.0000 </r>
       <r>   -10.0026     0.0000     0.0000 </r>
       <r>    -9.9607     0.0000     0.0000 </r>
       <r>    -9.9188     0.0000     0.0000 </r>
       <r>    -9.8769     0.0000     0.0000 </r>
       <r>    -9.8349     0.0000     0.0000 </r>
       <r>    -9.7930     0.0000     1.0000 </r>
       <r>    -9.7511     0.0000     1.0000 </r>
       <r>    -9.7092     0.0000     1.0000 </r>
       <r>    -9.6673     0.0000     1.0000 </r>
       <r>    -9.6253     0.0000     1.0000 </r>
       <r>    -9.5834     0.0000     1.0000 </r>
       <r>    -9.5415     0.0000     1.0000 </r>
       <r>    -9.4996     0.0000     1.0000 </r>
       <r>    -9.4577     0.0000     1.0000 </r>
       <r>    -9.4157     0.0000     1.0000 </r>
       <r>    -9.3738     0.0000     1.0000 </r>
       <r>    -9.3319     0.0000     1.0000 </r>
       <r>    -9.2900     0.0000     2.0000 </r>
       <r>    -9.2481     0.0000     2.0000 </r>
       <r>    -9.2061     0.0000     2.0000 </r>
       <r>    -9.1642     0.0000     3.0000 </r>
       <r>    -9.1223     0.0000     4.0000 </r>
       <r>    -9.0804     0.0000     6.0000 </r>
       <r>    -9.0385     0.0000     8.0000 </r>
       <r>    -8.9965     0.0000     9.0000 </r>
       <r>    -8.9546     0.0000    10.0000 </r>
       <r>    -8.9127     0.0001    12.0000 </r>
       <r>    -8.8708    23.8548    15.0000 </r>
       <r>    -8.8289     0.0000    18.0000 </r>
       <r>    -8.7869     0.0000    19.0000 </r>
       <r>    -8.7450     0.0000    21.0000 </r>
       <r>    -8.7031     0.0000    24.0000 </r>
       <r>    -8.6612     0.0000    27.0000 </r>
       <r>    -8.6193     0.0000    29.0000 </r>
       <r>    -8.5773     0.0000    31.0000 </r>
       <r>    -8.5354     0.0000    34.0000 </r>
       <r>    -8.4935    23.8548    38.0000 </r>
       <r>    -8.4516     0.0000    41.0000 </r>
       <r>    -8.4097     0.0000    44.0000 </r>
       <r>    -8.3677     0.0000    47.0000 </r>
       <r>    -8.3258     0.0000    51.0000 </r>
       <r>    -8.2839     0.0000    54.0000 </r>
       <r>    -8.2420     0.0000    59.0000 </r>
       <r>    -8.2001    29.0036    61.2158 </r>
       <r>    -8.1581     0.0000    64.0000 </r>
       <r>    -8.1162     0.0000    68.0000 </r>
       <r>    -8.0743     0.0000    71.0000 </r>
       <r>    -8.0324    10.8528    74.4550 </r>
       <r>    -7.9905     0.0000    78.0000 </r>
       <r>    -7.9485     0.0000    82.0000 </r>
       <r>    -7.9066     0.0000    84.0000 </r>
       <r>    -7.8647     0.0000    87.0000 </r>
       <r>    -7.8228     0.0000    92.0000 </r>
       <r>    -7.7809     0.0000    97.0000 </r>
       <r>    -7.7389     0.0000    99.0000 </r>
       <r>    -7.6970     0.0000   103.0000 </r>
       <r>    -7.6551     0.0000   105.0000 </r>
       <r>    -7.6132     0.0000   108.0000 </r>
       <r>    -7.5713     0.0000   111.0000 </r>
       <r>    -7.5293     8.8450   114.3708 </r>
       <r>    -7.4874     0.0000   118.0000 </r>
       <r>    -7.4455     0.0000   121.0000 </r>
       <r>    -7.4036     0.0000   126.0000 </r>
       <r>    -7.3616     0.0000   130.0000 </r>
       <r>    -7.3197     0.0000   132.0000 </r>
       <r>    -7.2778    23.8548   135.0000 </r>
       <r>    -7.2359     0.0000   139.0000 </r>
       <r>    -7.1940     0.0000   143.0000 </r>
       <r>    -7.1520     0.0000   146.0000 </r>
       <r>    -7.1101     0.0000   150.0000 </r>
       <r>    -7.0682     0.0000   153.0000 </r>
       <r>    -7.0263     5.5171   156.2313 </r>
       <r>    -6.9844     0.0000   160.0000 </r>
       <r>    -6.9424     0.0000   164.0000 </r>
       <r>    -6.9005     0.0000   168.0000 </r>
       <r>    -6.8586    23.8537   174.0000 </r>
       <r>    -6.8167     0.0000   177.0000 </r>
       <r>    -6.7748     0.0000   184.0000 </r>
       <r>    -6.7328     0.0000   188.0000 </r>
       <r>    -6.6909     0.0000   191.0000 </r>
       <r>    -6.6490     0.0000   199.0000 </r>
       <r>    -6.6071     0.0000   205.0000 </r>
       <r>    -6.5652     0.0000   210.0000 </r>
       <r>    -6.5232     0.0000   215.0000 </r>
       <r>    -6.4813     8.8282   220.3701 </r>
       <r>    -6.4394     0.0000   227.0000 </r>
       <r>    -6.3975     0.0000   232.0000 </r>
       <r>    -6.3556     0.0000   237.0000 </r>
       <r>    -6.3136     0.0000   242.0000 </r>
       <r>    -6.2717     0.0000   248.0000 </r>
       <r>    -6.2298     0.0000   252.0000 </r>
       <r>    -6.1879     0.0000   255.0000 </r>
       <r>    -6.1460     0.0000   260.0000 </r>
       <r>    -6.1040     0.0000   263.0000 </r>
       <r>    -6.0621     0.0000   265.0000 </r>
       <r>    -6.0202     0.0000   266.0000 </r>
       <r>    -5.9783     0.0000   267.0000 </r>
       <r>    -5.9364     0.0000   268.0000 </r>
       <r>    -5.8944     0.0000   268.0000 </r>
       <r>    -5.8525     0.0000   268.0000 </r>
       <r>    -5.8106     0.0000   268.0000 </r>
       <r>    -5.7687     0.0000   268.0000 </r>
       <r>    -5.7268     0.0000   269.0000 </r>
       <r>    -5.6848     0.0000   269.0000 </r>
       <r>    -5.6429     0.0000   269.0000 </r>
       <r>    -5.6010     0.0000   269.0000 </r>
       <r>    -5.5591     0.0000   269.0000 </r>
       <r>    -5.5172     0.0000   270.0000 </r>
       <r>    -5.4752     0.0000   270.0000 </r>
       <r>    -5.4333     0.0000   270.0000 </r>
       <r>    -5.3914     0.0000   270.0000 </r>
       <r>    -5.3495     0.0000   271.0000 </r>
       <r>    -5.3076     0.0000   271.0000 </r>
       <r>    -5.2656     0.0000   272.0000 </r>
       <r>    -5.2237     0.0000   272.0000 </r>
       <r>    -5.1818     0.0000   272.0000 </r>
       <r>    -5.1399     0.0000   273.0000 </r>
       <r>    -5.0980     0.0000   273.0000 </r>
       <r>    -5.0560     0.0000   274.0000 </r>
       <r>    -5.0141     0.0000   274.0000 </r>
       <r>    -4.9722     0.0000   274.0000 </r>
       <r>    -4.9303     0.0000   274.0000 </r>
       <r>    -4.8884     0.0000   274.0000 </r>
       <r>    -4.8464     0.0000   275.0000 </r>
       <r>    -4.8045     0.0000   275.0000 </r>
       <r>    -4.7626     0.0000   275.0000 </r>
       <r>    -4.7207     0.0000   275.0000 </r>
       <r>    -4.6788     0.0000   275.0000 </r>
       <r>    -4.6368     0.0000   276.0000 </r>
       <r>    -4.5949     0.0000   277.0000 </r>
       <r>    -4.5530     0.0000   277.0000 </r>
       <r>    -4.5111     0.0000   277.0000 </r>
       <r>    -4.4692     0.0000   277.0000 </r>
       <r>    -4.4272     0.0000   277.0000 </r>
       <r>    -4.3853     0.0000   277.0000 </r>
       <r>    -4.3434     0.0000   278.0000 </r>
       <r>    -4.3015     0.0000   278.0000 </r>
       <r>    -4.2596     0.0000   278.0000 </r>
       <r>    -4.2176     0.0000   278.0000 </r>
       <r>    -4.1757     0.0000   278.0000 </r>
       <r>    -4.1338     0.0000   279.0000 </r>
       <r>    -4.0919     0.0000   279.0000 </r>
       <r>    -4.0500     0.0000   279.0000 </r>
       <r>    -4.0080     0.0000   280.0000 </r>
       <r>    -3.9661     0.0000   280.0000 </r>
       <r>    -3.9242     0.0000   280.0000 </r>
       <r>    -3.8823     0.0000   280.0000 </r>
       <r>    -3.8404     0.0000   281.0000 </r>
       <r>    -3.7984     0.0000   282.0000 </r>
       <r>    -3.7565     0.0000   282.0000 </r>
       <r>    -3.7146     0.0000   282.0000 </r>
       <r>    -3.6727     0.0000   282.0000 </r>
       <r>    -3.6308     0.0000   283.0000 </r>
       <r>    -3.5888     0.0000   283.0000 </r>
       <r>    -3.5469     0.0000   284.0000 </r>
       <r>    -3.5050     0.0000   284.0000 </r>
       <r>    -3.4631     0.0000   284.0000 </r>
       <r>    -3.4212     0.0000   285.0000 </r>
       <r>    -3.3792     0.0000   285.0000 </r>
       <r>    -3.3373     0.0000   286.0000 </r>
       <r>    -3.2954     0.0000   286.0000 </r>
       <r>    -3.2535     0.0000   286.0000 </r>
       <r>    -3.2116     0.0000   286.0000 </r>
       <r>    -3.1696     0.0000   286.0000 </r>
       <r>    -3.1277     0.0000   286.0000 </r>
       <r>    -3.0858     0.0000   286.0000 </r>
       <r>    -3.0439     0.0000   287.0000 </r>
       <r>    -3.0019     0.0000   287.0000 </r>
       <r>    -2.9600     0.0000   288.0000 </r>
       <r>    -2.9181     0.0000   288.0000 </r>
       <r>    -2.8762     0.0000   290.0000 </r>
       <r>    -2.8343     0.0000   290.0000 </r>
       <r>    -2.7923     0.0000   290.0000 </r>
       <r>    -2.7504     0.0000   290.0000 </r>
       <r>    -2.7085     0.0000   290.0000 </r>
       <r>    -2.6666     0.0000   291.0000 </r>
       <r>    -2.6247     0.0000   291.0000 </r>
       <r>    -2.5827     0.0000   291.0000 </r>
       <r>    -2.5408     0.0000   292.0000 </r>
       <r>    -2.4989     0.0000   292.0000 </r>
       <r>    -2.4570     0.0000   292.0000 </r>
       <r>    -2.4151     0.0000   293.0000 </r>
       <r>    -2.3731     0.0000   294.0000 </r>
       <r>    -2.3312     0.0000   294.0000 </r>
       <r>    -2.2893     0.0000   294.0000 </r>
       <r>    -2.2474     0.0000   295.0000 </r>
       <r>    -2.2055     0.0000   296.0000 </r>
       <r>    -2.1635     0.0000   297.0000 </r>
       <r>    -2.1216     0.0000   297.0000 </r>
       <r>    -2.0797     0.0000   298.0000 </r>
       <r>    -2.0378     0.0000   298.0000 </r>
       <r>    -1.9959     0.0000   299.0000 </r>
       <r>    -1.9539     0.0000   299.0000 </r>
       <r>    -1.9120     0.0000   299.0000 </r>
       <r>    -1.8701     0.0000   301.0000 </r>
       <r>    -1.8282     0.0000   301.0000 </r>
       <r>    -1.7863     0.0000   301.0000 </r>
       <r>    -1.7443     0.0000   301.0000 </r>
       <r>    -1.7024     0.0000   303.0000 </r>
       <r>    -1.6605     0.0000   303.0000 </r>
       <r>    -1.6186     0.0000   303.0000 </r>
       <r>    -1.5767     0.0000   304.0000 </r>
       <r>    -1.5347     0.0000   305.0000 </r>
       <r>    -1.4928     0.0000   305.0000 </r>
       <r>    -1.4509     0.0000   306.0000 </r>
       <r>    -1.4090     0.0000   306.0000 </r>
       <r>    -1.3671     0.0000   306.0000 </r>
       <r>    -1.3251     0.0000   307.0000 </r>
       <r>    -1.2832     0.0000   307.0000 </r>
       <r>    -1.2413     0.0000   309.0000 </r>
       <r>    -1.1994     0.0000   309.0000 </r>
       <r>    -1.1575     0.0000   309.0000 </r>
       <r>    -1.1155     0.0000   310.0000 </r>
       <r>    -1.0736     0.0000   310.0000 </r>
       <r>    -1.0317     0.0000   310.0000 </r>
       <r>    -0.9898     0.0000   310.0000 </r>
       <r>    -0.9479     0.0000   311.0000 </r>
       <r>    -0.9059     0.0000   312.0000 </r>
       <r>    -0.8640     0.0000   312.0000 </r>
       <r>    -0.8221     0.0000   313.0000 </r>
       <r>    -0.7802     0.0000   313.0000 </r>
       <r>    -0.7383     0.0000   314.0000 </r>
       <r>    -0.6963     0.0000   315.0000 </r>
       <r>    -0.6544     0.0000   315.0000 </r>
       <r>    -0.6125     0.0000   316.0000 </r>
       <r>    -0.5706     0.0000   317.0000 </r>
       <r>    -0.5287     0.0000   317.0000 </r>
       <r>    -0.4867     0.0000   318.0000 </r>
       <r>    -0.4448     0.0000   319.0000 </r>
       <r>    -0.4029     0.0000   319.0000 </r>
       <r>    -0.3610     0.0000   319.0000 </r>
       <r>    -0.3191     0.0000   319.0000 </r>
       <r>    -0.2771     0.0000   319.0000 </r>
       <r>    -0.2352     0.0000   319.0000 </r>
       <r>    -0.1933     0.0000   320.0000 </r>
       <r>    -0.1514     0.0000   322.0000 </r>
       <r>    -0.1095     0.0000   323.0000 </r>
       <r>    -0.0675     0.0000   323.0000 </r>
       <r>    -0.0256     0.0000   324.0000 </r>
       <r>     0.0163     0.0000   324.0000 </r>
       <r>     0.0582     0.0000   325.0000 </r>
       <r>     0.1001     0.0000   325.0000 </r>
       <r>     0.1421     0.0000   326.0000 </r>
       <r>     0.1840     0.0000   326.0000 </r>
       <r>     0.2259     0.0000   326.0000 </r>
       <r>     0.2678     0.0000   328.0000 </r>
       <r>     0.3097     0.0000   328.0000 </r>
       <r>     0.3517     0.0000   328.0000 </r>
       <r>     0.3936     0.0000   329.0000 </r>
       <r>     0.4355     0.0000   330.0000 </r>
       <r>     0.4774     0.0000   330.0000 </r>
       <r>     0.5193     0.0000   331.0000 </r>
       <r>     0.5613     0.0000   331.0000 </r>
       <r>     0.6032     0.0000   332.0000 </r>
       <r>     0.6451    23.8548   334.0000 </r>
       <r>     0.6870     0.0000   334.0000 </r>
       <r>     0.7289     0.0000   336.0000 </r>
       <r>     0.7709     0.0000   336.0000 </r>
       <r>     0.8128     0.0000   338.0000 </r>
       <r>     0.8547    23.8548   339.0000 </r>
       <r>     0.8966     0.0000   340.0000 </r>
       <r>     0.9385     0.0000   341.0000 </r>
       <r>     0.9805     0.0000   343.0000 </r>
       <r>     1.0224     0.0000   345.0000 </r>
       <r>     1.0643     0.0000   346.0000 </r>
       <r>     1.1062     0.0000   348.0000 </r>
       <r>     1.1482     0.0000   351.0000 </r>
       <r>     1.1901     0.0000   353.0000 </r>
       <r>     1.2320     0.0000   355.0000 </r>
       <r>     1.2739     0.0000   356.0000 </r>
       <r>     1.3158     0.0000   357.0000 </r>
       <r>     1.3578     0.0000   360.0000 </r>
       <r>     1.3997     0.0000   363.0000 </r>
       <r>     1.4416    23.8548   366.0000 </r>
       <r>     1.4835     0.0000   367.0000 </r>
       <r>     1.5254     0.0000   368.0000 </r>
       <r>     1.5674    23.8548   370.0000 </r>
       <r>     1.6093     0.0000   371.0000 </r>
       <r>     1.6512     0.0000   372.0000 </r>
       <r>     1.6931     0.0000   372.0000 </r>
       <r>     1.7350     0.0000   372.0000 </r>
       <r>     1.7770     0.0000   372.0000 </r>
       <r>     1.8189     0.0000   372.0000 </r>
       <r>     1.8608     0.0000   372.0000 </r>
       <r>     1.9027     0.0000   372.0000 </r>
       <r>     1.9446     0.0000   372.0000 </r>
       <r>     1.9866     0.0000   372.0000 </r>
       <r>     2.0285     0.0000   372.0000 </r>
       <r>     2.0704     0.0000   372.0000 </r>
       <r>     2.1123     0.0000   372.0000 </r>
       <r>     2.1542     0.0000   372.0000 </r>
       <r>     2.1962     0.0000   372.0000 </r>
      </set>
     </set>
    </array>
   </total>
  </dos>
 </calculation>
 <structure name="finalpos" >
  <crystal>
   <varray name="basis" >
    <v>      23.80786375       0.00000000       0.00000000 </v>
    <v>       0.00000000      23.80786375       0.00000000 </v>
    <v>       0.00000000       0.00000000      23.80786375 </v>
   </varray>
   <i name="volume">  13494.63944616 </i>
   <varray name="rec_basis" >
    <v>       0.04200293       0.00000000       0.00000000 </v>
    <v>       0.00000000       0.04200293       0.00000000 </v>
    <v>       0.00000000       0.00000000       0.04200293 </v>
   </varray>
  </crystal>
  <varray name="positions" >
   <v>       0.68273375       0.37170073       0.54602478 </v>
   <v>       0.66703753       0.60427190       0.56474491 </v>
   <v>       0.68758914       0.56254201       0.67976711 </v>
   <v>       0.67548531       0.47196047       0.48110161 </v>
   <v>       0.65079791       0.57108992       0.42465170 </v>
   <v>       0.62991790       0.66430898       0.66643274 </v>
   <v>       0.60101940       0.65743872       0.47999566 </v>
   <v>       0.66316545       0.48027613       0.59841937 </v>
   <v>       0.62910391       0.36554957       0.44001528 </v>
   <v>       0.62900671       0.46724452       0.37080225 </v>
   <v>       0.60943284       0.37569871       0.63653929 </v>
   <v>       0.61585833       0.47382327       0.70912053 </v>
   <v>       0.57638465       0.30712748       0.53560457 </v>
   <v>       0.54977981       0.66903156       0.58325082 </v>
   <v>       0.58250846       0.53849151       0.51914023 </v>
   <v>       0.59281068       0.57015631       0.32257597 </v>
   <v>       0.58387146       0.58972617       0.74626128 </v>
   <v>       0.57528268       0.42243934       0.53160262 </v>
   <v>       0.53957391       0.66175259       0.37503685 </v>
   <v>       0.57846948       0.56154396       0.63500095 </v>
   <v>       0.52153947       0.55649473       0.42073421 </v>
   <v>       0.52682401       0.30411807       0.41873050 </v>
   <v>       0.48276241       0.61879961       0.67589109 </v>
   <v>       0.57141876       0.36701850       0.33070715 </v>
   <v>       0.53511429       0.39313700       0.72380183 </v>
   <v>       0.51151336       0.46381278       0.62066189 </v>
   <v>       0.48024629       0.57776787       0.56458152 </v>
   <v>       0.48549874       0.66701116       0.48175309 </v>
   <v>       0.49588086       0.34278107       0.62123106 </v>
   <v>       0.52976373       0.42752861       0.42184756 </v>
   <v>       0.52778866       0.47253078       0.30930871 </v>
   <v>       0.42657023       0.41738208       0.69622545 </v>
   <v>       0.47216561       0.35692982       0.50514515 </v>
   <v>       0.49956022       0.51026804       0.72909606 </v>
   <v>       0.46988571       0.48021561       0.50535439 </v>
   <v>       0.47429303       0.57768365       0.30925493 </v>
   <v>       0.42126971       0.65719255       0.37781616 </v>
   <v>       0.43094964       0.48930321       0.38889515 </v>
   <v>       0.36909857       0.68921567       0.48359786 </v>
   <v>       0.37878324       0.62348770       0.59005388 </v>
   <v>       0.40517835       0.41061579       0.58332791 </v>
   <v>       0.41071004       0.52614393       0.65027509 </v>
   <v>       0.45033458       0.37581632       0.35165972 </v>
   <v>       0.40662488       0.57995369       0.46623159 </v>
   <v>       0.37666996       0.41590140       0.46499915 </v>
   <v>       0.41777270       0.47168173       0.27255715 </v>
   <v>       0.35756789       0.55785072       0.32584175 </v>
   <v>       0.30876611       0.63007970       0.40061593 </v>
   <v>       0.35707744       0.50898851       0.54536989 </v>
   <v>       0.29213363       0.59973918       0.51175781 </v>
   <v>       0.33956078       0.42888022       0.35116516 </v>
   <v>       0.31288024       0.51277094       0.43041011 </v>
  </varray>
 </structure>
</modeling>
