   50   50 1000    2
  0.2846930E+03  0.2423533E-08  0.2423533E-08  0.2423533E-08  0.1000000E-15
  1.000000000000000E-004
  CAR 
 unknown system                          
    550      1    356
 
  0.0000000E+00  0.0000000E+00  0.0000000E+00  0.1000000E+01
    1       -9.794932     -9.794932
    2       -9.218601     -9.218601
    3       -9.161494     -9.161494
    4       -9.135212     -9.135212
    5       -9.116768     -9.116768
    6       -9.113538     -9.113538
    7       -9.052265     -9.052265
    8       -9.022436     -9.022436
    9       -9.016615     -9.016615
   10       -8.984521     -8.984521
   11       -8.975429     -8.975429
   12       -8.965701     -8.965701
   13       -8.934251     -8.934251
   14       -8.904095     -8.904095
   15       -8.875652     -8.875652
   16       -8.871268     -8.871268
   17       -8.831203     -8.831203
   18       -8.812511     -8.812511
   19       -8.787633     -8.787633
   20       -8.773521     -8.773521
   21       -8.765307     -8.765307
   22       -8.748287     -8.748287
   23       -8.742646     -8.742646
   24       -8.723263     -8.723263
   25       -8.712123     -8.712123
   26       -8.682287     -8.682287
   27       -8.671834     -8.671834
   28       -8.658512     -8.658512
   29       -8.646059     -8.646059
   30       -8.637578     -8.637578
   31       -8.618272     -8.618272
   32       -8.615262     -8.615262
   33       -8.596717     -8.596717
   34       -8.583180     -8.583180
   35       -8.572856     -8.572856
   36       -8.571339     -8.571339
   37       -8.550630     -8.550630
   38       -8.527803     -8.527803
   39       -8.524363     -8.524363
   40       -8.503569     -8.503569
   41       -8.499435     -8.499435
   42       -8.475870     -8.475870
   43       -8.451975     -8.451975
   44       -8.434674     -8.434674
   45       -8.424493     -8.424493
   46       -8.419663     -8.419663
   47       -8.402259     -8.402259
   48       -8.384371     -8.384371
   49       -8.373792     -8.373792
   50       -8.351842     -8.351842
   51       -8.344014     -8.344014
   52       -8.317117     -8.317117
   53       -8.306130     -8.306130
   54       -8.299399     -8.299399
   55       -8.287763     -8.287763
   56       -8.273578     -8.273578
   57       -8.256973     -8.256973
   58       -8.230979     -8.230980
   59       -8.228496     -8.228496
   60       -8.211868     -8.211868
   61       -8.209386     -8.209386
   62       -8.189422     -8.189423
   63       -8.186550     -8.186550
   64       -8.170225     -8.170225
   65       -8.169578     -8.169578
   66       -8.140535     -8.140535
   67       -8.132827     -8.132827
   68       -8.122615     -8.122615
   69       -8.108463     -8.108463
   70       -8.083066     -8.083066
   71       -8.078949     -8.078949
   72       -8.070987     -8.070987
   73       -8.062144     -8.062144
   74       -8.051629     -8.051629
   75       -8.026359     -8.026359
   76       -8.012329     -8.012329
   77       -8.010325     -8.010325
   78       -7.992835     -7.992835
   79       -7.988245     -7.988245
   80       -7.975299     -7.975300
   81       -7.959352     -7.959352
   82       -7.947442     -7.947442
   83       -7.942811     -7.942811
   84       -7.922330     -7.922330
   85       -7.906216     -7.906216
   86       -7.904628     -7.904628
   87       -7.893258     -7.893258
   88       -7.884553     -7.884553
   89       -7.861225     -7.861225
   90       -7.855266     -7.855266
   91       -7.846517     -7.846517
   92       -7.833732     -7.833732
   93       -7.822104     -7.822104
   94       -7.806018     -7.806018
   95       -7.805084     -7.805084
   96       -7.785830     -7.785830
   97       -7.769119     -7.769119
   98       -7.765352     -7.765352
   99       -7.747066     -7.747066
  100       -7.724349     -7.724349
  101       -7.717306     -7.717306
  102       -7.705560     -7.705560
  103       -7.687297     -7.687297
  104       -7.676250     -7.676250
  105       -7.673258     -7.673258
  106       -7.665220     -7.665220
  107       -7.642670     -7.642670
  108       -7.638465     -7.638465
  109       -7.632452     -7.632452
  110       -7.624104     -7.624104
  111       -7.616975     -7.616975
  112       -7.605238     -7.605238
  113       -7.582432     -7.582432
  114       -7.576363     -7.576363
  115       -7.556635     -7.556635
  116       -7.542816     -7.542816
  117       -7.529706     -7.529706
  118       -7.501351     -7.501351
  119       -7.488815     -7.488815
  120       -7.469767     -7.469767
  121       -7.460132     -7.460132
  122       -7.451707     -7.451707
  123       -7.444551     -7.444551
  124       -7.431669     -7.431669
  125       -7.419628     -7.419628
  126       -7.411581     -7.411581
  127       -7.395769     -7.395769
  128       -7.384901     -7.384901
  129       -7.375654     -7.375654
  130       -7.362362     -7.362362
  131       -7.354157     -7.354157
  132       -7.344628     -7.344629
  133       -7.331622     -7.331622
  134       -7.317361     -7.317361
  135       -7.312354     -7.312354
  136       -7.295628     -7.295628
  137       -7.277480     -7.277480
  138       -7.270342     -7.270342
  139       -7.251594     -7.251594
  140       -7.237786     -7.237786
  141       -7.218167     -7.218167
  142       -7.211670     -7.211670
  143       -7.198271     -7.198271
  144       -7.193653     -7.193653
  145       -7.171700     -7.171700
  146       -7.155920     -7.155920
  147       -7.145159     -7.145159
  148       -7.140591     -7.140591
  149       -7.119724     -7.119724
  150       -7.100835     -7.100835
  151       -7.099644     -7.099644
  152       -7.089870     -7.089870
  153       -7.065948     -7.065948
  154       -7.056579     -7.056579
  155       -7.051905     -7.051905
  156       -7.039494     -7.039494
  157       -7.029743     -7.029743
  158       -7.020270     -7.020270
  159       -7.003829     -7.003829
  160       -6.997390     -6.997390
  161       -6.993165     -6.993165
  162       -6.981731     -6.981731
  163       -6.970589     -6.970589
  164       -6.950124     -6.950124
  165       -6.947960     -6.947960
  166       -6.943310     -6.943310
  167       -6.936325     -6.936325
  168       -6.931669     -6.931669
  169       -6.916760     -6.916760
  170       -6.911395     -6.911395
  171       -6.898069     -6.898069
  172       -6.893710     -6.893710
  173       -6.878352     -6.878352
  174       -6.868752     -6.868752
  175       -6.858680     -6.858680
  176       -6.855302     -6.855302
  177       -6.838471     -6.838471
  178       -6.830403     -6.830403
  179       -6.821108     -6.821108
  180       -6.814664     -6.814664
  181       -6.807475     -6.807475
  182       -6.800456     -6.800456
  183       -6.796414     -6.796414
  184       -6.790300     -6.790300
  185       -6.776821     -6.776821
  186       -6.767313     -6.767313
  187       -6.761577     -6.761577
  188       -6.757992     -6.757992
  189       -6.740215     -6.740215
  190       -6.734741     -6.734741
  191       -6.728232     -6.728232
  192       -6.720644     -6.720644
  193       -6.717782     -6.717782
  194       -6.704636     -6.704636
  195       -6.696843     -6.696843
  196       -6.689117     -6.689117
  197       -6.682854     -6.682854
  198       -6.675579     -6.675579
  199       -6.665415     -6.665415
  200       -6.658930     -6.658930
  201       -6.650232     -6.650232
  202       -6.645521     -6.645521
  203       -6.631340     -6.631340
  204       -6.621373     -6.621373
  205       -6.606521     -6.606521
  206       -6.603365     -6.603365
  207       -6.589721     -6.589722
  208       -6.589003     -6.589003
  209       -6.582188     -6.582188
  210       -6.571961     -6.571961
  211       -6.562909     -6.562909
  212       -6.553680     -6.553680
  213       -6.545691     -6.545691
  214       -6.541182     -6.541182
  215       -6.526989     -6.526989
  216       -6.517182     -6.517182
  217       -6.510144     -6.510144
  218       -6.501794     -6.501794
  219       -6.500098     -6.500098
  220       -6.495504     -6.495504
  221       -6.484969     -6.484969
  222       -6.477359     -6.477359
  223       -6.466462     -6.466462
  224       -6.460209     -6.460209
  225       -6.448925     -6.448925
  226       -6.444432     -6.444432
  227       -6.436736     -6.436736
  228       -6.422447     -6.422447
  229       -6.418704     -6.418704
  230       -6.403453     -6.403453
  231       -6.400259     -6.400259
  232       -6.392265     -6.392265
  233       -6.377392     -6.377392
  234       -6.371107     -6.371107
  235       -6.363892     -6.363892
  236       -6.356168     -6.356168
  237       -6.341999     -6.341999
  238       -6.330245     -6.330245
  239       -6.325235     -6.325235
  240       -6.317905     -6.317905
  241       -6.302958     -6.302958
  242       -6.295474     -6.295474
  243       -6.277098     -6.277098
  244       -6.271326     -6.271326
  245       -6.259833     -6.259833
  246       -6.251280     -6.251280
  247       -6.233269     -6.233269
  248       -6.210219     -6.210219
  249       -6.196761     -6.196761
  250       -6.193652     -6.193652
  251       -6.179546     -6.179546
  252       -6.165856     -6.165856
  253       -6.157490     -6.157490
  254       -6.145314     -6.145314
  255       -6.133264     -6.133264
  256       -6.077796     -6.077796
  257       -6.070930     -6.070930
  258       -6.051984     -6.051984
  259       -5.813131     -5.813131
  260       -5.691242     -5.691242
  261       -5.273981     -5.273981
  262       -5.167622     -5.167622
  263       -5.111605     -5.111605
  264       -4.931774     -4.931774
  265       -4.858207     -4.858207
  266       -4.765225     -4.765225
  267       -4.736182     -4.736182
  268       -4.385116     -4.385116
  269       -4.114286     -4.114286
  270       -3.959516     -3.959516
  271       -3.818648     -3.818648
  272       -3.675066     -3.675066
  273       -3.601345     -3.601345
  274       -3.450804     -3.450804
  275       -3.383600     -3.383599
  276       -3.218214     -3.218214
  277       -3.172530     -3.172530
  278       -3.075037     -3.075037
  279       -3.026552     -3.026552
  280       -2.896938     -2.896938
  281       -2.711176     -2.711176
  282       -2.593410     -2.593410
  283       -2.561664     -2.561664
  284       -2.342365     -2.342364
  285       -2.285574     -2.285574
  286       -2.142388     -2.142388
  287       -2.026855     -2.026855
  288       -1.948100     -1.948100
  289       -1.902524     -1.902524
  290       -1.793507     -1.793507
  291       -1.761134     -1.761134
  292       -1.617342     -1.617342
  293       -1.585353     -1.585353
  294       -1.552110     -1.552110
  295       -1.524903     -1.524903
  296       -1.478750     -1.478750
  297       -1.330500     -1.330500
  298       -1.242408     -1.242408
  299       -1.189795     -1.189795
  300       -1.085827     -1.085827
  301       -1.031949     -1.031949
  302       -1.013225     -1.013225
  303       -0.967896     -0.967896
  304       -0.721272     -0.721272
  305       -0.682042     -0.682042
  306       -0.441561     -0.441561
  307       -0.373976     -0.373977
  308       -0.281872     -0.281871
  309       -0.235698     -0.235697
  310       -0.179021     -0.179021
  311       -0.145595     -0.145595
  312       -0.106797     -0.106797
  313       -0.019958     -0.019957
  314        0.009456      0.009457
  315        0.040648      0.040648
  316        0.180312      0.180313
  317        0.222602      0.222603
  318        0.325769      0.325771
  319        0.332051      0.332052
  320        0.385266      0.385267
  321        0.406209      0.406212
  322        0.478428      0.478430
  323        0.549686      0.549686
  324        0.593470      0.593470
  325        0.660034      0.660034
  326        0.732405      0.732405
  327        0.735478      0.735478
  328        0.782253      0.782263
  329        0.850074      0.850075
  330        0.852195      0.852197
  331        0.881724      0.881725
  332        0.913220      0.913222
  333        0.929321      0.929325
  334        0.981336      0.981337
  335        0.998526      0.998525
  336        1.009001      1.009004
  337        1.012790      1.012794
  338        1.034505      1.034507
  339        1.070782      1.070785
  340        1.090565      1.090569
  341        1.121572      1.121574
  342        1.143809      1.143811
  343        1.169051      1.169056
  344        1.188319      1.188324
  345        1.219752      1.219752
  346        1.234414      1.234413
  347        1.268422      1.268422
  348        1.284451      1.284454
  349        1.286304      1.286305
  350        1.292398      1.292398
  351        1.315733      1.315739
  352        1.324091      1.324092
  353        1.346076      1.346076
  354        1.385437      1.385443
  355        1.438744      1.438745
  356        1.447162      1.447165
