19
Energy = -62.15406665 eV
Pb 11.503732548308458 10.04968778699833 6.494859078602839
Pb 8.406888823545616 10.10871397459462 7.3197966888814054
Pb 10.045910959181722 12.88572079987266 7.305372825495281
Pb 13.030560025079641 12.384230024427671 8.194611908331153
Pb 10.192503495760644 7.711276012403507 8.54093139974012
Pb 13.223928347451139 9.186042087817375 9.04528452720562
Pb 7.335630097789684 8.908937704616315 10.03167272288361
Pb 7.745732304784605 12.43594898716254 9.740226871921607
Pb 10.872900971417415 14.012251661121988 10.297258529908763
Pb 14.52794326339669 8.532974461486091 11.768921806852884
Pb 11.775335956150602 7.022560002631987 11.28670907101148
Pb 10.418797993933486 10.58937231750598 10.560567849815607
Pb 13.88038788280306 11.811190549008204 11.244912412538211
Pb 9.18735075814073 8.190365538552182 12.839494560777423
Pb 11.80250729519222 12.969934121820927 13.41477074156597
Pb 7.159134013769961 10.696718348605918 12.623958725173177
Pb 12.190304902336559 9.681297919460647 13.420172861235205
Pb 8.75929943285093 13.49326130353592 12.785112870785396
Pb 9.575291874885988 10.963657345155978 14.719505494053246
