19
Energy = -62.06366916 eV
Pb 12.509977915617194 10.44480688421668 7.206589426914953
Pb 9.350139651415668 9.462962922969014 7.070135703296551
Pb 10.040697843974499 12.62365222337544 7.560973223296797
Pb 11.608034900822357 7.74427092863157 8.746564176480794
Pb 12.864017252237083 12.971542988233349 9.46618686324323
Pb 14.008804419396068 9.810839899743117 10.168813608964793
Pb 10.964875574463951 10.469383182560442 10.255431183351627
Pb 9.725385476822938 13.411664108499595 10.785132720375254
Pb 7.619063539452585 11.226733035303493 9.263606132265158
Pb 8.626606702325294 8.240989259224298 10.037992043188593
Pb 12.331614617686157 9.386865648704692 13.12402862663629
Pb 12.621112878396564 14.795604654764603 12.369128310319061
Pb 14.420235395498674 12.065931311016744 12.570809275326411
Pb 8.80161180196814 10.607291360816182 12.429048518852566
Pb 11.309401780368598 12.271321292776488 13.863048948507597
Pb 11.20995213860885 15.121911150737295 15.30438422997033
Pb 13.990908336294757 10.790279068122784 15.572966573353117
Pb 14.2002611509608 14.009691056797076 15.253824403108837
Pb 11.871251196878411 12.618211596696533 17.02528860573744
