20
Energy = -64.81898037 eV
Pb 13.784964097398166 10.472479010009424 8.55880679138237
Pb 14.599195206775207 13.413682878030626 7.956895980745383
Pb 11.705125524744972 12.989177226522258 9.143762452712673
Pb 13.752512627594644 15.533338282550568 10.022004059085955
Pb 9.590423138757398 11.86206868271297 11.13941308450552
Pb 12.208311497132756 9.930527823140258 11.3127198382759
Pb 10.615365396301765 15.222798294296433 11.48711943424068
Pb 14.458072338741298 12.608207921744313 11.211466387307759
Pb 15.531520264738726 9.609874018736878 11.155743822766013
Pb 17.004187827850345 11.49902964874808 13.149665862395183
Pb 13.426481940497967 15.813464182744767 13.398364715472773
Pb 12.167853731920479 12.989061318957953 13.619030000439551
Pb 14.377902656702254 9.924646614724644 14.275879317268462
Pb 15.359871676721795 12.998416636932385 15.281822542866783
Pb 8.595475275646738 13.459244397285824 13.639215236332838
Pb 10.386632375851466 15.897572644557748 14.737392253682033
Pb 10.600282479882546 10.459542180452036 14.329706372811913
Pb 12.884878981955547 14.838997057168095 16.531154588287777
Pb 12.897014099981257 11.479305939456237 16.69978873129441
Pb 10.136375070005224 13.08101145042959 16.43249473732656
