23
Energy = -75.20402356 eV
Pb 8.67524659671746 12.661962048417763 12.055362365965694
Pb 8.043127042208505 11.320378085242952 15.081454958634572
Pb 9.398103436001705 14.18191272709228 15.206986210247871
Pb 9.035866775714487 9.199218309502307 12.950599931887274
Pb 11.11253091960074 15.229501455536816 12.676778712034066
Pb 10.430889910892462 13.663373938708265 9.495830132059213
Pb 10.75143498582874 10.197276558861592 10.400109331798628
Pb 10.678672986688127 12.078100602321971 17.195247394443847
Pb 11.271993555563455 11.683911054794258 13.759414174678586
Pb 12.953915248983046 13.877554607868834 15.47787772236364
Pb 10.451042801370448 8.92642927600225 15.770719921950278
Pb 13.294006602383185 12.861699302365427 10.824464881994123
Pb 12.516799435553104 11.224844603250439 7.89912493178126
Pb 12.877233030905533 16.20911829265213 10.15293944800126
Pb 13.16938414605846 14.310780520410292 7.633361302808678
Pb 13.20510929776545 10.391233864866459 16.298863707344143
Pb 14.709799662822627 14.900049533872329 12.93081632282008
Pb 15.575726623151354 11.917824256201532 8.331228194016079
Pb 12.579514649071417 8.760548623214067 13.17053036298202
Pb 14.328442338870039 9.781380037443745 10.618860683109244
Pb 14.965142935684838 11.402510280139426 13.78952637724507
Pb 15.803117162829206 15.07080862239801 9.75382562652351
Pb 16.68203288466111 12.424090518229974 11.25329554815324
