27
Energy = -88.86127659 eV
Pb 16.34655114142962 10.75437950247646 14.935579669317809
Pb 14.621591780205566 8.1058558667061 14.490676778289588
Pb 13.465252072663302 10.416718961596501 16.700493369395954
Pb 10.139773949897638 11.264452931620724 16.13104179040264
Pb 15.82828936664074 9.77561364321363 11.752626406429842
Pb 14.740864034300033 13.540280071701392 15.850405054332686
Pb 11.53235201449837 8.574137539594984 14.80904020161233
Pb 12.006569220390768 13.72213512098611 17.44745929406872
Pb 16.140997414712306 13.279702339862908 12.778600369722902
Pb 13.26581552494556 11.024755012338632 13.46646907425439
Pb 12.799319247066055 8.325674080720312 11.74975373745292
Pb 14.408289508996825 15.908565805808445 13.569213829835784
Pb 9.218177683899949 14.417179672040893 16.144730109699825
Pb 11.561996816215071 16.563114254412252 15.439078781513809
Pb 11.65540224826725 13.76373573308012 13.94826759191629
Pb 12.94048658377372 13.051211941013982 10.729265643141186
Pb 13.549075060574097 10.328683756820784 8.933947047448758
Pb 10.525166245478115 10.76554008711921 10.750027471179013
Pb 11.794201953631092 16.427449983699194 11.680633237992117
Pb 16.17506645643071 12.296036355435785 9.614347748878226
Pb 8.769089877075837 12.360783489204698 13.358503170248659
Pb 8.983562897944172 15.738576145073347 13.319503876855496
Pb 15.0263882156036 15.394169131477394 10.208132049544531
Pb 11.064529681992738 12.27679608112926 7.898721844111326
Pb 14.076629723868535 13.284313446772707 7.447723805558219
Pb 9.605615492398213 14.052877140258012 10.501864213091919
Pb 11.960209490320477 15.393757378235085 8.54020645326868
