26
Energy = -85.19256283 eV
Pb 15.782430899891633 14.904905755129583 11.243848770475985
Pb 13.276632282607233 14.087525025174637 9.473969799042868
Pb 12.823907162340507 16.2456731125124 12.337220140988007
Pb 10.00024400793959 15.23405245055561 10.926059138767142
Pb 15.492471106440181 11.700153355541659 10.663780339970657
Pb 16.913086643729674 12.832918457035998 13.74949372577801
Pb 10.476238157319727 13.896025106859323 8.040901314463241
Pb 15.583153844713305 16.125463060918165 14.100614636197363
Pb 10.373569977833881 14.25683245019622 14.385442406955336
Pb 13.626882114164735 12.985208911804168 13.45035010826147
Pb 7.804187948282651 13.22122034024209 9.564697829424277
Pb 12.786758459589366 15.925724190035044 15.53606670531617
Pb 7.95068092502916 13.118029736218784 12.673403553347574
Pb 15.194479862213555 14.023053514249957 16.523989959743908
Pb 12.876546621937 10.868351338501686 8.485662734026855
Pb 9.362705794318751 10.871164840726586 7.987708113464517
Pb 15.804086159946229 9.725097683218335 13.249403082510115
Pb 10.95323735074506 11.82707350530393 11.07503319062733
Pb 12.164754535624922 12.17518034196882 16.370482570055426
Pb 15.177899972607705 10.971720711728297 16.101613358206592
Pb 13.49717283573621 8.83482585250267 11.172245844260871
Pb 9.677778664879943 10.860236068543905 14.286081231492412
Pb 12.83515623547454 9.31109536675133 14.614759773617324
Pb 8.176017732826852 10.041200658206348 11.14026618338787
Pb 10.79171506397525 8.54996818205479 9.423634959297074
Pb 10.578293940778806 8.22535273411347 12.574897604064319
