37
Energy = -121.98561505 eV
Pb 12.35106165444647 14.170537046703572 19.880945721718142
Pb 14.763467394594104 16.490940402969038 18.75066281684784
Pb 11.329602806179112 15.861498069147952 17.16743269527874
Pb 15.511735800768689 13.550160517037094 20.06245861234511
Pb 10.44567624646392 12.528839656675466 17.447196375299313
Pb 13.387332487622785 11.194846598766459 19.00657266952022
Pb 9.885805944486311 14.386118721877239 14.588856633868875
Pb 17.166370353952082 14.70782721901416 17.39376574083333
Pb 14.000475402262751 13.778652479741465 17.07215487676083
Pb 16.030984721273274 17.322462380937743 15.505899012196735
Pb 9.286139306664682 10.953855739174553 14.819298964580772
Pb 11.838112074416907 9.700666009861145 16.352830215166957
Pb 13.33274298224757 15.754494901395887 14.282768039091147
Pb 12.438600330438366 12.347021176152436 14.506285093507383
Pb 13.123178914281974 18.339924521664873 16.374351697985848
Pb 16.268833344000026 11.49752042675369 17.60437102829152
Pb 10.902695259867603 17.13977687125461 12.584613048623565
Pb 10.400930849922348 12.270510714824306 12.025745966362653
Pb 14.859072280811036 9.681468662921128 14.548717881609987
Pb 11.751860503370287 9.483444111328419 13.009231445970288
Pb 15.823505008290516 12.807241013492902 14.355045777136718
Pb 13.544171428566056 18.926882903253055 13.25174272884862
Pb 14.20159712586859 11.732425869649289 11.590633961503348
Pb 10.333913535829112 16.081603866043263 9.648134128223981
Pb 13.045595629813414 14.840967694661325 11.060418284321864
Pb 17.64358420407951 15.258673304142617 13.72907861271812
Pb 14.78769449962799 8.499017538726445 11.496715355081408
Pb 17.296084311883327 10.470002667953151 12.299504231590062
Pb 11.18726161394311 12.967697371427032 8.890697821670846
Pb 16.062922530825333 17.35441794474882 11.972436754288715
Pb 12.993278476342454 17.975641415702587 9.97932748686983
Pb 12.987405670747732 10.07571468028255 9.195941244850365
Pb 17.012479851062263 13.41083040853165 10.86407581583167
Pb 12.777795249465935 15.60029286446998 7.658166538738543
Pb 16.264096580065882 10.288885036209631 9.222553145460163
Pb 14.621780042459308 12.888259127928022 8.180968809333208
Pb 15.59090839351287 15.974926084752541 9.125891488678963
