38
Energy = -124.97281898 eV
Pb 17.660184309625013 15.92337679384274 14.712091548694824
Pb 16.049879313463574 14.825939342317026 17.47584302031587
Pb 17.69173866302 12.573774407298425 15.832932533167638
Pb 15.363992616173151 17.82851661020154 16.424895307381608
Pb 12.930879684287554 16.01422953163367 17.39490643408597
Pb 15.651839270476096 18.290091616757568 13.324974143392064
Pb 9.932634284255574 17.266538742593813 16.527918971446983
Pb 14.549446808173068 12.023574950170628 16.844351137416286
Pb 10.304151713082616 13.867759917657844 17.3023656036743
Pb 12.61159194162483 17.9664429065108 14.631506836543046
Pb 18.645892374377382 13.13482380058237 12.625249158511481
Pb 14.508120830025986 15.047470808733555 14.443814880945396
Pb 16.47737097689462 9.625031667661638 16.37226269922994
Pb 13.40404078556682 16.684599210651125 11.551639908924084
Pb 7.667563372262124 15.047963118426889 15.903620939058664
Pb 11.694770927616949 11.170521772565243 15.83051115836687
Pb 16.695030852498636 15.740455923298605 11.604398362392084
Pb 10.852037637726378 14.892455756625422 14.310180028393338
Pb 8.477951671186776 17.255478557907104 13.63513632441024
Pb 17.867508897426102 10.008423217759944 13.56091455406317
Pb 15.527857519609945 12.211918819001403 12.029180364466852
Pb 8.648181878535572 12.125702394808293 14.923571462471388
Pb 17.56322627642376 13.408947779239401 9.388493240386213
Pb 10.273288568124908 16.05370667676508 11.331456316797023
Pb 7.797247461510628 14.195128530339973 12.663529268561348
Pb 18.315383633821778 10.532056897966372 10.396874476615052
Pb 14.21929978985645 9.891882877803464 14.129991858704546
Pb 11.52207655253027 12.098354154417805 12.54054245190926
Pb 14.366170492223876 14.213978135179815 9.599825713024599
Pb 15.431261757886318 11.025261237842367 8.907730581716953
Pb 10.230755894799868 9.183774802490216 13.508790508875302
Pb 15.680714212513667 8.888643853773246 11.268701197335862
Pb 8.842926359708473 10.608924033668105 11.031958645389052
Pb 9.23632535085288 13.448199180587155 9.747999864174092
Pb 11.993422909866368 11.99136960824636 9.355979510433324
Pb 12.386031010430358 9.189254726406718 11.010839189224425
Pb 9.702173523992357 7.533188966487332 10.68888851782092
Pb 10.440660478168477 9.425869272399973 8.3797638822986
