31
Energy = -101.12415685 eV
Pb 13.489432935996085 10.632770704122105 18.07584763128504
Pb 14.82941912750323 10.469729508749747 14.978752419296358
Pb 17.53687069402816 17.17672772685356 16.185440368649065
Pb 14.956167598923827 15.721672246339619 18.423483926191608
Pb 15.084356631216567 0.5698638623118578 18.771340136388584
Pb 11.342690199187947 14.857979989403958 15.281771568483059
Pb 15.726347833420581 1.0036844029338046 15.731041719944352
Pb 13.669942305625344 13.336448483838911 13.590896576339478
Pb 16.385875127280926 15.565941062211957 12.777782216166937
Pb 19.05714402270476 14.298188590281796 14.216637120807025
Pb 16.75493712639313 12.308003603204043 13.08288727833814
Pb 19.719813267988506 17.607664219452914 18.842171011916204
Pb 13.227786183833354 19.33538196112525 16.43512033952533
Pb 16.46188761221697 13.35048789736451 16.358953346833864
Pb 19.01213010393213 17.467527389731128 13.1139947599069
Pb 15.608607139845384 18.676544090558224 13.645168386613394
Pb 18.297126765753593 0.12844554495225233 17.79411896955797
Pb 15.55140015150608 12.683275057808034 19.66767487227826
Pb 0.30164953563287183 18.384754661634027 15.789981264300877
Pb 16.712215474655366 18.26759582645993 19.965363490179794
Pb 11.768251395902036 11.739549811109724 15.685250194538863
Pb 14.274124381027619 16.21501403149267 15.408604155896946
Pb 11.691757093627768 16.742498367156415 17.74320668528614
Pb 13.48590116394917 18.270498470154255 19.79148475230394
Pb 18.422865237774083 0.1117408075552142 14.413241842961014
Pb 18.47756847465453 10.920055213022357 15.471926988327604
Pb 16.54289300858381 9.976928435477523 17.85541780567868
Pb 18.89354561906831 12.06926452261978 18.461600587241463
Pb 18.01479170258271 14.941341565292136 19.739239078226543
Pb 12.220111918501724 13.578455604918117 18.430107979522482
Pb 20.002061463182518 14.892534779014897 17.11612982947514
