49
Energy = -162.10335473 eV
Pb 17.172251368478758 20.844940315380338 15.302602517266857
Pb 17.490561871242296 19.497821058119477 12.291403712479006
Pb 19.770406833146463 18.694257061547788 15.016759976348213
Pb 18.01513232099025 19.034796602404274 17.764155767059606
Pb 12.117792672059416 18.469258480154068 15.862146279674056
Pb 14.510997214252422 19.987935468836035 13.84255318893596
Pb 10.531670321065713 18.736800452479653 12.971427868779916
Pb 14.42748448106055 18.928289779338687 10.829902354926418
Pb 14.886760396896323 17.97663923758462 17.96069710288263
Pb 20.3920934729949 16.784810925369143 17.883976065503074
Pb 19.141647765499744 16.448506937032377 12.664294087085857
Pb 16.900180918356178 16.92049698897245 10.40805036987863
Pb 16.568432577522593 17.550113598889794 15.070530164057173
Pb 8.736078041469206 17.824537581567213 15.5594774637972
Pb 21.670674667013436 15.931072960456868 15.062172070223212
Pb 13.50623058803319 16.942617042820025 13.23772742257553
Pb 12.063138938761849 15.932825545638698 18.055872502818836
Pb 16.061580308959535 14.854272764714446 12.864287874060782
Pb 17.451577748290948 16.01486548580817 19.3225983578393
Pb 10.798049397005855 16.186631929501917 10.975559799161283
Pb 14.019892704584556 15.387307487227632 10.205048264633819
Pb 7.971825791898734 16.821342712888445 12.60895351303576
Pb 14.427497576951541 15.933288501597968 20.340936509576764
Pb 15.23897827137212 14.570687089502433 17.240363893189333
Pb 18.552785209687215 14.551988687235685 15.375795956900786
Pb 7.578692423729777 14.670117727244323 15.014626596264014
Pb 16.035687203467397 13.094090267518638 20.121142866768658
Pb 10.667465656384097 15.536662968469603 14.381639080921916
Pb 9.710674245718874 13.678248017229382 17.451255674321988
Pb 15.567325454799029 11.919452398520034 14.316797007577781
Pb 21.26564871731714 12.971865093498387 14.147324883173644
Pb 12.909449667160654 13.026575220312086 19.364848163112423
Pb 21.10457359598735 13.617022233941363 17.370465095229314
Pb 18.683529231387254 12.889021873688653 12.175575529342758
Pb 8.932532041221998 13.613213274143007 12.16147357908498
Pb 12.669326418973972 13.344744801877335 12.444662773447163
Pb 15.733256557873215 12.333807595544464 10.653825840800087
Pb 18.162287630907823 12.443635988239459 17.865354409007388
Pb 12.68483483963453 11.518945789970312 9.80510677410447
Pb 12.553597754134396 13.0815043980447 15.865901323568714
Pb 18.77479930540525 11.095635195405492 15.021422384066506
Pb 9.313852275995183 11.695985540626758 14.916508821442442
Pb 17.334962301641564 9.873867299004392 12.33600911315805
Pb 11.082847716187075 10.715009788531047 17.652309336706427
Pb 10.677582469890444 10.650464402224014 12.174646571056456
Pb 14.304531835094576 10.639845634865035 17.15597811798192
Pb 13.947549754042148 9.67604166000624 11.955216967256142
Pb 15.308804540851796 8.628580847807 14.580816392306973
Pb 12.103315857483066 9.278011809640544 14.90432126300289
