42
Energy = -138.80283779 eV
Pb 17.52926669876853 13.880304187856277 10.834169273216599
Pb 16.484595042992147 16.957329131802393 11.652732532931523
Pb 18.339461720666474 11.934247223532905 13.353451329447813
Pb 17.507505427028814 15.060308877316734 14.012907160239221
Pb 17.30841781454664 10.32263253537132 10.398618737951802
Pb 15.774416509636517 12.376468160064594 8.364871136537978
Pb 14.814235363627004 15.348152230720393 9.216210717453853
Pb 13.219344220753598 17.25264381925013 11.491849295373282
Pb 16.364546431814418 16.07816725894108 17.395716181937896
Pb 17.08791668355878 8.833720210072917 13.342933370022108
Pb 15.375213660970362 11.28554336679454 14.52883149658425
Pb 14.668503003796104 16.81793287161211 14.492705148898253
Pb 14.591586154536918 14.190975307870879 12.519131306908871
Pb 14.739504127820517 9.28293704819561 8.385827444092593
Pb 12.606806097259376 13.03627394353899 7.936398377807903
Pb 17.744822853815194 13.073820021792251 16.66811147632206
Pb 11.579650390747126 16.045481860368362 8.938016413748354
Pb 15.40975767369014 7.69233392907655 11.015862623704663
Pb 9.861935827946464 17.40510135733597 11.81306608893354
Pb 11.732997894394307 18.581658603034924 14.287639575869246
Pb 13.734680688324637 11.107561358027203 10.922035372081574
Pb 13.397383605938536 15.349649684357674 18.882768434619678
Pb 8.686714917200515 17.864998192094205 14.88797328288207
Pb 12.307247703668944 8.104272877271312 10.336980075978381
Pb 11.144156257006534 13.59893570414213 11.249171774226616
Pb 16.14789150778847 13.641090761646515 19.47767409881775
Pb 10.872135737490071 16.867747102422825 17.090594047848718
Pb 11.055850988217973 15.311368383620334 14.194474531330211
Pb 14.389416677480943 13.74172913442035 16.32799035081352
Pb 10.687346274745131 10.65350672147833 9.06579732571674
Pb 12.20968287712767 11.959626186477273 14.165765294955964
Pb 9.415419988533943 13.791329795428148 8.50990699698325
Pb 13.438415850818501 8.713007783513973 13.535551267010508
Pb 15.855413714650208 10.713861037662815 17.86928396502404
Pb 13.325980779116552 12.144206267240238 19.417985963843563
Pb 7.747219310455152 15.301425638242444 13.030328014336382
Pb 11.126790131322096 13.18751817281888 17.121435138196105
Pb 8.32174793298156 15.002428358870894 16.234873122039705
Pb 8.290621525753153 12.007628421764299 10.925807516340107
Pb 10.376730436794166 9.818007443585811 12.31614928388712
Pb 12.924488958341296 10.121552124531311 16.71140890225049
Pb 8.895351843639478 12.450957541213667 14.073614354638902
