44
Energy = -145.45949078 eV
Pb 17.23573294589011 14.070400005322574 8.185907245151304
Pb 18.991385306297456 12.211640935891232 11.688321136832787
Pb 18.2976064436057 15.356162411509795 11.414114807962154
Pb 17.05794547565808 10.999385255675033 9.269308660409182
Pb 13.926747080970703 15.477930867680554 7.976892541021508
Pb 14.377610301372837 12.165940301216994 7.910093616495265
Pb 16.329513984044056 16.860910742014532 9.515186668557892
Pb 14.238668721744371 9.391385482369856 10.045050431063187
Pb 11.60749340478157 13.508945427764809 9.189145905867544
Pb 15.314883395267113 13.775865385630675 10.813297662296256
Pb 11.238376045695786 10.433734894313595 9.188040768168698
Pb 17.813614360781127 13.92598271011368 14.325776180289541
Pb 17.578479060874926 9.246725910651858 11.881930787971893
Pb 18.65032583717471 10.767612537345613 14.64745576470913
Pb 15.722716030639987 11.337954559998611 13.270857457364274
Pb 15.272989173886847 16.52976606188586 13.007033873760003
Pb 12.337568794390798 15.040169078171697 12.076194900599843
Pb 10.709009902731141 16.482366073364282 9.516871161794182
Pb 13.873539410550425 8.199159612353402 13.197994051340032
Pb 13.431119951267391 17.785286907511 10.546209549332708
Pb 15.63859423258431 8.886921318498953 15.870749224275444
Pb 12.594213125870194 11.555303729616773 11.855435243850232
Pb 10.58288633305187 8.409006765171865 13.814651815761776
Pb 14.37845204369152 14.019644385340788 15.0753544181733
Pb 8.932547596420761 14.81208131847638 11.806131657154282
Pb 9.331458362821229 11.502279655436727 11.608683368957864
Pb 12.588431145381692 7.302582774986275 16.12158940491863
Pb 10.144740991546135 17.74829380218175 12.778553037757892
Pb 12.876968937059177 10.617238934107874 15.122920405416398
Pb 12.536011508633013 19.223448934408975 14.730270337055195
Pb 10.545924128624982 13.088512047986963 14.25375245797598
Pb 11.810240894068604 16.13481747029574 15.289294311091863
Pb 16.40774351564378 11.971324057302121 16.60637182045028
Pb 14.868357104312565 17.321940521261496 16.207549169748425
Pb 8.291536187470609 10.616451769340522 14.503768680629104
Pb 8.312302528179064 15.616637623639654 14.912458364241402
Pb 10.234810541155008 9.372343018242908 16.99174677121664
Pb 8.669170677618796 12.732734762439595 16.912739968160142
Pb 13.329420960834355 9.666937444024146 18.19671504371598
Pb 9.55920140805655 18.516696572285973 16.00037286424724
Pb 13.388452912954577 15.313076449788076 18.182915672518522
Pb 11.785021414571245 12.532394369988387 17.567357464014034
Pb 12.20585307281829 18.383313812006246 17.83477389605925
Pb 10.000383857297626 15.8253920064866 17.986957703626242
