48
Energy = -159.06963802 eV
Pb 10.584338922997027 9.715309335091677 11.293477776401847
Pb 9.402542155772245 10.184286301136899 14.363830367131001
Pb 9.161556380870671 12.750424581309282 12.308672346950365
Pb 11.368533533620514 12.511216578419694 9.722232221816956
Pb 13.23926738104983 9.840312147543758 9.470068708928284
Pb 13.304158241628764 8.397015582378087 12.450336793216383
Pb 7.354672703234062 12.520616842004275 15.077575937963008
Pb 9.10519854514254 11.318393305363891 17.645695020749933
Pb 11.008150857348335 17.306836256243553 10.619518686892183
Pb 13.025503930270746 11.617956394931305 12.557501827560635
Pb 12.33499774208615 9.955178982273946 15.621579780120602
Pb 14.6447280750619 12.685061707627552 9.701786128738854
Pb 14.004685171173357 16.017220274206988 9.915076109545897
Pb 15.909313620693831 10.110871858493265 11.398262653092095
Pb 8.018336781306164 14.550945602733432 17.383029423228248
Pb 8.795345726823157 15.540852691486988 14.230549712918664
Pb 11.788676007658315 14.894936311683006 12.48389099165961
Pb 10.745740964954345 13.231912706278282 15.574430231941433
Pb 15.495159617184132 9.99178495220086 14.81057326608543
Pb 10.730790673401712 14.023491785521582 19.128590915134055
Pb 12.900468377690364 19.798930067896805 11.174773760143134
Pb 17.237898715257014 16.2576900746133 10.312056335545387
Pb 15.249116135189231 14.505611496572014 12.637741992464084
Pb 12.256335010533698 11.003386851337844 18.606624808111075
Pb 15.149799119371398 17.904506068460744 12.633486758441483
Pb 10.421515864165327 16.656997914960577 16.98562438052337
Pb 14.03287540243492 12.778974906033854 16.031452391872413
Pb 15.66520292668221 19.053076438885938 9.486767180059852
Pb 17.769248908503354 12.952249487254901 11.292053206357377
Pb 11.219669787592114 18.190675187565965 13.683407603311984
Pb 17.448499276745974 12.74969846352921 14.936381903352153
Pb 19.223438168955706 10.557763180860148 13.251503081951142
Pb 17.98476600733972 16.432991510199823 13.58974510934521
Pb 20.259210760320848 13.695113640744239 13.275665538410651
Pb 13.950283965686253 13.450405583277515 19.709179836648868
Pb 13.269969896844575 16.20800783046309 15.11956308298344
Pb 15.785004166802725 11.049745105860065 18.176995995430143
Pb 18.230087976299316 19.177607242146504 11.524621942938925
Pb 18.432472364300576 9.779427605179016 16.322614130927256
Pb 15.666418811963009 21.284164631732747 11.956125330890165
Pb 13.30194234423221 16.281565462524327 18.337784195949414
Pb 17.161157089607027 19.87989082313727 14.441913116950417
Pb 13.838035076037464 20.150437645635474 14.616692799398416
Pb 20.92387345179966 11.844970084367642 15.7596326310773
Pb 16.23442525976691 14.55368229932919 17.581214812190204
Pb 19.53660708298384 14.862316704009707 16.265012099429946
Pb 18.781310693420608 12.395179869465117 18.227314048345576
Pb 15.981350649914805 17.575281949561944 16.250843836986526
