51
Energy = -169.02249847 eV
Pb 18.325259430658424 10.25142070797303 16.754395156223858
Pb 16.16204447491948 9.34851209323096 19.054195977072762
Pb 16.124192037270106 7.950592500508108 16.137202780724216
Pb 19.545013634577376 12.254738168892299 12.223971363534291
Pb 17.069660906747536 12.60880106694374 18.795010161359375
Pb 18.08948186432589 13.348497802477322 15.31515955439321
Pb 16.889725373415317 10.314870167136817 13.681400059807126
Pb 19.720302298243087 15.33877449006712 13.179650913049128
Pb 15.14545657516537 11.182734039728963 16.368110199125187
Pb 13.235532203807718 8.809267125272049 17.50918660463835
Pb 14.856878979361262 15.133202197039582 19.61069567653644
Pb 17.870321438333068 15.66034237578171 17.846789659888685
Pb 13.820956893639824 11.782335486747272 19.428640710723972
Pb 17.72299216012867 12.116262033343867 9.513749551571856
Pb 19.57992171926601 14.693304279565368 10.063401056764416
Pb 16.742392054888498 13.928811664988688 12.137147543145733
Pb 13.778051327918766 8.827546185596882 14.121647601495411
Pb 15.206502719045636 14.553076805329432 16.153626639549664
Pb 17.229330450020235 16.868792745456062 14.890097600487705
Pb 14.864378770395842 10.480749854856358 10.539867017080084
Pb 17.542744628961277 17.170250572375426 11.409377559096228
Pb 11.51723679815536 11.016662109390461 15.221668710566927
Pb 11.702299775832103 14.149626432299637 20.2675696656229
Pb 13.986328571255706 12.163697022304836 13.355946825746898
Pb 10.487534582843848 11.61518335084441 18.69446771436395
Pb 16.53890680440469 15.161480586079401 8.91519567975767
Pb 14.091753315654783 16.016525210467506 11.454496268778849
Pb 11.675232356268591 10.039125258729136 11.661254187239273
Pb 11.953999750863224 13.898152025977168 16.78047208515196
Pb 15.252778978999219 17.596588367284564 17.544059306381982
Pb 14.626597616790315 12.497515135083786 7.8216288832599155
Pb 15.163307059070114 18.31167963015282 9.310558607238846
Pb 8.485872677241808 12.241451133960613 16.291989347911837
Pb 9.098190885688892 12.013867449674759 13.118343317364534
Pb 12.661859680236994 13.072614799212673 10.40585245545311
Pb 13.740089122154613 17.070175341439 14.689269735965444
Pb 9.144102942415332 14.773241699829827 18.188357465356585
Pb 12.080362449425587 16.73711871645202 18.45414807135151
Pb 13.198179560826642 16.037676375940283 8.11979223821261
Pb 14.790575243098814 19.17642554582026 12.402388585802553
Pb 12.34984715874239 10.269003663550443 8.391796874376535
Pb 11.195430471673017 14.725673887658386 13.271664448730059
Pb 8.181227379484566 15.09284739632643 14.83537115251302
Pb 11.42748348703551 13.182222195077626 7.339699876141275
Pb 11.817246950110073 19.656144406571027 13.649621002824217
Pb 12.026479876603213 18.775542101743575 10.552043522158913
Pb 9.712182148870907 11.837511430027853 9.724847581531899
Pb 10.537605726731497 17.14028429193863 15.527052821033276
Pb 10.616718090624568 15.706874982862834 9.935441209052767
Pb 9.549681724334862 17.65240529966324 12.402052850559091
Pb 8.14174379705132 14.625907564462352 11.633540297223893
