51
Energy = -169.64345818 eV
Pb 20.32974086457873 14.853137302657617 10.942441579939642
Pb 19.790584141607958 15.375725472504296 14.005793517619724
Pb 19.629728071882987 18.203792867258418 12.316459100145368
Pb 19.23154348876838 11.099041438933181 14.128796371692381
Pb 17.471712015474882 13.043002258909373 12.012354021852188
Pb 17.221539523441027 9.559582428647303 11.957256563613983
Pb 19.41039964249825 17.27910567092827 8.960730627801013
Pb 17.499604573157576 17.401701412404762 15.161230584855161
Pb 17.927191343178407 14.317993666201884 8.8013862048462
Pb 17.275577421463723 16.34449261381268 11.498851112210124
Pb 17.166241020406932 13.89882378495682 15.203262779960045
Pb 17.909243148825976 8.278071861554267 14.859138615456432
Pb 17.919139490656114 10.760190278813113 17.07118349833099
Pb 15.712078562077549 19.19389415045991 13.133954442894147
Pb 14.094158097138546 11.263534839046399 11.524087956827563
Pb 17.26245500185787 19.359730967887018 10.177681436488417
Pb 14.663186927114078 12.19333570409368 17.521933944319162
Pb 15.817065768066294 11.044959917995632 14.529098062515931
Pb 14.800782890204243 14.590013459036 10.22786999915505
Pb 15.175730465632274 15.542025948499983 17.151739861056452
Pb 16.230924940885505 16.97654575875844 8.13974950117038
Pb 14.741811767004247 8.187327648687559 13.688775454218987
Pb 14.701049388342343 15.990930646716627 13.601882600644299
Pb 13.040144877596134 12.88887187678342 8.063108960191592
Pb 15.41305224402464 8.669392152419086 16.888638132990327
Pb 12.59072027460829 12.616210666261324 14.31991745896063
Pb 14.21369951396957 18.513581194716654 16.13465285480694
Pb 11.707458256005786 13.517211552485024 11.150979276451299
Pb 11.664511916336355 15.763668388280605 8.815972607686023
Pb 12.469958004476387 17.131652502458966 18.685777957739795
Pb 12.417200546107285 9.979606306630377 16.20385525440425
Pb 12.740903636360056 10.26179298191711 19.473955710518606
Pb 12.251755382162303 18.2953700148855 13.46786041344372
Pb 11.327613541783705 10.512549053650455 9.472227161630366
Pb 11.446321317934595 9.788940036929283 12.635699073415172
Pb 14.171306791673812 17.871003532662687 10.548864942551898
Pb 13.278969009144939 13.36426708486669 20.500396388211147
Pb 12.026889485842899 15.791515095465435 15.675669896532565
Pb 11.406183836403528 13.033959447259589 17.806577337652747
Pb 9.809478029897686 13.116576938588244 8.219171075346571
Pb 9.468141727939482 14.038555947955732 13.841074146119544
Pb 11.022136577320145 18.990857227227856 16.458945981137962
Pb 9.588351659650709 11.1513137845342 14.875162315413743
Pb 9.012145552422357 15.144106235362392 10.624562976648416
Pb 9.678397637253129 10.248550626707535 18.247761917132614
Pb 8.82644366085011 11.858824831583538 11.189015810980992
Pb 9.284762593067564 17.14498134872357 14.359867295500273
Pb 10.361785435486482 11.925392768998371 20.947291627813108
Pb 10.473558323813734 15.081628270503296 20.423563123218127
Pb 9.298971731239618 16.402857482686105 17.58703039309275
Pb 8.354887284585038 13.27584453991325 18.68866624933584
