6
Energy = -16.73859383 eV
Pb 15.098981404566674 9.674018648397285 13.633286257766725
Pb 14.18175274177844 12.39857752274206 13.972075844221603
Pb 13.613944503552935 15.371761388956685 13.441447587494975
Pb 12.83670662334003 10.494720963779004 11.7944340914065
Pb 10.793010296967749 15.971995906057604 12.51686285586419
Pb 11.503247610974501 13.169649342573939 12.52017248004576
