15
Energy = -7.30822998 eV
Rb 12.725917911502282 15.791978128705596 8.99386126794395
Rb 17.265346331457305 14.126959650020494 10.218987745209612
Rb 15.368852211196206 18.04212404467745 12.15873683425286
Rb 21.350915785073017 13.243185137487494 12.921420519957303
Rb 10.739513288684805 17.709700730936696 13.173411419485682
Rb 13.513184733987616 13.796577269552845 13.232342981007003
Rb 17.19882501442757 10.8610085358764 13.737863978571875
Rb 14.34677325758202 17.47768418229389 16.633163596362106
Rb 19.910876159017647 12.003627338012745 17.503484431550753
Rb 10.444410467435574 19.32974421565823 17.873893950216416
Rb 10.500610206566407 14.579961369346604 16.800735110984885
Rb 18.023193601262683 15.456377265863715 14.963711309803054
Rb 14.821132847599342 12.61002949207811 17.5061708302843
Rb 12.756629881494733 16.03509401388676 20.78342939370291
Rb 17.48338730720146 15.385517630091638 19.948355635155643
