22
Energy = -15.61980172 eV
Rb 13.621119443073905 15.275335208937145 11.609851607013775
Rb 20.72648157280061 15.392707459423889 15.38722370249399
Rb 17.75180042489379 17.81410290309312 12.1386899947508
Rb 17.85391351993137 12.725999436752122 12.47998620130042
Rb 17.219254712910153 22.611540207857256 13.619020948758862
Rb 16.834292328294914 8.109758502600503 13.931960681045139
Rb 13.400887034517877 19.600163581404782 14.213295995489428
Rb 21.44800816391593 20.177785375148474 14.59949689500483
Rb 13.606369205468782 11.34057914011991 14.897204199412153
Rb 10.942782544661526 15.555707038790276 15.814930527585494
Rb 15.772044150634963 15.375474367257548 15.942197229040286
Rb 19.328505659698905 23.36612620966693 18.096376257913178
Rb 12.941069353553827 18.513621544358784 19.0925109681876
Rb 14.626396333247294 23.016487364413248 17.902271456219808
Rb 17.435622001571144 19.157416013766603 16.96236343370363
Rb 18.045169391319803 11.50542759761095 17.39350740841205
Rb 21.454960469271978 18.56551503938438 19.312742605745182
Rb 13.488039464725482 13.482221935669031 19.611744828118745
Rb 22.065933076854165 13.569135517885032 19.510971088061897
Rb 17.05179358698504 20.34679397820406 21.44184156470174
Rb 14.224392092371437 16.659789712668292 23.29710108100684
Rb 17.84062053850015 15.517766934190577 20.424166395237215
