36
Energy = -26.64781576 eV
Rb 17.29261296225207 16.95958512489993 8.37192456416191
Rb 21.583380825578903 19.101561747789507 9.924851863734867
Rb 20.61359245125435 14.264744304720159 11.237774393744159
Rb 17.319991544124132 21.687921761851918 10.153569567051512
Rb 15.661300099572946 13.854710702455726 11.972649374199632
Rb 13.528934326942089 18.20974627665698 11.451339983788479
Rb 18.145051277798228 18.11792504658416 12.65117376581356
Rb 18.392694430549206 10.229168668264466 14.320933647828902
Rb 11.383604115680798 14.510685536465049 14.311303179156367
Rb 22.593464667761914 17.61517819762878 14.498141725175858
Rb 20.539946311072658 22.12166719078579 14.055287260660954
Rb 18.980492927441663 14.650120121552096 15.580300994549402
Rb 14.83607406001677 17.099764184978433 15.685012763931775
Rb 13.337868284835169 9.834959178333321 14.034530888977379
Rb 15.544779068404484 21.872858054999178 14.81410868448423
Rb 11.222655592758295 19.81742176172628 16.500081541524853
Rb 15.632754567796724 8.279102914017528 18.220746686728585
Rb 18.942393807801793 19.099485629567482 17.2069243614658
Rb 12.086887007387098 15.72339102191503 19.528154825871454
Rb 22.75680307123285 12.364262162286254 15.531162077197385
Rb 15.009149325688927 19.826774609814617 19.42446604578575
Rb 18.120618375518987 23.381662881618272 18.830674167495925
Rb 22.489885884197868 21.12433368292753 18.98939617652936
Rb 11.303125191102772 10.812021736846258 18.41933343517843
Rb 13.096186143517322 23.826351079248727 18.84226205551038
Rb 17.00412083827887 15.65990183200003 19.769871068251827
Rb 15.078680598782137 12.639641643891766 16.896817875288452
Rb 21.773597057959634 15.846874738498782 19.34326220232261
Rb 11.162641749455886 20.40095232915059 21.618253723229998
Rb 20.635599215890622 23.180521782234802 23.075040220673127
Rb 14.68759828830173 17.3382264494431 23.51270416430721
Rb 19.202766805171464 19.054046915669733 22.17230345296644
Rb 15.67768964680566 22.3931825449578 23.086469393641593
Rb 19.22837727195016 11.334779301167517 19.18009736548826
Rb 14.840813381971408 11.911940452533967 21.67578285784504
Rb 18.778208835921113 14.338868443294096 23.597633656215073
