44
Energy = -32.89500157 eV
Rb 17.39862116227864 16.445137017248634 10.534438148738488
Rb 17.74289524314255 12.039626407477913 12.976588871519773
Rb 22.057967619559236 9.730560146076046 13.485972666188548
Rb 21.918581020284364 14.557946507743049 12.121702668529315
Rb 13.418935264833424 19.25941280048216 9.809441733204581
Rb 18.440161056103705 21.164637515389114 9.957994102101434
Rb 13.38723993458925 15.736830959307062 13.153453131248265
Rb 20.418852542320973 18.963086075021362 13.572682298637975
Rb 24.54620714613877 17.425590765849837 15.467751458895188
Rb 17.747834202984357 15.901984185850713 15.210176988475702
Rb 23.29059666477123 22.05238531462424 12.246266178251375
Rb 15.644196464215844 20.082609954314815 13.5539704148775
Rb 0.16444525109152444 12.612662177228396 14.876116642418982
Rb 21.461114853061453 13.252190578698006 16.47626710939169
Rb 14.090720473983845 24.16571159502902 15.771375966714121
Rb 14.518316465752942 12.498775637147608 16.877617186537606
Rb 20.950821407978246 17.430703398014234 18.364408998665542
Rb 11.159920928686534 19.999009003684343 15.263404749390574
Rb 18.966152533318986 23.730875662594524 14.068472430227056
Rb 10.188690478703716 15.345440163832722 17.16656079696196
Rb 17.733371898435937 20.583569115717854 17.37965447087315
Rb 14.173033321826383 17.437277586546703 17.65045426820147
Rb 22.353798306105418 21.90503267064916 17.00455528476982
Rb 9.699241984714924 23.624963967299912 18.33595116150702
Rb 13.353556411914688 0.6427378084146569 20.28742892693912
Rb 17.86151602358609 14.205912794712571 19.561182064989158
Rb 17.86915689674649 24.762329907404045 18.916995254331518
Rb 10.017749299761274 19.032157516797653 20.275647893130646
Rb 23.729423995123287 9.457031679092593 18.015011770283387
Rb 13.690769269984322 21.630218968875464 19.549446548484173
Rb 24.76796737779282 18.81885313435688 20.35729386887328
Rb 18.815293300498595 9.690215306173423 17.351913324500533
Rb 12.9674238902868 14.813408718880734 21.255645680999244
Rb 16.763270388915853 18.317102873284796 21.34366698559933
Rb 15.977816085314164 10.502758871038893 21.307977239810636
Rb 24.736532861997663 14.077711898951977 19.541136197883002
Rb 21.301149953825703 16.24081614347479 22.814592955312555
Rb 10.922963700524091 23.079218603872597 23.041618688460787
Rb 20.891668990135432 11.529394427942464 21.511489801512635
Rb 20.343763024615466 21.215812156065308 21.57909185086535
Rb 15.885509506018339 22.99878875922065 23.251253010927773
Rb 16.907544603882265 14.531847483799577 24.166151698319347
Rb 13.247205450568012 18.817081041512427 24.083780216421726
Rb 18.0168104578573 19.229390414532176 0.0022060102591952664
