41
Energy = -30.53952233 eV
Rb 16.10381389922538 17.04749037181677 8.902811935599766
Rb 16.67119617624882 21.314973060967738 10.901503805362278
Rb 21.227043185279168 18.93523058330814 11.240162861367446
Rb 12.64059918368801 19.237700476687603 12.531548378310347
Rb 18.734533848967498 13.550435333888386 11.36660377905298
Rb 13.526931350699687 14.393839592440438 12.442395816076813
Rb 17.223316464555097 17.47106360201466 13.297110354186886
Rb 21.356006956365754 15.433743129612555 14.979585793108827
Rb 20.587299274014516 20.482396519206368 15.477334905586773
Rb 15.891181551147142 21.58986100263126 15.771314181854628
Rb 24.996448238687186 18.402230546713426 15.47652038006039
Rb 18.011713315753664 17.422266146377588 17.652949040643648
Rb 20.030868775963647 23.976564371326205 12.489225083934103
Rb 9.476494413445058 16.492710594325388 15.130659214067062
Rb 16.838482237602534 13.137213747427479 15.774684556651755
Rb 21.064016057722725 10.713528458045007 16.304540838753862
Rb 11.283623512082523 20.91036123238278 17.378327490180986
Rb 12.16680742682497 12.641036156973499 17.04431474906431
Rb 18.880041771679462 21.359594315724067 19.773796810259643
Rb 24.251426059466517 22.800482345985973 13.852478624789129
Rb 13.736747836852494 16.949094309402522 16.39908912813222
Rb 19.246859020469426 25.048666999139883 17.115391625925817
Rb 19.934253678963756 13.867919178832292 19.443909972701416
Rb 23.24672415575307 22.744947710091562 18.823891719223997
Rb 24.48243333911399 13.795866141221527 18.44840578211068
Rb 22.446789771241246 18.025072513991113 19.364434578522143
Rb 10.799729615401365 16.80922566578883 20.127346732341042
Rb 17.214738430698795 10.141864294394514 19.539142136483555
Rb 15.029319060529236 24.0682698766792 20.061480222515403
Rb 21.72847528328279 20.576953649247972 23.46511457548977
Rb 15.114792053452124 14.441692412623848 20.30677012516173
Rb 14.705918014582101 19.40208942944761 20.19024651494081
Rb 11.644557074024249 21.24878398622673 22.818134714767424
Rb 18.472251074424413 17.36990221916609 22.183630194682724
Rb 19.819403233090064 25.094062831050127 22.039184088753853
Rb 22.54783750664071 15.134161772433558 23.260844677960776
Rb 22.032356035839634 10.40000958244355 21.245105709558068
Rb 14.265368821542593 17.110788446255164 24.334030263805946
Rb 18.133643795472654 12.959683859316163 23.773003475274123
Rb 16.649092054845124 21.497834451047193 24.07889776124282
Rb 19.1379589714606 17.35148161044632 0.3023884551083447
