<?xml version="1.0" encoding="ISO-8859-1"?>
<modeling>
 <generator>
  <i name="program" type="string">vasp </i>
  <i name="version" type="string">5.3.5  </i>
  <i name="subversion" type="string">31Mar14 (build Feb 01 2018 12:10:03) gamma-only                       parallel </i>
  <i name="platform" type="string">LinuxIFC </i>
  <i name="date" type="string">2019 03 22 </i>
  <i name="time" type="string">16:14:31 </i>
 </generator>
 <incar>
  <i type="string" name="PREC">normal</i>
  <i type="int" name="ISPIN">     2</i>
  <i type="int" name="IBRION">     2</i>
  <i type="int" name="NSW">  1000</i>
  <i type="int" name="ISIF">     2</i>
  <i name="POTIM">      0.10000000</i>
  <i type="logical" name="LPLANE"> T  </i>
  <i type="int" name="ISMEAR">     0</i>
  <i name="SIGMA">      0.00010000</i>
  <i type="logical" name="LWAVE"> F  </i>
  <i type="logical" name="LCHARG"> F  </i>
  <i type="logical" name="LVTOT"> F  </i>
  <i type="string" name="GGA"> PE</i>
 </incar>
 <kpoints>
  <varray name="kpointlist" >
   <v>       0.00000000       0.00000000       0.00000000 </v>
  </varray>
  <varray name="weights" >
   <v>       1.00000000 </v>
  </varray>
 </kpoints>
 <parameters>
  <separator name="general" >
   <i type="string" name="SYSTEM">unknown system</i>
   <i type="logical" name="LCOMPAT"> F  </i>
  </separator>
  <separator name="electronic" >
   <i type="string" name="PREC">normal</i>
   <i name="ENMAX">    249.84400000</i>
   <i name="ENAUG">    412.49600000</i>
   <i name="EDIFF">      0.00010000</i>
   <i type="int" name="IALGO">    38</i>
   <i type="int" name="IWAVPR">    11</i>
   <i type="int" name="NBANDS">   220</i>
   <i name="NELECT">    341.00000000</i>
   <i type="int" name="TURBO">     0</i>
   <i type="int" name="IRESTART">     0</i>
   <i type="int" name="NREBOOT">     0</i>
   <i type="int" name="NMIN">     0</i>
   <i name="EREF">      0.00000000</i>
   <separator name="electronic smearing" >
    <i type="int" name="ISMEAR">     0</i>
    <i name="SIGMA">      0.00010000</i>
    <i name="KSPACING">      0.50000000</i>
    <i type="logical" name="KGAMMA"> T  </i>
   </separator>
   <separator name="electronic projectors" >
    <i type="logical" name="LREAL"> F  </i>
    <v name="ROPT">      0.00000000</v>
    <i type="int" name="LMAXPAW">  -100</i>
    <i type="int" name="LMAXMIX">     2</i>
    <i type="logical" name="NLSPLINE"> F  </i>
   </separator>
   <separator name="electronic startup" >
    <i type="int" name="ISTART">     0</i>
    <i type="int" name="ICHARG">     2</i>
    <i type="int" name="INIWAV">     1</i>
   </separator>
   <separator name="electronic spin" >
    <i type="int" name="ISPIN">     2</i>
    <i type="logical" name="LNONCOLLINEAR"> F  </i>
    <v name="MAGMOM">      1.00000000      1.00000000      1.00000000      1.00000000      1.00000000      1.00000000      1.00000000      1.00000000      1.00000000      1.00000000      1.00000000      1.00000000      1.00000000      1.00000000      1.00000000      1.00000000      1.00000000      1.00000000      1.00000000      1.00000000
      1.00000000      1.00000000      1.00000000      1.00000000      1.00000000      1.00000000      1.00000000      1.00000000      1.00000000      1.00000000      1.00000000</v>
    <i name="NUPDOWN">     -1.00000000</i>
    <i type="logical" name="LSORBIT"> F  </i>
    <v name="SAXIS">      0.00000000      0.00000000      1.00000000</v>
    <i type="logical" name="LSPIRAL"> F  </i>
    <v name="QSPIRAL">      0.00000000      0.00000000      0.00000000</v>
    <i type="logical" name="LZEROZ"> F  </i>
   </separator>
   <separator name="electronic exchange-correlation" >
    <i type="logical" name="LASPH"> F  </i>
    <i type="logical" name="LMETAGGA"> F  </i>
   </separator>
   <separator name="electronic convergence" >
    <i type="int" name="NELM">    60</i>
    <i type="int" name="NELMDL">    -5</i>
    <i type="int" name="NELMIN">     2</i>
    <i name="ENINI">    249.84400000</i>
    <separator name="electronic convergence detail" >
     <i type="logical" name="LDIAG"> T  </i>
     <i type="logical" name="LSUBROT"> F  </i>
     <i name="WEIMIN">      0.00100000</i>
     <i name="EBREAK">      0.00000011</i>
     <i name="DEPER">      0.30000000</i>
     <i type="int" name="NRMM">     4</i>
     <i name="TIME">      0.40000000</i>
    </separator>
   </separator>
   <separator name="electronic mixer" >
    <i name="AMIX">      0.40000000</i>
    <i name="BMIX">      1.00000000</i>
    <i name="AMIN">      0.10000000</i>
    <i name="AMIX_MAG">      1.60000000</i>
    <i name="BMIX_MAG">      1.00000000</i>
    <separator name="electronic mixer details" >
     <i type="int" name="IMIX">     4</i>
     <i type="int" name="MAXMIX">   -45</i>
     <i name="WC">    100.00000000</i>
     <i type="int" name="INIMIX">     1</i>
     <i type="int" name="MIXPRE">     1</i>
     <i type="int" name="MREMOVE">     5</i>
    </separator>
   </separator>
   <separator name="electronic dipolcorrection" >
    <i type="logical" name="LDIPOL"> F  </i>
    <i type="logical" name="LMONO"> F  </i>
    <i type="int" name="IDIPOL">     0</i>
    <i name="EPSILON">      1.00000000</i>
    <v name="DIPOL">   -100.00000000   -100.00000000   -100.00000000</v>
    <i name="EFIELD">      0.00000000</i>
   </separator>
  </separator>
  <separator name="grids" >
   <i type="int" name="NGX">    84</i>
   <i type="int" name="NGY">    84</i>
   <i type="int" name="NGZ">    84</i>
   <i type="int" name="NGXF">   168</i>
   <i type="int" name="NGYF">   168</i>
   <i type="int" name="NGZF">   168</i>
   <i type="logical" name="ADDGRID"> F  </i>
  </separator>
  <separator name="ionic" >
   <i type="int" name="NSW">  1000</i>
   <i type="int" name="IBRION">     2</i>
   <i type="int" name="ISIF">     2</i>
   <i name="PSTRESS">      0.00000000</i>
   <i name="EDIFFG">      0.00100000</i>
   <i type="int" name="NFREE">     1</i>
   <i name="POTIM">      0.10000000</i>
   <i name="SMASS">     -3.00000000</i>
   <i name="SCALEE">      1.00000000</i>
  </separator>
  <separator name="ionic md" >
   <i name="TEBEG">      0.00010000</i>
   <i name="TEEND">      0.00010000</i>
   <i type="int" name="NBLOCK">     1</i>
   <i type="int" name="KBLOCK">  1000</i>
   <i type="int" name="NPACO">   256</i>
   <i name="APACO">     16.00000000</i>
  </separator>
  <separator name="symmetry" >
   <i type="int" name="ISYM">     2</i>
   <i name="SYMPREC">      0.00001000</i>
  </separator>
  <separator name="dos" >
   <i type="logical" name="LORBIT"> F  </i>
   <v name="RWIGS">     -1.00000000</v>
   <i type="int" name="NEDOS">   301</i>
   <i name="EMIN">     10.00000000</i>
   <i name="EMAX">    -10.00000000</i>
   <i name="EFERMI">      0.00000000</i>
  </separator>
  <separator name="writing" >
   <i type="int" name="NWRITE">     2</i>
   <i type="logical" name="LWAVE"> F  </i>
   <i type="logical" name="LCHARG"> F  </i>
   <i type="logical" name="LPARD"> F  </i>
   <i type="logical" name="LVTOT"> F  </i>
   <i type="logical" name="LVHAR"> F  </i>
   <i type="logical" name="LELF"> F  </i>
   <i type="logical" name="LOPTICS"> F  </i>
   <v name="STM">      0.00000000      0.00000000      0.00000000      0.00000000      0.00000000      0.00000000      0.00000000</v>
  </separator>
  <separator name="performance" >
   <i type="int" name="NPAR">     4</i>
   <i type="int" name="NSIM">     4</i>
   <i type="int" name="NBLK">    -1</i>
   <i type="logical" name="LPLANE"> T  </i>
   <i type="logical" name="LSCALAPACK"> T  </i>
   <i type="logical" name="LSCAAWARE"> F  </i>
   <i type="logical" name="LSCALU"> F  </i>
   <i type="logical" name="LASYNC"> F  </i>
   <i type="logical" name="LORBITALREAL"> F  </i>
  </separator>
  <separator name="miscellaneous" >
   <i type="int" name="IDIOT">     3</i>
   <i type="logical" name="LMUSIC"> F  </i>
   <v name="POMASS">    107.86800000</v>
   <v name="DARWINR">      0.00000000</v>
   <v name="DARWINV">      1.00000000</v>
   <i type="logical" name="LCORR"> T  </i>
  </separator>
  <i type="logical" name="GGA_COMPAT"> T  </i>
  <i type="logical" name="LBERRY"> F  </i>
  <i type="int" name="ICORELEVEL">     0</i>
  <i type="logical" name="LDAU"> F  </i>
  <i type="int" name="I_CONSTRAINED_M">     0</i>
  <separator name="electronic exchange-correlation" >
   <i type="string" name="GGA">PE</i>
   <i type="int" name="VOSKOWN">     0</i>
   <i type="logical" name="LHFCALC"> F  </i>
   <i type="string" name="PRECFOCK"></i>
   <i type="logical" name="LSYMGRAD"> F  </i>
   <i type="logical" name="LHFONE"> F  </i>
   <i type="logical" name="LRHFCALC"> F  </i>
   <i type="logical" name="LTHOMAS"> F  </i>
   <i type="logical" name="LMODELHF"> F  </i>
   <i name="ENCUT4O">     -1.00000000</i>
   <i type="int" name="EXXOEP">     0</i>
   <i type="int" name="FOURORBIT">     0</i>
   <i name="AEXX">      0.00000000</i>
   <i name="HFALPHA">      0.00000000</i>
   <i name="MCALPHA">      0.00000000</i>
   <i name="ALDAX">      1.00000000</i>
   <i name="AGGAX">      1.00000000</i>
   <i name="ALDAC">      1.00000000</i>
   <i name="AGGAC">      1.00000000</i>
   <i type="int" name="NKREDX">     1</i>
   <i type="int" name="NKREDY">     1</i>
   <i type="int" name="NKREDZ">     1</i>
   <i type="logical" name="SHIFTRED"> F  </i>
   <i type="logical" name="ODDONLY"> F  </i>
   <i type="logical" name="EVENONLY"> F  </i>
   <i type="int" name="LMAXFOCK">     0</i>
   <i type="int" name="NMAXFOCKAE">     0</i>
   <i type="logical" name="LFOCKAEDFT"> F  </i>
   <i name="HFSCREEN">      0.00000000</i>
   <i name="HFSCREENC">      0.00000000</i>
   <i type="int" name="NBANDSGWLOW">     0</i>
  </separator>
  <separator name="vdW DFT" >
   <i type="logical" name="LUSE_VDW"> F  </i>
   <i name="Zab_VDW">     -0.84910000</i>
   <i name="PARAM1">      0.12340000</i>
   <i name="PARAM2">      1.00000000</i>
   <i name="PARAM3">      0.00000000</i>
  </separator>
  <separator name="model GW" >
   <i type="int" name="MODEL_GW">     0</i>
   <i name="MODEL_EPS0">    177.33504089</i>
   <i name="MODEL_ALPHA">      1.00000000</i>
  </separator>
  <separator name="linear response parameters" >
   <i type="logical" name="LEPSILON"> F  </i>
   <i type="logical" name="LRPA"> F  </i>
   <i type="logical" name="LNABLA"> F  </i>
   <i type="logical" name="LVEL"> F  </i>
   <i type="int" name="KINTER">     0</i>
   <i name="CSHIFT">      0.10000000</i>
   <i name="OMEGAMAX">     -1.00000000</i>
   <i name="DEG_THRESHOLD">      0.00200000</i>
  </separator>
  <separator name="orbital magnetization" >
   <i type="logical" name="NUCIND"> F  </i>
   <v name="MAGPOS">      0.00000000      0.00000000      0.00000000</v>
   <i type="logical" name="LNICSALL"> T  </i>
   <i type="logical" name="ORBITALMAG"> F  </i>
   <i type="logical" name="LMAGBLOCH"> F  </i>
   <i type="logical" name="LCHIMAG"> F  </i>
   <i type="logical" name="LGAUGE"> T  </i>
   <i type="int" name="MAGATOM">     0</i>
   <v name="MAGDIPOL">      0.00000000      0.00000000      0.00000000</v>
   <v name="AVECCONST">      0.00000000      0.00000000      0.00000000</v>
  </separator>
  <separator name="response functions" >
   <i type="logical" name="LADDER"> F  </i>
   <i type="logical" name="LFXC"> F  </i>
   <i type="logical" name="LHARTREE"> T  </i>
   <i type="int" name="IBSE">     0</i>
   <i type="logical" name="LTCTE"> F  </i>
   <i type="logical" name="LTETE"> F  </i>
   <i type="logical" name="LTRIPLET"> F  </i>
   <i type="logical" name="LFXCEPS"> F  </i>
   <i type="logical" name="LFXHEG"> F  </i>
   <i type="logical" name="L2ORDER"> F  </i>
   <i type="logical" name="LUSEW"> F  </i>
   <i name="ENCUTGW">     -2.00000000</i>
   <i name="ENCUTGWSOFT">     -2.00000000</i>
   <i name="ENCUTLF">     -1.00000000</i>
   <i type="int" name="LMAXMP2">    -1</i>
   <i name="SCISSOR">      0.00000000</i>
   <i type="int" name="NOMEGA">     0</i>
   <i type="int" name="NOMEGAR">     0</i>
   <i type="int" name="NBANDSGW">    -1</i>
   <i type="int" name="NBANDSO">    -1</i>
   <i type="int" name="NBANDSV">    -1</i>
   <i type="int" name="NELM">     1</i>
   <i type="int" name="DIM">     3</i>
   <i type="int" name="ANTIRES">     0</i>
   <i name="OMEGAMAX">    -30.00000000</i>
   <i name="OMEGAMIN">    -30.00000000</i>
   <i name="OMEGATL">   -200.00000000</i>
   <i type="int" name="OMEGAGRID">     0</i>
   <i name="CSHIFT">     -0.10000000</i>
   <i type="logical" name="SELFENERGY"> F  </i>
   <i type="logical" name="LSPECTRAL"> F  </i>
   <i type="logical" name="ODDONLYGW"> F  </i>
   <i type="logical" name="EVENONLYGW"> F  </i>
   <i type="int" name="NKREDLFX">     1</i>
   <i type="int" name="NKREDLFY">     1</i>
   <i type="int" name="NKREDLFZ">     1</i>
   <i type="int" name="MAXMEM">  1800</i>
   <i type="int" name="TELESCOPE">     0</i>
   <i type="int" name="TAUPAR">     1</i>
  </separator>
  <separator name="External order field" >
   <i name="OFIELD_KAPPA">      0.00000000</i>
   <v name="OFIELD_K">      0.00000000      0.00000000      0.00000000</v>
   <i name="OFIELD_Q6_NEAR">      0.00000000</i>
   <i name="OFIELD_Q6_FAR">      0.00000000</i>
   <i name="OFIELD_A">      0.00000000</i>
  </separator>
 </parameters>
 <atominfo>
  <atoms>      31 </atoms>
  <types>       1 </types>
  <array name="atoms" >
   <dimension dim="1">ion</dimension>
   <field type="string">element</field>
   <field type="int">atomtype</field>
   <set>
    <rc><c>Ag</c><c>   1</c></rc>
    <rc><c>Ag</c><c>   1</c></rc>
    <rc><c>Ag</c><c>   1</c></rc>
    <rc><c>Ag</c><c>   1</c></rc>
    <rc><c>Ag</c><c>   1</c></rc>
    <rc><c>Ag</c><c>   1</c></rc>
    <rc><c>Ag</c><c>   1</c></rc>
    <rc><c>Ag</c><c>   1</c></rc>
    <rc><c>Ag</c><c>   1</c></rc>
    <rc><c>Ag</c><c>   1</c></rc>
    <rc><c>Ag</c><c>   1</c></rc>
    <rc><c>Ag</c><c>   1</c></rc>
    <rc><c>Ag</c><c>   1</c></rc>
    <rc><c>Ag</c><c>   1</c></rc>
    <rc><c>Ag</c><c>   1</c></rc>
    <rc><c>Ag</c><c>   1</c></rc>
    <rc><c>Ag</c><c>   1</c></rc>
    <rc><c>Ag</c><c>   1</c></rc>
    <rc><c>Ag</c><c>   1</c></rc>
    <rc><c>Ag</c><c>   1</c></rc>
    <rc><c>Ag</c><c>   1</c></rc>
    <rc><c>Ag</c><c>   1</c></rc>
    <rc><c>Ag</c><c>   1</c></rc>
    <rc><c>Ag</c><c>   1</c></rc>
    <rc><c>Ag</c><c>   1</c></rc>
    <rc><c>Ag</c><c>   1</c></rc>
    <rc><c>Ag</c><c>   1</c></rc>
    <rc><c>Ag</c><c>   1</c></rc>
    <rc><c>Ag</c><c>   1</c></rc>
    <rc><c>Ag</c><c>   1</c></rc>
    <rc><c>Ag</c><c>   1</c></rc>
   </set>
  </array>
  <array name="atomtypes" >
   <dimension dim="1">type</dimension>
   <field type="int">atomspertype</field>
   <field type="string">element</field>
   <field>mass</field>
   <field>valence</field>
   <field type="string">pseudopotential</field>
   <set>
    <rc><c>  31</c><c>Ag</c><c>    107.86800000</c><c>     11.00000000</c><c>  PAW_PBE Ag 02Apr2005                  </c></rc>
   </set>
  </array>
 </atominfo>
 <structure name="initialpos" >
  <crystal>
   <varray name="basis" >
    <v>      20.92513817       0.00000000       0.00000000 </v>
    <v>       0.00000000      20.92513817       0.00000000 </v>
    <v>       0.00000000       0.00000000      20.92513817 </v>
   </varray>
   <i name="volume">   9162.31044574 </i>
   <varray name="rec_basis" >
    <v>       0.04778941       0.00000000       0.00000000 </v>
    <v>       0.00000000       0.04778941       0.00000000 </v>
    <v>       0.00000000       0.00000000       0.04778941 </v>
   </varray>
  </crystal>
  <varray name="positions" >
   <v>       0.54487084       0.47471298       0.66999337 </v>
   <v>       0.59429400       0.59099639       0.69585637 </v>
   <v>       0.66112382       0.51377257       0.61384640 </v>
   <v>       0.60826770       0.64570233       0.58278829 </v>
   <v>       0.48839071       0.69433368       0.59028886 </v>
   <v>       0.69924595       0.61178105       0.49560796 </v>
   <v>       0.61860937       0.38433056       0.60730430 </v>
   <v>       0.60658123       0.70686421       0.47054358 </v>
   <v>       0.49715263       0.35447315       0.65646119 </v>
   <v>       0.46813465       0.58274574       0.67320822 </v>
   <v>       0.41275080       0.45699045       0.65339685 </v>
   <v>       0.71941815       0.43005077       0.53735881 </v>
   <v>       0.59088559       0.53403170       0.50752667 </v>
   <v>       0.36919309       0.65725941       0.53796686 </v>
   <v>       0.47351353       0.57246278       0.54740371 </v>
   <v>       0.34774037       0.56733687       0.62830806 </v>
   <v>       0.48202740       0.67590395       0.46056085 </v>
   <v>       0.50272153       0.44635818       0.54348057 </v>
   <v>       0.40709448       0.35835107       0.55770462 </v>
   <v>       0.68531663       0.49538417       0.42849804 </v>
   <v>       0.61199139       0.60194047       0.39400073 </v>
   <v>       0.54392271       0.70839091       0.35200693 </v>
   <v>       0.39807402       0.57401025       0.44158470 </v>
   <v>       0.53278965       0.31265187       0.53561662 </v>
   <v>       0.61200050       0.39348788       0.46854078 </v>
   <v>       0.48938584       0.59002919       0.34713944 </v>
   <v>       0.35539133       0.39540449       0.44124599 </v>
   <v>       0.55772854       0.48252285       0.38580843 </v>
   <v>       0.48618815       0.38107991       0.43268814 </v>
   <v>       0.42867713       0.47689806       0.36799318 </v>
   <v>       0.36127908       0.48450291       0.53003229 </v>
  </varray>
 </structure>
 <calculation>
  <scstep>
   <time name="dav">    3.92    3.93</time>
   <time name="total">    4.22    4.25</time>
   <energy>
    <i name="alphaZ">     89.21390834 </i>
    <i name="ewald">  67943.74416457 </i>
    <i name="hartreedc"> -98822.17762646 </i>
    <i name="XCdc">   -338.15394695 </i>
    <i name="pawpsdc">  31104.53752016 </i>
    <i name="pawaedc"> -29675.20287524 </i>
    <i name="eentropy">     -0.00000000 </i>
    <i name="bandstr">    457.27181513 </i>
    <i name="atom">  32153.15753268 </i>
    <i name="e_fr_energy">   2912.39049223 </i>
    <i name="e_wo_entrp">   2912.39049223 </i>
    <i name="e_0_energy">   2912.39049223 </i>
   </energy>
  </scstep>
  <scstep>
   <time name="dav">    5.94    5.94</time>
   <time name="total">    5.94    5.94</time>
   <energy>
    <i name="e_fr_energy">    533.89907188 </i>
    <i name="e_wo_entrp">    533.89907188 </i>
    <i name="e_0_energy">    533.89907188 </i>
   </energy>
  </scstep>
  <scstep>
   <time name="dav">    4.75    4.76</time>
   <time name="total">    4.75    4.76</time>
   <energy>
    <i name="e_fr_energy">    -38.53046276 </i>
    <i name="e_wo_entrp">    -38.53046276 </i>
    <i name="e_0_energy">    -38.53046276 </i>
   </energy>
  </scstep>
  <scstep>
   <time name="dav">    4.21    4.21</time>
   <time name="total">    4.21    4.22</time>
   <energy>
    <i name="e_fr_energy">    -63.92580330 </i>
    <i name="e_wo_entrp">    -63.92580330 </i>
    <i name="e_0_energy">    -63.92580330 </i>
   </energy>
  </scstep>
  <scstep>
   <time name="dav">    4.26    4.27</time>
   <time name="total">    4.42    5.13</time>
   <energy>
    <i name="e_fr_energy">    -64.28923590 </i>
    <i name="e_wo_entrp">    -64.28923590 </i>
    <i name="e_0_energy">    -64.28923590 </i>
   </energy>
  </scstep>
  <scstep>
   <time name="dav">    3.98    3.99</time>
   <time name="total">    4.43    4.44</time>
   <energy>
    <i name="e_fr_energy">    -28.25622586 </i>
    <i name="e_wo_entrp">    -28.25622586 </i>
    <i name="e_0_energy">    -28.25622586 </i>
   </energy>
  </scstep>
  <scstep>
   <time name="dav">    4.16    4.16</time>
   <time name="total">    4.60    4.61</time>
   <energy>
    <i name="e_fr_energy">    -20.36333826 </i>
    <i name="e_wo_entrp">    -20.36333826 </i>
    <i name="e_0_energy">    -20.36333826 </i>
   </energy>
  </scstep>
  <scstep>
   <time name="dav">    4.14    4.14</time>
   <time name="total">    4.58    4.59</time>
   <energy>
    <i name="e_fr_energy">    -21.10897744 </i>
    <i name="e_wo_entrp">    -21.10897744 </i>
    <i name="e_0_energy">    -21.10897744 </i>
   </energy>
  </scstep>
  <scstep>
   <time name="dav">    4.19    4.20</time>
   <time name="total">    4.64    4.66</time>
   <energy>
    <i name="e_fr_energy">    -25.26991101 </i>
    <i name="e_wo_entrp">    -25.26991101 </i>
    <i name="e_0_energy">    -25.26991101 </i>
   </energy>
  </scstep>
  <scstep>
   <time name="dav">    4.16    4.17</time>
   <time name="total">    4.61    4.64</time>
   <energy>
    <i name="e_fr_energy">    -27.19205715 </i>
    <i name="e_wo_entrp">    -27.19205715 </i>
    <i name="e_0_energy">    -27.19205715 </i>
   </energy>
  </scstep>
  <scstep>
   <time name="dav">    3.98    3.98</time>
   <time name="total">    4.43    4.43</time>
   <energy>
    <i name="e_fr_energy">    -38.25302313 </i>
    <i name="e_wo_entrp">    -38.25302313 </i>
    <i name="e_0_energy">    -38.25302313 </i>
   </energy>
  </scstep>
  <scstep>
   <time name="dav">    4.16    4.16</time>
   <time name="total">    4.61    4.61</time>
   <energy>
    <i name="e_fr_energy">    -43.63678527 </i>
    <i name="e_wo_entrp">    -43.63678527 </i>
    <i name="e_0_energy">    -43.63678527 </i>
   </energy>
  </scstep>
  <scstep>
   <time name="dav">    3.90    3.90</time>
   <time name="total">    4.34    5.59</time>
   <energy>
    <i name="e_fr_energy">    -50.92707202 </i>
    <i name="e_wo_entrp">    -50.92707202 </i>
    <i name="e_0_energy">    -50.92707202 </i>
   </energy>
  </scstep>
  <scstep>
   <time name="dav">    4.01    4.01</time>
   <time name="total">    4.46    4.47</time>
   <energy>
    <i name="e_fr_energy">    -56.21833973 </i>
    <i name="e_wo_entrp">    -56.21833973 </i>
    <i name="e_0_energy">    -56.21833973 </i>
   </energy>
  </scstep>
  <scstep>
   <time name="dav">    4.12    4.12</time>
   <time name="total">    4.58    4.58</time>
   <energy>
    <i name="e_fr_energy">    -59.28741339 </i>
    <i name="e_wo_entrp">    -59.28741339 </i>
    <i name="e_0_energy">    -59.28741339 </i>
   </energy>
  </scstep>
  <scstep>
   <time name="dav">    4.06    4.07</time>
   <time name="total">    4.52    4.52</time>
   <energy>
    <i name="e_fr_energy">    -61.49186473 </i>
    <i name="e_wo_entrp">    -61.49186473 </i>
    <i name="e_0_energy">    -61.49186473 </i>
   </energy>
  </scstep>
  <scstep>
   <time name="dav">    4.09    4.09</time>
   <time name="total">    4.54    4.54</time>
   <energy>
    <i name="e_fr_energy">    -62.27930260 </i>
    <i name="e_wo_entrp">    -62.27930260 </i>
    <i name="e_0_energy">    -62.27930260 </i>
   </energy>
  </scstep>
  <scstep>
   <time name="dav">    4.17    4.17</time>
   <time name="total">    4.62    4.63</time>
   <energy>
    <i name="e_fr_energy">    -62.74617152 </i>
    <i name="e_wo_entrp">    -62.74614084 </i>
    <i name="e_0_energy">    -62.74615618 </i>
   </energy>
  </scstep>
  <scstep>
   <time name="dav">    3.48    3.49</time>
   <time name="total">    3.94    3.94</time>
   <energy>
    <i name="e_fr_energy">    -62.74679363 </i>
    <i name="e_wo_entrp">    -62.74679363 </i>
    <i name="e_0_energy">    -62.74679363 </i>
   </energy>
  </scstep>
  <scstep>
   <time name="dav">    4.05    4.05</time>
   <time name="total">    4.50    4.51</time>
   <energy>
    <i name="e_fr_energy">    -62.88966409 </i>
    <i name="e_wo_entrp">    -62.88966409 </i>
    <i name="e_0_energy">    -62.88966409 </i>
   </energy>
  </scstep>
  <scstep>
   <time name="dav">    4.12    4.13</time>
   <time name="total">    4.58    4.58</time>
   <energy>
    <i name="e_fr_energy">    -62.97503289 </i>
    <i name="e_wo_entrp">    -62.97501372 </i>
    <i name="e_0_energy">    -62.97502331 </i>
   </energy>
  </scstep>
  <scstep>
   <time name="dav">    3.54    3.54</time>
   <time name="total">    4.00    4.82</time>
   <energy>
    <i name="e_fr_energy">    -63.00502633 </i>
    <i name="e_wo_entrp">    -63.00502633 </i>
    <i name="e_0_energy">    -63.00502633 </i>
   </energy>
  </scstep>
  <scstep>
   <time name="dav">    3.56    3.56</time>
   <time name="total">    4.01    4.02</time>
   <energy>
    <i name="e_fr_energy">    -63.01065627 </i>
    <i name="e_wo_entrp">    -63.01065627 </i>
    <i name="e_0_energy">    -63.01065627 </i>
   </energy>
  </scstep>
  <scstep>
   <time name="dav">    3.26    3.27</time>
   <time name="total">    3.72    3.73</time>
   <energy>
    <i name="e_fr_energy">    -63.01356759 </i>
    <i name="e_wo_entrp">    -63.01356759 </i>
    <i name="e_0_energy">    -63.01356759 </i>
   </energy>
  </scstep>
  <scstep>
   <time name="dav">    3.09    3.09</time>
   <time name="total">    3.55    3.55</time>
   <energy>
    <i name="e_fr_energy">    -63.01762927 </i>
    <i name="e_wo_entrp">    -63.01762789 </i>
    <i name="e_0_energy">    -63.01762858 </i>
   </energy>
  </scstep>
  <scstep>
   <time name="dav">    3.19    3.19</time>
   <time name="total">    3.65    3.65</time>
   <energy>
    <i name="e_fr_energy">    -63.02015300 </i>
    <i name="e_wo_entrp">    -63.02015277 </i>
    <i name="e_0_energy">    -63.02015289 </i>
   </energy>
  </scstep>
  <scstep>
   <time name="dav">    3.04    3.04</time>
   <time name="total">    3.49    3.50</time>
   <energy>
    <i name="e_fr_energy">    -63.02077779 </i>
    <i name="e_wo_entrp">    -63.02077779 </i>
    <i name="e_0_energy">    -63.02077779 </i>
   </energy>
  </scstep>
  <scstep>
   <time name="dav">    2.98    2.98</time>
   <time name="total">    3.27    3.28</time>
   <energy>
    <i name="alphaZ">     89.21390834 </i>
    <i name="ewald">  67943.74416457 </i>
    <i name="hartreedc"> -98781.74280395 </i>
    <i name="XCdc">   -349.90729651 </i>
    <i name="pawpsdc">  33849.44864734 </i>
    <i name="pawaedc"> -32481.91407360 </i>
    <i name="eentropy">     -0.00000000 </i>
    <i name="bandstr">  -2485.02092530 </i>
    <i name="atom">  32153.15753268 </i>
    <i name="e_fr_energy">    -63.02084644 </i>
    <i name="e_wo_entrp">    -63.02084644 </i>
    <i name="e_0_energy">    -63.02084644 </i>
   </energy>
  </scstep>
  <structure>
   <crystal>
    <varray name="basis" >
     <v>      20.92513817       0.00000000       0.00000000 </v>
     <v>       0.00000000      20.92513817       0.00000000 </v>
     <v>       0.00000000       0.00000000      20.92513817 </v>
    </varray>
    <i name="volume">   9162.31044574 </i>
    <varray name="rec_basis" >
     <v>       0.04778941       0.00000000       0.00000000 </v>
     <v>       0.00000000       0.04778941       0.00000000 </v>
     <v>       0.00000000       0.00000000       0.04778941 </v>
    </varray>
   </crystal>
   <varray name="positions" >
    <v>       0.54487084       0.47471298       0.66999337 </v>
    <v>       0.59429400       0.59099639       0.69585637 </v>
    <v>       0.66112382       0.51377257       0.61384640 </v>
    <v>       0.60826770       0.64570233       0.58278829 </v>
    <v>       0.48839071       0.69433368       0.59028886 </v>
    <v>       0.69924595       0.61178105       0.49560796 </v>
    <v>       0.61860937       0.38433056       0.60730430 </v>
    <v>       0.60658123       0.70686421       0.47054358 </v>
    <v>       0.49715263       0.35447315       0.65646119 </v>
    <v>       0.46813465       0.58274574       0.67320822 </v>
    <v>       0.41275080       0.45699045       0.65339685 </v>
    <v>       0.71941815       0.43005077       0.53735881 </v>
    <v>       0.59088559       0.53403170       0.50752667 </v>
    <v>       0.36919309       0.65725941       0.53796686 </v>
    <v>       0.47351353       0.57246278       0.54740371 </v>
    <v>       0.34774037       0.56733687       0.62830806 </v>
    <v>       0.48202740       0.67590395       0.46056085 </v>
    <v>       0.50272153       0.44635818       0.54348057 </v>
    <v>       0.40709448       0.35835107       0.55770462 </v>
    <v>       0.68531663       0.49538417       0.42849804 </v>
    <v>       0.61199139       0.60194047       0.39400073 </v>
    <v>       0.54392271       0.70839091       0.35200693 </v>
    <v>       0.39807402       0.57401025       0.44158470 </v>
    <v>       0.53278965       0.31265187       0.53561662 </v>
    <v>       0.61200050       0.39348788       0.46854078 </v>
    <v>       0.48938584       0.59002919       0.34713944 </v>
    <v>       0.35539133       0.39540449       0.44124599 </v>
    <v>       0.55772854       0.48252285       0.38580843 </v>
    <v>       0.48618815       0.38107991       0.43268814 </v>
    <v>       0.42867713       0.47689806       0.36799318 </v>
    <v>       0.36127908       0.48450291       0.53003229 </v>
   </varray>
  </structure>
  <varray name="forces" >
   <v>       0.16643614       0.01894636       0.25745284 </v>
   <v>       0.26657453       0.23462087       0.51851951 </v>
   <v>       0.18191662       0.38156039       0.40708053 </v>
   <v>       0.05719058      -0.06700950       0.18168683 </v>
   <v>       0.00318633       0.32840821       0.24492483 </v>
   <v>       0.24388889      -0.10212643       0.10315669 </v>
   <v>       0.04049493      -0.03187135       0.04363117 </v>
   <v>       0.20718494       0.43057272       0.08776239 </v>
   <v>      -0.00726766      -0.11054547       0.11538057 </v>
   <v>      -0.13374713       0.22794501       0.60996849 </v>
   <v>      -0.01944165      -0.06440866      -0.04660184 </v>
   <v>       0.34018585      -0.14850227      -0.26920901 </v>
   <v>      -0.01343477      -0.01134829      -0.10385085 </v>
   <v>       0.00205032       0.20251865      -0.07854705 </v>
   <v>      -0.21910040      -0.09630026      -0.00186714 </v>
   <v>      -0.29511814       0.14446436       0.13545147 </v>
   <v>      -0.30449937      -0.01728136      -0.10151434 </v>
   <v>       0.04184087      -0.22527604       0.35072609 </v>
   <v>      -0.30486139      -0.21485611      -0.00762569 </v>
   <v>       0.43817801       0.03483126      -0.39570779 </v>
   <v>       0.27380905       0.17299386      -0.33293816 </v>
   <v>       0.19785747       0.20098775      -0.15268165 </v>
   <v>      -0.50713324       0.26492736      -0.32669501 </v>
   <v>      -0.04225080      -0.41191952      -0.03210788 </v>
   <v>       0.23520943      -0.10872865       0.09799026 </v>
   <v>      -0.20481231       0.10224050      -0.15489630 </v>
   <v>      -0.10976072      -0.26016847      -0.38845011 </v>
   <v>       0.04132928      -0.10869740      -0.26580973 </v>
   <v>      -0.28966410      -0.54694316      -0.24610354 </v>
   <v>      -0.27251019      -0.30397723      -0.53123294 </v>
   <v>      -0.01373138       0.08494287       0.28210736 </v>
  </varray>
  <varray name="stress" >
   <v>       0.06797716       0.26714127       0.20841790 </v>
   <v>       0.26714127       0.03058643       0.53316667 </v>
   <v>       0.20841789       0.53316668       0.32298441 </v>
  </varray>
  <energy>
   <i name="e_fr_energy">    -63.02084644 </i>
   <i name="e_wo_entrp">    -63.02084644 </i>
   <i name="e_0_energy">     -0.00000000 </i>
  </energy>
  <time name="totalsc">  128.62  132.59</time>
 </calculation>
 <calculation>
  <scstep>
   <time name="dav">    4.05    4.05</time>
   <time name="total">    4.50    4.51</time>
   <energy>
    <i name="alphaZ">     89.21390834 </i>
    <i name="ewald">  67810.78693281 </i>
    <i name="hartreedc"> -98649.46600567 </i>
    <i name="XCdc">   -350.06330207 </i>
    <i name="pawpsdc">  33849.36539334 </i>
    <i name="pawaedc"> -32481.82981218 </i>
    <i name="eentropy">     -0.00000000 </i>
    <i name="bandstr">  -2484.23485228 </i>
    <i name="atom">  32153.15753268 </i>
    <i name="e_fr_energy">    -63.07020503 </i>
    <i name="e_wo_entrp">    -63.07020503 </i>
    <i name="e_0_energy">    -63.07020503 </i>
   </energy>
  </scstep>
  <scstep>
   <time name="dav">    4.14    4.15</time>
   <time name="total">    4.59    4.68</time>
   <energy>
    <i name="e_fr_energy">    -63.06280395 </i>
    <i name="e_wo_entrp">    -63.06280395 </i>
    <i name="e_0_energy">    -63.06280395 </i>
   </energy>
  </scstep>
  <scstep>
   <time name="dav">    4.24    4.24</time>
   <time name="total">    4.69    4.77</time>
   <energy>
    <i name="e_fr_energy">    -63.05281306 </i>
    <i name="e_wo_entrp">    -63.05281306 </i>
    <i name="e_0_energy">    -63.05281306 </i>
   </energy>
  </scstep>
  <scstep>
   <time name="dav">    4.20    4.20</time>
   <time name="total">    4.65    5.47</time>
   <energy>
    <i name="e_fr_energy">    -63.03954220 </i>
    <i name="e_wo_entrp">    -63.03954220 </i>
    <i name="e_0_energy">    -63.03954220 </i>
   </energy>
  </scstep>
  <scstep>
   <time name="dav">    3.08    3.08</time>
   <time name="total">    3.52    3.55</time>
   <energy>
    <i name="e_fr_energy">    -63.04120482 </i>
    <i name="e_wo_entrp">    -63.04120482 </i>
    <i name="e_0_energy">    -63.04120482 </i>
   </energy>
  </scstep>
  <scstep>
   <time name="dav">    3.14    3.15</time>
   <time name="total">    3.60    3.60</time>
   <energy>
    <i name="e_fr_energy">    -63.04777639 </i>
    <i name="e_wo_entrp">    -63.04777639 </i>
    <i name="e_0_energy">    -63.04777639 </i>
   </energy>
  </scstep>
  <scstep>
   <time name="dav">    3.14    3.14</time>
   <time name="total">    3.59    4.59</time>
   <energy>
    <i name="e_fr_energy">    -63.05604890 </i>
    <i name="e_wo_entrp">    -63.05604883 </i>
    <i name="e_0_energy">    -63.05604886 </i>
   </energy>
  </scstep>
  <scstep>
   <time name="dav">    3.25    3.25</time>
   <time name="total">    3.70    3.70</time>
   <energy>
    <i name="e_fr_energy">    -63.06487678 </i>
    <i name="e_wo_entrp">    -63.06487678 </i>
    <i name="e_0_energy">    -63.06487678 </i>
   </energy>
  </scstep>
  <scstep>
   <time name="dav">    3.11    3.12</time>
   <time name="total">    3.57    4.57</time>
   <energy>
    <i name="e_fr_energy">    -63.06104696 </i>
    <i name="e_wo_entrp">    -63.06104696 </i>
    <i name="e_0_energy">    -63.06104696 </i>
   </energy>
  </scstep>
  <scstep>
   <time name="dav">    3.04    3.04</time>
   <time name="total">    3.49    3.74</time>
   <energy>
    <i name="e_fr_energy">    -63.05971524 </i>
    <i name="e_wo_entrp">    -63.05971524 </i>
    <i name="e_0_energy">    -63.05971524 </i>
   </energy>
  </scstep>
  <scstep>
   <time name="dav">    2.77    2.77</time>
   <time name="total">    3.22    3.22</time>
   <energy>
    <i name="e_fr_energy">    -63.05944138 </i>
    <i name="e_wo_entrp">    -63.05944138 </i>
    <i name="e_0_energy">    -63.05944138 </i>
   </energy>
  </scstep>
  <scstep>
   <time name="dav">    2.77    2.77</time>
   <time name="total">    3.22    3.23</time>
   <energy>
    <i name="e_fr_energy">    -63.05956173 </i>
    <i name="e_wo_entrp">    -63.05956173 </i>
    <i name="e_0_energy">    -63.05956173 </i>
   </energy>
  </scstep>
  <scstep>
   <time name="dav">    2.98    2.98</time>
   <time name="total">    3.44    7.59</time>
   <energy>
    <i name="e_fr_energy">    -63.06101673 </i>
    <i name="e_wo_entrp">    -63.06101673 </i>
    <i name="e_0_energy">    -63.06101673 </i>
   </energy>
  </scstep>
  <scstep>
   <time name="dav">    3.17    3.17</time>
   <time name="total">    3.63    3.63</time>
   <energy>
    <i name="e_fr_energy">    -63.06314102 </i>
    <i name="e_wo_entrp">    -63.06314102 </i>
    <i name="e_0_energy">    -63.06314102 </i>
   </energy>
  </scstep>
  <scstep>
   <time name="dav">    3.33    3.33</time>
   <time name="total">    3.78    3.79</time>
   <energy>
    <i name="e_fr_energy">    -63.06622562 </i>
    <i name="e_wo_entrp">    -63.06622562 </i>
    <i name="e_0_energy">    -63.06622562 </i>
   </energy>
  </scstep>
  <scstep>
   <time name="dav">    3.12    3.13</time>
   <time name="total">    3.58    3.98</time>
   <energy>
    <i name="e_fr_energy">    -63.06776219 </i>
    <i name="e_wo_entrp">    -63.06776219 </i>
    <i name="e_0_energy">    -63.06776219 </i>
   </energy>
  </scstep>
  <scstep>
   <time name="dav">    2.88    2.88</time>
   <time name="total">    3.34    3.34</time>
   <energy>
    <i name="e_fr_energy">    -63.06811984 </i>
    <i name="e_wo_entrp">    -63.06811984 </i>
    <i name="e_0_energy">    -63.06811984 </i>
   </energy>
  </scstep>
  <scstep>
   <time name="dav">    2.77    2.77</time>
   <time name="total">    3.07    3.07</time>
   <energy>
    <i name="alphaZ">     89.21390834 </i>
    <i name="ewald">  67810.78693281 </i>
    <i name="hartreedc"> -98651.17898023 </i>
    <i name="XCdc">   -350.05051464 </i>
    <i name="pawpsdc">  33829.28783977 </i>
    <i name="pawaedc"> -32461.44009694 </i>
    <i name="eentropy">     -0.00000000 </i>
    <i name="bandstr">  -2482.84482931 </i>
    <i name="atom">  32153.15753268 </i>
    <i name="e_fr_energy">    -63.06820751 </i>
    <i name="e_wo_entrp">    -63.06820751 </i>
    <i name="e_0_energy">    -63.06820751 </i>
   </energy>
  </scstep>
  <structure>
   <crystal>
    <varray name="basis" >
     <v>      20.92513817       0.00000000       0.00000000 </v>
     <v>       0.00000000      20.92513817       0.00000000 </v>
     <v>       0.00000000       0.00000000      20.92513817 </v>
    </varray>
    <i name="volume">   9162.31044574 </i>
    <varray name="rec_basis" >
     <v>       0.04778941       0.00000000       0.00000000 </v>
     <v>       0.00000000       0.04778941       0.00000000 </v>
     <v>       0.00000000       0.00000000       0.04778941 </v>
    </varray>
   </crystal>
   <varray name="positions" >
    <v>       0.54494758       0.47472172       0.67011208 </v>
    <v>       0.59441691       0.59110457       0.69609546 </v>
    <v>       0.66120770       0.51394850       0.61403411 </v>
    <v>       0.60829407       0.64567143       0.58287207 </v>
    <v>       0.48839217       0.69448511       0.59040179 </v>
    <v>       0.69935841       0.61173396       0.49565552 </v>
    <v>       0.61862804       0.38431587       0.60732441 </v>
    <v>       0.60667677       0.70706274       0.47058405 </v>
    <v>       0.49714928       0.35442218       0.65651439 </v>
    <v>       0.46807298       0.58285085       0.67348947 </v>
    <v>       0.41274184       0.45696075       0.65337536 </v>
    <v>       0.71957501       0.42998230       0.53723468 </v>
    <v>       0.59087939       0.53402647       0.50747878 </v>
    <v>       0.36919404       0.65735279       0.53793064 </v>
    <v>       0.47341250       0.57241837       0.54740285 </v>
    <v>       0.34760430       0.56740348       0.62837052 </v>
    <v>       0.48188700       0.67589598       0.46051404 </v>
    <v>       0.50274082       0.44625431       0.54364229 </v>
    <v>       0.40695391       0.35825200       0.55770110 </v>
    <v>       0.68551867       0.49540023       0.42831558 </v>
    <v>       0.61211765       0.60202024       0.39384721 </v>
    <v>       0.54401394       0.70848358       0.35193653 </v>
    <v>       0.39784018       0.57413241       0.44143406 </v>
    <v>       0.53277017       0.31246193       0.53560182 </v>
    <v>       0.61210895       0.39343775       0.46858596 </v>
    <v>       0.48929140       0.59007633       0.34706802 </v>
    <v>       0.35534072       0.39528453       0.44106688 </v>
    <v>       0.55774760       0.48247273       0.38568586 </v>
    <v>       0.48605459       0.38082771       0.43257467 </v>
    <v>       0.42855148       0.47675790       0.36774823 </v>
    <v>       0.36127275       0.48454208       0.53016237 </v>
   </varray>
  </structure>
  <varray name="forces" >
   <v>       0.10312708      -0.03491253       0.32229682 </v>
   <v>       0.17703511       0.20664574       0.53904232 </v>
   <v>       0.16670760       0.31381389       0.34733902 </v>
   <v>       0.03298606      -0.15214293       0.15209619 </v>
   <v>      -0.08414597       0.23957596       0.30174129 </v>
   <v>       0.17057722      -0.01340669       0.14297671 </v>
   <v>       0.10759798      -0.10776837       0.03036370 </v>
   <v>       0.19926246       0.41847865       0.01472462 </v>
   <v>      -0.02038805      -0.02797485       0.07950078 </v>
   <v>      -0.06342980       0.20957555       0.51369678 </v>
   <v>       0.08796372      -0.12496980       0.09713514 </v>
   <v>       0.22603493      -0.20696507      -0.23673654 </v>
   <v>      -0.00233659       0.02032343      -0.07127878 </v>
   <v>       0.07648152       0.21626011      -0.14756392 </v>
   <v>      -0.23635152      -0.02975960      -0.04474809 </v>
   <v>      -0.26990227       0.26659358       0.21990119 </v>
   <v>      -0.40085089       0.04258240      -0.15453177 </v>
   <v>       0.03484437      -0.20943553       0.31375006 </v>
   <v>      -0.32963140      -0.23396201      -0.00811117 </v>
   <v>       0.46144550      -0.00829663      -0.44146178 </v>
   <v>       0.18690550       0.15932391      -0.38484824 </v>
   <v>       0.17277314       0.18205317      -0.10436183 </v>
   <v>      -0.50245634       0.33680018      -0.35487039 </v>
   <v>       0.05314663      -0.35900643       0.01552623 </v>
   <v>       0.19285383      -0.17027894       0.13943956 </v>
   <v>      -0.07691024       0.08994956      -0.13047789 </v>
   <v>      -0.15262897      -0.25657532      -0.35046908 </v>
   <v>       0.00000553      -0.01971592      -0.19746988 </v>
   <v>      -0.19319740      -0.50665904      -0.25562160 </v>
   <v>      -0.27064689      -0.27663141      -0.50649280 </v>
   <v>       0.15312812       0.03648496       0.15951335 </v>
  </varray>
  <varray name="stress" >
   <v>      -0.01261974       0.20591933       0.22229701 </v>
   <v>       0.20591932      -0.08430695       0.68027826 </v>
   <v>       0.22229701       0.68027825       0.29758938 </v>
  </varray>
  <energy>
   <i name="e_fr_energy">    -63.06820751 </i>
   <i name="e_wo_entrp">    -63.06820751 </i>
   <i name="e_0_energy">     -0.00000000 </i>
  </energy>
  <time name="totalsc">   74.57   82.44</time>
 </calculation>
 <calculation>
  <scstep>
   <time name="dav">    3.97    3.97</time>
   <time name="total">    4.42    4.44</time>
   <energy>
    <i name="alphaZ">     89.21390834 </i>
    <i name="ewald">  67413.40599395 </i>
    <i name="hartreedc"> -98256.06575295 </i>
    <i name="XCdc">   -350.52057328 </i>
    <i name="pawpsdc">  33829.10024534 </i>
    <i name="pawaedc"> -32461.25981205 </i>
    <i name="eentropy">     -0.00000000 </i>
    <i name="bandstr">  -2480.22327396 </i>
    <i name="atom">  32153.15753268 </i>
    <i name="e_fr_energy">    -63.19173194 </i>
    <i name="e_wo_entrp">    -63.19173194 </i>
    <i name="e_0_energy">    -63.19173194 </i>
   </energy>
  </scstep>
  <scstep>
   <time name="dav">    4.16    4.16</time>
   <time name="total">    4.61    4.61</time>
   <energy>
    <i name="e_fr_energy">    -63.10745237 </i>
    <i name="e_wo_entrp">    -63.10745237 </i>
    <i name="e_0_energy">    -63.10745237 </i>
   </energy>
  </scstep>
  <scstep>
   <time name="dav">    4.08    4.08</time>
   <time name="total">    4.53    4.54</time>
   <energy>
    <i name="e_fr_energy">    -63.15492925 </i>
    <i name="e_wo_entrp">    -63.15490185 </i>
    <i name="e_0_energy">    -63.15491555 </i>
   </energy>
  </scstep>
  <scstep>
   <time name="dav">    4.10    4.11</time>
   <time name="total">    4.56    4.57</time>
   <energy>
    <i name="e_fr_energy">    -63.18350470 </i>
    <i name="e_wo_entrp">    -63.18350470 </i>
    <i name="e_0_energy">    -63.18350470 </i>
   </energy>
  </scstep>
  <scstep>
   <time name="dav">    4.11    4.11</time>
   <time name="total">    4.56    4.57</time>
   <energy>
    <i name="e_fr_energy">    -63.16182009 </i>
    <i name="e_wo_entrp">    -63.16182009 </i>
    <i name="e_0_energy">    -63.16182009 </i>
   </energy>
  </scstep>
  <scstep>
   <time name="dav">    4.22    4.22</time>
   <time name="total">    4.67    5.31</time>
   <energy>
    <i name="e_fr_energy">    -63.13677507 </i>
    <i name="e_wo_entrp">    -63.13677507 </i>
    <i name="e_0_energy">    -63.13677507 </i>
   </energy>
  </scstep>
  <scstep>
   <time name="dav">    4.30    4.30</time>
   <time name="total">    4.76    4.76</time>
   <energy>
    <i name="e_fr_energy">    -63.13141602 </i>
    <i name="e_wo_entrp">    -63.13141602 </i>
    <i name="e_0_energy">    -63.13141602 </i>
   </energy>
  </scstep>
  <scstep>
   <time name="dav">    4.20    4.20</time>
   <time name="total">    4.65    4.66</time>
   <energy>
    <i name="e_fr_energy">    -63.12434981 </i>
    <i name="e_wo_entrp">    -63.12434981 </i>
    <i name="e_0_energy">    -63.12434981 </i>
   </energy>
  </scstep>
  <scstep>
   <time name="dav">    4.15    4.15</time>
   <time name="total">    4.60    4.77</time>
   <energy>
    <i name="e_fr_energy">    -63.13047515 </i>
    <i name="e_wo_entrp">    -63.13047515 </i>
    <i name="e_0_energy">    -63.13047515 </i>
   </energy>
  </scstep>
  <scstep>
   <time name="dav">    4.16    4.17</time>
   <time name="total">    4.62    4.63</time>
   <energy>
    <i name="e_fr_energy">    -63.15179470 </i>
    <i name="e_wo_entrp">    -63.15179470 </i>
    <i name="e_0_energy">    -63.15179470 </i>
   </energy>
  </scstep>
  <scstep>
   <time name="dav">    4.22    4.22</time>
   <time name="total">    4.67    4.68</time>
   <energy>
    <i name="e_fr_energy">    -63.17475365 </i>
    <i name="e_wo_entrp">    -63.17475365 </i>
    <i name="e_0_energy">    -63.17475365 </i>
   </energy>
  </scstep>
  <scstep>
   <time name="dav">    3.38    3.39</time>
   <time name="total">    3.84    5.13</time>
   <energy>
    <i name="e_fr_energy">    -63.18286810 </i>
    <i name="e_wo_entrp">    -63.18286810 </i>
    <i name="e_0_energy">    -63.18286810 </i>
   </energy>
  </scstep>
  <scstep>
   <time name="dav">    2.96    2.96</time>
   <time name="total">    3.42    3.42</time>
   <energy>
    <i name="e_fr_energy">    -63.18334455 </i>
    <i name="e_wo_entrp">    -63.18334455 </i>
    <i name="e_0_energy">    -63.18334455 </i>
   </energy>
  </scstep>
  <scstep>
   <time name="dav">    2.75    2.75</time>
   <time name="total">    3.05    3.05</time>
   <energy>
    <i name="alphaZ">     89.21390834 </i>
    <i name="ewald">  67413.40599395 </i>
    <i name="hartreedc"> -98262.23931035 </i>
    <i name="XCdc">   -350.41377987 </i>
    <i name="pawpsdc">  33765.59443569 </i>
    <i name="pawaedc"> -32396.81127644 </i>
    <i name="eentropy">      0.00000000 </i>
    <i name="bandstr">  -2475.09088015 </i>
    <i name="atom">  32153.15753268 </i>
    <i name="e_fr_energy">    -63.18337615 </i>
    <i name="e_wo_entrp">    -63.18337615 </i>
    <i name="e_0_energy">    -63.18337615 </i>
   </energy>
  </scstep>
  <structure>
   <crystal>
    <varray name="basis" >
     <v>      20.92513817       0.00000000       0.00000000 </v>
     <v>       0.00000000      20.92513817       0.00000000 </v>
     <v>       0.00000000       0.00000000      20.92513817 </v>
    </varray>
    <i name="volume">   9162.31044574 </i>
    <varray name="rec_basis" >
     <v>       0.04778941       0.00000000       0.00000000 </v>
     <v>       0.00000000       0.04778941       0.00000000 </v>
     <v>       0.00000000       0.00000000       0.04778941 </v>
    </varray>
   </crystal>
   <varray name="positions" >
    <v>       0.54517781       0.47474792       0.67046821 </v>
    <v>       0.59478567       0.59142912       0.69681272 </v>
    <v>       0.66145934       0.51447631       0.61459722 </v>
    <v>       0.60837318       0.64557874       0.58312339 </v>
    <v>       0.48839658       0.69493940       0.59074060 </v>
    <v>       0.69969578       0.61159269       0.49579822 </v>
    <v>       0.61868406       0.38427178       0.60738477 </v>
    <v>       0.60696336       0.70765835       0.47070545 </v>
    <v>       0.49713922       0.35426926       0.65667400 </v>
    <v>       0.46788797       0.58316616       0.67433324 </v>
    <v>       0.41271494       0.45687166       0.65331090 </v>
    <v>       0.72004559       0.42977688       0.53686229 </v>
    <v>       0.59086081       0.53401077       0.50733513 </v>
    <v>       0.36919688       0.65763293       0.53782199 </v>
    <v>       0.47310942       0.57228516       0.54740026 </v>
    <v>       0.34719606       0.56760331       0.62855789 </v>
    <v>       0.48146579       0.67587208       0.46037361 </v>
    <v>       0.50279870       0.44594268       0.54412745 </v>
    <v>       0.40653220       0.35795479       0.55769055 </v>
    <v>       0.68612480       0.49544842       0.42776820 </v>
    <v>       0.61249640       0.60225954       0.39338666 </v>
    <v>       0.54428763       0.70876161       0.35172533 </v>
    <v>       0.39713866       0.57449888       0.44098214 </v>
    <v>       0.53271173       0.31189213       0.53555740 </v>
    <v>       0.61243431       0.39328734       0.46872151 </v>
    <v>       0.48900809       0.59021776       0.34685375 </v>
    <v>       0.35518889       0.39492464       0.44052954 </v>
    <v>       0.55780477       0.48232237       0.38531817 </v>
    <v>       0.48565390       0.38007113       0.43223423 </v>
    <v>       0.42817452       0.47633741       0.36701338 </v>
    <v>       0.36125376       0.48465958       0.53055261 </v>
   </varray>
  </structure>
  <varray name="forces" >
   <v>       0.05471856      -0.00154583       0.31440420 </v>
   <v>       0.15448529       0.22431308       0.53552019 </v>
   <v>       0.17082434       0.26378569       0.20638301 </v>
   <v>       0.02249410      -0.12214332       0.14178363 </v>
   <v>      -0.05784555       0.13985948       0.29552742 </v>
   <v>       0.12619954      -0.01805832       0.15042416 </v>
   <v>       0.11670723      -0.09759878       0.00111421 </v>
   <v>       0.15352341       0.33899869       0.02110248 </v>
   <v>      -0.01929003      -0.01787736       0.04341093 </v>
   <v>      -0.04963125       0.19938868       0.41933181 </v>
   <v>       0.09667334      -0.08544720       0.09888310 </v>
   <v>       0.16313461      -0.11986868      -0.18064562 </v>
   <v>       0.02344205      -0.01758113      -0.10095569 </v>
   <v>       0.09130620       0.15848866      -0.11963199 </v>
   <v>      -0.23546686      -0.00840550      -0.02068113 </v>
   <v>      -0.20017789       0.26590950       0.20204867 </v>
   <v>      -0.31003529       0.05624405      -0.16676625 </v>
   <v>       0.06857592      -0.23757483       0.27287590 </v>
   <v>      -0.29342785      -0.20518007      -0.05487764 </v>
   <v>       0.37868024      -0.01718371      -0.36715413 </v>
   <v>       0.14731523       0.12524611      -0.33691218 </v>
   <v>       0.15794603       0.15474762      -0.05464591 </v>
   <v>      -0.47984437       0.25543060      -0.31553441 </v>
   <v>       0.01707638      -0.27241903       0.02297930 </v>
   <v>       0.14083799      -0.13685165       0.07607071 </v>
   <v>      -0.02071379       0.05396747      -0.10961871 </v>
   <v>      -0.12996198      -0.20013150      -0.25017635 </v>
   <v>      -0.02252124       0.00916380      -0.13832149 </v>
   <v>      -0.13685242      -0.44639626      -0.19634472 </v>
   <v>      -0.24333233      -0.23528673      -0.45206639 </v>
   <v>       0.11516041      -0.00599352       0.06247290 </v>
  </varray>
  <varray name="stress" >
   <v>      -0.68597045       0.05085580       0.19695836 </v>
   <v>       0.05085579      -0.31885224       0.32549662 </v>
   <v>       0.19695836       0.32549661       0.01628428 </v>
  </varray>
  <energy>
   <i name="e_fr_energy">    -63.18337615 </i>
   <i name="e_wo_entrp">    -63.18337615 </i>
   <i name="e_0_energy">      0.00000000 </i>
  </energy>
  <time name="totalsc">   68.38   70.70</time>
 </calculation>
 <calculation>
  <scstep>
   <time name="dav">    3.97    3.97</time>
   <time name="total">    4.42    4.44</time>
   <energy>
    <i name="alphaZ">     89.21390834 </i>
    <i name="ewald">  66625.29968030 </i>
    <i name="hartreedc"> -97478.48013675 </i>
    <i name="XCdc">   -351.31444167 </i>
    <i name="pawpsdc">  33765.46959207 </i>
    <i name="pawaedc"> -32396.68633299 </i>
    <i name="eentropy">      0.00000000 </i>
    <i name="bandstr">  -2469.98678363 </i>
    <i name="atom">  32153.15753268 </i>
    <i name="e_fr_energy">    -63.32698166 </i>
    <i name="e_wo_entrp">    -63.32698166 </i>
    <i name="e_0_energy">    -63.32698166 </i>
   </energy>
  </scstep>
  <scstep>
   <time name="dav">    4.08    4.09</time>
   <time name="total">    4.54    4.55</time>
   <energy>
    <i name="e_fr_energy">    -63.39658263 </i>
    <i name="e_wo_entrp">    -63.39658263 </i>
    <i name="e_0_energy">    -63.39658263 </i>
   </energy>
  </scstep>
  <scstep>
   <time name="dav">    4.28    4.28</time>
   <time name="total">    4.73    4.74</time>
   <energy>
    <i name="e_fr_energy">    -63.40207129 </i>
    <i name="e_wo_entrp">    -63.40207129 </i>
    <i name="e_0_energy">    -63.40207129 </i>
   </energy>
  </scstep>
  <scstep>
   <time name="dav">    4.18    4.18</time>
   <time name="total">    4.63    5.18</time>
   <energy>
    <i name="e_fr_energy">    -63.41266672 </i>
    <i name="e_wo_entrp">    -63.41266672 </i>
    <i name="e_0_energy">    -63.41266672 </i>
   </energy>
  </scstep>
  <scstep>
   <time name="dav">    4.25    4.25</time>
   <time name="total">    4.70    4.71</time>
   <energy>
    <i name="e_fr_energy">    -63.41525364 </i>
    <i name="e_wo_entrp">    -63.41525364 </i>
    <i name="e_0_energy">    -63.41525364 </i>
   </energy>
  </scstep>
  <scstep>
   <time name="dav">    3.07    3.07</time>
   <time name="total">    3.52    3.53</time>
   <energy>
    <i name="e_fr_energy">    -63.41634448 </i>
    <i name="e_wo_entrp">    -63.41634448 </i>
    <i name="e_0_energy">    -63.41634448 </i>
   </energy>
  </scstep>
  <scstep>
   <time name="dav">    3.12    3.12</time>
   <time name="total">    3.58    3.58</time>
   <energy>
    <i name="e_fr_energy">    -63.41773417 </i>
    <i name="e_wo_entrp">    -63.41773417 </i>
    <i name="e_0_energy">    -63.41773417 </i>
   </energy>
  </scstep>
  <scstep>
   <time name="dav">    3.12    3.13</time>
   <time name="total">    3.58    3.59</time>
   <energy>
    <i name="e_fr_energy">    -63.41910382 </i>
    <i name="e_wo_entrp">    -63.41910382 </i>
    <i name="e_0_energy">    -63.41910382 </i>
   </energy>
  </scstep>
  <scstep>
   <time name="dav">    3.13    3.13</time>
   <time name="total">    3.58    3.59</time>
   <energy>
    <i name="e_fr_energy">    -63.42021356 </i>
    <i name="e_wo_entrp">    -63.42021356 </i>
    <i name="e_0_energy">    -63.42021356 </i>
   </energy>
  </scstep>
  <scstep>
   <time name="dav">    3.12    3.13</time>
   <time name="total">    3.58    3.58</time>
   <energy>
    <i name="e_fr_energy">    -63.42117108 </i>
    <i name="e_wo_entrp">    -63.42117108 </i>
    <i name="e_0_energy">    -63.42117108 </i>
   </energy>
  </scstep>
  <scstep>
   <time name="dav">    3.13    3.13</time>
   <time name="total">    3.58    3.59</time>
   <energy>
    <i name="e_fr_energy">    -63.42187633 </i>
    <i name="e_wo_entrp">    -63.42187633 </i>
    <i name="e_0_energy">    -63.42187633 </i>
   </energy>
  </scstep>
  <scstep>
   <time name="dav">    3.07    3.07</time>
   <time name="total">    3.53    3.53</time>
   <energy>
    <i name="e_fr_energy">    -63.42246470 </i>
    <i name="e_wo_entrp">    -63.42246470 </i>
    <i name="e_0_energy">    -63.42246470 </i>
   </energy>
  </scstep>
  <scstep>
   <time name="dav">    3.10    3.10</time>
   <time name="total">    3.56    4.41</time>
   <energy>
    <i name="e_fr_energy">    -63.42275336 </i>
    <i name="e_wo_entrp">    -63.42275336 </i>
    <i name="e_0_energy">    -63.42275336 </i>
   </energy>
  </scstep>
  <scstep>
   <time name="dav">    3.08    3.08</time>
   <time name="total">    3.54    3.54</time>
   <energy>
    <i name="e_fr_energy">    -63.42307220 </i>
    <i name="e_wo_entrp">    -63.42307220 </i>
    <i name="e_0_energy">    -63.42307220 </i>
   </energy>
  </scstep>
  <scstep>
   <time name="dav">    3.04    3.05</time>
   <time name="total">    3.50    3.52</time>
   <energy>
    <i name="e_fr_energy">    -63.42327284 </i>
    <i name="e_wo_entrp">    -63.42327284 </i>
    <i name="e_0_energy">    -63.42327284 </i>
   </energy>
  </scstep>
  <scstep>
   <time name="dav">    3.02    3.02</time>
   <time name="total">    3.32    3.32</time>
   <energy>
    <i name="alphaZ">     89.21390834 </i>
    <i name="ewald">  66625.29968030 </i>
    <i name="hartreedc"> -97482.71744655 </i>
    <i name="XCdc">   -351.19630897 </i>
    <i name="pawpsdc">  33643.53373284 </i>
    <i name="pawaedc"> -32272.69085784 </i>
    <i name="eentropy">      0.00000000 </i>
    <i name="bandstr">  -2468.02357024 </i>
    <i name="atom">  32153.15753268 </i>
    <i name="e_fr_energy">    -63.42332944 </i>
    <i name="e_wo_entrp">    -63.42332944 </i>
    <i name="e_0_energy">    -63.42332944 </i>
   </energy>
  </scstep>
  <structure>
   <crystal>
    <varray name="basis" >
     <v>      20.92513817       0.00000000       0.00000000 </v>
     <v>       0.00000000      20.92513817       0.00000000 </v>
     <v>       0.00000000       0.00000000      20.92513817 </v>
    </varray>
    <i name="volume">   9162.31044574 </i>
    <varray name="rec_basis" >
     <v>       0.04778941       0.00000000       0.00000000 </v>
     <v>       0.00000000       0.04778941       0.00000000 </v>
     <v>       0.00000000       0.00000000       0.04778941 </v>
    </varray>
   </crystal>
   <varray name="positions" >
    <v>       0.54563827       0.47480034       0.67118047 </v>
    <v>       0.59552317       0.59207822       0.69824725 </v>
    <v>       0.66196263       0.51553193       0.61572344 </v>
    <v>       0.60853140       0.64539335       0.58362605 </v>
    <v>       0.48840540       0.69584797       0.59141820 </v>
    <v>       0.70037052       0.61131015       0.49608361 </v>
    <v>       0.61879609       0.38418360       0.60750548 </v>
    <v>       0.60753656       0.70884957       0.47094825 </v>
    <v>       0.49711912       0.35396343       0.65699321 </v>
    <v>       0.46751795       0.58379679       0.67602077 </v>
    <v>       0.41266116       0.45669346       0.65318197 </v>
    <v>       0.72098674       0.42936603       0.53611750 </v>
    <v>       0.59082364       0.53397937       0.50704782 </v>
    <v>       0.36920255       0.65819322       0.53760468 </v>
    <v>       0.47250326       0.57201874       0.54739510 </v>
    <v>       0.34637959       0.56800299       0.62893262 </v>
    <v>       0.48062336       0.67582427       0.46009277 </v>
    <v>       0.50291445       0.44531944       0.54509776 </v>
    <v>       0.40568877       0.35736037       0.55766946 </v>
    <v>       0.68733706       0.49554478       0.42667344 </v>
    <v>       0.61325392       0.60273815       0.39246556 </v>
    <v>       0.54483502       0.70931766       0.35130292 </v>
    <v>       0.39573564       0.57523182       0.44007831 </v>
    <v>       0.53259484       0.31075252       0.53546857 </v>
    <v>       0.61308504       0.39298654       0.46899261 </v>
    <v>       0.48844146       0.59050062       0.34642522 </v>
    <v>       0.35488523       0.39420486       0.43945486 </v>
    <v>       0.55791911       0.48202165       0.38458278 </v>
    <v>       0.48485251       0.37855797       0.43155337 </v>
    <v>       0.42742060       0.47549643       0.36554368 </v>
    <v>       0.36121577       0.48489458       0.53133308 </v>
   </varray>
  </structure>
  <varray name="forces" >
   <v>       0.03290274       0.05931204       0.28343036 </v>
   <v>       0.05619557       0.17455015       0.46634029 </v>
   <v>       0.16575469       0.13347544       0.04994980 </v>
   <v>      -0.00797854      -0.11100227       0.07771551 </v>
   <v>      -0.04207300       0.03464653       0.20078540 </v>
   <v>       0.02674997      -0.02302846       0.12492222 </v>
   <v>       0.11786216      -0.03406172      -0.04496248 </v>
   <v>       0.06241997       0.17599554       0.01651152 </v>
   <v>      -0.01523714       0.00200985      -0.00958033 </v>
   <v>       0.00091465       0.13379658       0.25587143 </v>
   <v>       0.10749239      -0.02764591       0.09254708 </v>
   <v>       0.05733413      -0.01885880      -0.08960982 </v>
   <v>       0.07789026      -0.05285289      -0.11678531 </v>
   <v>       0.08834390       0.11924083      -0.06468371 </v>
   <v>      -0.22466782       0.04010833       0.06718987 </v>
   <v>      -0.11782164       0.25744245       0.18765686 </v>
   <v>      -0.15016678       0.07933300      -0.14697301 </v>
   <v>       0.07503886      -0.27065777       0.16566472 </v>
   <v>      -0.21998521      -0.14696018      -0.07381935 </v>
   <v>       0.22639041      -0.00778775      -0.26557566 </v>
   <v>       0.11076057       0.09432062      -0.22928036 </v>
   <v>       0.13033677       0.09117817       0.02188469 </v>
   <v>      -0.40026928       0.09830277      -0.29921882 </v>
   <v>       0.01562424      -0.16235393       0.01857539 </v>
   <v>       0.02201872      -0.08091206       0.04509374 </v>
   <v>       0.01588675       0.01539929      -0.04845309 </v>
   <v>      -0.11326457      -0.09080435      -0.11160246 </v>
   <v>      -0.05461262       0.00274837      -0.07404164 </v>
   <v>      -0.01258204      -0.28373754      -0.09455164 </v>
   <v>      -0.15027919      -0.10789423      -0.31533205 </v>
   <v>       0.11902109      -0.09330209      -0.08966919 </v>
  </varray>
  <varray name="stress" >
   <v>      -1.20247915       0.04019727       0.16824182 </v>
   <v>       0.04019727      -0.99592228       0.31668893 </v>
   <v>       0.16824184       0.31668892      -0.59269605 </v>
  </varray>
  <energy>
   <i name="e_fr_energy">    -63.42332944 </i>
   <i name="e_wo_entrp">    -63.42332944 </i>
   <i name="e_0_energy">      0.00000000 </i>
  </energy>
  <time name="totalsc">   69.30   72.16</time>
 </calculation>
 <calculation>
  <scstep>
   <time name="dav">    3.98    3.98</time>
   <time name="total">    4.43    4.44</time>
   <energy>
    <i name="alphaZ">     89.21390834 </i>
    <i name="ewald">  65075.27466741 </i>
    <i name="hartreedc"> -95940.54360912 </i>
    <i name="XCdc">   -352.88880472 </i>
    <i name="pawpsdc">  33643.53527835 </i>
    <i name="pawaedc"> -32272.69244246 </i>
    <i name="eentropy">      0.00000000 </i>
    <i name="bandstr">  -2458.40179146 </i>
    <i name="atom">  32153.15753268 </i>
    <i name="e_fr_energy">    -63.34526098 </i>
    <i name="e_wo_entrp">    -63.34526098 </i>
    <i name="e_0_energy">    -63.34526098 </i>
   </energy>
  </scstep>
  <scstep>
   <time name="dav">    4.14    4.14</time>
   <time name="total">    4.59    4.59</time>
   <energy>
    <i name="e_fr_energy">    -63.57800876 </i>
    <i name="e_wo_entrp">    -63.57800876 </i>
    <i name="e_0_energy">    -63.57800876 </i>
   </energy>
  </scstep>
  <scstep>
   <time name="dav">    4.30    4.30</time>
   <time name="total">    4.76    4.76</time>
   <energy>
    <i name="e_fr_energy">    -63.57550541 </i>
    <i name="e_wo_entrp">    -63.57550541 </i>
    <i name="e_0_energy">    -63.57550541 </i>
   </energy>
  </scstep>
  <scstep>
   <time name="dav">    4.18    4.18</time>
   <time name="total">    4.62    5.81</time>
   <energy>
    <i name="e_fr_energy">    -63.56810373 </i>
    <i name="e_wo_entrp">    -63.56810373 </i>
    <i name="e_0_energy">    -63.56810373 </i>
   </energy>
  </scstep>
  <scstep>
   <time name="dav">    4.24    4.24</time>
   <time name="total">    4.70    4.70</time>
   <energy>
    <i name="e_fr_energy">    -63.56816563 </i>
    <i name="e_wo_entrp">    -63.56816563 </i>
    <i name="e_0_energy">    -63.56816563 </i>
   </energy>
  </scstep>
  <scstep>
   <time name="dav">    3.25    3.25</time>
   <time name="total">    3.55    3.55</time>
   <energy>
    <i name="alphaZ">     89.21390834 </i>
    <i name="ewald">  65075.27466741 </i>
    <i name="hartreedc"> -95952.14962860 </i>
    <i name="XCdc">   -352.57160273 </i>
    <i name="pawpsdc">  33424.05891800 </i>
    <i name="pawaedc"> -32049.46980324 </i>
    <i name="eentropy">      0.00000000 </i>
    <i name="bandstr">  -2451.08212884 </i>
    <i name="atom">  32153.15753268 </i>
    <i name="e_fr_energy">    -63.56813698 </i>
    <i name="e_wo_entrp">    -63.56813698 </i>
    <i name="e_0_energy">    -63.56813698 </i>
   </energy>
  </scstep>
  <structure>
   <crystal>
    <varray name="basis" >
     <v>      20.92513817       0.00000000       0.00000000 </v>
     <v>       0.00000000      20.92513817       0.00000000 </v>
     <v>       0.00000000       0.00000000      20.92513817 </v>
    </varray>
    <i name="volume">   9162.31044574 </i>
    <varray name="rec_basis" >
     <v>       0.04778941       0.00000000       0.00000000 </v>
     <v>       0.00000000       0.04778941       0.00000000 </v>
     <v>       0.00000000       0.00000000       0.04778941 </v>
    </varray>
   </crystal>
   <varray name="positions" >
    <v>       0.54655919       0.47490517       0.67260500 </v>
    <v>       0.59699817       0.59337642       0.70111631 </v>
    <v>       0.66296921       0.51764317       0.61797589 </v>
    <v>       0.60884785       0.64502258       0.58463135 </v>
    <v>       0.48842303       0.69766511       0.59277341 </v>
    <v>       0.70172000       0.61074506       0.49665439 </v>
    <v>       0.61902015       0.38400725       0.60774690 </v>
    <v>       0.60868295       0.71123200       0.47143386 </v>
    <v>       0.49707890       0.35335176       0.65763163 </v>
    <v>       0.46677790       0.58505805       0.67939583 </v>
    <v>       0.41255358       0.45633708       0.65292412 </v>
    <v>       0.72286905       0.42854434       0.53462792 </v>
    <v>       0.59074930       0.53391658       0.50647319 </v>
    <v>       0.36921389       0.65931379       0.53717007 </v>
    <v>       0.47129094       0.57148589       0.54738477 </v>
    <v>       0.34474665       0.56880233       0.62968210 </v>
    <v>       0.47893852       0.67572865       0.45953107 </v>
    <v>       0.50314597       0.44407295       0.54703839 </v>
    <v>       0.40400192       0.35617154       0.55762726 </v>
    <v>       0.68976157       0.49573751       0.42448392 </v>
    <v>       0.61476895       0.60369535       0.39062335 </v>
    <v>       0.54592980       0.71042976       0.35045811 </v>
    <v>       0.39292958       0.57669771       0.43827065 </v>
    <v>       0.53236105       0.30847330       0.53529092 </v>
    <v>       0.61438650       0.39238492       0.46953481 </v>
    <v>       0.48730820       0.59106633       0.34556815 </v>
    <v>       0.35427790       0.39276531       0.43730550 </v>
    <v>       0.55814779       0.48142021       0.38311201 </v>
    <v>       0.48324975       0.37553164       0.43019163 </v>
    <v>       0.42591275       0.47381447       0.36260427 </v>
    <v>       0.36113979       0.48536459       0.53289403 </v>
   </varray>
  </structure>
  <varray name="forces" >
   <v>      -0.02373113       0.15269532       0.23695620 </v>
   <v>      -0.11170975       0.10386308       0.34807826 </v>
   <v>       0.13828539      -0.05700784      -0.21800088 </v>
   <v>      -0.06371767      -0.08819741      -0.02863054 </v>
   <v>      -0.02174441      -0.17139297       0.05113143 </v>
   <v>      -0.15683535      -0.02500277       0.09128524 </v>
   <v>       0.12874973       0.05673822      -0.11517976 </v>
   <v>      -0.07853488      -0.10865646      -0.00058108 </v>
   <v>      -0.00559608       0.05179608      -0.10134542 </v>
   <v>       0.08165694       0.02011867      -0.02738800 </v>
   <v>       0.14754902       0.06592577       0.12165329 </v>
   <v>      -0.11838113       0.12802338       0.04583273 </v>
   <v>       0.15759877      -0.10462510      -0.13523579 </v>
   <v>       0.09780738       0.03043027       0.03332804 </v>
   <v>      -0.20727183       0.12133070       0.17751168 </v>
   <v>       0.04446707       0.25954813       0.17080743 </v>
   <v>       0.10149918       0.12486760      -0.13268257 </v>
   <v>       0.09592541      -0.30657033      -0.00948319 </v>
   <v>      -0.08995688      -0.04207989      -0.11511626 </v>
   <v>      -0.03061293       0.00845441      -0.09396235 </v>
   <v>       0.01811347       0.01669210      -0.04374185 </v>
   <v>       0.07928267      -0.02683271       0.16554727 </v>
   <v>      -0.25480062      -0.13108929      -0.25299884 </v>
   <v>       0.00987576       0.05485398       0.01798831 </v>
   <v>      -0.17203374       0.00235521      -0.01199433 </v>
   <v>       0.10582606      -0.06011348       0.05970836 </v>
   <v>      -0.08347535       0.06668828       0.10731686 </v>
   <v>      -0.10710088       0.03508247       0.05672240 </v>
   <v>       0.19269014      -0.05137022       0.07626439 </v>
   <v>       0.00437153       0.09078247      -0.12252663 </v>
   <v>       0.12180413      -0.21730769      -0.35126441 </v>
  </varray>
  <varray name="stress" >
   <v>      -2.21625738      -0.02091650       0.11457388 </v>
   <v>      -0.02091649      -2.17215848       0.27415638 </v>
   <v>       0.11457388       0.27415639      -1.67003613 </v>
  </varray>
  <energy>
   <i name="e_fr_energy">    -63.56813698 </i>
   <i name="e_wo_entrp">    -63.56813698 </i>
   <i name="e_0_energy">      0.00000000 </i>
  </energy>
  <time name="totalsc">   34.03   35.48</time>
 </calculation>
 <calculation>
  <scstep>
   <time name="dav">    4.03    4.03</time>
   <time name="total">    4.49    4.50</time>
   <energy>
    <i name="alphaZ">     89.21390834 </i>
    <i name="ewald">  64893.85742498 </i>
    <i name="hartreedc"> -95771.61196347 </i>
    <i name="XCdc">   -352.75310202 </i>
    <i name="pawpsdc">  33426.28750555 </i>
    <i name="pawaedc"> -32051.70509230 </i>
    <i name="eentropy">      0.00000000 </i>
    <i name="bandstr">  -2450.06290160 </i>
    <i name="atom">  32153.15753268 </i>
    <i name="e_fr_energy">    -63.61668785 </i>
    <i name="e_wo_entrp">    -63.61668785 </i>
    <i name="e_0_energy">    -63.61668785 </i>
   </energy>
  </scstep>
  <scstep>
   <time name="dav">    4.20    4.21</time>
   <time name="total">    4.66    4.66</time>
   <energy>
    <i name="e_fr_energy">    -63.63181995 </i>
    <i name="e_wo_entrp">    -63.63181995 </i>
    <i name="e_0_energy">    -63.63181995 </i>
   </energy>
  </scstep>
  <scstep>
   <time name="dav">    4.30    4.30</time>
   <time name="total">    4.75    4.75</time>
   <energy>
    <i name="e_fr_energy">    -63.63173008 </i>
    <i name="e_wo_entrp">    -63.63173008 </i>
    <i name="e_0_energy">    -63.63173008 </i>
   </energy>
  </scstep>
  <scstep>
   <time name="dav">    4.06    4.07</time>
   <time name="total">    4.52    5.27</time>
   <energy>
    <i name="e_fr_energy">    -63.63141177 </i>
    <i name="e_wo_entrp">    -63.63141177 </i>
    <i name="e_0_energy">    -63.63141177 </i>
   </energy>
  </scstep>
  <scstep>
   <time name="dav">    3.20    3.20</time>
   <time name="total">    3.50    4.27</time>
   <energy>
    <i name="alphaZ">     89.21390834 </i>
    <i name="ewald">  64893.85742498 </i>
    <i name="hartreedc"> -95773.67018807 </i>
    <i name="XCdc">   -352.72045526 </i>
    <i name="pawpsdc">  33402.00201571 </i>
    <i name="pawaedc"> -32026.99370479 </i>
    <i name="eentropy">      0.00000000 </i>
    <i name="bandstr">  -2448.47785441 </i>
    <i name="atom">  32153.15753268 </i>
    <i name="e_fr_energy">    -63.63132083 </i>
    <i name="e_wo_entrp">    -63.63132083 </i>
    <i name="e_0_energy">    -63.63132083 </i>
   </energy>
  </scstep>
  <structure>
   <crystal>
    <varray name="basis" >
     <v>      20.92513817       0.00000000       0.00000000 </v>
     <v>       0.00000000      20.92513817       0.00000000 </v>
     <v>       0.00000000       0.00000000      20.92513817 </v>
    </varray>
    <i name="volume">   9162.31044574 </i>
    <varray name="rec_basis" >
     <v>       0.04778941       0.00000000       0.00000000 </v>
     <v>       0.00000000       0.04778941       0.00000000 </v>
     <v>       0.00000000       0.00000000       0.04778941 </v>
    </varray>
   </crystal>
   <varray name="positions" >
    <v>       0.54661277       0.47528387       0.67334405 </v>
    <v>       0.59690727       0.59378119       0.70229509 </v>
    <v>       0.66342153       0.51775976       0.61772341 </v>
    <v>       0.60873304       0.64476662       0.58468331 </v>
    <v>       0.48837301       0.69747215       0.59305859 </v>
    <v>       0.70150585       0.61061732       0.49694174 </v>
    <v>       0.61935574       0.38412214       0.60749969 </v>
    <v>       0.60863217       0.71125729       0.47149072 </v>
    <v>       0.49706066       0.35340257       0.65746522 </v>
    <v>       0.46688491       0.58525760       0.67973505 </v>
    <v>       0.41289446       0.45645240       0.65318487 </v>
    <v>       0.72281102       0.42875273       0.53455911 </v>
    <v>       0.59111826       0.53365819       0.50608000 </v>
    <v>       0.36944977       0.65952118       0.53719784 </v>
    <v>       0.47064852       0.57171288       0.54780915 </v>
    <v>       0.34465737       0.56952055       0.63018156 </v>
    <v>       0.47897976       0.67601657       0.45914555 </v>
    <v>       0.50340374       0.44318834       0.54724846 </v>
    <v>       0.40358387       0.35592802       0.55734619 </v>
    <v>       0.68997903       0.49578090       0.42399596 </v>
    <v>       0.61499414       0.60385021       0.39029747 </v>
    <v>       0.54625124       0.71049884       0.35075369 </v>
    <v>       0.39198201       0.57655925       0.43744718 </v>
    <v>       0.53235669       0.30833139       0.53531273 </v>
    <v>       0.61413014       0.39231839       0.46957109 </v>
    <v>       0.48742598       0.59099007       0.34560850 </v>
    <v>       0.35400489       0.39275250       0.43730496 </v>
    <v>       0.55791843       0.48143217       0.38307157 </v>
    <v>       0.48351949       0.37504540       0.43021113 </v>
    <v>       0.42574234       0.47383036       0.36195786 </v>
    <v>       0.36142272       0.48489993       0.53223907 </v>
   </varray>
  </structure>
  <varray name="forces" >
   <v>       0.00665570       0.11005544       0.19296387 </v>
   <v>      -0.07712115       0.06422653       0.25154923 </v>
   <v>       0.06142296      -0.01476892      -0.15954470 </v>
   <v>      -0.08381019      -0.12074832       0.01743643 </v>
   <v>      -0.02627538      -0.16235837       0.04282175 </v>
   <v>      -0.13834317      -0.01743236       0.07981613 </v>
   <v>       0.08917448       0.07282131      -0.07273307 </v>
   <v>      -0.06625523      -0.11444285       0.01046169 </v>
   <v>       0.00909390       0.07025731      -0.10023400 </v>
   <v>       0.07849562       0.01916219      -0.02810698 </v>
   <v>       0.12747454       0.09622184       0.07740531 </v>
   <v>      -0.11520773       0.12587047       0.01921454 </v>
   <v>       0.05581476      -0.10784631      -0.08697031 </v>
   <v>       0.09450258       0.01687171      -0.00464452 </v>
   <v>      -0.15385807       0.02715852       0.09586827 </v>
   <v>       0.09014486       0.17362126       0.09610007 </v>
   <v>       0.04284358       0.06791713      -0.09036546 </v>
   <v>       0.09740898      -0.18000163       0.00591504 </v>
   <v>      -0.06938354      -0.03903721      -0.08678991 </v>
   <v>      -0.04116315      -0.00987469      -0.09306196 </v>
   <v>       0.01398928      -0.00785519      -0.03340722 </v>
   <v>       0.07164098      -0.01813092       0.13417260 </v>
   <v>      -0.19685116      -0.06899843      -0.17428065 </v>
   <v>       0.01575379       0.03272824       0.03354287 </v>
   <v>      -0.13379522       0.01961622      -0.02914770 </v>
   <v>       0.10913713      -0.04880456       0.06089121 </v>
   <v>      -0.04721242       0.05688026       0.06105883 </v>
   <v>      -0.09915614       0.04335788       0.06533073 </v>
   <v>       0.13235858      -0.00879295       0.03923216 </v>
   <v>       0.00974959       0.04621111      -0.08878355 </v>
   <v>       0.14277121      -0.12388472      -0.23571068 </v>
  </varray>
  <varray name="stress" >
   <v>      -2.33251399      -0.03716307       0.12748546 </v>
   <v>      -0.03716309      -2.31405191       0.24657561 </v>
   <v>       0.12748546       0.24657561      -1.77627968 </v>
  </varray>
  <energy>
   <i name="e_fr_energy">    -63.63132083 </i>
   <i name="e_wo_entrp">    -63.63132083 </i>
   <i name="e_0_energy">      0.00000000 </i>
  </energy>
  <time name="totalsc">   29.30   30.87</time>
 </calculation>
 <calculation>
  <scstep>
   <time name="dav">    4.00    4.00</time>
   <time name="total">    4.45    4.46</time>
   <energy>
    <i name="alphaZ">     89.21390834 </i>
    <i name="ewald">  64451.24369943 </i>
    <i name="hartreedc"> -95333.01322211 </i>
    <i name="XCdc">   -353.12600257 </i>
    <i name="pawpsdc">  33401.97125790 </i>
    <i name="pawaedc"> -32026.96301198 </i>
    <i name="eentropy">      0.00000000 </i>
    <i name="bandstr">  -2446.09434755 </i>
    <i name="atom">  32153.15753268 </i>
    <i name="e_fr_energy">    -63.61018585 </i>
    <i name="e_wo_entrp">    -63.61018585 </i>
    <i name="e_0_energy">    -63.61018585 </i>
   </energy>
  </scstep>
  <scstep>
   <time name="dav">    4.12    4.12</time>
   <time name="total">    4.57    4.58</time>
   <energy>
    <i name="e_fr_energy">    -63.70094282 </i>
    <i name="e_wo_entrp">    -63.70094282 </i>
    <i name="e_0_energy">    -63.70094282 </i>
   </energy>
  </scstep>
  <scstep>
   <time name="dav">    4.24    4.24</time>
   <time name="total">    4.70    4.71</time>
   <energy>
    <i name="e_fr_energy">    -63.69949050 </i>
    <i name="e_wo_entrp">    -63.69949050 </i>
    <i name="e_0_energy">    -63.69949050 </i>
   </energy>
  </scstep>
  <scstep>
   <time name="dav">    4.22    4.22</time>
   <time name="total">    4.67    4.68</time>
   <energy>
    <i name="e_fr_energy">    -63.69604045 </i>
    <i name="e_wo_entrp">    -63.69604045 </i>
    <i name="e_0_energy">    -63.69604045 </i>
   </energy>
  </scstep>
  <scstep>
   <time name="dav">    4.21    4.22</time>
   <time name="total">    4.67    4.98</time>
   <energy>
    <i name="e_fr_energy">    -63.69522829 </i>
    <i name="e_wo_entrp">    -63.69522829 </i>
    <i name="e_0_energy">    -63.69522829 </i>
   </energy>
  </scstep>
  <scstep>
   <time name="dav">    3.12    3.12</time>
   <time name="total">    3.57    4.85</time>
   <energy>
    <i name="e_fr_energy">    -63.69540787 </i>
    <i name="e_wo_entrp">    -63.69540787 </i>
    <i name="e_0_energy">    -63.69540787 </i>
   </energy>
  </scstep>
  <scstep>
   <time name="dav">    3.09    3.10</time>
   <time name="total">    3.55    3.65</time>
   <energy>
    <i name="e_fr_energy">    -63.69587199 </i>
    <i name="e_wo_entrp">    -63.69587199 </i>
    <i name="e_0_energy">    -63.69587199 </i>
   </energy>
  </scstep>
  <scstep>
   <time name="dav">    3.18    3.18</time>
   <time name="total">    3.63    3.64</time>
   <energy>
    <i name="e_fr_energy">    -63.69653091 </i>
    <i name="e_wo_entrp">    -63.69653091 </i>
    <i name="e_0_energy">    -63.69653091 </i>
   </energy>
  </scstep>
  <scstep>
   <time name="dav">    3.10    3.10</time>
   <time name="total">    3.55    3.55</time>
   <energy>
    <i name="e_fr_energy">    -63.69733787 </i>
    <i name="e_wo_entrp">    -63.69733787 </i>
    <i name="e_0_energy">    -63.69733787 </i>
   </energy>
  </scstep>
  <scstep>
   <time name="dav">    3.15    3.15</time>
   <time name="total">    3.60    3.61</time>
   <energy>
    <i name="e_fr_energy">    -63.69835873 </i>
[...]
       <r>    -0.2516     0.0000   193.0000 </r>
       <r>    -0.2117     0.0000   193.0000 </r>
       <r>    -0.1718     0.0000   193.0000 </r>
       <r>    -0.1318     0.0000   193.0000 </r>
       <r>    -0.0919     0.0000   194.0000 </r>
       <r>    -0.0520     0.0000   195.0000 </r>
       <r>    -0.0121     0.0000   195.0000 </r>
       <r>     0.0278     0.0000   196.0000 </r>
       <r>     0.0677     0.0000   196.0000 </r>
       <r>     0.1077     0.0000   196.0000 </r>
       <r>     0.1476     0.0000   197.0000 </r>
       <r>     0.1875     0.0000   197.0000 </r>
       <r>     0.2274     0.0000   198.0000 </r>
       <r>     0.2673     0.0000   199.0000 </r>
       <r>     0.3072     0.0000   200.0000 </r>
       <r>     0.3472     0.0000   200.0000 </r>
       <r>     0.3871     0.0000   200.0000 </r>
       <r>     0.4270     0.0000   200.0000 </r>
       <r>     0.4669     0.0000   201.0000 </r>
       <r>     0.5068     0.0000   201.0000 </r>
       <r>     0.5467     0.0000   202.0000 </r>
       <r>     0.5866     0.0000   203.0000 </r>
       <r>     0.6266     0.0000   203.0000 </r>
       <r>     0.6665     0.0000   204.0000 </r>
       <r>     0.7064     0.0000   204.0000 </r>
       <r>     0.7463     0.0000   205.0000 </r>
       <r>     0.7862     0.0000   206.0000 </r>
       <r>     0.8261     0.0000   208.0000 </r>
       <r>     0.8661     0.0000   209.0000 </r>
       <r>     0.9060     0.0000   211.0000 </r>
       <r>     0.9459     0.0000   211.0000 </r>
       <r>     0.9858     0.0000   211.0000 </r>
       <r>     1.0257     0.0000   211.0000 </r>
       <r>     1.0656     0.0000   213.0000 </r>
       <r>     1.1056     0.0000   215.0000 </r>
       <r>     1.1455     0.0000   216.0000 </r>
       <r>     1.1854     0.0000   217.0000 </r>
       <r>     1.2253     0.0000   219.0000 </r>
       <r>     1.2652     0.0000   220.0000 </r>
       <r>     1.3051     0.0000   220.0000 </r>
       <r>     1.3451     0.0000   220.0000 </r>
       <r>     1.3850     0.0000   220.0000 </r>
       <r>     1.4249     0.0000   220.0000 </r>
       <r>     1.4648     0.0000   220.0000 </r>
       <r>     1.5047     0.0000   220.0000 </r>
       <r>     1.5446     0.0000   220.0000 </r>
       <r>     1.5846     0.0000   220.0000 </r>
       <r>     1.6245     0.0000   220.0000 </r>
       <r>     1.6644     0.0000   220.0000 </r>
       <r>     1.7043     0.0000   220.0000 </r>
       <r>     1.7442     0.0000   220.0000 </r>
       <r>     1.7841     0.0000   220.0000 </r>
      </set>
      <set comment="spin 2">
       <r>   -10.1907     0.0000     0.0000 </r>
       <r>   -10.1508     0.0000     0.0000 </r>
       <r>   -10.1109     0.0000     0.0000 </r>
       <r>   -10.0710     0.0000     0.0000 </r>
       <r>   -10.0311     0.0000     0.0000 </r>
       <r>    -9.9911     0.0000     0.0000 </r>
       <r>    -9.9512     0.0000     0.0000 </r>
       <r>    -9.9113     0.0000     0.0000 </r>
       <r>    -9.8714     0.0000     0.0000 </r>
       <r>    -9.8315     0.0000     0.0000 </r>
       <r>    -9.7916     0.0000     0.0000 </r>
       <r>    -9.7516     0.0000     0.0000 </r>
       <r>    -9.7117     0.0000     0.0000 </r>
       <r>    -9.6718     0.0000     0.0000 </r>
       <r>    -9.6319     0.0000     1.0000 </r>
       <r>    -9.5920     0.0000     1.0000 </r>
       <r>    -9.5521     0.0000     1.0000 </r>
       <r>    -9.5121     0.0000     1.0000 </r>
       <r>    -9.4722     0.0000     1.0000 </r>
       <r>    -9.4323     0.0000     1.0000 </r>
       <r>    -9.3924     0.0000     1.0000 </r>
       <r>    -9.3525     0.0000     1.0000 </r>
       <r>    -9.3126     0.0000     1.0000 </r>
       <r>    -9.2726     0.0000     1.0000 </r>
       <r>    -9.2327     0.0000     2.0000 </r>
       <r>    -9.1928     0.0000     3.0000 </r>
       <r>    -9.1529     0.0000     3.0000 </r>
       <r>    -9.1130     0.0000     3.0000 </r>
       <r>    -9.0731     0.0000     3.0000 </r>
       <r>    -9.0331     0.0000     3.0000 </r>
       <r>    -8.9932     0.0000     4.0000 </r>
       <r>    -8.9533     0.0000     5.0000 </r>
       <r>    -8.9134     0.0000     7.0000 </r>
       <r>    -8.8735     0.0000     8.0000 </r>
       <r>    -8.8336     0.0000     8.0000 </r>
       <r>    -8.7937     0.0000     9.0000 </r>
       <r>    -8.7537     0.0000    11.0000 </r>
       <r>    -8.7138     0.0000    11.0000 </r>
       <r>    -8.6739     0.0000    13.0000 </r>
       <r>    -8.6340     0.0000    14.0000 </r>
       <r>    -8.5941     0.0000    16.0000 </r>
       <r>    -8.5542     0.0000    17.0000 </r>
       <r>    -8.5142     0.0000    19.0000 </r>
       <r>    -8.4743     0.0000    21.0000 </r>
       <r>    -8.4344     0.0000    23.0000 </r>
       <r>    -8.3945     0.0000    25.0000 </r>
       <r>    -8.3546     0.0000    26.0000 </r>
       <r>    -8.3147     0.0000    28.0000 </r>
       <r>    -8.2747    25.0524    31.0000 </r>
       <r>    -8.2348     0.0000    32.0000 </r>
       <r>    -8.1949     0.0000    34.0000 </r>
       <r>    -8.1550     0.0000    37.0000 </r>
       <r>    -8.1151     0.0000    38.0000 </r>
       <r>    -8.0752     0.0000    41.0000 </r>
       <r>    -8.0352     0.0000    42.0000 </r>
       <r>    -7.9953    25.0525    45.0000 </r>
       <r>    -7.9554     0.0000    47.0000 </r>
       <r>    -7.9155     0.0000    49.0000 </r>
       <r>    -7.8756     0.0000    50.0000 </r>
       <r>    -7.8357     0.0000    52.0000 </r>
       <r>    -7.7957     0.0000    54.0000 </r>
       <r>    -7.7558     0.0000    57.0000 </r>
       <r>    -7.7159     0.0000    58.0000 </r>
       <r>    -7.6760     0.0000    60.0000 </r>
       <r>    -7.6361     0.0000    61.0000 </r>
       <r>    -7.5962     0.0000    64.0000 </r>
       <r>    -7.5563     0.0000    65.0000 </r>
       <r>    -7.5163     0.0000    68.0000 </r>
       <r>    -7.4764     0.0000    69.0000 </r>
       <r>    -7.4365     0.0000    71.0000 </r>
       <r>    -7.3966     0.0000    72.0000 </r>
       <r>    -7.3567     0.0000    75.0000 </r>
       <r>    -7.3168     0.0000    77.0000 </r>
       <r>    -7.2768     0.0000    80.0000 </r>
       <r>    -7.2369    25.0525    82.0000 </r>
       <r>    -7.1970     0.0000    84.0000 </r>
       <r>    -7.1571     0.0000    85.0000 </r>
       <r>    -7.1172     0.0000    88.0000 </r>
       <r>    -7.0773     0.0000    90.0000 </r>
       <r>    -7.0373     0.0000    92.0000 </r>
       <r>    -6.9974     0.0000    94.0000 </r>
       <r>    -6.9575     0.0000    97.0000 </r>
       <r>    -6.9176     0.0000   100.0000 </r>
       <r>    -6.8777     0.0000   103.0000 </r>
       <r>    -6.8378     0.0000   105.0000 </r>
       <r>    -6.7978     0.0000   108.0000 </r>
       <r>    -6.7579     0.0000   112.0000 </r>
       <r>    -6.7180    23.5994   114.9420 </r>
       <r>    -6.6781     0.0000   117.0000 </r>
       <r>    -6.6382     0.0000   121.0000 </r>
       <r>    -6.5983     0.0000   124.0000 </r>
       <r>    -6.5583     0.0000   127.0000 </r>
       <r>    -6.5184     0.0000   130.0000 </r>
       <r>    -6.4785     0.0000   132.0000 </r>
       <r>    -6.4386    25.0525   137.0000 </r>
       <r>    -6.3987     0.0000   139.0000 </r>
       <r>    -6.3588     0.0000   143.0000 </r>
       <r>    -6.3188    15.0608   145.6012 </r>
       <r>    -6.2789     0.0000   148.0000 </r>
       <r>    -6.2390    25.0513   151.0000 </r>
       <r>    -6.1991     0.0000   154.0000 </r>
       <r>    -6.1592     0.0000   155.0000 </r>
       <r>    -6.1193     0.0000   157.0000 </r>
       <r>    -6.0794     0.0000   158.0000 </r>
       <r>    -6.0394     0.0000   159.0000 </r>
       <r>    -5.9995     0.0000   159.0000 </r>
       <r>    -5.9596     0.0000   159.0000 </r>
       <r>    -5.9197     0.0000   159.0000 </r>
       <r>    -5.8798     0.0000   159.0000 </r>
       <r>    -5.8399     0.0000   159.0000 </r>
       <r>    -5.7999     0.0000   159.0000 </r>
       <r>    -5.7600     0.0000   159.0000 </r>
       <r>    -5.7201     0.0000   159.0000 </r>
       <r>    -5.6802     0.0000   160.0000 </r>
       <r>    -5.6403     0.0000   160.0000 </r>
       <r>    -5.6004     0.0000   160.0000 </r>
       <r>    -5.5604     0.0000   161.0000 </r>
       <r>    -5.5205     0.0000   161.0000 </r>
       <r>    -5.4806     0.0000   161.0000 </r>
       <r>    -5.4407     0.0000   161.0000 </r>
       <r>    -5.4008     0.0000   161.0000 </r>
       <r>    -5.3609     0.0000   162.0000 </r>
       <r>    -5.3209     0.0000   162.0000 </r>
       <r>    -5.2810     0.0000   162.0000 </r>
       <r>    -5.2411     0.0000   162.0000 </r>
       <r>    -5.2012     0.0000   162.0000 </r>
       <r>    -5.1613     0.0000   163.0000 </r>
       <r>    -5.1214     0.0000   163.0000 </r>
       <r>    -5.0814     0.0000   163.0000 </r>
       <r>    -5.0415     0.0000   164.0000 </r>
       <r>    -5.0016     0.0000   164.0000 </r>
       <r>    -4.9617     0.0000   164.0000 </r>
       <r>    -4.9218     0.0000   164.0000 </r>
       <r>    -4.8819     0.0000   164.0000 </r>
       <r>    -4.8420     0.0000   164.0000 </r>
       <r>    -4.8020     0.0000   164.0000 </r>
       <r>    -4.7621     0.0000   164.0000 </r>
       <r>    -4.7222     0.0000   164.0000 </r>
       <r>    -4.6823     0.0000   164.0000 </r>
       <r>    -4.6424     0.0000   164.0000 </r>
       <r>    -4.6025     0.0000   164.0000 </r>
       <r>    -4.5625     0.0000   164.0000 </r>
       <r>    -4.5226     0.0000   165.0000 </r>
       <r>    -4.4827     0.0000   165.0000 </r>
       <r>    -4.4428     0.0000   165.0000 </r>
       <r>    -4.4029     0.0000   165.0000 </r>
       <r>    -4.3630     0.0000   165.0000 </r>
       <r>    -4.3230     0.0000   165.0000 </r>
       <r>    -4.2831     0.0000   165.0000 </r>
       <r>    -4.2432     0.0000   165.0000 </r>
       <r>    -4.2033     0.0000   166.0000 </r>
       <r>    -4.1634     0.0000   166.0000 </r>
       <r>    -4.1235     0.0000   167.0000 </r>
       <r>    -4.0835     0.0000   167.0000 </r>
       <r>    -4.0436     0.0000   167.0000 </r>
       <r>    -4.0037     0.0000   167.0000 </r>
       <r>    -3.9638     0.0000   167.0000 </r>
       <r>    -3.9239     0.0000   168.0000 </r>
       <r>    -3.8840     0.0000   168.0000 </r>
       <r>    -3.8440     0.0000   168.0000 </r>
       <r>    -3.8041     0.0000   168.0000 </r>
       <r>    -3.7642     0.0000   168.0000 </r>
       <r>    -3.7243     0.0000   168.0000 </r>
       <r>    -3.6844     0.0000   168.0000 </r>
       <r>    -3.6445     0.0000   169.0000 </r>
       <r>    -3.6045     0.0000   169.0000 </r>
       <r>    -3.5646     0.0000   169.0000 </r>
       <r>    -3.5247     0.0000   170.0000 </r>
       <r>    -3.4848     0.0000   170.0000 </r>
       <r>    -3.4449     0.0000   170.0000 </r>
       <r>    -3.4050     0.0000   170.0000 </r>
       <r>    -3.3651     0.0000   170.0000 </r>
       <r>    -3.3251     0.0000   170.0000 </r>
       <r>    -3.2852     0.0000   170.0000 </r>
       <r>    -3.2453     0.0000   171.0000 </r>
       <r>    -3.2054     0.0000   171.0000 </r>
       <r>    -3.1655     0.0000   171.0000 </r>
       <r>    -3.1256     0.0000   172.0000 </r>
       <r>    -3.0856     0.0000   172.0000 </r>
       <r>    -3.0457     0.0000   172.0000 </r>
       <r>    -3.0058     0.0000   172.0000 </r>
       <r>    -2.9659     0.0000   172.0000 </r>
       <r>    -2.9260     0.0000   172.0000 </r>
       <r>    -2.8861     0.0000   172.0000 </r>
       <r>    -2.8461     0.8687   172.0347 </r>
       <r>    -2.8062     0.0000   173.0000 </r>
       <r>    -2.7663     0.0000   173.0000 </r>
       <r>    -2.7264     0.0000   173.0000 </r>
       <r>    -2.6865     0.0000   173.0000 </r>
       <r>    -2.6466     0.0000   174.0000 </r>
       <r>    -2.6066     0.0000   174.0000 </r>
       <r>    -2.5667     0.0000   174.0000 </r>
       <r>    -2.5268     0.0000   174.0000 </r>
       <r>    -2.4869     0.0000   175.0000 </r>
       <r>    -2.4470     0.0000   175.0000 </r>
       <r>    -2.4071     0.0000   175.0000 </r>
       <r>    -2.3671     0.0000   175.0000 </r>
       <r>    -2.3272     0.0000   175.0000 </r>
       <r>    -2.2873     0.0000   176.0000 </r>
       <r>    -2.2474     0.0000   177.0000 </r>
       <r>    -2.2075     0.0000   177.0000 </r>
       <r>    -2.1676     0.0000   178.0000 </r>
       <r>    -2.1277     0.0000   178.0000 </r>
       <r>    -2.0877     0.0000   178.0000 </r>
       <r>    -2.0478     0.0000   178.0000 </r>
       <r>    -2.0079     0.0000   178.0000 </r>
       <r>    -1.9680     0.0000   178.0000 </r>
       <r>    -1.9281     0.0000   178.0000 </r>
       <r>    -1.8882     0.0000   179.0000 </r>
       <r>    -1.8482     0.0000   179.0000 </r>
       <r>    -1.8083     0.0000   179.0000 </r>
       <r>    -1.7684     0.0000   179.0000 </r>
       <r>    -1.7285     0.0000   180.0000 </r>
       <r>    -1.6886     0.0000   180.0000 </r>
       <r>    -1.6487     0.0000   181.0000 </r>
       <r>    -1.6087     0.0000   182.0000 </r>
       <r>    -1.5688     0.0000   182.0000 </r>
       <r>    -1.5289     0.0000   182.0000 </r>
       <r>    -1.4890     0.0000   182.0000 </r>
       <r>    -1.4491     0.0000   183.0000 </r>
       <r>    -1.4092     0.0000   184.0000 </r>
       <r>    -1.3692     0.0000   184.0000 </r>
       <r>    -1.3293     0.0000   184.0000 </r>
       <r>    -1.2894     0.0000   185.0000 </r>
       <r>    -1.2495     0.0000   185.0000 </r>
       <r>    -1.2096     0.0000   186.0000 </r>
       <r>    -1.1697     0.0000   186.0000 </r>
       <r>    -1.1297     0.0000   186.0000 </r>
       <r>    -1.0898     0.0000   187.0000 </r>
       <r>    -1.0499     0.0000   187.0000 </r>
       <r>    -1.0100     0.0000   188.0000 </r>
       <r>    -0.9701     0.0000   188.0000 </r>
       <r>    -0.9302     0.0000   188.0000 </r>
       <r>    -0.8902     0.0000   188.0000 </r>
       <r>    -0.8503     0.0000   188.0000 </r>
       <r>    -0.8104     0.0000   189.0000 </r>
       <r>    -0.7705     0.0000   189.0000 </r>
       <r>    -0.7306     0.0000   189.0000 </r>
       <r>    -0.6907     0.0000   189.0000 </r>
       <r>    -0.6508     0.0000   189.0000 </r>
       <r>    -0.6108     0.0000   190.0000 </r>
       <r>    -0.5709     0.0000   190.0000 </r>
       <r>    -0.5310     0.0000   191.0000 </r>
       <r>    -0.4911     0.0000   191.0000 </r>
       <r>    -0.4512     0.0000   191.0000 </r>
       <r>    -0.4113     0.0000   191.0000 </r>
       <r>    -0.3713    24.5350   191.9793 </r>
       <r>    -0.3314     0.0000   192.0000 </r>
       <r>    -0.2915     0.0000   192.0000 </r>
       <r>    -0.2516     0.0000   193.0000 </r>
       <r>    -0.2117     0.0000   193.0000 </r>
       <r>    -0.1718     0.0000   193.0000 </r>
       <r>    -0.1318     0.0000   193.0000 </r>
       <r>    -0.0919     0.0000   193.0000 </r>
       <r>    -0.0520     0.0000   194.0000 </r>
       <r>    -0.0121     0.0000   195.0000 </r>
       <r>     0.0278     0.0000   196.0000 </r>
       <r>     0.0677     0.0000   196.0000 </r>
       <r>     0.1077     0.0000   196.0000 </r>
       <r>     0.1476     0.0000   196.0000 </r>
       <r>     0.1875     0.0000   197.0000 </r>
       <r>     0.2274     0.0000   197.0000 </r>
       <r>     0.2673     0.0000   198.0000 </r>
       <r>     0.3072     0.0000   199.0000 </r>
       <r>     0.3472     0.0000   200.0000 </r>
       <r>     0.3871     0.0000   200.0000 </r>
       <r>     0.4270     0.0000   200.0000 </r>
       <r>     0.4669     0.0000   201.0000 </r>
       <r>     0.5068     0.0000   201.0000 </r>
       <r>     0.5467     0.0000   201.0000 </r>
       <r>     0.5866     0.0000   202.0000 </r>
       <r>     0.6266     0.0000   203.0000 </r>
       <r>     0.6665     0.0000   204.0000 </r>
       <r>     0.7064     0.0000   204.0000 </r>
       <r>     0.7463     0.0000   205.0000 </r>
       <r>     0.7862     0.0000   206.0000 </r>
       <r>     0.8261     0.0000   206.0000 </r>
       <r>     0.8661     0.0000   208.0000 </r>
       <r>     0.9060     0.0000   210.0000 </r>
       <r>     0.9459     0.0000   211.0000 </r>
       <r>     0.9858     0.0000   211.0000 </r>
       <r>     1.0257     0.0000   211.0000 </r>
       <r>     1.0656     0.0000   212.0000 </r>
       <r>     1.1056     0.0000   214.0000 </r>
       <r>     1.1455     0.0000   216.0000 </r>
       <r>     1.1854     0.0000   216.0000 </r>
       <r>     1.2253     0.0000   218.0000 </r>
       <r>     1.2652     0.0000   220.0000 </r>
       <r>     1.3051     0.0000   220.0000 </r>
       <r>     1.3451     0.0000   220.0000 </r>
       <r>     1.3850     0.0000   220.0000 </r>
       <r>     1.4249     0.0000   220.0000 </r>
       <r>     1.4648     0.0000   220.0000 </r>
       <r>     1.5047     0.0000   220.0000 </r>
       <r>     1.5446     0.0000   220.0000 </r>
       <r>     1.5846     0.0000   220.0000 </r>
       <r>     1.6245     0.0000   220.0000 </r>
       <r>     1.6644     0.0000   220.0000 </r>
       <r>     1.7043     0.0000   220.0000 </r>
       <r>     1.7442     0.0000   220.0000 </r>
       <r>     1.7841     0.0000   220.0000 </r>
      </set>
     </set>
    </array>
   </total>
  </dos>
 </calculation>
 <structure name="finalpos" >
  <crystal>
   <varray name="basis" >
    <v>      20.92513817       0.00000000       0.00000000 </v>
    <v>       0.00000000      20.92513817       0.00000000 </v>
    <v>       0.00000000       0.00000000      20.92513817 </v>
   </varray>
   <i name="volume">   9162.31044574 </i>
   <varray name="rec_basis" >
    <v>       0.04778941       0.00000000       0.00000000 </v>
    <v>       0.00000000       0.04778941       0.00000000 </v>
    <v>       0.00000000       0.00000000       0.04778941 </v>
   </varray>
  </crystal>
  <varray name="positions" >
   <v>       0.56361963       0.47559211       0.69032273 </v>
   <v>       0.61932660       0.59353845       0.72190118 </v>
   <v>       0.68324299       0.51214910       0.63747899 </v>
   <v>       0.57549846       0.58166695       0.59741112 </v>
   <v>       0.46729177       0.67841163       0.58622572 </v>
   <v>       0.68900579       0.58118911       0.51630945 </v>
   <v>       0.63132441       0.38573374       0.60948851 </v>
   <v>       0.56629823       0.65907115       0.49105999 </v>
   <v>       0.50000931       0.36130572       0.65603334 </v>
   <v>       0.48807470       0.59048748       0.69797516 </v>
   <v>       0.42826764       0.47678706       0.65025395 </v>
   <v>       0.72260723       0.45014349       0.53051501 </v>
   <v>       0.57842441       0.52355280       0.46983404 </v>
   <v>       0.34403497       0.63928352       0.52307408 </v>
   <v>       0.46071077       0.56364629       0.52344001 </v>
   <v>       0.36955778       0.59488065       0.64247516 </v>
   <v>       0.44193773       0.68257653       0.44811614 </v>
   <v>       0.52467966       0.44967174       0.56176910 </v>
   <v>       0.40755917       0.38324123       0.55055822 </v>
   <v>       0.69341534       0.48944009       0.40720764 </v>
   <v>       0.63519903       0.60910866       0.38613032 </v>
   <v>       0.54824086       0.71227151       0.37181115 </v>
   <v>       0.37326237       0.56364689       0.41683531 </v>
   <v>       0.53118882       0.31849313       0.53408031 </v>
   <v>       0.61920986       0.39379687       0.46789162 </v>
   <v>       0.49842284       0.58882152       0.37027978 </v>
   <v>       0.35492189       0.43108931       0.43216332 </v>
   <v>       0.57156990       0.47567162       0.34792950 </v>
   <v>       0.48838273       0.40948634       0.43721846 </v>
   <v>       0.43612442       0.47722269       0.33638565 </v>
   <v>       0.34335151       0.50278344       0.54258584 </v>
  </varray>
 </structure>
</modeling>
