   26   26 1000    2
  0.3853202E+03  0.2155750E-08  0.2155750E-08  0.2155750E-08  0.1000000E-15
  1.000000000000000E-004
  CAR 
 unknown system                          
    286      1    184
 
  0.0000000E+00  0.0000000E+00  0.0000000E+00  0.1000000E+01
    1       -9.493503     -9.493503
    2       -9.146929     -9.146929
    3       -9.072141     -9.072141
    4       -9.034004     -9.034004
    5       -8.985283     -8.985283
    6       -8.967564     -8.967564
    7       -8.953101     -8.953101
    8       -8.918086     -8.918086
    9       -8.895326     -8.895326
   10       -8.869169     -8.869169
   11       -8.819071     -8.819071
   12       -8.805672     -8.805672
   13       -8.766468     -8.766468
   14       -8.755989     -8.755989
   15       -8.720473     -8.720473
   16       -8.686506     -8.686506
   17       -8.666770     -8.666770
   18       -8.621145     -8.621145
   19       -8.595837     -8.595837
   20       -8.571238     -8.571238
   21       -8.534267     -8.534267
   22       -8.513915     -8.513915
   23       -8.485144     -8.485145
   24       -8.445749     -8.445749
   25       -8.431480     -8.431480
   26       -8.406695     -8.406695
   27       -8.348116     -8.348116
   28       -8.337480     -8.337480
   29       -8.321665     -8.321665
   30       -8.257116     -8.257116
   31       -8.243481     -8.243481
   32       -8.228539     -8.228539
   33       -8.212215     -8.212215
   34       -8.178890     -8.178890
   35       -8.161136     -8.161136
   36       -8.148292     -8.148292
   37       -8.114013     -8.114013
   38       -8.077242     -8.077242
   39       -8.049430     -8.049430
   40       -8.040507     -8.040507
   41       -7.998765     -7.998765
   42       -7.990898     -7.990898
   43       -7.946708     -7.946708
   44       -7.939807     -7.939807
   45       -7.907887     -7.907887
   46       -7.892512     -7.892512
   47       -7.875145     -7.875145
   48       -7.861622     -7.861622
   49       -7.841383     -7.841383
   50       -7.803311     -7.803311
   51       -7.784190     -7.784191
   52       -7.756919     -7.756919
   53       -7.737262     -7.737262
   54       -7.724987     -7.724987
   55       -7.681353     -7.681353
   56       -7.661107     -7.661107
   57       -7.623503     -7.623503
   58       -7.592004     -7.592005
   59       -7.562458     -7.562458
   60       -7.546750     -7.546750
   61       -7.520547     -7.520547
   62       -7.474117     -7.474117
   63       -7.459184     -7.459184
   64       -7.451983     -7.451983
   65       -7.419623     -7.419623
   66       -7.392971     -7.392971
   67       -7.377881     -7.377881
   68       -7.361865     -7.361866
   69       -7.345230     -7.345231
   70       -7.294190     -7.294190
   71       -7.272089     -7.272089
   72       -7.246770     -7.246770
   73       -7.221204     -7.221204
   74       -7.200828     -7.200828
   75       -7.199268     -7.199269
   76       -7.180395     -7.180395
   77       -7.168904     -7.168904
   78       -7.130935     -7.130935
   79       -7.121864     -7.121864
   80       -7.101939     -7.101939
   81       -7.085723     -7.085723
   82       -7.077390     -7.077390
   83       -7.064669     -7.064669
   84       -7.050332     -7.050332
   85       -7.017910     -7.017910
   86       -6.997300     -6.997300
   87       -6.994628     -6.994628
   88       -6.976819     -6.976819
   89       -6.963587     -6.963587
   90       -6.958091     -6.958091
   91       -6.932640     -6.932640
   92       -6.920706     -6.920706
   93       -6.897195     -6.897195
   94       -6.879910     -6.879911
   95       -6.868247     -6.868247
   96       -6.857699     -6.857699
   97       -6.853843     -6.853843
   98       -6.843921     -6.843921
   99       -6.813801     -6.813801
  100       -6.802283     -6.802283
  101       -6.788315     -6.788315
  102       -6.776098     -6.776098
  103       -6.774321     -6.774321
  104       -6.758129     -6.758129
  105       -6.741357     -6.741357
  106       -6.725236     -6.725236
  107       -6.716248     -6.716248
  108       -6.687892     -6.687892
  109       -6.675004     -6.675004
  110       -6.658256     -6.658256
  111       -6.650369     -6.650370
  112       -6.636099     -6.636099
  113       -6.606705     -6.606705
  114       -6.593950     -6.593950
  115       -6.559577     -6.559577
  116       -6.554023     -6.554023
  117       -6.540198     -6.540198
  118       -6.521145     -6.521145
  119       -6.498968     -6.498968
  120       -6.490658     -6.490658
  121       -6.484283     -6.484283
  122       -6.447337     -6.447337
  123       -6.434450     -6.434450
  124       -6.413401     -6.413401
  125       -6.383790     -6.383790
  126       -6.378137     -6.378137
  127       -6.358268     -6.358268
  128       -6.332897     -6.332897
  129       -6.324873     -6.324873
  130       -6.310635     -6.310635
  131       -6.278806     -6.278806
  132       -6.250514     -6.250514
  133       -6.246208     -6.246209
  134       -6.203709     -6.203709
  135       -5.695419     -5.695419
  136       -5.495952     -5.495951
  137       -5.107003     -5.107003
  138       -4.942542     -4.942542
  139       -4.659134     -4.659134
  140       -4.180741     -4.180741
  141       -4.034213     -4.034213
  142       -3.921357     -3.921357
  143       -3.756422     -3.756422
  144       -3.152502     -3.152502
  145       -2.971401     -2.971401
  146       -2.792270     -2.792270
  147       -2.679135     -2.679134
  148       -2.537805     -2.537804
  149       -2.361144     -2.361143
  150       -2.253018     -2.253018
  151       -2.240386     -2.240386
  152       -1.953618     -1.953617
  153       -1.826757     -1.826756
  154       -1.706933     -1.706932
  155       -1.253511     -1.253511
  156       -1.072487     -1.072486
  157       -1.054864     -1.054864
  158       -1.009512     -1.009512
  159       -0.910718     -0.910717
  160       -0.878835     -0.878835
  161       -0.775418     -0.775416
  162       -0.670473     -0.670472
  163       -0.609603     -0.609602
  164       -0.493418     -0.493417
  165       -0.450343     -0.450341
  166       -0.363005     -0.363003
  167       -0.351064     -0.351063
  168       -0.158044     -0.158042
  169       -0.064353     -0.064351
  170        0.392604      0.392610
  171        0.516695      0.516699
  172        0.573726      0.573735
  173        0.607913      0.607910
  174        0.651760      0.651764
  175        0.673614      0.673623
  176        0.689336      0.689348
  177        0.740636      0.740641
  178        0.779387      0.779397
  179        0.841974      0.841982
  180        0.863820      0.863823
  181        0.896790      0.896799
  182        0.932202      0.932208
  183        0.967475      0.967481
  184        0.985461      0.985470
