 running on   32 total cores
 distrk:  each k-point on   32 cores,    1 groups
 distr:  one band on    8 cores,    4 groups
 using from now: INCAR     
 vasp.5.3.5 31Mar14 (build Feb 01 2018 12:10:03) gamma-only                     
  
 POSCAR found type information on POSCAR  Ag
 POSCAR found :  1 types and      15 ions
 scaLAPACK will be used
 LDA part: xc-table for Pade appr. of Perdew
 POSCAR, INCAR and KPOINTS ok, starting setup
 WARNING: small aliasing (wrap around) errors must be expected
 FFT: planning ...
 WAVECAR not read
 entering main loop
       N       E                     dE             d eps       ncg     rms          rms(c)
DAV:   1     0.148029288252E+04    0.14803E+04   -0.24905E+04   432   0.538E+02
DAV:   2     0.554587310176E+03   -0.92571E+03   -0.81538E+03   808   0.103E+02
DAV:   3     0.356839616251E+02   -0.51890E+03   -0.48023E+03   640   0.910E+01
DAV:   4    -0.242039756807E+02   -0.59888E+02   -0.54462E+02   520   0.337E+01
DAV:   5    -0.258561440033E+02   -0.16522E+01   -0.16474E+01   472   0.651E+00    0.222E+01
DAV:   6    -0.362420813000E+01    0.22232E+02   -0.68640E+01   432   0.166E+01    0.113E+01
DAV:   7     0.287051907268E+00    0.39113E+01   -0.32360E+00   456   0.511E+00    0.647E+00
DAV:   8    -0.398603232387E+01   -0.42731E+01   -0.20082E+00   484   0.320E+00    0.329E+00
DAV:   9    -0.823718591737E+01   -0.42512E+01   -0.12270E+00   488   0.215E+00    0.189E+00
DAV:  10    -0.140362597812E+02   -0.57991E+01   -0.21958E+00   448   0.280E+00    0.131E+00
DAV:  11    -0.191409642436E+02   -0.51047E+01   -0.20596E+00   456   0.228E+00    0.895E-01
DAV:  12    -0.225227531046E+02   -0.33818E+01   -0.10769E+00   440   0.154E+00    0.555E-01
DAV:  13    -0.241453334445E+02   -0.16226E+01   -0.29298E-01   464   0.844E-01    0.183E+00
DAV:  14    -0.241303969862E+02    0.14936E-01   -0.67241E-03   488   0.194E-01    0.177E+00
DAV:  15    -0.241274687501E+02    0.29282E-02   -0.33760E-04   324   0.638E-02    0.176E+00
DAV:  16    -0.242696120643E+02   -0.14214E+00   -0.18912E-02   464   0.694E-01    0.151E+00
DAV:  17    -0.245410059487E+02   -0.27139E+00   -0.47523E-02   448   0.919E-01    0.113E+00
DAV:  18    -0.248240152651E+02   -0.28301E+00   -0.49012E-02   444   0.100E+00    0.689E-01
DAV:  19    -0.252039098732E+02   -0.37989E+00   -0.43238E-02   448   0.843E-01    0.322E-01
DAV:  20    -0.255009578570E+02   -0.29705E+00   -0.19876E-02   456   0.293E-01    0.173E-01
DAV:  21    -0.255856094870E+02   -0.84652E-01   -0.50511E-03   472   0.260E-01    0.677E-02
DAV:  22    -0.256179327025E+02   -0.32323E-01   -0.16779E-03   468   0.876E-02    0.531E-02
DAV:  23    -0.256392968555E+02   -0.21364E-01   -0.15613E-03   336   0.681E-02    0.325E-02
DAV:  24    -0.256450114650E+02   -0.57146E-02   -0.49040E-04   336   0.302E-02    0.270E-02
DAV:  25    -0.256465122317E+02   -0.15008E-02   -0.16477E-04   320   0.442E-02    0.163E-02
DAV:  26    -0.256485809311E+02   -0.20687E-02   -0.26248E-04   308   0.237E-02    0.801E-03
DAV:  27    -0.256491527575E+02   -0.57183E-03   -0.55052E-05   328   0.103E-02    0.640E-03
DAV:  28    -0.256496848060E+02   -0.53205E-03   -0.21659E-05   288   0.650E-03    0.549E-03
DAV:  29    -0.256499892737E+02   -0.30447E-03   -0.15516E-05   312   0.874E-03    0.306E-03
DAV:  30    -0.256501085218E+02   -0.11925E-03   -0.77559E-06   292   0.577E-03    0.293E-03
DAV:  31    -0.256501826546E+02   -0.74133E-04   -0.30070E-06   304   0.393E-03
   1 F= -.25650183E+02 E0= -.25650183E+02  d E =-.256502E+02  mag=     1.0002
 curvature:   0.00 expect dE= 0.000E+00 dE for cont linesearch  0.000E+00
 trial: gam= 0.00000 g(F)=  0.695E-01 g(S)=  0.000E+00 ort = 0.000E+00 (trialstep = 0.100E+01)
 search vector abs. value=  0.695E-01
 bond charge predicted
       N       E                     dE             d eps       ncg     rms          rms(c)
DAV:   1    -0.257149075881E+02   -0.64799E-01   -0.46783E+00   448   0.559E+00    0.216E-01
DAV:   2    -0.257170446719E+02   -0.21371E-02   -0.22850E-02   448   0.559E-01    0.156E-01
DAV:   3    -0.257170179201E+02    0.26752E-04   -0.54264E-04   456   0.105E-01
   2 F= -.25717018E+02 E0= -.25717018E+02  d E =-.668353E-01  mag=     1.0001
 ZBRENT: can't locate minimum, use default step
 trial-energy change:   -0.066835  1 .order   -0.066589   -0.069538   -0.063641
 step:   4.0000(harm= 11.7922)  dis= 0.03303  next Energy=   -26.060185 (dE=-0.410E+00)
 bond charge predicted
       N       E                     dE             d eps       ncg     rms          rms(c)
DAV:   1    -0.258672706397E+02   -0.15023E+00   -0.42229E+01   440   0.168E+01    0.600E-01
DAV:   2    -0.258863301071E+02   -0.19059E-01   -0.20398E-01   444   0.167E+00    0.464E-01
DAV:   3    -0.258860655725E+02    0.26453E-03   -0.44070E-03   456   0.291E-01    0.278E-01
DAV:   4    -0.258859040432E+02    0.16153E-03   -0.17114E-03   448   0.131E-01    0.459E-02
DAV:   5    -0.258859324195E+02   -0.28376E-04   -0.68117E-05   304   0.293E-02
   3 F= -.25885932E+02 E0= -.25885932E+02  d E =-.235750E+00  mag=     1.0001
 curvature:  -2.82 expect dE=-0.101E+00 dE for cont linesearch -0.973E-01
 ZBRENT: increasing intervall
 opt :  10.0000  next Energy=   -26.091620 (dE=-0.441E+00)
 bond charge predicted
       N       E                     dE             d eps       ncg     rms          rms(c)
DAV:   1    -0.260222418728E+02   -0.13634E+00   -0.16975E+02   432   0.339E+01    0.100E+00
DAV:   2    -0.260976887710E+02   -0.75447E-01   -0.80347E-01   448   0.335E+00    0.876E-01
DAV:   3    -0.260973369084E+02    0.35186E-03   -0.15212E-02   464   0.500E-01    0.595E-01
DAV:   4    -0.260961905621E+02    0.11463E-02   -0.73155E-03   444   0.251E-01    0.162E-01
DAV:   5    -0.260963209630E+02   -0.13040E-03   -0.31676E-04   352   0.686E-02    0.459E-02
DAV:   6    -0.260963388453E+02   -0.17882E-04   -0.98762E-05   288   0.283E-02
   4 F= -.26096339E+02 E0= -.26096339E+02  d E =-.446156E+00  mag=     1.0000
 curvature:  -5.97 expect dE=-0.711E-01 dE for cont linesearch -0.434E-01
 ZBRENT: increasing intervall
 opt :  22.0000  next Energy=   -26.048303 (dE=-0.398E+00)
 bond charge predicted
       N       E                     dE             d eps       ncg     rms          rms(c)
DAV:   1    -0.258052463185E+02    0.29107E+00   -0.69529E+02   432   0.698E+01    0.157E+00
DAV:   2    -0.261180636412E+02   -0.31282E+00   -0.32971E+00   448   0.696E+00    0.167E+00
DAV:   3    -0.261199774239E+02   -0.19138E-02   -0.58116E-02   480   0.901E-01    0.124E+00
DAV:   4    -0.261144949897E+02    0.54824E-02   -0.16924E-02   444   0.392E-01    0.707E-01
DAV:   5    -0.261149605295E+02   -0.46554E-03   -0.72136E-03   464   0.246E-01    0.200E-01
DAV:   6    -0.261149123523E+02    0.48177E-04   -0.57672E-04   448   0.693E-02
   5 F= -.26114912E+02 E0= -.26114912E+02  d E =-.464730E+00  mag=     1.0000
 curvature:   6.61 expect dE= 0.104E+00 dE for cont linesearch  0.254E-01
 ZBRENT: bracketing found
 ZBRENT: interpolating
 opt :  16.9454  next Energy=   -26.156257 (dE=-0.506E+00)
 bond charge predicted
       N       E                     dE             d eps       ncg     rms          rms(c)
DAV:   1    -0.261052342573E+02    0.97263E-02   -0.12033E+02   436   0.283E+01    0.842E-01
DAV:   2    -0.261632152299E+02   -0.57981E-01   -0.60586E-01   456   0.283E+00    0.436E-01
DAV:   3    -0.261626890018E+02    0.52623E-03   -0.11706E-02   456   0.424E-01    0.289E-01
DAV:   4    -0.261624980863E+02    0.19092E-03   -0.31759E-03   444   0.181E-01    0.756E-02
DAV:   5    -0.261626230734E+02   -0.12499E-03   -0.13238E-04   312   0.430E-02    0.311E-02
DAV:   6    -0.261626607384E+02   -0.37665E-04   -0.58153E-05   288   0.211E-02
   6 F= -.26162661E+02 E0= -.26162661E+02  d E =-.512478E+00  mag=     1.0000
 curvature: -10.74 expect dE=-0.101E+00 dE for cont linesearch -0.751E-03
 trial: gam= 0.16629 g(F)=  0.936E-02 g(S)=  0.000E+00 ort =-0.220E-02 (trialstep = 0.419E+01)
 search vector abs. value=  0.105E-01
 bond charge predicted
       N       E                     dE             d eps       ncg     rms          rms(c)
DAV:   1    -0.261891561299E+02   -0.26533E-01   -0.12486E+01   440   0.916E+00    0.236E-01
DAV:   2    -0.261948175257E+02   -0.56614E-02   -0.60930E-02   456   0.894E-01    0.179E-01
DAV:   3    -0.261947430328E+02    0.74493E-04   -0.11299E-03   472   0.125E-01    0.113E-01
DAV:   4    -0.261946234322E+02    0.11960E-03   -0.42263E-04   480   0.685E-02    0.316E-02
DAV:   5    -0.261946352403E+02   -0.11808E-04   -0.22880E-05   288   0.210E-02
   7 F= -.26194635E+02 E0= -.26194635E+02  d E =-.319745E-01  mag=     1.0000
 trial-energy change:   -0.031975  1 .order   -0.032111   -0.037669   -0.026553
 step:  14.1958(harm= 14.1958)  dis= 0.05501  next Energy=   -26.226487 (dE=-0.638E-01)
 bond charge predicted
       N       E                     dE             d eps       ncg     rms          rms(c)
DAV:   1    -0.261947899142E+02   -0.16648E-03   -0.71452E+01   432   0.219E+01    0.526E-01
DAV:   2    -0.262273218586E+02   -0.32532E-01   -0.34813E-01   448   0.214E+00    0.409E-01
DAV:   3    -0.262269856478E+02    0.33621E-03   -0.62096E-03   472   0.290E-01    0.267E-01
DAV:   4    -0.262263970433E+02    0.58860E-03   -0.21707E-03   472   0.158E-01    0.891E-02
DAV:   5    -0.262264735520E+02   -0.76509E-04   -0.17826E-04   304   0.532E-02
   8 F= -.26226474E+02 E0= -.26226474E+02  d E =-.638128E-01  mag=     1.0000
 curvature:  -8.33 expect dE=-0.396E-01 dE for cont linesearch -0.871E-04
 trial: gam= 0.42992 g(F)=  0.475E-02 g(S)=  0.000E+00 ort = 0.332E-03 (trialstep = 0.619E+01)
 search vector abs. value=  0.699E-02
 bond charge predicted
       N       E                     dE             d eps       ncg     rms          rms(c)
DAV:   1    -0.262465075277E+02   -0.20110E-01   -0.17950E+01   432   0.110E+01    0.167E-01
DAV:   2    -0.262552479059E+02   -0.87404E-02   -0.86780E-02   448   0.107E+00    0.139E-01
DAV:   3    -0.262552366499E+02    0.11256E-04   -0.13986E-03   480   0.136E-01    0.976E-02
DAV:   4    -0.262551312828E+02    0.10537E-03   -0.29997E-04   328   0.497E-02    0.528E-02
DAV:   5    -0.262552094536E+02   -0.78171E-04   -0.31486E-04   416   0.517E-02
   9 F= -.26255209E+02 E0= -.26255209E+02  d E =-.287359E-01  mag=     1.0000
 ZBRENT: can't locate minimum, use default step
 trial-energy change:   -0.028736  1 .order   -0.028781   -0.030305   -0.027258
 step:  24.7618(harm= 61.5788)  dis= 0.07285  next Energy=   -26.377200 (dE=-0.151E+00)
 bond charge predicted
       N       E                     dE             d eps       ncg     rms          rms(c)
DAV:   1    -0.262408495302E+02    0.14282E-01   -0.16282E+02   432   0.332E+01    0.595E-01
DAV:   2    -0.263198014823E+02   -0.78952E-01   -0.79891E-01   456   0.326E+00    0.431E-01
DAV:   3    -0.263188601431E+02    0.94134E-03   -0.13097E-02   480   0.418E-01    0.290E-01
DAV:   4    -0.263171518056E+02    0.17083E-02   -0.33250E-03   456   0.160E-01    0.139E-01
DAV:   5    -0.263172361257E+02   -0.84320E-04   -0.15048E-03   460   0.109E-01    0.426E-02
DAV:   6    -0.263174575795E+02   -0.22145E-03   -0.60754E-05   296   0.224E-02    0.274E-02
DAV:   7    -0.263177643942E+02   -0.30681E-03   -0.56392E-05   312   0.193E-02    0.834E-03
DAV:   8    -0.263180049394E+02   -0.24055E-03   -0.14689E-05   296   0.909E-03    0.298E-03
DAV:   9    -0.263181314471E+02   -0.12651E-03   -0.42916E-06   312   0.460E-03    0.229E-03
DAV:  10    -0.263182349669E+02   -0.10352E-03   -0.36594E-06   288   0.288E-03    0.140E-03
DAV:  11    -0.263183309808E+02   -0.96014E-04   -0.76895E-06   312   0.304E-03
  10 F= -.26318331E+02 E0= -.26318331E+02  d E =-.918574E-01  mag=     1.0000
 curvature: -24.53 expect dE=-0.980E-01 dE for cont linesearch -0.202E-01
 ZBRENT: increasing intervall
 opt :  61.9044  next Energy=   -26.332759 (dE=-0.106E+00)
 bond charge predicted
       N       E                     dE             d eps       ncg     rms          rms(c)
DAV:   1    -0.259864634081E+02    0.33177E+00   -0.66792E+02   432   0.685E+01    0.168E+00
DAV:   2    -0.263250402214E+02   -0.33858E+00   -0.34238E+00   444   0.687E+00    0.967E-01
DAV:   3    -0.263209954293E+02    0.40448E-02   -0.57593E-02   480   0.897E-01    0.598E-01
DAV:   4    -0.263150744816E+02    0.59209E-02   -0.12967E-02   448   0.319E-01    0.287E-01
DAV:   5    -0.263152342331E+02   -0.15975E-03   -0.40649E-03   464   0.183E-01    0.780E-02
DAV:   6    -0.263157538237E+02   -0.51959E-03   -0.22338E-04   344   0.448E-02    0.515E-02
DAV:   7    -0.263164000863E+02   -0.64626E-03   -0.12651E-04   288   0.294E-02    0.165E-02
DAV:   8    -0.263168593323E+02   -0.45925E-03   -0.28086E-05   320   0.124E-02    0.558E-03
DAV:   9    -0.263171066949E+02   -0.24736E-03   -0.84462E-06   296   0.625E-03    0.342E-03
DAV:  10    -0.263172829343E+02   -0.17624E-03   -0.51478E-06   304   0.384E-03    0.231E-03
DAV:  11    -0.263175047050E+02   -0.22177E-03   -0.18446E-05   288   0.521E-03    0.173E-03
DAV:  12    -0.263175722552E+02   -0.67550E-04   -0.41018E-06   320   0.270E-03
  11 F= -.26317572E+02 E0= -.26317572E+02  d E =-.910987E-01  mag=     1.0000
 curvature: -17.56 expect dE=-0.467E+00 dE for cont linesearch -0.185E-01
 ZBRENT: bracketing found
 ZBRENT: interpolating
 opt :  42.1770  next Energy=   -26.339193 (dE=-0.113E+00)
 bond charge predicted
       N       E                     dE             d eps       ncg     rms          rms(c)
DAV:   1    -0.262562997035E+02    0.61205E-01   -0.18400E+02   432   0.354E+01    0.579E-01
DAV:   2    -0.263439734796E+02   -0.87674E-01   -0.87320E-01   444   0.342E+00    0.551E-01
DAV:   3    -0.263433097024E+02    0.66378E-03   -0.13911E-02   488   0.421E-01    0.407E-01
DAV:   4    -0.263408592024E+02    0.24505E-02   -0.44277E-03   456   0.188E-01    0.218E-01
DAV:   5    -0.263407591433E+02    0.10006E-03   -0.25668E-03   472   0.145E-01    0.710E-02
DAV:   6    -0.263409210629E+02   -0.16192E-03   -0.71665E-05   308   0.246E-02    0.453E-02
DAV:   7    -0.263411541247E+02   -0.23306E-03   -0.10602E-04   304   0.272E-02    0.144E-02
DAV:   8    -0.263413280389E+02   -0.17391E-03   -0.24419E-05   304   0.154E-02    0.466E-03
DAV:   9    -0.263414496264E+02   -0.12159E-03   -0.67260E-06   288   0.701E-03    0.249E-03
DAV:  10    -0.263415113665E+02   -0.61740E-04   -0.17678E-06   296   0.310E-03
  12 F= -.26341511E+02 E0= -.26341511E+02  d E =-.115038E+00  mag=     1.0000
 curvature: -19.79 expect dE=-0.187E+00 dE for cont linesearch -0.136E-03
 trial: gam= 1.87428 g(F)=  0.946E-02 g(S)=  0.000E+00 ort = 0.219E-03 (trialstep = 0.269E+01)
 search vector abs. value=  0.348E-01
 bond charge predicted
       N       E                     dE             d eps       ncg     rms          rms(c)
DAV:   1    -0.263595839775E+02   -0.18134E-01   -0.16826E+01   448   0.106E+01    0.142E-01
DAV:   2    -0.263675450264E+02   -0.79610E-02   -0.78577E-02   456   0.101E+00    0.128E-01
DAV:   3    -0.263674500081E+02    0.95018E-04   -0.11968E-03   480   0.122E-01    0.970E-02
DAV:   4    -0.263671986577E+02    0.25135E-03   -0.33329E-04   400   0.522E-02    0.518E-02
DAV:   5    -0.263671408644E+02    0.57793E-04   -0.33347E-04   416   0.529E-02
  13 F= -.26367141E+02 E0= -.26367141E+02  d E =-.256295E-01  mag=     1.0000
 ZBRENT: can't locate minimum, use default step
 trial-energy change:   -0.025629  1 .order   -0.026003   -0.026505   -0.025501
 step:  10.7456(harm= 70.9275)  dis= 0.04347  next Energy=   -26.691410 (dE=-0.350E+00)
 bond charge predicted
       N       E                     dE             d eps       ncg     rms          rms(c)
DAV:   1    -0.263628821779E+02    0.43165E-02   -0.15269E+02   432   0.322E+01    0.492E-01
DAV:   2    -0.264363981815E+02   -0.73516E-01   -0.72620E-01   456   0.309E+00    0.390E-01
DAV:   3    -0.264353047945E+02    0.10934E-02   -0.11300E-02   488   0.377E-01    0.280E-01
DAV:   4    -0.264333318658E+02    0.19729E-02   -0.28329E-03   456   0.151E-01    0.148E-01
DAV:   5    -0.264330956183E+02    0.23625E-03   -0.20577E-03   472   0.126E-01    0.436E-02
DAV:   6    -0.264333238142E+02   -0.22820E-03   -0.43106E-05   304   0.201E-02    0.296E-02
DAV:   7    -0.264336439671E+02   -0.32015E-03   -0.42554E-05   312   0.157E-02    0.101E-02
DAV:   8    -0.264338948677E+02   -0.25090E-03   -0.16255E-05   304   0.951E-03    0.323E-03
DAV:   9    -0.264340583531E+02   -0.16349E-03   -0.50326E-06   312   0.466E-03    0.235E-03
DAV:  10    -0.264341886460E+02   -0.13029E-03   -0.36181E-06   296   0.317E-03    0.150E-03
DAV:  11    -0.264343081390E+02   -0.11949E-03   -0.49507E-06   304   0.295E-03    0.103E-03
DAV:  12    -0.264343750982E+02   -0.66959E-04   -0.24422E-06   312   0.170E-03
  14 F= -.26434375E+02 E0= -.26434375E+02  d E =-.928637E-01  mag=     1.0000
 curvature: -27.82 expect dE=-0.184E+00 dE for cont linesearch -0.413E-01
 ZBRENT: increasing intervall
 opt :  26.8639  next Energy=   -26.513186 (dE=-0.172E+00)
 bond charge predicted
       N       E                     dE             d eps       ncg     rms          rms(c)
DAV:   1    -0.261962181979E+02    0.23809E+00   -0.62809E+02   432   0.663E+01    0.136E+00
DAV:   2    -0.265088923617E+02   -0.31267E+00   -0.31325E+00   468   0.653E+00    0.876E-01
DAV:   3    -0.265047460568E+02    0.41463E-02   -0.51028E-02   488   0.830E-01    0.566E-01
DAV:   4    -0.264985220034E+02    0.62241E-02   -0.92490E-03   464   0.280E-01    0.332E-01
DAV:   5    -0.264975391225E+02    0.98288E-03   -0.65954E-03   464   0.225E-01    0.884E-02
DAV:   6    -0.264981657294E+02   -0.62661E-03   -0.14002E-04   336   0.377E-02    0.571E-02
DAV:   7    -0.264989561183E+02   -0.79039E-03   -0.86325E-05   304   0.219E-02    0.210E-02
DAV:   8    -0.264995569055E+02   -0.60079E-03   -0.36111E-05   320   0.134E-02    0.654E-03
DAV:   9    -0.264999565559E+02   -0.39965E-03   -0.12666E-05   304   0.707E-03    0.366E-03
DAV:  10    -0.265002381535E+02   -0.28160E-03   -0.73432E-06   304   0.483E-03    0.262E-03
DAV:  11    -0.265005284320E+02   -0.29028E-03   -0.10446E-05   304   0.443E-03    0.189E-03
DAV:  12    -0.265007388243E+02   -0.21039E-03   -0.90080E-06   320   0.326E-03    0.115E-03
DAV:  13    -0.265008306507E+02   -0.91826E-04   -0.27200E-06   312   0.189E-03
  15 F= -.26500831E+02 E0= -.26500831E+02  d E =-.159319E+00  mag=     1.0000
 curvature: -53.07 expect dE=-0.532E+00 dE for cont linesearch -0.124E-03
 trial: gam= 0.78757 g(F)=  0.100E-01 g(S)=  0.000E+00 ort = 0.286E-03 (trialstep = 0.752E+01)
 search vector abs. value=  0.321E-01
 bond charge predicted
       N       E                     dE             d eps       ncg     rms          rms(c)
DAV:   1    -0.265020209763E+02   -0.12822E-02   -0.12249E+02   432   0.288E+01    0.446E-01
DAV:   2    -0.265605102053E+02   -0.58489E-01   -0.58156E-01   464   0.278E+00    0.399E-01
DAV:   3    -0.265599372905E+02    0.57291E-03   -0.93364E-03   488   0.347E-01    0.289E-01
DAV:   4    -0.265582476222E+02    0.16897E-02   -0.24742E-03   472   0.146E-01    0.160E-01
DAV:   5    -0.265579388519E+02    0.30877E-03   -0.19522E-03   464   0.121E-01    0.505E-02
DAV:   6    -0.265580485100E+02   -0.10966E-03   -0.51112E-05   312   0.207E-02    0.321E-02
DAV:   7    -0.265582139400E+02   -0.16543E-03   -0.53601E-05   304   0.198E-02    0.114E-02
DAV:   8    -0.265583670358E+02   -0.15310E-03   -0.14951E-05   320   0.111E-02    0.336E-03
DAV:   9    -0.265584806903E+02   -0.11365E-03   -0.40061E-06   296   0.496E-03    0.194E-03
DAV:  10    -0.265585607362E+02   -0.80046E-04   -0.16558E-06   304   0.247E-03
  16 F= -.26558561E+02 E0= -.26558561E+02  d E =-.577301E-01  mag=     1.0000
 trial-energy change:   -0.057730  1 .order   -0.058200   -0.077039   -0.039361
 step:  16.9759(harm= 15.3799)  dis= 0.09684  next Energy=   -26.582364 (dE=-0.815E-01)
 bond charge predicted
       N       E                     dE             d eps       ncg     rms          rms(c)
DAV:   1    -0.264873781781E+02    0.71103E-01   -0.19440E+02   432   0.364E+01    0.584E-01
DAV:   2    -0.265821697965E+02   -0.94792E-01   -0.93174E-01   456   0.352E+00    0.500E-01
DAV:   3    -0.265813350070E+02    0.83479E-03   -0.15105E-02   480   0.444E-01    0.353E-01
DAV:   4    -0.265788675698E+02    0.24674E-02   -0.35306E-03   472   0.177E-01    0.202E-01
DAV:   5    -0.265783796181E+02    0.48795E-03   -0.28781E-03   468   0.147E-01    0.607E-02
DAV:   6    -0.265785755244E+02   -0.19591E-03   -0.71454E-05   312   0.246E-02    0.382E-02
DAV:   7    -0.265788626073E+02   -0.28708E-03   -0.65289E-05   308   0.216E-02    0.139E-02
DAV:   8    -0.265791277495E+02   -0.26514E-03   -0.18578E-05   320   0.119E-02    0.440E-03
DAV:   9    -0.265793386935E+02   -0.21094E-03   -0.59111E-06   320   0.549E-03    0.243E-03
DAV:  10    -0.265794841237E+02   -0.14543E-03   -0.22504E-06   304   0.281E-03    0.161E-03
DAV:  11    -0.265797039385E+02   -0.21981E-03   -0.61649E-06   320   0.293E-03    0.118E-03
DAV:  12    -0.265798403328E+02   -0.13639E-03   -0.38714E-06   320   0.207E-03    0.801E-04
DAV:  13    -0.265799126193E+02   -0.72287E-04   -0.16154E-06   304   0.132E-03
  17 F= -.26579913E+02 E0= -.26579913E+02  d E =-.790820E-01  mag=     1.0000
 curvature: -23.08 expect dE=-0.144E+00 dE for cont linesearch -0.481E-03
 trial: gam= 0.43319 g(F)=  0.623E-02 g(S)=  0.000E+00 ort =-0.818E-03 (trialstep = 0.941E+01)
 search vector abs. value=  0.115E-01
 bond charge predicted
       N       E                     dE             d eps       ncg     rms          rms(c)
DAV:   1    -0.265898857981E+02   -0.10045E-01   -0.68859E+01   432   0.216E+01    0.365E-01
DAV:   2    -0.266228854579E+02   -0.33000E-01   -0.33095E-01   452   0.210E+00    0.317E-01
DAV:   3    -0.266226257714E+02    0.25969E-03   -0.54395E-03   488   0.263E-01    0.223E-01
DAV:   4    -0.266216934930E+02    0.93228E-03   -0.16135E-03   472   0.123E-01    0.111E-01
DAV:   5    -0.266215683191E+02    0.12517E-03   -0.71902E-04   480   0.756E-02    0.362E-02
DAV:   6    -0.266216407988E+02   -0.72480E-04   -0.28658E-05   296   0.147E-02
  18 F= -.26621641E+02 E0= -.26621641E+02  d E =-.417282E-01  mag=     1.0000
 trial-energy change:   -0.041728  1 .order   -0.042593   -0.055282   -0.029904
 step:  20.5040(harm= 20.5040)  dis= 0.06882  next Energy=   -26.640124 (dE=-0.602E-01)
 bond charge predicted
       N       E                     dE             d eps       ncg     rms          rms(c)
DAV:   1    -0.265937769694E+02    0.27791E-01   -0.95722E+01   432   0.254E+01    0.426E-01
DAV:   2    -0.266396723459E+02   -0.45895E-01   -0.46137E-01   460   0.248E+00    0.361E-01
DAV:   3    -0.266393177984E+02    0.35455E-03   -0.75606E-03   488   0.310E-01    0.253E-01
DAV:   4    -0.266381999709E+02    0.11178E-02   -0.20123E-03   460   0.138E-01    0.129E-01
DAV:   5    -0.266381770578E+02    0.22913E-04   -0.10237E-03   476   0.892E-02    0.415E-02
DAV:   6    -0.266383261849E+02   -0.14913E-03   -0.40123E-05   304   0.173E-02    0.265E-02
DAV:   7    -0.266385646624E+02   -0.23848E-03   -0.50555E-05   320   0.188E-02    0.845E-03
DAV:   8    -0.266388005492E+02   -0.23589E-03   -0.12177E-05   320   0.992E-03    0.303E-03
DAV:   9    -0.266389787551E+02   -0.17821E-03   -0.40983E-06   304   0.482E-03    0.219E-03
DAV:  10    -0.266391317810E+02   -0.15303E-03   -0.25809E-06   304   0.263E-03    0.145E-03
DAV:  11    -0.266393640024E+02   -0.23222E-03   -0.68065E-06   320   0.323E-03    0.113E-03
DAV:  12    -0.266394471697E+02   -0.83167E-04   -0.17639E-06   312   0.175E-03
  19 F= -.26639447E+02 E0= -.26639447E+02  d E =-.595346E-01  mag=     1.0000
 curvature: -20.14 expect dE=-0.618E-01 dE for cont linesearch -0.596E-05
 trial: gam= 0.44845 g(F)=  0.307E-02 g(S)=  0.000E+00 ort =-0.584E-04 (trialstep = 0.116E+02)
 search vector abs. value=  0.533E-02
 bond charge predicted
       N       E                     dE             d eps       ncg     rms          rms(c)
DAV:   1    -0.266460266906E+02   -0.66627E-02   -0.48506E+01   432   0.180E+01    0.291E-01
DAV:   2    -0.266697776965E+02   -0.23751E-01   -0.23382E-01   460   0.174E+00    0.218E-01
DAV:   3    -0.266695747787E+02    0.20292E-03   -0.36538E-03   480   0.210E-01    0.157E-01
DAV:   4    -0.266690666579E+02    0.50812E-03   -0.11265E-03   464   0.963E-02    0.655E-02
DAV:   5    -0.266690567217E+02    0.99362E-05   -0.36470E-04   440   0.555E-02
  20 F= -.26669057E+02 E0= -.26669057E+02  d E =-.296096E-01  mag=     1.0000
 trial-energy change:   -0.029610  1 .order   -0.029992   -0.035370   -0.024615
 step:  38.2519(harm= 38.2519)  dis= 0.07719  next Energy=   -26.697609 (dE=-0.582E-01)
 bond charge predicted
       N       E                     dE             d eps       ncg     rms          rms(c)
DAV:   1    -0.265629503574E+02    0.10612E+00   -0.25688E+02   432   0.418E+01    0.828E-01
DAV:   2    -0.266889726320E+02   -0.12602E+00   -0.12625E+00   464   0.408E+00    0.515E-01
DAV:   3    -0.266877168258E+02    0.12558E-02   -0.20216E-02   480   0.501E-01    0.352E-01
DAV:   4    -0.266855531070E+02    0.21637E-02   -0.53935E-03   460   0.211E-01    0.144E-01
DAV:   5    -0.266856544709E+02   -0.10136E-03   -0.13739E-03   476   0.108E-01    0.449E-02
DAV:   6    -0.266858024150E+02   -0.14794E-03   -0.86409E-05   312   0.270E-02    0.271E-02
DAV:   7    -0.266860122059E+02   -0.20979E-03   -0.52933E-05   312   0.196E-02    0.891E-03
DAV:   8    -0.266861771754E+02   -0.16497E-03   -0.86849E-06   328   0.859E-03    0.356E-03
DAV:   9    -0.266863224526E+02   -0.14528E-03   -0.40293E-06   304   0.460E-03    0.219E-03
DAV:  10    -0.266864361341E+02   -0.11368E-03   -0.26080E-06   312   0.254E-03    0.149E-03
DAV:  11    -0.266866183748E+02   -0.18224E-03   -0.86359E-06   300   0.327E-03    0.119E-03
DAV:  12    -0.266866808658E+02   -0.62491E-04   -0.20024E-06   320   0.202E-03
  21 F= -.26686681E+02 E0= -.26686681E+02  d E =-.472337E-01  mag=     1.0000
 curvature: -33.55 expect dE=-0.271E+00 dE for cont linesearch -0.440E-02
 ZBRENT: interpolating
 opt :  30.7095  next Energy=   -26.689836 (dE=-0.504E-01)
 bond charge predicted
       N       E                     dE             d eps       ncg     rms          rms(c)
DAV:   1    -0.266802311855E+02    0.63872E-02   -0.20372E+01   436   0.117E+01    0.184E-01
DAV:   2    -0.266899488861E+02   -0.97177E-02   -0.97005E-02   472   0.112E+00    0.154E-01
DAV:   3    -0.266898798551E+02    0.69031E-04   -0.15002E-03   488   0.134E-01    0.112E-01
DAV:   4    -0.266896635044E+02    0.21635E-03   -0.53982E-04   472   0.662E-02    0.479E-02
DAV:   5    -0.266896642091E+02   -0.70461E-06   -0.14934E-04   312   0.371E-02
  22 F= -.26689664E+02 E0= -.26689664E+02  d E =-.502170E-01  mag=     1.0000
 curvature: -24.05 expect dE=-0.122E+00 dE for cont linesearch -0.111E-04
 trial: gam= 1.56005 g(F)=  0.507E-02 g(S)=  0.000E+00 ort =-0.497E-04 (trialstep = 0.460E+01)
 search vector abs. value=  0.179E-01
 bond charge predicted
       N       E                     dE             d eps       ncg     rms          rms(c)
DAV:   1    -0.266994387211E+02   -0.97752E-02   -0.25470E+01   432   0.130E+01    0.176E-01
DAV:   2    -0.267117642663E+02   -0.12326E-01   -0.12218E-01   464   0.126E+00    0.160E-01
DAV:   3    -0.267117007355E+02    0.63531E-04   -0.18874E-03   496   0.152E-01    0.119E-01
DAV:   4    -0.267114282357E+02    0.27250E-03   -0.47291E-04   456   0.629E-02    0.670E-02
DAV:   5    -0.267113878635E+02    0.40372E-04   -0.48778E-04   464   0.588E-02
  23 F= -.26711388E+02 E0= -.26711388E+02  d E =-.217237E-01  mag=     1.0000
 ZBRENT: can't locate minimum, use default step
 trial-energy change:   -0.021724  1 .order   -0.021690   -0.022979   -0.020401
 step:  18.4178(harm= 41.0488)  dis= 0.08534  next Energy=   -26.792094 (dE=-0.102E+00)
 bond charge predicted
       N       E                     dE             d eps       ncg     rms          rms(c)
DAV:   1    -0.266401152400E+02    0.71313E-01   -0.23149E+02   432   0.394E+01    0.699E-01
DAV:   2    -0.267547935574E+02   -0.11468E+00   -0.11426E+00   468   0.389E+00    0.493E-01
DAV:   3    -0.267538817183E+02    0.91184E-03   -0.18188E-02   480   0.477E-01    0.330E-01
DAV:   4    -0.267516918155E+02    0.21899E-02   -0.42396E-03   464   0.187E-01    0.169E-01
DAV:   5    -0.267515641145E+02    0.12770E-03   -0.24353E-03   464   0.134E-01    0.500E-02
DAV:   6    -0.267516532750E+02   -0.89160E-04   -0.85992E-05   328   0.263E-02
  24 F= -.26751653E+02 E0= -.26751653E+02  d E =-.619891E-01  mag=     1.0000
 curvature: -45.22 expect dE=-0.175E+00 dE for cont linesearch -0.765E-02
 ZBRENT: increasing intervall
 opt :  46.0445  next Energy=   -26.725408 (dE=-0.357E-01)
 bond charge predicted
       N       E                     dE             d eps       ncg     rms          rms(c)
DAV:   1    -0.262133468276E+02    0.53822E+00   -0.95882E+02   432   0.823E+01    0.218E+00
DAV:   2    -0.267208313352E+02   -0.50748E+00   -0.50063E+00   460   0.839E+00    0.119E+00
DAV:   3    -0.267170518845E+02    0.37795E-02   -0.86142E-02   476   0.108E+00    0.698E-01
DAV:   4    -0.267098121048E+02    0.72398E-02   -0.13695E-02   456   0.341E-01    0.399E-01
DAV:   5    -0.267092400773E+02    0.57203E-03   -0.87118E-03   460   0.258E-01    0.937E-02
DAV:   6    -0.267096518990E+02   -0.41182E-03   -0.27250E-04   344   0.534E-02    0.619E-02
DAV:   7    -0.267101763661E+02   -0.52447E-03   -0.97366E-05   328   0.274E-02    0.243E-02
DAV:   8    -0.267105684826E+02   -0.39212E-03   -0.20686E-05   320   0.134E-02    0.895E-03
DAV:   9    -0.267109683404E+02   -0.39986E-03   -0.12949E-05   312   0.748E-03    0.349E-03
DAV:  10    -0.267112100822E+02   -0.24174E-03   -0.54886E-06   316   0.392E-03    0.245E-03
DAV:  11    -0.267115172732E+02   -0.30719E-03   -0.94419E-06   304   0.357E-03    0.186E-03
DAV:  12    -0.267117598189E+02   -0.24255E-03   -0.94506E-06   312   0.368E-03    0.117E-03
DAV:  13    -0.267118463466E+02   -0.86528E-04   -0.25500E-06   312   0.193E-03
  25 F= -.26711846E+02 E0= -.26711846E+02  d E =-.221821E-01  mag=     1.0000
 curvature: 155.07 expect dE= 0.408E+01 dE for cont linesearch  0.233E+00
 ZBRENT: bracketing found
 ZBRENT: interpolating
 opt :  25.3637  next Energy=   -26.757698 (dE=-0.680E-01)
 bond charge predicted
       N       E                     dE             d eps       ncg     rms          rms(c)
DAV:   1    -0.265028553605E+02    0.20890E+00   -0.52667E+02   432   0.603E+01    0.103E+00
DAV:   2    -0.267648128175E+02   -0.26196E+00   -0.25748E+00   472   0.594E+00    0.958E-01
DAV:   3    -0.267641717122E+02    0.64111E-03   -0.41103E-02   488   0.715E-01    0.666E-01
DAV:   4    -0.267587545309E+02    0.54172E-02   -0.82660E-03   472   0.271E-01    0.431E-01
DAV:   5    -0.267577520020E+02    0.10025E-02   -0.84331E-03   472   0.242E-01    0.136E-01
DAV:   6    -0.267579269757E+02   -0.17497E-03   -0.13938E-04   336   0.367E-02    0.823E-02
DAV:   7    -0.267581554393E+02   -0.22846E-03   -0.10334E-04   312   0.292E-02    0.321E-02
DAV:   8    -0.267583341569E+02   -0.17872E-03   -0.34544E-05   328   0.183E-02    0.116E-02
DAV:   9    -0.267585160765E+02   -0.18192E-03   -0.93637E-06   312   0.898E-03    0.380E-03
DAV:  10    -0.267586225461E+02   -0.10647E-03   -0.26206E-06   312   0.396E-03    0.203E-03
DAV:  11    -0.267587198514E+02   -0.97305E-04   -0.19827E-06   304   0.216E-03
  26 F= -.26758720E+02 E0= -.26758720E+02  d E =-.690556E-01  mag=     1.0000
 curvature:  -4.03 expect dE=-0.247E-01 dE for cont linesearch -0.210E-04
 trial: gam= 0.97055 g(F)=  0.613E-02 g(S)=  0.000E+00 ort = 0.305E-03 (trialstep = 0.665E+01)
 search vector abs. value=  0.236E-01
 bond charge predicted
       N       E                     dE             d eps       ncg     rms          rms(c)
DAV:   1    -0.267654404173E+02   -0.68179E-02   -0.70018E+01   436   0.215E+01    0.292E-01
DAV:   2    -0.267997505563E+02   -0.34310E-01   -0.33656E-01   480   0.209E+00    0.256E-01
DAV:   3    -0.267995808831E+02    0.16967E-03   -0.51922E-03   496   0.248E-01    0.189E-01
DAV:   4    -0.267988463969E+02    0.73449E-03   -0.10789E-03   468   0.960E-02    0.109E-01
DAV:   5    -0.267986692682E+02    0.17713E-03   -0.12657E-03   464   0.935E-02    0.341E-02
DAV:   6    -0.267986979880E+02   -0.28720E-04   -0.18137E-05   304   0.134E-02
  27 F= -.26798698E+02 E0= -.26798698E+02  d E =-.399781E-01  mag=     1.0000
 ZBRENT: can't locate minimum, use default step
 trial-energy change:   -0.039978  1 .order   -0.040301   -0.042712   -0.037890
 step:  26.5812(harm= 58.8578)  dis= 0.15187  next Energy=   -26.947872 (dE=-0.189E+00)
 bond charge predicted
       N       E                     dE             d eps       ncg     rms          rms(c)
DAV:   1    -0.265493811155E+02    0.24929E+00   -0.65040E+02   432   0.669E+01    0.141E+00
DAV:   2    -0.268800885383E+02   -0.33071E+00   -0.32812E+00   460   0.668E+00    0.930E-01
DAV:   3    -0.268779942963E+02    0.20942E-02   -0.53824E-02   480   0.820E-01    0.583E-01
DAV:   4    -0.268726130940E+02    0.53812E-02   -0.81248E-03   460   0.266E-01    0.364E-01
DAV:   5    -0.268715171857E+02    0.10959E-02   -0.76487E-03   460   0.234E-01    0.958E-02
DAV:   6    -0.268718335196E+02   -0.31633E-03   -0.13014E-04   336   0.396E-02    0.603E-02
DAV:   7    -0.268722398221E+02   -0.40630E-03   -0.57575E-05   312   0.207E-02    0.253E-02
DAV:   8    -0.268725619129E+02   -0.32209E-03   -0.18517E-05   320   0.128E-02    0.931E-03
DAV:   9    -0.268728999620E+02   -0.33805E-03   -0.88163E-06   312   0.633E-03    0.296E-03
DAV:  10    -0.268730984444E+02   -0.19848E-03   -0.33123E-06   312   0.332E-03    0.199E-03
DAV:  11    -0.268732765865E+02   -0.17814E-03   -0.31182E-06   312   0.231E-03    0.151E-03
DAV:  12    -0.268735154178E+02   -0.23883E-03   -0.70296E-06   304   0.278E-03    0.104E-03
DAV:  13    -0.268735795014E+02   -0.64084E-04   -0.11321E-06   320   0.131E-03
  28 F= -.26873580E+02 E0= -.26873580E+02  d E =-.114860E+00  mag=     1.0000
 curvature: -66.71 expect dE=-0.394E+00 dE for cont linesearch -0.652E-02
 ZBRENT: extrapolating
 opt :  33.8165  next Energy=   -26.879072 (dE=-0.120E+00)
 bond charge predicted
       N       E                     dE             d eps       ncg     rms          rms(c)
DAV:   1    -0.268371856577E+02    0.36330E-01   -0.83128E+01   432   0.234E+01    0.355E-01
DAV:   2    -0.268773372171E+02   -0.40152E-01   -0.40031E-01   464   0.228E+00    0.295E-01
DAV:   3    -0.268770396746E+02    0.29754E-03   -0.63279E-03   488   0.277E-01    0.208E-01
DAV:   4    -0.268761403528E+02    0.89932E-03   -0.15181E-03   464   0.114E-01    0.114E-01
DAV:   5    -0.268760204695E+02    0.11988E-03   -0.11585E-03   464   0.911E-02    0.361E-02
DAV:   6    -0.268760683456E+02   -0.47876E-04   -0.27159E-05   296   0.151E-02
  29 F= -.26876068E+02 E0= -.26876068E+02  d E =-.117348E+00  mag=     1.0000
 curvature: -56.19 expect dE=-0.506E+00 dE for cont linesearch -0.115E-02
 trial: gam= 1.39990 g(F)=  0.901E-02 g(S)=  0.000E+00 ort =-0.694E-03 (trialstep = 0.535E+01)
 search vector abs. value=  0.533E-01
 bond charge predicted
       N       E                     dE             d eps       ncg     rms          rms(c)
DAV:   1    -0.268596858749E+02    0.16335E-01   -0.10280E+02   432   0.260E+01    0.382E-01
DAV:   2    -0.269096679450E+02   -0.49982E-01   -0.49709E-01   456   0.253E+00    0.334E-01
DAV:   3    -0.269094369467E+02    0.23100E-03   -0.77986E-03   480   0.305E-01    0.237E-01
DAV:   4    -0.269084490082E+02    0.98794E-03   -0.16453E-03   464   0.118E-01    0.137E-01
DAV:   5    -0.269083754832E+02    0.73525E-04   -0.15615E-03   452   0.105E-01    0.432E-02
DAV:   6    -0.269084515149E+02   -0.76032E-04   -0.27181E-05   304   0.156E-02
  30 F= -.26908452E+02 E0= -.26908452E+02  d E =-.323832E-01  mag=     1.0000
 trial-energy change:   -0.032383  1 .order   -0.032764   -0.042982   -0.022547
 step:  11.2451(harm= 11.2451)  dis= 0.09826  next Energy=   -26.921271 (dE=-0.452E-01)
 bond charge predicted
       N       E                     dE             d eps       ncg     rms          rms(c)
DAV:   1    -0.268548111000E+02    0.53564E-01   -0.12537E+02   432   0.287E+01    0.466E-01
DAV:   2    -0.269169920390E+02   -0.62181E-01   -0.61110E-01   456   0.281E+00    0.388E-01
DAV:   3    -0.269167282599E+02    0.26378E-03   -0.96875E-03   480   0.340E-01    0.267E-01
DAV:   4    -0.269155661277E+02    0.11621E-02   -0.23393E-03   460   0.141E-01    0.145E-01
DAV:   5    -0.269155773610E+02   -0.11233E-04   -0.14552E-03   452   0.104E-01    0.458E-02
DAV:   6    -0.269156607890E+02   -0.83428E-04   -0.36147E-05   312   0.171E-02
  31 F= -.26915661E+02 E0= -.26915661E+02  d E =-.395924E-01  mag=     1.0000
 curvature: -37.26 expect dE=-0.254E+00 dE for cont linesearch -0.266E-02
 ZBRENT: interpolating
 opt :   9.3798  next Energy=   -26.917480 (dE=-0.414E-01)
 bond charge predicted
       N       E                     dE             d eps       ncg     rms          rms(c)
DAV:   1    -0.269116607721E+02    0.39166E-02   -0.12465E+01   432   0.902E+00    0.130E-01
DAV:   2    -0.269178032890E+02   -0.61425E-02   -0.59672E-02   472   0.874E-01    0.122E-01
DAV:   3    -0.269178309423E+02   -0.27653E-04   -0.93802E-04   496   0.105E-01
  32 F= -.26917831E+02 E0= -.26917831E+02  d E =-.417626E-01  mag=     1.0000
 curvature: -25.48 expect dE=-0.157E+00 dE for cont linesearch -0.627E-05
 trial: gam= 0.04841 g(F)=  0.614E-02 g(S)=  0.000E+00 ort = 0.115E-03 (trialstep = 0.615E+01)
 search vector abs. value=  0.628E-02
 bond charge predicted
       N       E                     dE             d eps       ncg     rms          rms(c)
DAV:   1    -0.269422317951E+02   -0.24429E-01   -0.16009E+01   448   0.104E+01    0.240E-01
DAV:   2    -0.269498612738E+02   -0.76295E-02   -0.78077E-02   464   0.102E+00    0.191E-01
DAV:   3    -0.269498334673E+02    0.27806E-04   -0.14252E-03   480   0.139E-01    0.122E-01
DAV:   4    -0.269497058401E+02    0.12763E-03   -0.46590E-04   464   0.691E-02    0.439E-02
DAV:   5    -0.269497214940E+02   -0.15654E-04   -0.46236E-05   312   0.259E-02
  33 F= -.26949721E+02 E0= -.26949721E+02  d E =-.318906E-01  mag=     1.0000
 trial-energy change:   -0.031891  1 .order   -0.032121   -0.037830   -0.026412
 step:  20.3875(harm= 20.3875)  dis= 0.04936  next Energy=   -26.980503 (dE=-0.627E-01)
 bond charge predicted
       N       E                     dE             d eps       ncg     rms          rms(c)
DAV:   1    -0.269407098952E+02    0.89959E-02   -0.85975E+01   432   0.241E+01    0.525E-01
DAV:   2    -0.269814699267E+02   -0.40760E-01   -0.41819E-01   460   0.237E+00    0.431E-01
DAV:   3    -0.269812572294E+02    0.21270E-03   -0.74298E-03   480   0.316E-01    0.283E-01
DAV:   4    -0.269804029703E+02    0.85426E-03   -0.23290E-03   464   0.154E-01    0.116E-01
DAV:   5    -0.269804394568E+02   -0.36486E-04   -0.38792E-04   432   0.657E-02
  34 F= -.26980439E+02 E0= -.26980439E+02  d E =-.626085E-01  mag=     1.0000
 curvature: -10.41 expect dE=-0.458E-01 dE for cont linesearch -0.994E-04
 trial: gam= 0.68201 g(F)=  0.440E-02 g(S)=  0.000E+00 ort = 0.245E-03 (trialstep = 0.738E+01)
 search vector abs. value=  0.766E-02
 bond charge predicted
       N       E                     dE             d eps       ncg     rms          rms(c)
DAV:   1    -0.269961158497E+02   -0.15713E-01   -0.27968E+01   440   0.137E+01    0.194E-01
DAV:   2    -0.270095512666E+02   -0.13435E-01   -0.13430E-01   460   0.133E+00    0.167E-01
DAV:   3    -0.270095073954E+02    0.43871E-04   -0.21737E-03   480   0.170E-01    0.119E-01
DAV:   4    -0.270092776718E+02    0.22972E-03   -0.33819E-04   352   0.579E-02    0.721E-02
DAV:   5    -0.270093067050E+02   -0.29033E-04   -0.58173E-04   464   0.693E-02
  35 F= -.27009307E+02 E0= -.27009307E+02  d E =-.288672E-01  mag=     1.0000
 trial-energy change:   -0.028867  1 .order   -0.029408   -0.033718   -0.025099
 step:  28.8762(harm= 28.8762)  dis= 0.08329  next Energy=   -27.046393 (dE=-0.660E-01)
 bond charge predicted
       N       E                     dE             d eps       ncg     rms          rms(c)
DAV:   1    -0.269279077843E+02    0.81370E-01   -0.23976E+02   432   0.405E+01    0.635E-01
DAV:   2    -0.270429926197E+02   -0.11508E+00   -0.11548E+00   460   0.394E+00    0.506E-01
DAV:   3    -0.270423529783E+02    0.63964E-03   -0.18661E-02   488   0.499E-01    0.348E-01
DAV:   4    -0.270402984131E+02    0.20546E-02   -0.27569E-03   464   0.162E-01    0.218E-01
DAV:   5    -0.270398217745E+02    0.47664E-03   -0.36128E-03   464   0.168E-01    0.604E-02
DAV:   6    -0.270400198804E+02   -0.19811E-03   -0.67019E-05   320   0.264E-02    0.387E-02
DAV:   7    -0.270402996280E+02   -0.27975E-03   -0.47196E-05   316   0.179E-02    0.159E-02
DAV:   8    -0.270405662715E+02   -0.26664E-03   -0.18600E-05   328   0.120E-02    0.504E-03
DAV:   9    -0.270408100456E+02   -0.24377E-03   -0.65520E-06   320   0.582E-03    0.244E-03
DAV:  10    -0.270409700634E+02   -0.16002E-03   -0.28177E-06   312   0.309E-03    0.168E-03
DAV:  11    -0.270411710794E+02   -0.20102E-03   -0.51221E-06   312   0.309E-03    0.116E-03
DAV:  12    -0.270413314572E+02   -0.16038E-03   -0.54602E-06   320   0.245E-03    0.689E-04
DAV:  13    -0.270413704741E+02   -0.39017E-04   -0.75809E-07   304   0.118E-03
  36 F= -.27041370E+02 E0= -.27041370E+02  d E =-.609310E-01  mag=     1.0000
 curvature: -24.20 expect dE=-0.494E-01 dE for cont linesearch -0.374E-03
 trial: gam= 0.48858 g(F)=  0.204E-02 g(S)=  0.000E+00 ort =-0.344E-03 (trialstep = 0.117E+02)
 search vector abs. value=  0.353E-02
 bond charge predicted
       N       E                     dE             d eps       ncg     rms          rms(c)
DAV:   1    -0.270441370793E+02   -0.28056E-02   -0.32432E+01   432   0.147E+01    0.241E-01
DAV:   2    -0.270596823473E+02   -0.15545E-01   -0.15620E-01   460   0.142E+00    0.187E-01
DAV:   3    -0.270595447412E+02    0.13761E-03   -0.24279E-03   488   0.171E-01    0.133E-01
DAV:   4    -0.270592254357E+02    0.31931E-03   -0.79202E-04   464   0.821E-02    0.560E-02
DAV:   5    -0.270592308556E+02   -0.54199E-05   -0.21696E-04   328   0.447E-02
  37 F= -.27059231E+02 E0= -.27059231E+02  d E =-.178604E-01  mag=     1.0000
 trial-energy change:   -0.017860  1 .order   -0.018400   -0.021898   -0.014902
 step:  36.5597(harm= 36.5597)  dis= 0.10745  next Energy=   -27.075641 (dE=-0.343E-01)
 bond charge predicted
       N       E                     dE             d eps       ncg     rms          rms(c)
DAV:   1    -0.270002724153E+02    0.58953E-01   -0.14816E+02   432   0.315E+01    0.602E-01
DAV:   2    -0.270733578249E+02   -0.73085E-01   -0.72425E-01   468   0.307E+00    0.399E-01
DAV:   3    -0.270727886643E+02    0.56916E-03   -0.11442E-02   476   0.369E-01    0.272E-01
DAV:   4    -0.270715896422E+02    0.11990E-02   -0.34609E-03   472   0.173E-01    0.107E-01
DAV:   5    -0.270716934109E+02   -0.10377E-03   -0.71407E-04   472   0.805E-02    0.350E-02
DAV:   6    -0.270717617512E+02   -0.68340E-04   -0.67129E-05   300   0.221E-02
  38 F= -.27071762E+02 E0= -.27071762E+02  d E =-.303913E-01  mag=     1.0000
 curvature: -34.46 expect dE=-0.125E+00 dE for cont linesearch -0.163E-03
 trial: gam= 1.70613 g(F)=  0.363E-02 g(S)=  0.000E+00 ort =-0.129E-03 (trialstep = 0.437E+01)
 search vector abs. value=  0.135E-01
 bond charge predicted
       N       E                     dE             d eps       ncg     rms          rms(c)
DAV:   1    -0.270777419154E+02   -0.60485E-02   -0.17267E+01   432   0.107E+01    0.138E-01
DAV:   2    -0.270865034302E+02   -0.87615E-02   -0.82998E-02   472   0.103E+00    0.120E-01
DAV:   3    -0.270864869857E+02    0.16445E-04   -0.12116E-03   480   0.116E-01    0.928E-02
DAV:   4    -0.270863317216E+02    0.15526E-03   -0.32355E-04   400   0.519E-02    0.461E-02
DAV:   5    -0.270863651757E+02   -0.33454E-04   -0.26596E-04   352   0.462E-02
  39 F= -.27086365E+02 E0= -.27086365E+02  d E =-.146034E-01  mag=     1.0000
 ZBRENT: can't locate minimum, use default step
 trial-energy change:   -0.014603  1 .order   -0.014704   -0.014897   -0.014510
 step:  17.4706(harm=168.1220)  dis= 0.11170  next Energy=   -27.358477 (dE=-0.287E+00)
 bond charge predicted
       N       E                     dE             d eps       ncg     rms          rms(c)
DAV:   1    -0.270443560823E+02    0.41976E-01   -0.15714E+02   432   0.323E+01    0.515E-01
DAV:   2    -0.271223178251E+02   -0.77962E-01   -0.76101E-01   472   0.312E+00    0.364E-01
DAV:   3    -0.271216667059E+02    0.65112E-03   -0.11433E-02   480   0.355E-01    0.263E-01
DAV:   4    -0.271202133955E+02    0.14533E-02   -0.27915E-03   460   0.150E-01    0.126E-01
DAV:   5    -0.271201314566E+02    0.81939E-04   -0.14125E-03   472   0.102E-01    0.362E-02
DAV:   6    -0.271201979631E+02   -0.66507E-04   -0.36614E-05   304   0.179E-02
  40 F= -.27120198E+02 E0= -.27120198E+02  d E =-.484362E-01  mag=     1.0000
 curvature: -51.03 expect dE=-0.172E+00 dE for cont linesearch -0.156E-01
 ZBRENT: increasing intervall
 opt :  43.6765  next Energy=   -27.139361 (dE=-0.676E-01)
 bond charge predicted
       N       E                     dE             d eps       ncg     rms          rms(c)
DAV:   1    -0.267984217203E+02    0.32171E+00   -0.65150E+02   432   0.670E+01    0.155E+00
DAV:   2    -0.271375058872E+02   -0.33908E+00   -0.33225E+00   480   0.663E+00    0.841E-01
DAV:   3    -0.271359029113E+02    0.16030E-02   -0.52814E-02   464   0.777E-01    0.537E-01
DAV:   4    -0.271314869499E+02    0.44160E-02   -0.76788E-03   464   0.260E-01    0.314E-01
DAV:   5    -0.271308075911E+02    0.67936E-03   -0.56493E-03   456   0.205E-01    0.757E-02
DAV:   6    -0.271310408279E+02   -0.23324E-03   -0.11283E-04   320   0.358E-02    0.456E-02
DAV:   7    -0.271312810397E+02   -0.24021E-03   -0.41400E-05   308   0.170E-02    0.193E-02
DAV:   8    -0.271314737693E+02   -0.19273E-03   -0.14759E-05   320   0.104E-02    0.707E-03
DAV:   9    -0.271316485967E+02   -0.17483E-03   -0.87781E-06   296   0.592E-03    0.298E-03
DAV:  10    -0.271317592223E+02   -0.11063E-03   -0.44067E-06   312   0.341E-03    0.227E-03
DAV:  11    -0.271318838180E+02   -0.12460E-03   -0.67237E-06   296   0.339E-03    0.168E-03
DAV:  12    -0.271319818026E+02   -0.97985E-04   -0.59905E-06   320   0.268E-03
  41 F= -.27131982E+02 E0= -.27131982E+02  d E =-.602201E-01  mag=     1.0000
 curvature: -62.87 expect dE=-0.909E+00 dE for cont linesearch -0.463E-02
 ZBRENT: bracketing found
 ZBRENT: interpolating
 opt :  35.0395  next Energy=   -27.136284 (dE=-0.645E-01)
 bond charge predicted
       N       E                     dE             d eps       ncg     rms          rms(c)
DAV:   1    -0.271028450788E+02    0.29039E-01   -0.67853E+01   432   0.212E+01    0.276E-01
DAV:   2    -0.271371283021E+02   -0.34283E-01   -0.32921E-01   448   0.205E+00    0.260E-01
DAV:   3    -0.271371581471E+02   -0.29845E-04   -0.48673E-03   488   0.234E-01    0.202E-01
DAV:   4    -0.271364610680E+02    0.69708E-03   -0.11030E-03   448   0.950E-02    0.113E-01
DAV:   5    -0.271363781637E+02    0.82904E-04   -0.11926E-03   464   0.933E-02    0.371E-02
DAV:   6    -0.271363918027E+02   -0.13639E-04   -0.20612E-05   304   0.140E-02
  42 F= -.27136392E+02 E0= -.27136392E+02  d E =-.646301E-01  mag=     1.0000
 curvature: -58.41 expect dE=-0.519E+00 dE for cont linesearch -0.124E-03
 trial: gam= 2.24413 g(F)=  0.888E-02 g(S)=  0.000E+00 ort =-0.169E-03 (trialstep = 0.186E+01)
 search vector abs. value=  0.760E-01
 bond charge predicted
       N       E                     dE             d eps       ncg     rms          rms(c)
DAV:   1    -0.271437522028E+02   -0.73740E-02   -0.17756E+01   444   0.107E+01    0.126E-01
DAV:   2    -0.271526464661E+02   -0.88943E-02   -0.85063E-02   464   0.103E+00    0.116E-01
DAV:   3    -0.271526429910E+02    0.34750E-05   -0.12217E-03   480   0.113E-01    0.949E-02
DAV:   4    -0.271524680565E+02    0.17493E-03   -0.33411E-04   400   0.505E-02    0.450E-02
DAV:   5    -0.271524665984E+02    0.14581E-05   -0.28425E-04   376   0.466E-02
  43 F= -.27152467E+02 E0= -.27152467E+02  d E =-.160748E-01  mag=     1.0000
 ZBRENT: can't locate minimum, use default step
 trial-energy change:   -0.016075  1 .order   -0.016273   -0.015827   -0.016718
 step:   7.4503(harm=  7.4503)  dis= 0.10978  next Energy=   -27.206832 (dE=-0.704E-01)
 bond charge predicted
       N       E                     dE             d eps       ncg     rms          rms(c)
DAV:   1    -0.271165256837E+02    0.35942E-01   -0.16165E+02   432   0.326E+01    0.482E-01
DAV:   2    -0.271978520372E+02   -0.81326E-01   -0.78938E-01   460   0.315E+00    0.361E-01
DAV:   3    -0.271974626804E+02    0.38936E-03   -0.11578E-02   472   0.352E-01    0.267E-01
DAV:   4    -0.271960647099E+02    0.13980E-02   -0.23311E-03   464   0.132E-01    0.140E-01
DAV:   5    -0.271958707236E+02    0.19399E-03   -0.17788E-03   472   0.111E-01    0.393E-02
DAV:   6    -0.271959200185E+02   -0.49295E-04   -0.28714E-05   304   0.175E-02
  44 F= -.27195920E+02 E0= -.27195920E+02  d E =-.595282E-01  mag=     1.0000
 curvature: -51.09 expect dE=-0.378E+00 dE for cont linesearch -0.310E-01
 ZBRENT: increasing intervall
 opt :  18.6256  next Energy=   -27.247403 (dE=-0.111E+00)
 bond charge predicted
       N       E                     dE             d eps       ncg     rms          rms(c)
DAV:   1    -0.268713468421E+02    0.32452E+00   -0.67337E+02   432   0.679E+01    0.151E+00
DAV:   2    -0.272230145152E+02   -0.35167E+00   -0.35019E+00   476   0.677E+00    0.891E-01
DAV:   3    -0.272215902621E+02    0.14243E-02   -0.54707E-02   464   0.785E-01    0.570E-01
DAV:   4    -0.272172318562E+02    0.43584E-02   -0.70266E-03   468   0.240E-01    0.353E-01
DAV:   5    -0.272163648782E+02    0.86698E-03   -0.63278E-03   460   0.214E-01    0.909E-02
DAV:   6    -0.272165820846E+02   -0.21721E-03   -0.10759E-04   316   0.359E-02    0.527E-02
DAV:   7    -0.272168121562E+02   -0.23007E-03   -0.46819E-05   304   0.189E-02    0.217E-02
DAV:   8    -0.272169868845E+02   -0.17473E-03   -0.21355E-05   292   0.128E-02    0.802E-03
DAV:   9    -0.272171625874E+02   -0.17570E-03   -0.10910E-05   304   0.754E-03    0.369E-03
DAV:  10    -0.272172677486E+02   -0.10516E-03   -0.46342E-06   304   0.352E-03    0.250E-03
DAV:  11    -0.272173691376E+02   -0.10139E-03   -0.48662E-06   296   0.319E-03    0.186E-03
DAV:  12    -0.272174961031E+02   -0.12697E-03   -0.96366E-06   296   0.316E-03    0.984E-04
DAV:  13    -0.272175252955E+02   -0.29192E-04   -0.11571E-06   312   0.140E-03
  45 F= -.27217525E+02 E0= -.27217525E+02  d E =-.811335E-01  mag=     1.0000
 curvature: -84.82 expect dE=-0.786E+00 dE for cont linesearch -0.147E-01
 ZBRENT: bracketing found
 ZBRENT: interpolating
 opt :  14.7319  next Energy=   -27.224596 (dE=-0.882E-01)
 bond charge predicted
       N       E                     dE             d eps       ncg     rms          rms(c)
DAV:   1    -0.271847636594E+02    0.32732E-01   -0.78009E+01   432   0.225E+01    0.324E-01
DAV:   2    -0.272241813061E+02   -0.39418E-01   -0.37808E-01   464   0.216E+00    0.260E-01
DAV:   3    -0.272240701127E+02    0.11119E-03   -0.55160E-03   480   0.241E-01    0.202E-01
DAV:   4    -0.272233166612E+02    0.75345E-03   -0.17167E-03   448   0.114E-01    0.862E-02
DAV:   5    -0.272233188660E+02   -0.22047E-05   -0.68234E-04   472   0.723E-02
  46 F= -.27223319E+02 E0= -.27223319E+02  d E =-.869271E-01  mag=     1.0000
 curvature: -40.74 expect dE=-0.318E+00 dE for cont linesearch -0.418E-04
 trial: gam= 0.22009 g(F)=  0.780E-02 g(S)=  0.000E+00 ort = 0.279E-03 (trialstep = 0.444E+01)
 search vector abs. value=  0.116E-01
 bond charge predicted
       N       E                     dE             d eps       ncg     rms          rms(c)
DAV:   1    -0.272477236473E+02   -0.24407E-01   -0.15410E+01   440   0.101E+01    0.177E-01
DAV:   2    -0.272552560475E+02   -0.75324E-02   -0.75064E-02   460   0.986E-01    0.152E-01
DAV:   3    -0.272551944395E+02    0.61608E-04   -0.11920E-03   472   0.117E-01    0.108E-01
DAV:   4    -0.272550231460E+02    0.17129E-03   -0.49435E-04   456   0.663E-02    0.447E-02
DAV:   5    -0.272550372484E+02   -0.14102E-04   -0.94917E-05   308   0.310E-02
  47 F= -.27255037E+02 E0= -.27255037E+02  d E =-.317184E-01  mag=     1.0000
 ZBRENT: can't locate minimum, use default step
 trial-energy change:   -0.031718  1 .order   -0.031813   -0.034875   -0.028751
 step:  17.7457(harm= 25.2675)  dis= 0.05884  next Energy=   -27.322633 (dE=-0.993E-01)
 bond charge predicted
       N       E                     dE             d eps       ncg     rms          rms(c)
DAV:   1    -0.272416400118E+02    0.13383E-01   -0.13938E+02   432   0.307E+01    0.554E-01
DAV:   2    -0.273110829632E+02   -0.69443E-01   -0.69110E-01   444   0.301E+00    0.452E-01
DAV:   3    -0.273107923674E+02    0.29060E-03   -0.11036E-02   480   0.360E-01    0.314E-01
DAV:   4    -0.273094399633E+02    0.13524E-02   -0.35354E-03   448   0.181E-01    0.139E-01
DAV:   5    -0.273094848097E+02   -0.44846E-04   -0.98053E-04   480   0.915E-02
  48 F= -.27309485E+02 E0= -.27309485E+02  d E =-.861659E-01  mag=     1.0000
 curvature: -16.22 expect dE=-0.879E-01 dE for cont linesearch -0.569E-02
 ZBRENT: extrapolating
 opt :  23.7651  next Energy=   -27.315559 (dE=-0.922E-01)
 bond charge predicted
       N       E                     dE             d eps       ncg     rms          rms(c)
DAV:   1    -0.273008446529E+02    0.85953E-02   -0.28337E+01   432   0.138E+01    0.250E-01
DAV:   2    -0.273147861604E+02   -0.13942E-01   -0.14066E-01   448   0.135E+00    0.196E-01
DAV:   3    -0.273147422893E+02    0.43871E-04   -0.22427E-03   480   0.161E-01    0.133E-01
DAV:   4    -0.273145746543E+02    0.16764E-03   -0.68143E-04   448   0.824E-02    0.550E-02
DAV:   5    -0.273146662303E+02   -0.91576E-04   -0.14725E-04   296   0.391E-02
  49 F= -.27314666E+02 E0= -.27314666E+02  d E =-.913474E-01  mag=     1.0000
 curvature: -17.30 expect dE=-0.142E+00 dE for cont linesearch -0.122E-04
 trial: gam= 0.95314 g(F)=  0.821E-02 g(S)=  0.000E+00 ort =-0.905E-04 (trialstep = 0.518E+01)
 search vector abs. value=  0.186E-01
 bond charge predicted
       N       E                     dE             d eps       ncg     rms          rms(c)
DAV:   1    -0.273358493317E+02   -0.21275E-01   -0.33690E+01   432   0.149E+01    0.216E-01
DAV:   2    -0.273526985694E+02   -0.16849E-01   -0.16523E-01   448   0.145E+00    0.178E-01
DAV:   3    -0.273526282497E+02    0.70320E-04   -0.24683E-03   480   0.165E-01    0.134E-01
DAV:   4    -0.273523230082E+02    0.30524E-03   -0.75475E-04   452   0.776E-02    0.598E-02
DAV:   5    -0.273523847591E+02   -0.61751E-04   -0.33457E-04   392   0.506E-02
  50 F= -.27352385E+02 E0= -.27352385E+02  d E =-.377185E-01  mag=     1.0000
 ZBRENT: can't locate minimum, use default step
 trial-energy change:   -0.037719  1 .order   -0.038178   -0.042124   -0.034232
 step:  20.7396(harm= 27.6753)  dis= 0.10921  next Energy=   -27.427088 (dE=-0.112E+00)
 bond charge predicted
       N       E                     dE             d eps       ncg     rms          rms(c)
DAV:   1    -0.272614815530E+02    0.90841E-01   -0.30875E+02   432   0.457E+01    0.797E-01
DAV:   2    -0.274172368078E+02   -0.15576E+00   -0.15547E+00   448   0.450E+00    0.572E-01
DAV:   3    -0.274163000888E+02    0.93672E-03   -0.24117E-02   480   0.530E-01    0.400E-01
DAV:   4    -0.274136638703E+02    0.26362E-02   -0.50232E-03   452   0.201E-01    0.207E-01
DAV:   5    -0.274135346430E+02    0.12923E-03   -0.30120E-03   456   0.148E-01    0.580E-02
DAV:   6    -0.274137076294E+02   -0.17299E-03   -0.10322E-04   332   0.278E-02    0.347E-02
DAV:   7    -0.274139128822E+02   -0.20525E-03   -0.62326E-05   304   0.207E-02    0.126E-02
DAV:   8    -0.274140704311E+02   -0.15755E-03   -0.14424E-05   320   0.109E-02    0.436E-03
DAV:   9    -0.274142175470E+02   -0.14712E-03   -0.56911E-06   312   0.552E-03    0.236E-03
DAV:  10    -0.274143073000E+02   -0.89753E-04   -0.22567E-06   304   0.273E-03
  51 F= -.27414307E+02 E0= -.27414307E+02  d E =-.996411E-01  mag=     1.0000
 curvature: -28.64 expect dE=-0.164E+00 dE for cont linesearch -0.355E-02
 ZBRENT: extrapolating
 opt :  25.3855  next Energy=   -27.417835 (dE=-0.103E+00)
 bond charge predicted
       N       E                     dE             d eps       ncg     rms          rms(c)
DAV:   1    -0.274052271016E+02    0.89904E-02   -0.27046E+01   440   0.134E+01    0.193E-01
DAV:   2    -0.274185865782E+02   -0.13359E-01   -0.13223E-01   452   0.130E+00    0.157E-01
DAV:   3    -0.274185247402E+02    0.61838E-04   -0.19937E-03   472   0.149E-01    0.118E-01
DAV:   4    -0.274182439159E+02    0.28082E-03   -0.60937E-04   464   0.702E-02    0.518E-02
DAV:   5    -0.274182464814E+02   -0.25655E-05   -0.25008E-04   352   0.448E-02
  52 F= -.27418246E+02 E0= -.27418246E+02  d E =-.103580E+00  mag=     1.0000
 curvature: -28.42 expect dE=-0.204E+00 dE for cont linesearch -0.185E-03
 trial: gam= 0.69389 g(F)=  0.718E-02 g(S)=  0.000E+00 ort = 0.348E-03 (trialstep = 0.923E+01)
 search vector abs. value=  0.166E-01
 bond charge predicted
       N       E                     dE             d eps       ncg     rms          rms(c)
DAV:   1    -0.274263030451E+02   -0.80591E-02   -0.95841E+01   432   0.251E+01    0.398E-01
DAV:   2    -0.274741409913E+02   -0.47838E-01   -0.47498E-01   456   0.245E+00    0.291E-01
DAV:   3    -0.274738591680E+02    0.28182E-03   -0.72106E-03   476   0.282E-01    0.211E-01
DAV:   4    -0.274730395185E+02    0.81965E-03   -0.19921E-03   460   0.130E-01    0.913E-02
DAV:   5    -0.274730707160E+02   -0.31197E-04   -0.75227E-04   464   0.753E-02
  53 F= -.27473071E+02 E0= -.27473071E+02  d E =-.548242E-01  mag=     1.0000
 trial-energy change:   -0.054824  1 .order   -0.056452   -0.068457   -0.044447
 step:  26.3025(harm= 26.3025)  dis= 0.11724  next Energy=   -27.515839 (dE=-0.976E-01)
 bond charge predicted
       N       E                     dE             d eps       ncg     rms          rms(c)
DAV:   1    -0.273412548328E+02    0.13178E+00   -0.33416E+02   432   0.474E+01    0.931E-01
DAV:   2    -0.275153741366E+02   -0.17412E+00   -0.17138E+00   452   0.470E+00    0.560E-01
DAV:   3    -0.275145947112E+02    0.77943E-03   -0.26988E-02   480   0.552E-01    0.383E-01
DAV:   4    -0.275121821834E+02    0.24125E-02   -0.55587E-03   460   0.218E-01    0.179E-01
DAV:   5    -0.275122264862E+02   -0.44303E-04   -0.22456E-03   464   0.130E-01    0.480E-02
DAV:   6    -0.275124032292E+02   -0.17674E-03   -0.12630E-04   336   0.293E-02    0.285E-02
DAV:   7    -0.275126276153E+02   -0.22439E-03   -0.47408E-05   320   0.184E-02    0.107E-02
DAV:   8    -0.275128209656E+02   -0.19335E-03   -0.11719E-05   320   0.823E-03    0.394E-03
DAV:   9    -0.275129734542E+02   -0.15249E-03   -0.45052E-06   312   0.408E-03    0.223E-03
DAV:  10    -0.275130803066E+02   -0.10685E-03   -0.23364E-06   312   0.242E-03    0.146E-03
DAV:  11    -0.275132378034E+02   -0.15750E-03   -0.67154E-06   304   0.293E-03    0.107E-03
DAV:  12    -0.275133032541E+02   -0.65451E-04   -0.17742E-06   312   0.178E-03
  54 F= -.27513303E+02 E0= -.27513303E+02  d E =-.950568E-01  mag=     1.0000
 curvature: -29.43 expect dE=-0.195E+00 dE for cont linesearch -0.210E-04
 trial: gam= 0.87256 g(F)=  0.662E-02 g(S)=  0.000E+00 ort = 0.109E-03 (trialstep = 0.108E+02)
 search vector abs. value=  0.195E-01
 bond charge predicted
       N       E                     dE             d eps       ncg     rms          rms(c)
DAV:   1    -0.274946713406E+02    0.18566E-01   -0.15472E+02   432   0.319E+01    0.531E-01
DAV:   2    -0.275740011466E+02   -0.79330E-01   -0.77115E-01   440   0.313E+00    0.380E-01
DAV:   3    -0.275734512174E+02    0.54993E-03   -0.11754E-02   480   0.360E-01    0.278E-01
DAV:   4    -0.275718837259E+02    0.15675E-02   -0.33995E-03   456   0.163E-01    0.120E-01
DAV:   5    -0.275718468494E+02    0.36877E-04   -0.11813E-03   472   0.938E-02    0.389E-02
DAV:   6    -0.275718914909E+02   -0.44641E-04   -0.58236E-05   304   0.212E-02
  55 F= -.27571891E+02 E0= -.27571891E+02  d E =-.585882E-01  mag=     1.0000
 trial-energy change:   -0.058588  1 .order   -0.058480   -0.072451   -0.044509
 step:  27.9816(harm= 27.9816)  dis= 0.13303  next Energy=   -27.607233 (dE=-0.939E-01)
 bond charge predicted
       N       E                     dE             d eps       ncg     rms          rms(c)
DAV:   1    -0.273970327304E+02    0.17481E+00   -0.40107E+02   432   0.521E+01    0.106E+00
DAV:   2    -0.276040546926E+02   -0.20702E+00   -0.20688E+00   452   0.519E+00    0.635E-01
DAV:   3    -0.276018973622E+02    0.21573E-02   -0.32659E-02   488   0.615E-01    0.438E-01
DAV:   4    -0.275984245453E+02    0.34728E-02   -0.67297E-03   460   0.230E-01    0.215E-01
DAV:   5    -0.275982084529E+02    0.21609E-03   -0.29430E-03   464   0.149E-01    0.559E-02
DAV:   6    -0.275983868755E+02   -0.17842E-03   -0.10537E-04   336   0.308E-02    0.351E-02
DAV:   7    -0.275985960674E+02   -0.20919E-03   -0.48880E-05   320   0.181E-02    0.120E-02
DAV:   8    -0.275987698331E+02   -0.17377E-03   -0.12772E-05   312   0.962E-03    0.440E-03
DAV:   9    -0.275989102885E+02   -0.14046E-03   -0.48065E-06   320   0.454E-03    0.252E-03
DAV:  10    -0.275990185910E+02   -0.10830E-03   -0.32558E-06   304   0.290E-03    0.167E-03
DAV:  11    -0.275991441665E+02   -0.12558E-03   -0.54604E-06   312   0.288E-03    0.128E-03
DAV:  12    -0.275992338461E+02   -0.89680E-04   -0.43063E-06   312   0.230E-03
  56 F= -.27599234E+02 E0= -.27599234E+02  d E =-.859306E-01  mag=     1.0000
 curvature: -40.54 expect dE=-0.230E+00 dE for cont linesearch -0.207E-02
 trial: gam= 0.86616 g(F)=  0.568E-02 g(S)=  0.000E+00 ort =-0.997E-03 (trialstep = 0.142E+02)
 search vector abs. value=  0.185E-01
 bond charge predicted
       N       E                     dE             d eps       ncg     rms          rms(c)
DAV:   1    -0.275151804133E+02    0.83964E-01   -0.25986E+02   432   0.416E+01    0.714E-01
DAV:   2    -0.276484088486E+02   -0.13323E+00   -0.13125E+00   444   0.409E+00    0.553E-01
DAV:   3    -0.276476175280E+02    0.79132E-03   -0.19793E-02   480   0.468E-01    0.397E-01
DAV:   4    -0.276449465182E+02    0.26710E-02   -0.49076E-03   464   0.194E-01    0.203E-01
DAV:   5    -0.276447161299E+02    0.23039E-03   -0.24522E-03   456   0.134E-01    0.608E-02
DAV:   6    -0.276448305722E+02   -0.11444E-03   -0.52323E-05   300   0.231E-02    0.390E-02
DAV:   7    -0.276449943871E+02   -0.16381E-03   -0.50080E-05   316   0.184E-02    0.130E-02
DAV:   8    -0.276451293350E+02   -0.13495E-03   -0.14158E-05   312   0.110E-02    0.421E-03
DAV:   9    -0.276452466203E+02   -0.11729E-03   -0.41282E-06   308   0.489E-03    0.243E-03
DAV:  10    -0.276453420106E+02   -0.95390E-04   -0.24630E-06   312   0.264E-03
  57 F= -.27645342E+02 E0= -.27645342E+02  d E =-.461082E-01  mag=     1.0000
 trial-energy change:   -0.046108  1 .order   -0.047644   -0.068538   -0.026749
 step:  32.6762(harm= 23.3377)  dis= 0.19178  next Energy=   -27.659335 (dE=-0.601E-01)
 bond charge predicted
       N       E                     dE             d eps       ncg     rms          rms(c)
DAV:   1    -0.274117095565E+02    0.23354E+00   -0.44529E+02   432   0.548E+01    0.110E+00
DAV:   2    -0.276507263569E+02   -0.23902E+00   -0.23242E+00   444   0.550E+00    0.747E-01
DAV:   3    -0.276494508739E+02    0.12755E-02   -0.36203E-02   480   0.644E-01    0.512E-01
DAV:   4    -0.276454456304E+02    0.40052E-02   -0.67311E-03   464   0.235E-01    0.284E-01
DAV:   5    -0.276448438268E+02    0.60180E-03   -0.39754E-03   452   0.172E-01    0.777E-02
DAV:   6    -0.276450801913E+02   -0.23636E-03   -0.74634E-05   312   0.288E-02    0.483E-02
DAV:   7    -0.276454127638E+02   -0.33257E-03   -0.55716E-05   308   0.186E-02    0.178E-02
DAV:   8    -0.276457086326E+02   -0.29587E-03   -0.23377E-05   312   0.128E-02    0.600E-03
DAV:   9    -0.276459642063E+02   -0.25557E-03   -0.79680E-06   312   0.595E-03    0.327E-03
DAV:  10    -0.276461691608E+02   -0.20495E-03   -0.55946E-06   312   0.361E-03    0.210E-03
DAV:  11    -0.276463547236E+02   -0.18556E-03   -0.54320E-06   312   0.286E-03    0.163E-03
DAV:  12    -0.276465578214E+02   -0.20310E-03   -0.10563E-05   300   0.297E-03    0.856E-04
DAV:  13    -0.276466026158E+02   -0.44794E-04   -0.11668E-06   312   0.133E-03
  58 F= -.27646603E+02 E0= -.27646603E+02  d E =-.473688E-01  mag=     1.0000
 curvature:   2.30 expect dE= 0.181E-01 dE for cont linesearch  0.695E-03
 trial: gam= 0.00000 g(F)=  0.785E-02 g(S)=  0.000E+00 ort =-0.237E-02 (trialstep = 0.179E+02)
 search vector abs. value=  0.785E-02
 bond charge predicted
       N       E                     dE             d eps       ncg     rms          rms(c)
DAV:   1    -0.276301893125E+02    0.16369E-01   -0.17154E+02   432   0.341E+01    0.827E-01
DAV:   2    -0.277106160925E+02   -0.80427E-01   -0.85406E-01   452   0.339E+00    0.627E-01
DAV:   3    -0.277100601123E+02    0.55598E-03   -0.15959E-02   464   0.458E-01    0.387E-01
DAV:   4    -0.277088627187E+02    0.11974E-02   -0.45906E-03   448   0.259E-01    0.158E-01
DAV:   5    -0.277090042000E+02   -0.14148E-03   -0.72692E-04   464   0.941E-02    0.429E-02
DAV:   6    -0.277090834057E+02   -0.79206E-04   -0.84464E-05   288   0.295E-02
  59 F= -.27709083E+02 E0= -.27709083E+02  d E =-.624808E-01  mag=     1.0000
 trial-energy change:   -0.062481  1 .order   -0.063333   -0.140678    0.014012
 step:  16.2457(harm= 16.2958)  dis= 0.03891  next Energy=   -27.709738 (dE=-0.631E-01)
 bond charge predicted
       N       E                     dE             d eps       ncg     rms          rms(c)
DAV:   1    -0.277091874657E+02   -0.18327E-03   -0.14876E+00   460   0.316E+00    0.713E-02
DAV:   2    -0.277099602509E+02   -0.77279E-03   -0.72548E-03   464   0.310E-01    0.564E-02
DAV:   3    -0.277100029925E+02   -0.42742E-04   -0.12346E-04   304   0.419E-02
  60 F= -.27710003E+02 E0= -.27710003E+02  d E =-.634004E-01  mag=     1.0000
 curvature:  -8.14 expect dE=-0.374E-01 dE for cont linesearch -0.878E-04
 trial: gam= 0.54836 g(F)=  0.460E-02 g(S)=  0.000E+00 ort = 0.291E-03 (trialstep = 0.176E+02)
 search vector abs. value=  0.728E-02
 bond charge predicted
       N       E                     dE             d eps       ncg     rms          rms(c)
DAV:   1    -0.276929337296E+02    0.17027E-01   -0.15225E+02   436   0.321E+01    0.561E-01
DAV:   2    -0.277674309597E+02   -0.74497E-01   -0.74558E-01   440   0.314E+00    0.446E-01
DAV:   3    -0.277667819136E+02    0.64905E-03   -0.12279E-02   464   0.401E-01    0.305E-01
DAV:   4    -0.277652142843E+02    0.15676E-02   -0.33637E-03   448   0.172E-01    0.156E-01
DAV:   5    -0.277652131019E+02    0.11824E-05   -0.16185E-03   472   0.114E-01    0.486E-02
DAV:   6    -0.277653015637E+02   -0.88462E-04   -0.59672E-05   292   0.218E-02
  61 F= -.27765302E+02 E0= -.27765302E+02  d E =-.552986E-01  mag=     1.0000
 trial-energy change:   -0.055299  1 .order   -0.056930   -0.083623   -0.030238
 step:  32.6994(harm= 27.5442)  dis= 0.12567  next Energy=   -27.777261 (dE=-0.673E-01)
 bond charge predicted
       N       E                     dE             d eps       ncg     rms          rms(c)
DAV:   1    -0.277170146972E+02    0.48198E-01   -0.11223E+02   432   0.275E+01    0.484E-01
DAV:   2    -0.277710949229E+02   -0.54080E-01   -0.54665E-01   440   0.268E+00    0.385E-01
DAV:   3    -0.277705716309E+02    0.52329E-03   -0.90407E-03   472   0.345E-01    0.260E-01
DAV:   4    -0.277694885191E+02    0.10831E-02   -0.25693E-03   448   0.152E-01    0.130E-01
DAV:   5    -0.277696028778E+02   -0.11436E-03   -0.11347E-03   460   0.962E-02    0.413E-02
DAV:   6    -0.277697242151E+02   -0.12134E-03   -0.48635E-05   304   0.192E-02    0.265E-02
DAV:   7    -0.277699023741E+02   -0.17816E-03   -0.46861E-05   300   0.180E-02    0.829E-03
DAV:   8    -0.277700617425E+02   -0.15937E-03   -0.11056E-05   304   0.920E-03    0.258E-03
DAV:   9    -0.277701673372E+02   -0.10559E-03   -0.38421E-06   312   0.478E-03    0.199E-03
DAV:  10    -0.277702530563E+02   -0.85719E-04   -0.22723E-06   296   0.257E-03
  62 F= -.27770253E+02 E0= -.27770253E+02  d E =-.602501E-01  mag=     1.0000
 curvature: -15.43 expect dE=-0.588E-01 dE for cont linesearch -0.242E-02
 ZBRENT: interpolating
 opt :  26.9037  next Energy=   -27.773352 (dE=-0.633E-01)
 bond charge predicted
       N       E                     dE             d eps       ncg     rms          rms(c)
DAV:   1    -0.277659400341E+02    0.42273E-02   -0.16413E+01   444   0.105E+01    0.166E-01
DAV:   2    -0.277737425843E+02   -0.78026E-02   -0.78158E-02   464   0.101E+00    0.148E-01
DAV:   3    -0.277736827504E+02    0.59834E-04   -0.12653E-03   472   0.126E-01    0.106E-01
DAV:   4    -0.277734959303E+02    0.18682E-03   -0.38852E-04   448   0.590E-02    0.546E-02
DAV:   5    -0.277734982016E+02   -0.22714E-05   -0.20292E-04   304   0.419E-02
  63 F= -.27773498E+02 E0= -.27773498E+02  d E =-.634952E-01  mag=     1.0000
 curvature: -19.72 expect dE=-0.500E-01 dE for cont linesearch -0.475E-04
 trial: gam= 0.49626 g(F)=  0.253E-02 g(S)=  0.000E+00 ort =-0.132E-03 (trialstep = 0.194E+02)
 search vector abs. value=  0.420E-02
 bond charge predicted
       N       E                     dE             d eps       ncg     rms          rms(c)
DAV:   1    -0.277486954765E+02    0.24800E-01   -0.10717E+02   432   0.269E+01    0.456E-01
DAV:   2    -0.278011595352E+02   -0.52464E-01   -0.51810E-01   464   0.260E+00    0.348E-01
DAV:   3    -0.278006880785E+02    0.47146E-03   -0.81719E-03   472   0.316E-01    0.246E-01
DAV:   4    -0.277996196455E+02    0.10684E-02   -0.27801E-03   456   0.159E-01    0.106E-01
DAV:   5    -0.277996566888E+02   -0.37043E-04   -0.81720E-04   480   0.816E-02
  64 F= -.27799657E+02 E0= -.27799657E+02  d E =-.261585E-01  mag=     1.0000
 trial-energy change:   -0.026158  1 .order   -0.026358   -0.048022   -0.004694
 step:  21.5549(harm= 21.5549)  dis= 0.05466  next Energy=   -27.800110 (dE=-0.266E-01)
 bond charge predicted
       N       E                     dE             d eps       ncg     rms          rms(c)
DAV:   1    -0.277991475986E+02    0.47205E-03   -0.12449E+00   448   0.289E+00    0.566E-02
DAV:   2    -0.277997942606E+02   -0.64666E-03   -0.62405E-03   464   0.281E-01    0.372E-02
DAV:   3    -0.277998222255E+02   -0.27965E-04   -0.87296E-05   288   0.343E-02
  65 F= -.27799822E+02 E0= -.27799822E+02  d E =-.263240E-01  mag=     1.0000
 curvature: -18.31 expect dE=-0.385E-01 dE for cont linesearch -0.352E-03
 trial: gam= 0.88879 g(F)=  0.210E-02 g(S)=  0.000E+00 ort =-0.284E-03 (trialstep = 0.170E+02)
 search vector abs. value=  0.491E-02
 bond charge predicted
       N       E                     dE             d eps       ncg     rms          rms(c)
DAV:   1    -0.277768965501E+02    0.22898E-01   -0.95518E+01   432   0.253E+01    0.358E-01
DAV:   2    -0.278242345136E+02   -0.47338E-01   -0.46236E-01   444   0.244E+00    0.321E-01
DAV:   3    -0.278240027946E+02    0.23172E-03   -0.69182E-03   472   0.283E-01    0.241E-01
DAV:   4    -0.278229895607E+02    0.10132E-02   -0.19852E-03   448   0.128E-01    0.126E-01
DAV:   5    -0.278229949452E+02   -0.53845E-05   -0.14080E-03   464   0.102E-01    0.443E-02
DAV:   6    -0.278230407649E+02   -0.45820E-04   -0.32572E-05   312   0.168E-02
  66 F= -.27823041E+02 E0= -.27823041E+02  d E =-.232185E-01  mag=     1.0000
 trial-energy change:   -0.023219  1 .order   -0.022357   -0.031394   -0.013320
 step:  25.7015(harm= 29.4813)  dis= 0.04415  next Energy=   -27.826583 (dE=-0.268E-01)
 bond charge predicted
       N       E                     dE             d eps       ncg     rms          rms(c)
DAV:   1    -0.278145171223E+02    0.84778E-02   -0.25141E+01   436   0.129E+01    0.177E-01
DAV:   2    -0.278270541479E+02   -0.12537E-01   -0.12155E-01   456   0.125E+00    0.158E-01
DAV:   3    -0.278270112531E+02    0.42895E-04   -0.17959E-03   488   0.143E-01    0.120E-01
DAV:   4    -0.278267616567E+02    0.24960E-03   -0.54233E-04   444   0.670E-02    0.609E-02
DAV:   5    -0.278267940481E+02   -0.32391E-04   -0.34854E-04   408   0.518E-02
  67 F= -.27826794E+02 E0= -.27826794E+02  d E =-.269718E-01  mag=     1.0000
 curvature: -35.57 expect dE=-0.264E-01 dE for cont linesearch -0.232E-03
 trial: gam= 0.16515 g(F)=  0.741E-03 g(S)=  0.000E+00 ort = 0.179E-03 (trialstep = 0.187E+02)
 search vector abs. value=  0.934E-03
 bond charge predicted
       N       E                     dE             d eps       ncg     rms          rms(c)
DAV:   1    -0.278248041005E+02    0.19576E-02   -0.22042E+01   440   0.122E+01    0.217E-01
DAV:   2    -0.278352636027E+02   -0.10460E-01   -0.10562E-01   452   0.117E+00    0.172E-01
DAV:   3    -0.278351305284E+02    0.13307E-03   -0.16807E-03   480   0.139E-01    0.118E-01
DAV:   4    -0.278348109159E+02    0.31961E-03   -0.57529E-04   464   0.762E-02    0.499E-02
DAV:   5    -0.278347788397E+02    0.32076E-04   -0.11259E-04   312   0.349E-02
  68 F= -.27834779E+02 E0= -.27834779E+02  d E =-.798479E-02  mag=     1.0000
 trial-energy change:   -0.007985  1 .order   -0.008754   -0.014428   -0.003080
 step:  23.7985(harm= 23.7985)  dis= 0.02039  next Energy=   -27.835966 (dE=-0.917E-02)
 bond charge predicted
       N       E                     dE             d eps       ncg     rms          rms(c)
DAV:   1    -0.278343484729E+02    0.46244E-03   -0.16190E+00   448   0.330E+00    0.619E-02
DAV:   2    -0.278351517296E+02   -0.80326E-03   -0.78501E-03   456   0.316E-01    0.448E-02
DAV:   3    -0.278351646854E+02   -0.12956E-04   -0.11062E-04   280   0.373E-02
  69 F= -.27835165E+02 E0= -.27835165E+02  d E =-.837064E-02  mag=     1.0000
 curvature: -14.42 expect dE=-0.865E-02 dE for cont linesearch -0.240E-03
 trial: gam= 0.00000 g(F)=  0.599E-03 g(S)=  0.000E+00 ort =-0.125E-03 (trialstep = 0.197E+02)
 search vector abs. value=  0.599E-03
 bond charge predicted
       N       E                     dE             d eps       ncg     rms          rms(c)
DAV:   1    -0.278306039497E+02    0.45478E-02   -0.15771E+01   436   0.103E+01    0.258E-01
DAV:   2    -0.278378684367E+02   -0.72645E-02   -0.76066E-02   456   0.100E+00    0.195E-01
DAV:   3    -0.278379011556E+02   -0.32719E-04   -0.14686E-03   464   0.136E-01    0.116E-01
DAV:   4    -0.278379326941E+02   -0.31538E-04   -0.37005E-04   408   0.771E-02
  70 F= -.27837933E+02 E0= -.27837933E+02  d E =-.276801E-02  mag=     1.0000
 trial-energy change:   -0.002768  1 .order   -0.002863   -0.011830    0.006103
 step:  13.0180(harm= 13.0180)  dis= 0.01097  next Energy=   -27.839067 (dE=-0.390E-02)
 bond charge predicted
       N       E                     dE             d eps       ncg     rms          rms(c)
DAV:   1    -0.278383127214E+02   -0.41157E-03   -0.18268E+00   448   0.350E+00    0.883E-02
DAV:   2    -0.278391797702E+02   -0.86705E-03   -0.85459E-03   468   0.340E-01    0.720E-02
DAV:   3    -0.278391894395E+02   -0.96693E-05   -0.15430E-04   288   0.457E-02
  71 F= -.27839189E+02 E0= -.27839189E+02  d E =-.402475E-02  mag=     1.0000
 curvature:  -6.51 expect dE=-0.143E-02 dE for cont linesearch -0.578E-04
 trial: gam= 0.24434 g(F)=  0.219E-03 g(S)=  0.000E+00 ort = 0.730E-04 (trialstep = 0.184E+02)
 search vector abs. value=  0.291E-03
 bond charge predicted
       N       E                     dE             d eps       ncg     rms          rms(c)
DAV:   1    -0.278392665050E+02   -0.86735E-04   -0.65932E+00   448   0.662E+00    0.859E-02
DAV:   2    -0.278424725711E+02   -0.32061E-02   -0.31811E-02   444   0.641E-01    0.758E-02
DAV:   3    -0.278424400220E+02    0.32549E-04   -0.48604E-04   480   0.762E-02
  72 F= -.27842440E+02 E0= -.27842440E+02  d E =-.325058E-02  mag=     1.0000
 trial-energy change:   -0.003251  1 .order   -0.003448   -0.004364   -0.002533
 step:  43.8290(harm= 43.8290)  dis= 0.01907  next Energy=   -27.844389 (dE=-0.520E-02)
 bond charge predicted
       N       E                     dE             d eps       ncg     rms          rms(c)
DAV:   1    -0.278385776082E+02    0.38950E-02   -0.12652E+01   444   0.917E+00    0.129E-01
DAV:   2    -0.278445012004E+02   -0.59236E-02   -0.59832E-02   464   0.881E-01    0.121E-01
DAV:   3    -0.278444061023E+02    0.95098E-04   -0.89882E-04   480   0.102E-01
  73 F= -.27844406E+02 E0= -.27844406E+02  d E =-.521666E-02  mag=     1.0000
 curvature: -26.87 expect dE=-0.825E-02 dE for cont linesearch -0.140E-03
 trial: gam= 1.09423 g(F)=  0.307E-03 g(S)=  0.000E+00 ort = 0.389E-04 (trialstep = 0.923E+01)
 search vector abs. value=  0.740E-03
 bond charge predicted
       N       E                     dE             d eps       ncg     rms          rms(c)
DAV:   1    -0.278447096037E+02   -0.20840E-03   -0.42449E+00   444   0.531E+00    0.795E-02
DAV:   2    -0.278466177409E+02   -0.19081E-02   -0.19756E-02   460   0.505E-01    0.726E-02
DAV:   3    -0.278465718239E+02    0.45917E-04   -0.26567E-04   320   0.571E-02
  74 F= -.27846572E+02 E0= -.27846572E+02  d E =-.216572E-02  mag=     1.0000
 trial-energy change:   -0.002166  1 .order   -0.001996   -0.003224   -0.000768
 step:  12.1093(harm= 12.1093)  dis= 0.00940  next Energy=   -27.846522 (dE=-0.212E-02)
 bond charge predicted
       N       E                     dE             d eps       ncg     rms          rms(c)
DAV:   1    -0.278468461360E+02   -0.22840E-03   -0.42036E-01   456   0.167E+00    0.335E-02
DAV:   2    -0.278470764352E+02   -0.23030E-03   -0.19308E-03   464   0.157E-01    0.251E-02
DAV:   3    -0.278471033656E+02   -0.26930E-04   -0.26657E-05   280   0.177E-02
  75 F= -.27847103E+02 E0= -.27847103E+02  d E =-.269726E-02  mag=     1.0000
 curvature: -12.83 expect dE=-0.891E-03 dE for cont linesearch -0.211E-03
 trial: gam=-0.08674 g(F)=  0.695E-04 g(S)=  0.000E+00 ort = 0.110E-03 (trialstep = 0.980E+01)
 search vector abs. value=  0.559E-04
 bond charge predicted
       N       E                     dE             d eps       ncg     rms          rms(c)
DAV:   1    -0.278475470412E+02   -0.47061E-03   -0.36171E-01   460   0.155E+00    0.277E-02
DAV:   2    -0.278477636158E+02   -0.21657E-03   -0.17304E-03   480   0.149E-01    0.220E-02
DAV:   3    -0.278477893473E+02   -0.25731E-04   -0.24536E-05   280   0.179E-02
  76 F= -.27847789E+02 E0= -.27847789E+02  d E =-.685982E-03  mag=     1.0000
 trial-energy change:   -0.000686  1 .order   -0.000456   -0.000587   -0.000325
 step:  21.9038(harm= 21.9038)  dis= 0.00563  next Energy=   -27.847760 (dE=-0.656E-03)
 bond charge predicted
       N       E                     dE             d eps       ncg     rms          rms(c)
DAV:   1    -0.278480000269E+02   -0.23641E-03   -0.55279E-01   456   0.191E+00    0.366E-02
DAV:   2    -0.278482820186E+02   -0.28199E-03   -0.26181E-03   480   0.182E-01    0.290E-02
DAV:   3    -0.278482949963E+02   -0.12978E-04   -0.36591E-05   272   0.216E-02
  77 F= -.27848295E+02 E0= -.27848295E+02  d E =-.119163E-02  mag=     1.0000
 curvature: -10.22 expect dE=-0.487E-03 dE for cont linesearch -0.137E-04
 trial: gam= 0.39415 g(F)=  0.476E-04 g(S)=  0.000E+00 ort = 0.865E-05 (trialstep = 0.108E+02)
 search vector abs. value=  0.632E-04
 reached required accuracy - stopping structural energy minimisation
Application 90929893 resources: utime ~39075s, stime ~467s, Rss ~78224, inblocks ~83079, outblocks ~156309
