  18  18   0   0
  0.3995950E+03  0.1930327E-08  0.1930327E-08  0.1930327E-08  0.1000000E-15
  1.000000000000000E-004
  CAR 
 unknown system                          
      1.36318667     -9.72153341  301     -3.65264916      1.00000000
     -9.722  0.0000E+00  0.0000E+00  0.0000E+00  0.0000E+00
     -9.685  0.0000E+00  0.0000E+00  0.0000E+00  0.0000E+00
     -9.648  0.0000E+00  0.0000E+00  0.0000E+00  0.0000E+00
     -9.611  0.0000E+00  0.0000E+00  0.0000E+00  0.0000E+00
     -9.574  0.0000E+00  0.0000E+00  0.0000E+00  0.0000E+00
     -9.537  0.0000E+00  0.0000E+00  0.0000E+00  0.0000E+00
     -9.500  0.0000E+00  0.0000E+00  0.0000E+00  0.0000E+00
     -9.463  0.0000E+00  0.0000E+00  0.0000E+00  0.0000E+00
     -9.426  0.0000E+00  0.0000E+00  0.0000E+00  0.0000E+00
     -9.389  0.0000E+00  0.0000E+00  0.0000E+00  0.0000E+00
     -9.352  0.0000E+00  0.0000E+00  0.0000E+00  0.0000E+00
     -9.315  0.0000E+00  0.0000E+00  0.0000E+00  0.0000E+00
     -9.278  0.0000E+00  0.0000E+00  0.0000E+00  0.0000E+00
     -9.241  0.0000E+00  0.0000E+00  0.0000E+00  0.0000E+00
     -9.204  0.0000E+00  0.0000E+00  0.1000E-02  0.1000E-02
     -9.167  0.0000E+00  0.0000E+00  0.1000E-02  0.1000E-02
     -9.130  0.0000E+00  0.0000E+00  0.1000E-02  0.1000E-02
     -9.093  0.0000E+00  0.0000E+00  0.1000E-02  0.1000E-02
     -9.056  0.0000E+00  0.0000E+00  0.1000E-02  0.1000E-02
     -9.020  0.0000E+00  0.0000E+00  0.1000E-02  0.1000E-02
     -8.983  0.0000E+00  0.0000E+00  0.2000E-02  0.2000E-02
     -8.946  0.0000E+00  0.0000E+00  0.3000E-02  0.3000E-02
     -8.909  0.0000E+00  0.0000E+00  0.4000E-02  0.4000E-02
     -8.872  0.0000E+00  0.0000E+00  0.4000E-02  0.4000E-02
     -8.835  0.0000E+00  0.0000E+00  0.6000E-02  0.6000E-02
     -8.798  0.0000E+00  0.0000E+00  0.7000E-02  0.7000E-02
     -8.761  0.2314E-15  0.2314E-15  0.7000E-02  0.7000E-02
     -8.724  0.0000E+00  0.0000E+00  0.9000E-02  0.9000E-02
     -8.687  0.0000E+00  0.0000E+00  0.9000E-02  0.9000E-02
     -8.650  0.0000E+00  0.0000E+00  0.1100E-01  0.1100E-01
     -8.613  0.0000E+00  0.0000E+00  0.1200E-01  0.1200E-01
     -8.576  0.0000E+00  0.0000E+00  0.1200E-01  0.1200E-01
     -8.539  0.0000E+00  0.0000E+00  0.1300E-01  0.1300E-01
     -8.502  0.0000E+00  0.0000E+00  0.1400E-01  0.1400E-01
     -8.465  0.0000E+00  0.0000E+00  0.1500E-01  0.1500E-01
     -8.428  0.0000E+00  0.0000E+00  0.1500E-01  0.1500E-01
     -8.391  0.0000E+00  0.0000E+00  0.1500E-01  0.1500E-01
     -8.354  0.0000E+00  0.0000E+00  0.1600E-01  0.1600E-01
     -8.317  0.0000E+00  0.0000E+00  0.1700E-01  0.1700E-01
     -8.281  0.0000E+00  0.0000E+00  0.1700E-01  0.1700E-01
     -8.244  0.7512E-17  0.7512E-17  0.1800E-01  0.1800E-01
     -8.207  0.0000E+00  0.0000E+00  0.1900E-01  0.1900E-01
     -8.170  0.0000E+00  0.0000E+00  0.1900E-01  0.1900E-01
     -8.133  0.0000E+00  0.0000E+00  0.2100E-01  0.2100E-01
     -8.096  0.0000E+00  0.0000E+00  0.2100E-01  0.2100E-01
     -8.059  0.0000E+00  0.0000E+00  0.2200E-01  0.2200E-01
     -8.022  0.0000E+00  0.0000E+00  0.2300E-01  0.2300E-01
     -7.985  0.0000E+00  0.0000E+00  0.2400E-01  0.2400E-01
     -7.948  0.0000E+00  0.0000E+00  0.2600E-01  0.2600E-01
     -7.911  0.0000E+00  0.0000E+00  0.2700E-01  0.2700E-01
     -7.874  0.0000E+00  0.0000E+00  0.2800E-01  0.2800E-01
     -7.837  0.0000E+00  0.0000E+00  0.2900E-01  0.2900E-01
     -7.800  0.0000E+00  0.0000E+00  0.3000E-01  0.3000E-01
     -7.763  0.0000E+00  0.0000E+00  0.3200E-01  0.3200E-01
     -7.726  0.0000E+00  0.0000E+00  0.3300E-01  0.3300E-01
     -7.689  0.0000E+00  0.0000E+00  0.3400E-01  0.3400E-01
     -7.652  0.0000E+00  0.0000E+00  0.3500E-01  0.3500E-01
     -7.615  0.0000E+00  0.0000E+00  0.3600E-01  0.3600E-01
     -7.578  0.0000E+00  0.0000E+00  0.3600E-01  0.3600E-01
     -7.542  0.0000E+00  0.0000E+00  0.3700E-01  0.3700E-01
     -7.505  0.0000E+00  0.0000E+00  0.3800E-01  0.3800E-01
     -7.468  0.0000E+00  0.0000E+00  0.3900E-01  0.3900E-01
     -7.431  0.0000E+00  0.0000E+00  0.4000E-01  0.4000E-01
     -7.394  0.0000E+00  0.0000E+00  0.4100E-01  0.4100E-01
     -7.357  0.0000E+00  0.0000E+00  0.4200E-01  0.4200E-01
     -7.320  0.0000E+00  0.0000E+00  0.4300E-01  0.4300E-01
     -7.283  0.0000E+00  0.0000E+00  0.4400E-01  0.4400E-01
     -7.246  0.0000E+00  0.0000E+00  0.4600E-01  0.4600E-01
     -7.209  0.0000E+00  0.0000E+00  0.4700E-01  0.4700E-01
     -7.172  0.0000E+00  0.0000E+00  0.5000E-01  0.5000E-01
     -7.135  0.0000E+00  0.0000E+00  0.5000E-01  0.5000E-01
     -7.098  0.0000E+00  0.0000E+00  0.5300E-01  0.5300E-01
     -7.061  0.0000E+00  0.0000E+00  0.5400E-01  0.5400E-01
     -7.024  0.0000E+00  0.0000E+00  0.5600E-01  0.5600E-01
     -6.987  0.0000E+00  0.0000E+00  0.5800E-01  0.5800E-01
     -6.950  0.0000E+00  0.0000E+00  0.5900E-01  0.5900E-01
     -6.913  0.0000E+00  0.0000E+00  0.6100E-01  0.6100E-01
     -6.876  0.0000E+00  0.0000E+00  0.6200E-01  0.6200E-01
     -6.840  0.0000E+00  0.0000E+00  0.6500E-01  0.6500E-01
     -6.803  0.0000E+00  0.0000E+00  0.6800E-01  0.6800E-01
     -6.766  0.0000E+00  0.0000E+00  0.6800E-01  0.6800E-01
     -6.729  0.0000E+00  0.0000E+00  0.7000E-01  0.7000E-01
     -6.692  0.0000E+00  0.0000E+00  0.7300E-01  0.7300E-01
     -6.655  0.0000E+00  0.0000E+00  0.7400E-01  0.7400E-01
     -6.618  0.0000E+00  0.0000E+00  0.7600E-01  0.7600E-01
     -6.581  0.2706E-01  0.2706E-01  0.7800E-01  0.7800E-01
     -6.544  0.4192E-06  0.4198E-06  0.7900E-01  0.7900E-01
     -6.507  0.0000E+00  0.0000E+00  0.8000E-01  0.8000E-01
     -6.470  0.0000E+00  0.0000E+00  0.8200E-01  0.8200E-01
     -6.433  0.0000E+00  0.0000E+00  0.8400E-01  0.8400E-01
     -6.396  0.0000E+00  0.0000E+00  0.8400E-01  0.8400E-01
     -6.359  0.0000E+00  0.0000E+00  0.8600E-01  0.8600E-01
     -6.322  0.0000E+00  0.0000E+00  0.8600E-01  0.8600E-01
     -6.285  0.0000E+00  0.0000E+00  0.8900E-01  0.8900E-01
     -6.248  0.0000E+00  0.0000E+00  0.8900E-01  0.8900E-01
     -6.211  0.0000E+00  0.0000E+00  0.9000E-01  0.9000E-01
     -6.174  0.0000E+00  0.0000E+00  0.9100E-01  0.9100E-01
     -6.137  0.0000E+00  0.0000E+00  0.9200E-01  0.9200E-01
     -6.101  0.0000E+00  0.0000E+00  0.9200E-01  0.9200E-01
     -6.064  0.0000E+00  0.0000E+00  0.9300E-01  0.9300E-01
     -6.027  0.0000E+00  0.0000E+00  0.9300E-01  0.9300E-01
     -5.990  0.0000E+00  0.0000E+00  0.9300E-01  0.9300E-01
     -5.953  0.0000E+00  0.0000E+00  0.9300E-01  0.9300E-01
     -5.916  0.0000E+00  0.0000E+00  0.9300E-01  0.9300E-01
     -5.879  0.0000E+00  0.0000E+00  0.9300E-01  0.9300E-01
     -5.842  0.0000E+00  0.0000E+00  0.9300E-01  0.9300E-01
     -5.805  0.0000E+00  0.0000E+00  0.9300E-01  0.9300E-01
     -5.768  0.0000E+00  0.0000E+00  0.9300E-01  0.9300E-01
     -5.731  0.0000E+00  0.0000E+00  0.9300E-01  0.9300E-01
     -5.694  0.0000E+00  0.0000E+00  0.9300E-01  0.9300E-01
     -5.657  0.0000E+00  0.0000E+00  0.9300E-01  0.9300E-01
     -5.620  0.0000E+00  0.0000E+00  0.9300E-01  0.9300E-01
     -5.583  0.0000E+00  0.0000E+00  0.9400E-01  0.9400E-01
     -5.546  0.0000E+00  0.0000E+00  0.9400E-01  0.9400E-01
     -5.509  0.0000E+00  0.0000E+00  0.9400E-01  0.9400E-01
     -5.472  0.0000E+00  0.0000E+00  0.9400E-01  0.9400E-01
     -5.435  0.0000E+00  0.0000E+00  0.9400E-01  0.9400E-01
     -5.398  0.0000E+00  0.0000E+00  0.9400E-01  0.9400E-01
     -5.362  0.0000E+00  0.0000E+00  0.9400E-01  0.9400E-01
     -5.325  0.0000E+00  0.0000E+00  0.9400E-01  0.9400E-01
     -5.288  0.0000E+00  0.0000E+00  0.9400E-01  0.9400E-01
     -5.251  0.0000E+00  0.0000E+00  0.9400E-01  0.9400E-01
     -5.214  0.0000E+00  0.0000E+00  0.9400E-01  0.9400E-01
     -5.177  0.0000E+00  0.0000E+00  0.9400E-01  0.9400E-01
     -5.140  0.0000E+00  0.0000E+00  0.9400E-01  0.9400E-01
     -5.103  0.0000E+00  0.0000E+00  0.9400E-01  0.9400E-01
     -5.066  0.0000E+00  0.0000E+00  0.9500E-01  0.9500E-01
     -5.029  0.0000E+00  0.0000E+00  0.9500E-01  0.9500E-01
     -4.992  0.0000E+00  0.0000E+00  0.9500E-01  0.9500E-01
     -4.955  0.0000E+00  0.0000E+00  0.9500E-01  0.9500E-01
     -4.918  0.0000E+00  0.0000E+00  0.9500E-01  0.9500E-01
     -4.881  0.0000E+00  0.0000E+00  0.9500E-01  0.9500E-01
     -4.844  0.0000E+00  0.0000E+00  0.9500E-01  0.9500E-01
     -4.807  0.0000E+00  0.0000E+00  0.9500E-01  0.9500E-01
     -4.770  0.0000E+00  0.0000E+00  0.9500E-01  0.9500E-01
     -4.733  0.0000E+00  0.0000E+00  0.9500E-01  0.9500E-01
     -4.696  0.0000E+00  0.0000E+00  0.9500E-01  0.9500E-01
     -4.660  0.0000E+00  0.0000E+00  0.9500E-01  0.9500E-01
     -4.623  0.0000E+00  0.0000E+00  0.9600E-01  0.9600E-01
     -4.586  0.0000E+00  0.0000E+00  0.9600E-01  0.9600E-01
     -4.549  0.0000E+00  0.0000E+00  0.9600E-01  0.9600E-01
     -4.512  0.0000E+00  0.0000E+00  0.9600E-01  0.9600E-01
     -4.475  0.0000E+00  0.0000E+00  0.9600E-01  0.9600E-01
     -4.438  0.0000E+00  0.0000E+00  0.9600E-01  0.9600E-01
     -4.401  0.0000E+00  0.0000E+00  0.9600E-01  0.9600E-01
     -4.364  0.0000E+00  0.0000E+00  0.9600E-01  0.9600E-01
     -4.327  0.0000E+00  0.0000E+00  0.9600E-01  0.9600E-01
     -4.290  0.0000E+00  0.0000E+00  0.9600E-01  0.9600E-01
     -4.253  0.0000E+00  0.0000E+00  0.9600E-01  0.9600E-01
     -4.216  0.0000E+00  0.0000E+00  0.9600E-01  0.9600E-01
     -4.179  0.0000E+00  0.0000E+00  0.9700E-01  0.9700E-01
     -4.142  0.0000E+00  0.0000E+00  0.9700E-01  0.9700E-01
     -4.105  0.0000E+00  0.0000E+00  0.9700E-01  0.9700E-01
     -4.068  0.0000E+00  0.0000E+00  0.9700E-01  0.9700E-01
     -4.031  0.0000E+00  0.0000E+00  0.9700E-01  0.9700E-01
     -3.994  0.0000E+00  0.0000E+00  0.9700E-01  0.9700E-01
     -3.957  0.0000E+00  0.0000E+00  0.9700E-01  0.9700E-01
     -3.921  0.0000E+00  0.0000E+00  0.9800E-01  0.9800E-01
     -3.884  0.0000E+00  0.0000E+00  0.9800E-01  0.9800E-01
     -3.847  0.0000E+00  0.0000E+00  0.9800E-01  0.9800E-01
     -3.810  0.0000E+00  0.0000E+00  0.9800E-01  0.9800E-01
     -3.773  0.0000E+00  0.0000E+00  0.9800E-01  0.9800E-01
     -3.736  0.0000E+00  0.0000E+00  0.9800E-01  0.9800E-01
     -3.699  0.0000E+00  0.0000E+00  0.9800E-01  0.9800E-01
     -3.662  0.0000E+00  0.0000E+00  0.9900E-01  0.9900E-01
     -3.625  0.0000E+00  0.0000E+00  0.9900E-01  0.9900E-01
     -3.588  0.0000E+00  0.0000E+00  0.9900E-01  0.9900E-01
     -3.551  0.0000E+00  0.0000E+00  0.9900E-01  0.9900E-01
     -3.514  0.0000E+00  0.0000E+00  0.9900E-01  0.9900E-01
     -3.477  0.0000E+00  0.0000E+00  0.9900E-01  0.9900E-01
     -3.440  0.0000E+00  0.0000E+00  0.9900E-01  0.9900E-01
     -3.403  0.0000E+00  0.0000E+00  0.9900E-01  0.9900E-01
     -3.366  0.0000E+00  0.0000E+00  0.9900E-01  0.9900E-01
     -3.329  0.0000E+00  0.0000E+00  0.9900E-01  0.9900E-01
     -3.292  0.0000E+00  0.0000E+00  0.9900E-01  0.9900E-01
     -3.255  0.0000E+00  0.0000E+00  0.9900E-01  0.9900E-01
     -3.218  0.0000E+00  0.0000E+00  0.9900E-01  0.9900E-01
     -3.182  0.0000E+00  0.0000E+00  0.1000E+00  0.1000E+00
     -3.145  0.0000E+00  0.0000E+00  0.1000E+00  0.1000E+00
     -3.108  0.0000E+00  0.0000E+00  0.1000E+00  0.1000E+00
     -3.071  0.0000E+00  0.0000E+00  0.1000E+00  0.1000E+00
     -3.034  0.0000E+00  0.0000E+00  0.1000E+00  0.1000E+00
     -2.997  0.0000E+00  0.0000E+00  0.1000E+00  0.1000E+00
     -2.960  0.0000E+00  0.0000E+00  0.1000E+00  0.1000E+00
     -2.923  0.0000E+00  0.0000E+00  0.1010E+00  0.1010E+00
     -2.886  0.0000E+00  0.0000E+00  0.1010E+00  0.1010E+00
     -2.849  0.0000E+00  0.0000E+00  0.1010E+00  0.1010E+00
     -2.812  0.0000E+00  0.0000E+00  0.1010E+00  0.1010E+00
     -2.775  0.0000E+00  0.0000E+00  0.1010E+00  0.1010E+00
     -2.738  0.0000E+00  0.0000E+00  0.1010E+00  0.1010E+00
     -2.701  0.0000E+00  0.0000E+00  0.1020E+00  0.1020E+00
     -2.664  0.0000E+00  0.0000E+00  0.1020E+00  0.1020E+00
     -2.627  0.0000E+00  0.0000E+00  0.1020E+00  0.1020E+00
     -2.590  0.0000E+00  0.0000E+00  0.1020E+00  0.1020E+00
     -2.553  0.0000E+00  0.0000E+00  0.1020E+00  0.1020E+00
     -2.516  0.0000E+00  0.0000E+00  0.1020E+00  0.1020E+00
     -2.480  0.0000E+00  0.0000E+00  0.1020E+00  0.1020E+00
     -2.443  0.0000E+00  0.0000E+00  0.1020E+00  0.1020E+00
     -2.406  0.0000E+00  0.0000E+00  0.1020E+00  0.1020E+00
     -2.369  0.0000E+00  0.0000E+00  0.1030E+00  0.1030E+00
     -2.332  0.0000E+00  0.0000E+00  0.1030E+00  0.1030E+00
     -2.295  0.0000E+00  0.0000E+00  0.1030E+00  0.1030E+00
     -2.258  0.0000E+00  0.0000E+00  0.1030E+00  0.1030E+00
     -2.221  0.0000E+00  0.0000E+00  0.1030E+00  0.1030E+00
     -2.184  0.0000E+00  0.0000E+00  0.1030E+00  0.1030E+00
     -2.147  0.0000E+00  0.0000E+00  0.1040E+00  0.1040E+00
     -2.110  0.0000E+00  0.0000E+00  0.1040E+00  0.1040E+00
     -2.073  0.0000E+00  0.0000E+00  0.1040E+00  0.1040E+00
     -2.036  0.0000E+00  0.0000E+00  0.1040E+00  0.1040E+00
     -1.999  0.0000E+00  0.0000E+00  0.1040E+00  0.1040E+00
     -1.962  0.0000E+00  0.0000E+00  0.1040E+00  0.1040E+00
     -1.925  0.2706E-01  0.2706E-01  0.1060E+00  0.1060E+00
     -1.888  0.0000E+00  0.0000E+00  0.1060E+00  0.1060E+00
     -1.851  0.0000E+00  0.0000E+00  0.1060E+00  0.1060E+00
     -1.814  0.0000E+00  0.0000E+00  0.1060E+00  0.1060E+00
     -1.777  0.0000E+00  0.0000E+00  0.1060E+00  0.1060E+00
     -1.741  0.0000E+00  0.0000E+00  0.1060E+00  0.1060E+00
     -1.704  0.0000E+00  0.0000E+00  0.1060E+00  0.1060E+00
     -1.667  0.0000E+00  0.0000E+00  0.1070E+00  0.1070E+00
     -1.630  0.0000E+00  0.0000E+00  0.1070E+00  0.1070E+00
     -1.593  0.0000E+00  0.0000E+00  0.1070E+00  0.1070E+00
     -1.556  0.0000E+00  0.0000E+00  0.1070E+00  0.1070E+00
     -1.519  0.0000E+00  0.0000E+00  0.1070E+00  0.1070E+00
     -1.482  0.0000E+00  0.0000E+00  0.1070E+00  0.1070E+00
     -1.445  0.0000E+00  0.0000E+00  0.1070E+00  0.1070E+00
     -1.408  0.0000E+00  0.0000E+00  0.1070E+00  0.1070E+00
     -1.371  0.0000E+00  0.0000E+00  0.1070E+00  0.1070E+00
     -1.334  0.0000E+00  0.0000E+00  0.1080E+00  0.1080E+00
     -1.297  0.0000E+00  0.0000E+00  0.1080E+00  0.1080E+00
     -1.260  0.0000E+00  0.0000E+00  0.1080E+00  0.1080E+00
     -1.223  0.0000E+00  0.0000E+00  0.1080E+00  0.1080E+00
     -1.186  0.0000E+00  0.0000E+00  0.1090E+00  0.1090E+00
     -1.149  0.0000E+00  0.0000E+00  0.1090E+00  0.1090E+00
     -1.112  0.0000E+00  0.0000E+00  0.1090E+00  0.1090E+00
     -1.075  0.0000E+00  0.0000E+00  0.1090E+00  0.1090E+00
     -1.039  0.0000E+00  0.0000E+00  0.1090E+00  0.1090E+00
     -1.002  0.0000E+00  0.0000E+00  0.1090E+00  0.1090E+00
     -0.965  0.0000E+00  0.0000E+00  0.1100E+00  0.1100E+00
     -0.928  0.0000E+00  0.0000E+00  0.1100E+00  0.1100E+00
     -0.891  0.0000E+00  0.0000E+00  0.1100E+00  0.1100E+00
     -0.854  0.0000E+00  0.0000E+00  0.1100E+00  0.1100E+00
     -0.817  0.0000E+00  0.0000E+00  0.1110E+00  0.1110E+00
     -0.780  0.0000E+00  0.0000E+00  0.1120E+00  0.1120E+00
     -0.743  0.0000E+00  0.0000E+00  0.1130E+00  0.1130E+00
     -0.706  0.0000E+00  0.0000E+00  0.1130E+00  0.1130E+00
     -0.669  0.0000E+00  0.0000E+00  0.1130E+00  0.1130E+00
     -0.632  0.0000E+00  0.0000E+00  0.1140E+00  0.1140E+00
     -0.595  0.0000E+00  0.0000E+00  0.1140E+00  0.1140E+00
     -0.558  0.0000E+00  0.0000E+00  0.1140E+00  0.1140E+00
     -0.521  0.0000E+00  0.0000E+00  0.1140E+00  0.1140E+00
     -0.484  0.0000E+00  0.0000E+00  0.1140E+00  0.1140E+00
     -0.447  0.0000E+00  0.0000E+00  0.1140E+00  0.1140E+00
     -0.410  0.0000E+00  0.0000E+00  0.1140E+00  0.1140E+00
     -0.373  0.0000E+00  0.0000E+00  0.1140E+00  0.1140E+00
     -0.336  0.0000E+00  0.0000E+00  0.1150E+00  0.1150E+00
     -0.300  0.0000E+00  0.0000E+00  0.1160E+00  0.1160E+00
     -0.263  0.0000E+00  0.0000E+00  0.1160E+00  0.1160E+00
     -0.226  0.0000E+00  0.0000E+00  0.1170E+00  0.1170E+00
     -0.189  0.0000E+00  0.0000E+00  0.1170E+00  0.1170E+00
     -0.152  0.0000E+00  0.0000E+00  0.1170E+00  0.1170E+00
     -0.115  0.0000E+00  0.0000E+00  0.1170E+00  0.1170E+00
     -0.078  0.0000E+00  0.0000E+00  0.1170E+00  0.1170E+00
     -0.041  0.0000E+00  0.0000E+00  0.1170E+00  0.1170E+00
     -0.004  0.0000E+00  0.0000E+00  0.1170E+00  0.1170E+00
      0.033  0.0000E+00  0.0000E+00  0.1170E+00  0.1170E+00
      0.070  0.0000E+00  0.0000E+00  0.1180E+00  0.1180E+00
      0.107  0.0000E+00  0.0000E+00  0.1180E+00  0.1180E+00
      0.144  0.0000E+00  0.0000E+00  0.1180E+00  0.1180E+00
      0.181  0.0000E+00  0.0000E+00  0.1190E+00  0.1190E+00
      0.218  0.0000E+00  0.0000E+00  0.1190E+00  0.1190E+00
      0.255  0.0000E+00  0.0000E+00  0.1190E+00  0.1190E+00
      0.292  0.0000E+00  0.0000E+00  0.1190E+00  0.1190E+00
      0.329  0.0000E+00  0.0000E+00  0.1200E+00  0.1200E+00
      0.366  0.0000E+00  0.0000E+00  0.1200E+00  0.1200E+00
      0.403  0.0000E+00  0.0000E+00  0.1210E+00  0.1210E+00
      0.439  0.0000E+00  0.0000E+00  0.1210E+00  0.1210E+00
      0.476  0.0000E+00  0.0000E+00  0.1210E+00  0.1210E+00
      0.513  0.0000E+00  0.0000E+00  0.1210E+00  0.1210E+00
      0.550  0.0000E+00  0.0000E+00  0.1220E+00  0.1220E+00
      0.587  0.0000E+00  0.0000E+00  0.1220E+00  0.1220E+00
      0.624  0.0000E+00  0.0000E+00  0.1230E+00  0.1230E+00
      0.661  0.0000E+00  0.0000E+00  0.1230E+00  0.1230E+00
      0.698  0.0000E+00  0.0000E+00  0.1240E+00  0.1240E+00
      0.735  0.0000E+00  0.0000E+00  0.1240E+00  0.1240E+00
      0.772  0.0000E+00  0.0000E+00  0.1250E+00  0.1250E+00
      0.809  0.0000E+00  0.0000E+00  0.1260E+00  0.1260E+00
      0.846  0.0000E+00  0.0000E+00  0.1270E+00  0.1270E+00
      0.883  0.0000E+00  0.0000E+00  0.1280E+00  0.1280E+00
      0.920  0.0000E+00  0.0000E+00  0.1280E+00  0.1280E+00
      0.957  0.0000E+00  0.0000E+00  0.1280E+00  0.1280E+00
      0.994  0.0000E+00  0.0000E+00  0.1280E+00  0.1280E+00
      1.031  0.0000E+00  0.0000E+00  0.1280E+00  0.1280E+00
      1.068  0.0000E+00  0.0000E+00  0.1280E+00  0.1280E+00
      1.105  0.0000E+00  0.0000E+00  0.1280E+00  0.1280E+00
      1.141  0.0000E+00  0.0000E+00  0.1280E+00  0.1280E+00
      1.178  0.0000E+00  0.0000E+00  0.1280E+00  0.1280E+00
      1.215  0.0000E+00  0.0000E+00  0.1280E+00  0.1280E+00
      1.252  0.0000E+00  0.0000E+00  0.1280E+00  0.1280E+00
      1.289  0.0000E+00  0.0000E+00  0.1280E+00  0.1280E+00
      1.326  0.0000E+00  0.0000E+00  0.1280E+00  0.1280E+00
      1.363  0.0000E+00  0.0000E+00  0.1280E+00  0.1280E+00
