  23  23   0   0
  0.3797223E+03  0.2059356E-08  0.2059356E-08  0.2059356E-08  0.1000000E-15
  1.000000000000000E-004
  CAR 
 unknown system                          
      1.53213773    -10.14389557  301     -3.36206623      1.00000000
    -10.144  0.0000E+00  0.0000E+00  0.0000E+00  0.0000E+00
    -10.105  0.0000E+00  0.0000E+00  0.0000E+00  0.0000E+00
    -10.066  0.0000E+00  0.0000E+00  0.0000E+00  0.0000E+00
    -10.027  0.0000E+00  0.0000E+00  0.0000E+00  0.0000E+00
     -9.988  0.0000E+00  0.0000E+00  0.0000E+00  0.0000E+00
     -9.949  0.0000E+00  0.0000E+00  0.0000E+00  0.0000E+00
     -9.910  0.0000E+00  0.0000E+00  0.0000E+00  0.0000E+00
     -9.871  0.0000E+00  0.0000E+00  0.0000E+00  0.0000E+00
     -9.833  0.0000E+00  0.0000E+00  0.0000E+00  0.0000E+00
     -9.794  0.0000E+00  0.0000E+00  0.0000E+00  0.0000E+00
     -9.755  0.0000E+00  0.0000E+00  0.0000E+00  0.0000E+00
     -9.716  0.0000E+00  0.0000E+00  0.0000E+00  0.0000E+00
     -9.677  0.0000E+00  0.0000E+00  0.0000E+00  0.0000E+00
     -9.638  0.0000E+00  0.0000E+00  0.0000E+00  0.0000E+00
     -9.599  0.0000E+00  0.0000E+00  0.1000E-02  0.0000E+00
     -9.560  0.0000E+00  0.0000E+00  0.1000E-02  0.1000E-02
     -9.521  0.0000E+00  0.0000E+00  0.1000E-02  0.1000E-02
     -9.482  0.0000E+00  0.0000E+00  0.1000E-02  0.1000E-02
     -9.443  0.0000E+00  0.0000E+00  0.1000E-02  0.1000E-02
     -9.404  0.0000E+00  0.0000E+00  0.1000E-02  0.1000E-02
     -9.365  0.0000E+00  0.0000E+00  0.1000E-02  0.1000E-02
     -9.327  0.0000E+00  0.0000E+00  0.1000E-02  0.1000E-02
     -9.288  0.0000E+00  0.0000E+00  0.1000E-02  0.1000E-02
     -9.249  0.0000E+00  0.0000E+00  0.2000E-02  0.2000E-02
     -9.210  0.0000E+00  0.0000E+00  0.2000E-02  0.2000E-02
     -9.171  0.0000E+00  0.0000E+00  0.3000E-02  0.3000E-02
     -9.132  0.0000E+00  0.0000E+00  0.4000E-02  0.4000E-02
     -9.093  0.0000E+00  0.0000E+00  0.4000E-02  0.4000E-02
     -9.054  0.0000E+00  0.0000E+00  0.5000E-02  0.5000E-02
     -9.015  0.0000E+00  0.0000E+00  0.6000E-02  0.6000E-02
     -8.976  0.0000E+00  0.0000E+00  0.6000E-02  0.6000E-02
     -8.937  0.0000E+00  0.0000E+00  0.7000E-02  0.7000E-02
     -8.898  0.0000E+00  0.0000E+00  0.8000E-02  0.8000E-02
     -8.860  0.0000E+00  0.0000E+00  0.8000E-02  0.8000E-02
     -8.821  0.0000E+00  0.0000E+00  0.1000E-01  0.9000E-02
     -8.782  0.0000E+00  0.0000E+00  0.1100E-01  0.1100E-01
     -8.743  0.0000E+00  0.0000E+00  0.1100E-01  0.1100E-01
     -8.704  0.0000E+00  0.2189E-10  0.1300E-01  0.1200E-01
     -8.665  0.0000E+00  0.0000E+00  0.1400E-01  0.1300E-01
     -8.626  0.0000E+00  0.0000E+00  0.1400E-01  0.1400E-01
     -8.587  0.0000E+00  0.0000E+00  0.1600E-01  0.1600E-01
     -8.548  0.0000E+00  0.7726E-03  0.1700E-01  0.1603E-01
     -8.509  0.0000E+00  0.0000E+00  0.1800E-01  0.1700E-01
     -8.470  0.0000E+00  0.0000E+00  0.1900E-01  0.1900E-01
     -8.431  0.0000E+00  0.0000E+00  0.2000E-01  0.1900E-01
     -8.392  0.0000E+00  0.0000E+00  0.2100E-01  0.2000E-01
     -8.354  0.0000E+00  0.0000E+00  0.2200E-01  0.2200E-01
     -8.315  0.0000E+00  0.0000E+00  0.2300E-01  0.2300E-01
     -8.276  0.0000E+00  0.0000E+00  0.2500E-01  0.2400E-01
     -8.237  0.0000E+00  0.0000E+00  0.2500E-01  0.2500E-01
     -8.198  0.0000E+00  0.0000E+00  0.2700E-01  0.2700E-01
     -8.159  0.0000E+00  0.0000E+00  0.2800E-01  0.2800E-01
     -8.120  0.0000E+00  0.0000E+00  0.3000E-01  0.3000E-01
     -8.081  0.0000E+00  0.0000E+00  0.3200E-01  0.3100E-01
     -8.042  0.0000E+00  0.0000E+00  0.3300E-01  0.3300E-01
     -8.003  0.0000E+00  0.0000E+00  0.3400E-01  0.3400E-01
     -7.964  0.0000E+00  0.0000E+00  0.3500E-01  0.3500E-01
     -7.925  0.0000E+00  0.0000E+00  0.3700E-01  0.3700E-01
     -7.887  0.0000E+00  0.0000E+00  0.3800E-01  0.3800E-01
     -7.848  0.0000E+00  0.0000E+00  0.4100E-01  0.4000E-01
     -7.809  0.0000E+00  0.0000E+00  0.4300E-01  0.4100E-01
     -7.770  0.0000E+00  0.0000E+00  0.4400E-01  0.4400E-01
     -7.731  0.0000E+00  0.0000E+00  0.4600E-01  0.4500E-01
     -7.692  0.0000E+00  0.0000E+00  0.4700E-01  0.4600E-01
     -7.653  0.0000E+00  0.0000E+00  0.4900E-01  0.4900E-01
     -7.614  0.0000E+00  0.0000E+00  0.5000E-01  0.4900E-01
     -7.575  0.0000E+00  0.0000E+00  0.5300E-01  0.5200E-01
     -7.536  0.0000E+00  0.0000E+00  0.5300E-01  0.5300E-01
     -7.497  0.0000E+00  0.0000E+00  0.5500E-01  0.5400E-01
     -7.458  0.0000E+00  0.0000E+00  0.5700E-01  0.5700E-01
     -7.419  0.0000E+00  0.0000E+00  0.5800E-01  0.5800E-01
     -7.381  0.0000E+00  0.0000E+00  0.5900E-01  0.5900E-01
     -7.342  0.0000E+00  0.0000E+00  0.6000E-01  0.6000E-01
     -7.303  0.0000E+00  0.0000E+00  0.6100E-01  0.6100E-01
     -7.264  0.0000E+00  0.2569E-01  0.6300E-01  0.6300E-01
     -7.225  0.0000E+00  0.0000E+00  0.6400E-01  0.6400E-01
     -7.186  0.0000E+00  0.0000E+00  0.6500E-01  0.6500E-01
     -7.147  0.0000E+00  0.0000E+00  0.6800E-01  0.6800E-01
     -7.108  0.0000E+00  0.0000E+00  0.7000E-01  0.6900E-01
     -7.069  0.2569E-01  0.0000E+00  0.7200E-01  0.7100E-01
     -7.030  0.0000E+00  0.0000E+00  0.7400E-01  0.7300E-01
     -6.991  0.0000E+00  0.0000E+00  0.7500E-01  0.7500E-01
     -6.952  0.0000E+00  0.0000E+00  0.7800E-01  0.7700E-01
     -6.914  0.0000E+00  0.0000E+00  0.8000E-01  0.8000E-01
     -6.875  0.2569E-01  0.0000E+00  0.8200E-01  0.8100E-01
     -6.836  0.0000E+00  0.0000E+00  0.8400E-01  0.8400E-01
     -6.797  0.0000E+00  0.0000E+00  0.8700E-01  0.8700E-01
     -6.758  0.0000E+00  0.0000E+00  0.9000E-01  0.8900E-01
     -6.719  0.0000E+00  0.0000E+00  0.9200E-01  0.9100E-01
     -6.680  0.0000E+00  0.0000E+00  0.9300E-01  0.9300E-01
     -6.641  0.0000E+00  0.0000E+00  0.9600E-01  0.9600E-01
     -6.602  0.0000E+00  0.2569E-01  0.9800E-01  0.9800E-01
     -6.563  0.0000E+00  0.0000E+00  0.9900E-01  0.9900E-01
     -6.524  0.0000E+00  0.0000E+00  0.1030E+00  0.1020E+00
     -6.485  0.0000E+00  0.0000E+00  0.1050E+00  0.1050E+00
     -6.446  0.2569E-01  0.0000E+00  0.1090E+00  0.1080E+00
     -6.408  0.2009E-01  0.0000E+00  0.1098E+00  0.1090E+00
     -6.369  0.0000E+00  0.0000E+00  0.1120E+00  0.1110E+00
     -6.330  0.0000E+00  0.0000E+00  0.1140E+00  0.1130E+00
     -6.291  0.0000E+00  0.0000E+00  0.1160E+00  0.1150E+00
     -6.252  0.0000E+00  0.0000E+00  0.1170E+00  0.1170E+00
     -6.213  0.0000E+00  0.0000E+00  0.1170E+00  0.1170E+00
     -6.174  0.0000E+00  0.0000E+00  0.1180E+00  0.1180E+00
     -6.135  0.0000E+00  0.0000E+00  0.1190E+00  0.1180E+00
     -6.096  0.0000E+00  0.0000E+00  0.1190E+00  0.1190E+00
     -6.057  0.0000E+00  0.0000E+00  0.1190E+00  0.1190E+00
     -6.018  0.0000E+00  0.0000E+00  0.1190E+00  0.1190E+00
     -5.979  0.0000E+00  0.0000E+00  0.1190E+00  0.1190E+00
     -5.941  0.0000E+00  0.0000E+00  0.1190E+00  0.1190E+00
     -5.902  0.0000E+00  0.0000E+00  0.1190E+00  0.1190E+00
     -5.863  0.0000E+00  0.0000E+00  0.1190E+00  0.1190E+00
     -5.824  0.0000E+00  0.0000E+00  0.1190E+00  0.1190E+00
     -5.785  0.0000E+00  0.0000E+00  0.1190E+00  0.1190E+00
     -5.746  0.0000E+00  0.0000E+00  0.1190E+00  0.1190E+00
     -5.707  0.0000E+00  0.0000E+00  0.1190E+00  0.1190E+00
     -5.668  0.0000E+00  0.0000E+00  0.1190E+00  0.1190E+00
     -5.629  0.0000E+00  0.0000E+00  0.1190E+00  0.1190E+00
     -5.590  0.0000E+00  0.0000E+00  0.1190E+00  0.1190E+00
     -5.551  0.0000E+00  0.0000E+00  0.1190E+00  0.1190E+00
     -5.512  0.0000E+00  0.0000E+00  0.1200E+00  0.1190E+00
     -5.473  0.0000E+00  0.0000E+00  0.1200E+00  0.1190E+00
     -5.435  0.0000E+00  0.0000E+00  0.1200E+00  0.1200E+00
     -5.396  0.0000E+00  0.0000E+00  0.1200E+00  0.1200E+00
     -5.357  0.0000E+00  0.0000E+00  0.1200E+00  0.1200E+00
     -5.318  0.0000E+00  0.0000E+00  0.1200E+00  0.1200E+00
     -5.279  0.0000E+00  0.0000E+00  0.1200E+00  0.1200E+00
     -5.240  0.0000E+00  0.0000E+00  0.1200E+00  0.1200E+00
     -5.201  0.0000E+00  0.0000E+00  0.1210E+00  0.1200E+00
     -5.162  0.0000E+00  0.0000E+00  0.1210E+00  0.1200E+00
     -5.123  0.0000E+00  0.0000E+00  0.1210E+00  0.1210E+00
     -5.084  0.0000E+00  0.0000E+00  0.1210E+00  0.1210E+00
     -5.045  0.0000E+00  0.0000E+00  0.1210E+00  0.1210E+00
     -5.006  0.0000E+00  0.0000E+00  0.1210E+00  0.1210E+00
     -4.968  0.0000E+00  0.0000E+00  0.1210E+00  0.1210E+00
     -4.929  0.0000E+00  0.0000E+00  0.1210E+00  0.1210E+00
     -4.890  0.0000E+00  0.0000E+00  0.1210E+00  0.1210E+00
     -4.851  0.0000E+00  0.0000E+00  0.1210E+00  0.1210E+00
     -4.812  0.0000E+00  0.0000E+00  0.1220E+00  0.1210E+00
     -4.773  0.0000E+00  0.0000E+00  0.1220E+00  0.1220E+00
     -4.734  0.0000E+00  0.0000E+00  0.1220E+00  0.1220E+00
     -4.695  0.0000E+00  0.0000E+00  0.1220E+00  0.1220E+00
     -4.656  0.0000E+00  0.0000E+00  0.1230E+00  0.1220E+00
     -4.617  0.0000E+00  0.0000E+00  0.1230E+00  0.1230E+00
     -4.578  0.0000E+00  0.0000E+00  0.1230E+00  0.1230E+00
     -4.539  0.0000E+00  0.0000E+00  0.1230E+00  0.1230E+00
     -4.500  0.0000E+00  0.0000E+00  0.1230E+00  0.1230E+00
     -4.462  0.0000E+00  0.0000E+00  0.1230E+00  0.1230E+00
     -4.423  0.0000E+00  0.0000E+00  0.1230E+00  0.1230E+00
     -4.384  0.0000E+00  0.0000E+00  0.1230E+00  0.1230E+00
     -4.345  0.0000E+00  0.0000E+00  0.1240E+00  0.1230E+00
     -4.306  0.0000E+00  0.0000E+00  0.1240E+00  0.1240E+00
     -4.267  0.0000E+00  0.0000E+00  0.1240E+00  0.1240E+00
     -4.228  0.0000E+00  0.0000E+00  0.1240E+00  0.1240E+00
     -4.189  0.0000E+00  0.0000E+00  0.1240E+00  0.1240E+00
     -4.150  0.0000E+00  0.0000E+00  0.1240E+00  0.1240E+00
     -4.111  0.0000E+00  0.0000E+00  0.1240E+00  0.1240E+00
     -4.072  0.0000E+00  0.0000E+00  0.1240E+00  0.1240E+00
     -4.033  0.0000E+00  0.0000E+00  0.1240E+00  0.1240E+00
     -3.995  0.0000E+00  0.0000E+00  0.1250E+00  0.1250E+00
     -3.956  0.0000E+00  0.0000E+00  0.1250E+00  0.1250E+00
     -3.917  0.0000E+00  0.0000E+00  0.1250E+00  0.1250E+00
     -3.878  0.0000E+00  0.0000E+00  0.1250E+00  0.1250E+00
     -3.839  0.0000E+00  0.0000E+00  0.1250E+00  0.1250E+00
     -3.800  0.0000E+00  0.0000E+00  0.1250E+00  0.1250E+00
     -3.761  0.0000E+00  0.0000E+00  0.1260E+00  0.1250E+00
     -3.722  0.0000E+00  0.0000E+00  0.1260E+00  0.1260E+00
     -3.683  0.0000E+00  0.0000E+00  0.1260E+00  0.1260E+00
     -3.644  0.0000E+00  0.0000E+00  0.1260E+00  0.1260E+00
     -3.605  0.0000E+00  0.0000E+00  0.1260E+00  0.1260E+00
     -3.566  0.0000E+00  0.0000E+00  0.1260E+00  0.1260E+00
     -3.527  0.0000E+00  0.0000E+00  0.1260E+00  0.1260E+00
     -3.489  0.0000E+00  0.0000E+00  0.1260E+00  0.1260E+00
     -3.450  0.0000E+00  0.0000E+00  0.1260E+00  0.1260E+00
     -3.411  0.0000E+00  0.0000E+00  0.1260E+00  0.1260E+00
     -3.372  0.0000E+00  0.0000E+00  0.1270E+00  0.1260E+00
     -3.333  0.0000E+00  0.0000E+00  0.1270E+00  0.1260E+00
     -3.294  0.0000E+00  0.0000E+00  0.1270E+00  0.1260E+00
     -3.255  0.0000E+00  0.0000E+00  0.1270E+00  0.1260E+00
     -3.216  0.0000E+00  0.0000E+00  0.1270E+00  0.1270E+00
     -3.177  0.0000E+00  0.0000E+00  0.1270E+00  0.1270E+00
     -3.138  0.0000E+00  0.0000E+00  0.1270E+00  0.1270E+00
     -3.099  0.0000E+00  0.0000E+00  0.1270E+00  0.1270E+00
     -3.060  0.0000E+00  0.0000E+00  0.1270E+00  0.1270E+00
     -3.022  0.0000E+00  0.0000E+00  0.1270E+00  0.1270E+00
     -2.983  0.0000E+00  0.0000E+00  0.1270E+00  0.1270E+00
     -2.944  0.0000E+00  0.0000E+00  0.1270E+00  0.1270E+00
     -2.905  0.0000E+00  0.0000E+00  0.1270E+00  0.1270E+00
     -2.866  0.0000E+00  0.0000E+00  0.1280E+00  0.1270E+00
     -2.827  0.0000E+00  0.0000E+00  0.1290E+00  0.1280E+00
     -2.788  0.0000E+00  0.0000E+00  0.1290E+00  0.1290E+00
     -2.749  0.0000E+00  0.0000E+00  0.1290E+00  0.1290E+00
     -2.710  0.0000E+00  0.0000E+00  0.1290E+00  0.1290E+00
     -2.671  0.0000E+00  0.0000E+00  0.1300E+00  0.1290E+00
     -2.632  0.0000E+00  0.0000E+00  0.1300E+00  0.1300E+00
     -2.593  0.0000E+00  0.0000E+00  0.1310E+00  0.1310E+00
     -2.554  0.0000E+00  0.0000E+00  0.1310E+00  0.1310E+00
     -2.516  0.0000E+00  0.0000E+00  0.1310E+00  0.1310E+00
     -2.477  0.0000E+00  0.0000E+00  0.1310E+00  0.1310E+00
     -2.438  0.0000E+00  0.0000E+00  0.1310E+00  0.1310E+00
     -2.399  0.0000E+00  0.0000E+00  0.1320E+00  0.1310E+00
     -2.360  0.0000E+00  0.0000E+00  0.1320E+00  0.1320E+00
     -2.321  0.0000E+00  0.0000E+00  0.1320E+00  0.1320E+00
     -2.282  0.0000E+00  0.0000E+00  0.1330E+00  0.1320E+00
     -2.243  0.0000E+00  0.0000E+00  0.1330E+00  0.1330E+00
     -2.204  0.0000E+00  0.0000E+00  0.1330E+00  0.1330E+00
     -2.165  0.0000E+00  0.0000E+00  0.1330E+00  0.1330E+00
     -2.126  0.0000E+00  0.0000E+00  0.1330E+00  0.1330E+00
     -2.087  0.0000E+00  0.0000E+00  0.1340E+00  0.1330E+00
     -2.049  0.0000E+00  0.0000E+00  0.1340E+00  0.1340E+00
     -2.010  0.0000E+00  0.0000E+00  0.1340E+00  0.1340E+00
     -1.971  0.0000E+00  0.0000E+00  0.1350E+00  0.1350E+00
     -1.932  0.0000E+00  0.0000E+00  0.1350E+00  0.1350E+00
     -1.893  0.0000E+00  0.0000E+00  0.1350E+00  0.1350E+00
     -1.854  0.0000E+00  0.0000E+00  0.1350E+00  0.1350E+00
     -1.815  0.0000E+00  0.0000E+00  0.1350E+00  0.1350E+00
     -1.776  0.0000E+00  0.0000E+00  0.1360E+00  0.1350E+00
     -1.737  0.0000E+00  0.0000E+00  0.1360E+00  0.1360E+00
     -1.698  0.0000E+00  0.0000E+00  0.1360E+00  0.1360E+00
     -1.659  0.0000E+00  0.0000E+00  0.1360E+00  0.1360E+00
     -1.620  0.0000E+00  0.0000E+00  0.1370E+00  0.1360E+00
     -1.581  0.0000E+00  0.0000E+00  0.1370E+00  0.1360E+00
     -1.543  0.0000E+00  0.0000E+00  0.1370E+00  0.1360E+00
     -1.504  0.0000E+00  0.0000E+00  0.1370E+00  0.1370E+00
     -1.465  0.0000E+00  0.0000E+00  0.1370E+00  0.1370E+00
     -1.426  0.0000E+00  0.0000E+00  0.1370E+00  0.1370E+00
     -1.387  0.0000E+00  0.0000E+00  0.1370E+00  0.1370E+00
     -1.348  0.0000E+00  0.0000E+00  0.1370E+00  0.1370E+00
     -1.309  0.0000E+00  0.0000E+00  0.1370E+00  0.1370E+00
     -1.270  0.0000E+00  0.0000E+00  0.1370E+00  0.1370E+00
     -1.231  0.0000E+00  0.0000E+00  0.1370E+00  0.1370E+00
     -1.192  0.0000E+00  0.0000E+00  0.1380E+00  0.1370E+00
     -1.153  0.0000E+00  0.0000E+00  0.1380E+00  0.1380E+00
     -1.114  0.0000E+00  0.0000E+00  0.1380E+00  0.1380E+00
     -1.076  0.0000E+00  0.0000E+00  0.1390E+00  0.1380E+00
     -1.037  0.0000E+00  0.0000E+00  0.1390E+00  0.1380E+00
     -0.998  0.0000E+00  0.0000E+00  0.1400E+00  0.1390E+00
     -0.959  0.0000E+00  0.0000E+00  0.1400E+00  0.1400E+00
     -0.920  0.0000E+00  0.0000E+00  0.1410E+00  0.1400E+00
     -0.881  0.0000E+00  0.0000E+00  0.1410E+00  0.1410E+00
     -0.842  0.0000E+00  0.0000E+00  0.1410E+00  0.1410E+00
     -0.803  0.0000E+00  0.0000E+00  0.1420E+00  0.1410E+00
     -0.764  0.0000E+00  0.0000E+00  0.1420E+00  0.1420E+00
     -0.725  0.0000E+00  0.0000E+00  0.1430E+00  0.1420E+00
     -0.686  0.0000E+00  0.0000E+00  0.1430E+00  0.1430E+00
     -0.647  0.0000E+00  0.0000E+00  0.1430E+00  0.1430E+00
     -0.608  0.0000E+00  0.0000E+00  0.1430E+00  0.1430E+00
     -0.570  0.0000E+00  0.0000E+00  0.1440E+00  0.1430E+00
     -0.531  0.0000E+00  0.0000E+00  0.1450E+00  0.1440E+00
     -0.492  0.0000E+00  0.0000E+00  0.1460E+00  0.1450E+00
     -0.453  0.0000E+00  0.0000E+00  0.1460E+00  0.1460E+00
     -0.414  0.0000E+00  0.0000E+00  0.1460E+00  0.1460E+00
     -0.375  0.0000E+00  0.0000E+00  0.1470E+00  0.1460E+00
     -0.336  0.0000E+00  0.0000E+00  0.1470E+00  0.1470E+00
     -0.297  0.0000E+00  0.0000E+00  0.1480E+00  0.1470E+00
     -0.258  0.0000E+00  0.0000E+00  0.1480E+00  0.1480E+00
     -0.219  0.0000E+00  0.0000E+00  0.1480E+00  0.1480E+00
     -0.180  0.0000E+00  0.0000E+00  0.1480E+00  0.1480E+00
     -0.141  0.0000E+00  0.0000E+00  0.1490E+00  0.1480E+00
     -0.103  0.0000E+00  0.0000E+00  0.1490E+00  0.1490E+00
     -0.064  0.0000E+00  0.0000E+00  0.1500E+00  0.1490E+00
     -0.025  0.0000E+00  0.0000E+00  0.1500E+00  0.1500E+00
      0.014  0.0000E+00  0.0000E+00  0.1500E+00  0.1500E+00
      0.053  0.0000E+00  0.0000E+00  0.1500E+00  0.1500E+00
      0.092  0.0000E+00  0.2569E-01  0.1510E+00  0.1510E+00
      0.131  0.0000E+00  0.0000E+00  0.1510E+00  0.1510E+00
      0.170  0.0000E+00  0.0000E+00  0.1510E+00  0.1510E+00
      0.209  0.0000E+00  0.0000E+00  0.1510E+00  0.1510E+00
      0.248  0.0000E+00  0.0000E+00  0.1510E+00  0.1510E+00
      0.287  0.0000E+00  0.0000E+00  0.1510E+00  0.1510E+00
      0.326  0.0000E+00  0.0000E+00  0.1520E+00  0.1510E+00
      0.365  0.0000E+00  0.0000E+00  0.1520E+00  0.1520E+00
      0.403  0.0000E+00  0.0000E+00  0.1520E+00  0.1520E+00
      0.442  0.0000E+00  0.0000E+00  0.1530E+00  0.1520E+00
      0.481  0.0000E+00  0.0000E+00  0.1530E+00  0.1530E+00
      0.520  0.0000E+00  0.0000E+00  0.1530E+00  0.1530E+00
      0.559  0.0000E+00  0.0000E+00  0.1540E+00  0.1530E+00
      0.598  0.0000E+00  0.0000E+00  0.1540E+00  0.1540E+00
      0.637  0.0000E+00  0.0000E+00  0.1550E+00  0.1540E+00
      0.676  0.0000E+00  0.0000E+00  0.1550E+00  0.1550E+00
      0.715  0.0000E+00  0.0000E+00  0.1560E+00  0.1550E+00
      0.754  0.0000E+00  0.0000E+00  0.1570E+00  0.1570E+00
      0.793  0.0000E+00  0.0000E+00  0.1590E+00  0.1590E+00
      0.832  0.0000E+00  0.0000E+00  0.1600E+00  0.1600E+00
      0.870  0.0000E+00  0.0000E+00  0.1600E+00  0.1600E+00
      0.909  0.0000E+00  0.0000E+00  0.1620E+00  0.1600E+00
      0.948  0.0000E+00  0.0000E+00  0.1620E+00  0.1620E+00
      0.987  0.0000E+00  0.0000E+00  0.1640E+00  0.1630E+00
      1.026  0.0000E+00  0.0000E+00  0.1640E+00  0.1640E+00
      1.065  0.0000E+00  0.0000E+00  0.1640E+00  0.1640E+00
      1.104  0.0000E+00  0.0000E+00  0.1640E+00  0.1640E+00
      1.143  0.0000E+00  0.0000E+00  0.1640E+00  0.1640E+00
      1.182  0.0000E+00  0.0000E+00  0.1640E+00  0.1640E+00
      1.221  0.0000E+00  0.0000E+00  0.1640E+00  0.1640E+00
      1.260  0.0000E+00  0.0000E+00  0.1640E+00  0.1640E+00
      1.299  0.0000E+00  0.0000E+00  0.1640E+00  0.1640E+00
      1.338  0.0000E+00  0.0000E+00  0.1640E+00  0.1640E+00
      1.376  0.0000E+00  0.0000E+00  0.1640E+00  0.1640E+00
      1.415  0.0000E+00  0.0000E+00  0.1640E+00  0.1640E+00
      1.454  0.0000E+00  0.0000E+00  0.1640E+00  0.1640E+00
      1.493  0.0000E+00  0.0000E+00  0.1640E+00  0.1640E+00
      1.532  0.0000E+00  0.0000E+00  0.1640E+00  0.1640E+00
