10
Energy = -49.36086615 eV
P 8.873754668918506 8.105155408414872 10.548692838981784
P 9.1955434837111 10.349947234113703 10.565900135226837
P 8.007699618540746 10.72143119066346 8.745065268237123
P 11.603781085179087 8.51941295896379 8.654808224823283
P 9.60321397652584 7.528499783453375 8.502877808286325
P 7.9600076941704465 7.027007114562471 11.89009277902889
P 8.873064461352786 9.257661141691083 7.301087802552827
P 10.889753545637324 10.268675473626175 7.396601051370763
P 6.079543114947447 9.93674717574276 9.293913608873316
P 11.17371393885071 10.525736918178762 9.586022293259138
