16
Energy = -83.6732121 eV
P 12.242773015078333 8.739146992329772 7.032479167122141
P 12.098468248132875 7.139896359497534 8.55393991295785
P 14.111843304181084 9.577123314129574 7.898408448005536
P 10.750230659300776 10.302887493847866 7.53246946944539
P 9.313268271571674 9.07438381355744 8.744643344484556
P 13.796408439787232 11.77377940568062 7.979214056747924
P 10.43884483428132 7.453748858376569 9.69621713715908
P 13.568147295587725 10.55832965294996 9.827643057105863
P 11.813243229912608 11.614149145306069 8.973564252576248
P 9.058208668204038 10.439982244713258 10.529345490140525
P 6.842481982640845 10.517560783869868 10.78615385770514
P 8.025086896791388 9.099751537432159 11.965187082863459
P 6.760088951484955 12.329119007253293 12.083505574866413
P 8.652976877828749 12.394511993468655 13.24818852275796
P 8.556861089755643 10.248106885378256 13.80869752743895
P 6.811843921890061 11.578298198638988 14.181118785052853
