17
Energy = -88.55817967 eV
P 15.284610978906889 9.140501337289487 11.058906840577801
P 13.79094029539088 8.806691713586712 12.663786643343856
P 14.18720030267244 10.867968999089664 11.927984005306659
P 13.872668198152528 10.299993560826492 9.782476273427678
P 11.998949484389886 9.132659328219706 9.68617476396539
P 12.105346341778972 7.9176500234835965 11.546452999382604
P 10.538036239238817 8.295226219781041 13.129676169166773
P 10.460202972090716 11.804151635730378 11.860158050949448
P 8.435723593751746 13.954622379467635 9.756679200067499
P 10.807484598423201 10.988461714422915 9.836732392500572
P 9.578725976786613 10.28625932523295 13.309721113417249
P 8.641391414292546 8.689158191988367 12.149814866187654
P 8.361400111947514 12.169979985505643 11.08071478113159
P 9.150962082047124 13.440133848895803 7.7162120691046905
P 6.99507987470042 13.289824553910904 8.193448295361124
P 8.648793293646033 10.486091555577055 9.633838884919522
P 8.15646400612858 11.444605391336111 7.6812024155347975
