19
Energy = -99.22357326 eV
P 9.40999295927768 13.427627237129686 7.907359723021242
P 8.279558054745785 12.0057968181749 9.219699140929848
P 9.966089103448406 11.311290679698594 8.002359207564679
P 10.933920353741968 14.372789460223073 9.291482330988423
P 9.338903658075623 12.056500526378343 11.22076183133692
P 9.692114012186986 14.250421420364255 11.133970027270387
P 11.220383604756089 11.08901176834317 10.52496706046078
P 12.397458059608335 12.73569520379788 9.574900786422692
P 12.943603093485772 6.96947475793162 11.33967516487637
P 13.267761563993368 13.812742887794188 11.301878815806733
P 12.299587098089892 5.1093603352787165 12.331619678045852
P 11.428556573731141 14.040286238501432 12.58924236488807
P 12.220590616466458 15.082925598606744 14.306929509766974
P 11.163396243853526 6.974244894038998 12.631198096188594
P 13.1635899993569 6.755009646420304 13.517639397438495
P 14.068314406299088 12.19457371636786 12.51070030162727
P 11.146236172269575 12.228728873385755 13.78678641012933
P 13.052906237068218 13.102727606301514 14.592170909666445
P 12.31181200824848 10.78556614996626 12.521433062274351
