21
Energy = -109.61410432 eV
P 12.22249288921896 10.839203924873246 5.990432362693394
P 13.528110985497033 10.051195438896324 7.641483932359494
P 14.593032504674376 13.28247307768365 6.833099231036942
P 12.49802041229792 13.014739461169825 6.12916255619341
P 10.613782683181013 8.500708351369045 7.602363618154314
P 14.342975505542155 11.883545512087164 8.545848018191757
P 10.416515236186813 10.705277693882692 7.364924380432391
P 11.709858992911784 9.884547615676846 8.987152006411403
P 12.907955149630176 13.560588850784775 8.249519904041918
P 8.86004473414095 7.871695689360763 8.796705238023176
P 7.485985303583939 9.544063384814836 8.672374573176425
P 9.217672223675786 8.168102605495605 11.509853047008546
P 8.46463397800392 11.277196019294626 9.766085122948699
P 9.516304722562548 8.021469872860298 13.77192518621752
P 9.122408161887437 10.401539596072615 11.669865539115591
P 7.120532653513418 7.461664178466747 11.36121202250262
P 7.99882724167008 6.590413329122255 14.547426065678913
P 6.104876896114457 9.184179586927256 10.429507223865414
P 7.001482020108749 10.95565048118257 11.52093034002833
P 7.650979804306799 8.773295398674527 14.72787487760484
P 6.327048743863171 7.533474533928688 13.417606671064943
