22
Energy = -114.68427722 eV
P 11.835131840008257 12.356742665853243 9.927825190522528
P 9.079209064832257 13.67768568065834 11.43778509847658
P 11.162757888807185 9.183337604882338 10.100934230876314
P 13.475924396091909 9.838615611686093 12.051562069113542
P 10.19366104310758 6.1387430818785385 10.947725063198469
P 10.219333847319191 10.833938602558533 13.120830037802383
P 11.091649527894294 11.647129910264486 7.830688042554725
P 7.623762264819015 12.15789976958154 8.54111782303128
P 12.315424481106682 6.1009976041038945 11.516269813429739
P 9.457076102811092 13.144413583866447 7.69980495407582
P 11.705416799439169 7.1164924703123695 9.594603662829787
P 10.870845176402339 7.09456070745117 12.87687253573195
P 13.711646124035378 11.774773527979326 13.257795280829816
P 10.01595280188317 11.69980504835613 11.040820794694312
P 11.67581410157491 12.315333533885651 14.031631122757872
P 9.927513343472818 9.80936928246371 8.3048641945253
P 12.576891304186036 13.379527811155027 12.34316374131051
P 9.500526333879733 14.634221196136455 9.469975119096988
P 7.4089398432315265 13.869105097216455 9.998032259306468
P 8.491790154881082 10.605963849313026 9.819837760206129
P 12.994922921931229 10.4187998450115 9.943668596951655
P 11.66690903995153 9.203641917053032 13.14529101034468
