23
Energy = -119.84162451 eV
P 13.889315461081376 9.73728752856265 12.0750747619179
P 13.39077719260786 10.988092028533302 9.1408968077243
P 12.884230445505041 11.542407689423221 11.254987232841977
P 12.921111343513152 8.913164976207122 8.357122832045102
P 12.793972289552018 9.419435861089909 14.019758074922391
P 12.36596712864824 8.067529217431426 12.253552624079173
P 11.236195887721363 10.913927399108507 14.208287231562764
P 10.838094874894109 8.932277560645769 7.670894238857434
P 12.04825823684032 12.01436036154107 7.713662822550899
P 12.36002439372209 10.0486879874058 6.500404295908816
P 10.906504035994002 10.970991344355486 12.131995558016767
P 10.662320658424703 8.930884229173436 11.154619003379302
P 10.220620955016338 11.033828168101135 8.52487513651688
P 9.26801804718894 12.434575432571839 11.863645398854498
P 7.535811563942078 11.065966346287803 11.51230506318559
P 9.091076602212404 7.886959563509123 12.346301360897044
P 8.218935536339284 9.781880062582461 9.862234309964133
P 9.565442272473 12.96625196248031 9.707779260674549
P 8.631440548853208 11.50086783142408 7.011378717183208
P 7.242498415013776 8.110451209377842 11.09784360643228
P 6.961292810280984 10.730026666733522 8.282789495858474
P 7.535129273916702 9.355279647294557 12.966437764198576
P 7.6375322148001334 12.859437114700897 8.547724590969656
