23
Energy = -120.05464091 eV
P 14.630028848649216 8.13300230478978 8.883648497946625
P 11.341173841655248 13.035798657103598 7.63100793752032
P 15.238492267094628 6.658012131704339 10.40261411643802
P 14.446281287108675 8.617165232937023 11.022586934140154
P 9.442457886925824 12.003338986141257 7.067753106477943
P 11.729528048995425 12.61417431780829 9.793321903135489
P 12.146450341873678 11.0129210780353 8.303654054708025
P 13.105737514044968 7.125461716527458 10.114975843160385
P 9.937648610732797 11.897406792289148 12.883141316076287
P 8.494623615360307 13.448032711227341 13.397093240744656
P 10.133472733412834 10.048222406207518 7.877469485898086
P 7.776496425856813 11.424075845536445 13.169787439269196
P 9.79738177625501 11.964506705547604 10.628124895542747
P 7.668271126212106 12.817589567000788 8.109317542717891
P 9.534431295195164 9.875962003355081 10.002844958307486
P 8.03266256966819 13.231984965885939 10.289242477751891
P 6.622230252209771 10.874835435865581 8.068461401577176
P 9.315209110638575 6.2550966338398934 9.013052367249179
P 6.734608473827377 11.633228325606046 11.126113220092384
P 9.442239869989868 6.381327769920846 11.205413108053019
P 7.29017040362243 9.866197039703069 9.872370804186492
P 9.108441850941981 4.433676686705132 10.235290368826766
P 7.511660255867255 5.955629092557223 10.23915187780552
