24
Energy = -125.48935666 eV
P 11.071384660065727 12.507409563599525 5.45834864464103
P 10.493648562484829 10.531405509806918 6.325247753914078
P 9.318885167253045 13.78863624161062 5.492526636055983
P 11.657564208727047 11.966096572065384 7.575938329316026
P 8.375823995005916 10.930794671393185 6.868858524913614
P 13.257704380863347 6.3255232054471655 10.128323254016964
P 8.393881483245083 13.155938247064666 7.3156754868563105
P 10.167942720661364 13.247211638604243 8.628394429145189
P 10.000716253833692 7.343154582186356 10.035052822326211
P 11.493273059469715 6.614798310294654 11.511303673709666
P 10.7263272855984 9.363169818080856 9.39510709681189
P 14.553355574919372 7.088834432806338 11.79608037499438
P 8.739144434321203 10.298152278885285 8.9346543227667
P 12.747537176214083 8.373520196318648 12.193864633762102
P 9.149874667040141 12.06576322481869 10.219845329565446
P 10.717582671719743 10.788032065785044 11.215240764593172
P 13.86065168887199 8.481981235651395 10.236025258802504
P 7.137317532374828 9.078287680693894 9.896978501391086
P 8.440737527555761 8.10247133612831 11.414913783331212
P 6.205200002299289 10.461674049426511 11.325848138786553
P 9.451338941939838 9.625424706137347 12.668596906886783
P 7.093935811923512 7.084725008555023 12.656203505104784
P 7.60900599375073 10.755421330906112 13.06214141480871
P 6.137898537224136 9.010637517983662 13.093292210859309
