25
Energy = -132.23686829 eV
P 9.653921141458886 11.468097821533112 7.128780206803366
P 12.953575854289657 13.081797960902659 9.331633158349682
P 9.283809194378758 9.611097068949533 8.246665550513752
P 12.466052431862595 10.923267055632708 9.173520664808931
P 15.111249631734683 12.725277442600087 8.720609183018725
P 14.908155481371232 10.519773147790865 8.576441583370697
P 10.165177087360515 11.353458656400562 9.286477848218349
P 7.782784256514915 12.643913524212072 7.451328087508779
P 7.207627497146251 9.863701871383475 9.028160108296994
P 6.145917818671943 11.145587743331417 7.554913126256183
P 13.438034658050636 13.388468000597085 11.462890783110378
P 15.898579598801412 11.383249049164343 10.336412939690176
P 14.335402039851928 11.43505364166263 11.970501085813725
P 12.828108811563464 10.03093123168473 11.184027515717357
P 6.952140167958282 12.036187231280863 9.421745408752626
P 11.036651259690181 10.835747208185026 12.183850104058244
P 11.399492480040538 13.122815070455978 12.274943084357215
P 11.238843968180662 10.121484168594854 14.286014750324888
P 11.761786888200339 13.485480363056261 14.447821550144068
P 13.32607367225491 10.353143314849877 14.950472168276976
P 13.672793913670912 12.557022202673107 15.040033539935182
P 10.308292495571001 11.956031999961487 15.099197753639894
P 12.733051297041273 10.332355679019026 17.125273732630042
P 13.086356556446974 12.575750845306805 17.219254677137133
P 11.00805866260999 11.752244565493225 17.20096825398825
