25
Energy = -130.16195306 eV
P 14.621199295070516 9.749572823434873 11.807645949527698
P 14.123044075783215 8.906615670079544 9.827728990593808
P 13.172948225088062 6.487707275335684 11.746319701078388
P 14.42102666787447 12.274889961758728 9.8884075377636
P 14.41218941244452 7.867785978719457 12.992217748585103
P 12.706297203910234 10.689889436969628 12.37160484453163
P 12.22908286248117 7.885907877401971 10.264165796343708
P 13.272168033445952 10.729255270930377 8.850917758842028
P 9.09082278766777 7.440364673676494 8.161858856850017
P 12.23694242908744 7.676456880419054 13.455585272668532
P 12.36297555352414 11.915483467740353 10.533581730558694
P 11.296343208977227 9.053923460657069 11.951858658606405
P 8.83695977412214 12.632493721502724 8.520161941598419
P 9.385033725251981 9.635892306385946 7.393566348715204
P 9.22185045511996 10.68877098081271 9.411054976276679
P 8.945821200844769 11.77629143479667 11.722963377990272
P 7.011639706629195 7.04967725621337 7.556238103279905
P 8.165169508395248 13.49832944091874 10.510301465339598
P 7.38818811306425 7.441130671933409 9.611349037062173
P 6.962018837454048 12.105903259695609 7.38091344552343
P 7.233531740803811 9.73511759610048 7.295966639517502
P 7.138902594738938 9.868482199586138 9.620736419199062
P 6.987953190532846 10.867604719232485 11.939862093037362
P 6.089289326036956 12.654743046685685 10.894241736352589
P 5.701231238965578 11.44656488231517 9.06320517965873
