27
Energy = -140.5252487 eV
P 14.484267184934007 13.638867805750957 12.687316328154584
P 16.32155225882385 12.60211684902374 13.32370052591866
P 15.056096492250346 11.741392783910754 11.738286000504102
P 14.347289217032452 11.760109281783894 13.819200636331892
P 11.83191797521276 10.990096561295372 6.369522862230456
P 8.434375901944371 12.10007724002059 7.303980396990625
P 7.721495094601975 11.8856055869161 10.791033211684876
P 11.977449187049933 12.542076165648986 7.971063562079798
P 10.711567752812957 9.158773504975434 7.087888902097059
P 9.16991877621965 12.438006463629577 12.370408249442336
P 7.74892613800339 9.06625904996981 12.733722129716499
P 10.418656470416385 12.720001213921485 6.358732858981975
P 11.262360816830292 11.921799473022265 11.548756886484655
P 11.619612816876034 8.686490751197926 9.112195940908752
P 10.208808423466854 6.4221810755319355 11.57995501262013
P 10.645688791743213 11.52853614670862 9.453151275015083
P 10.584807833579463 9.797217441689021 11.919363543750142
P 11.203764938999752 7.7726903331580335 13.033024243816852
P 9.078056557918751 7.248200268738459 13.307979838472097
P 9.759596949325813 7.9299727273321565 9.892470772926755
P 9.281643728727799 10.475743820969722 13.57658669779175
P 8.444808379832706 9.614967116266717 10.62442989962756
P 8.956501565578117 10.084644861935303 8.013536402013651
P 8.961505863404298 12.997550897661183 9.335912541183152
P 8.030096677934834 6.966930764044805 8.724492154873785
P 7.284710327298735 8.663075807821283 7.48471468949549
P 6.608029612568667 8.443838526128703 9.571325239616973
