27
Energy = -139.44101725 eV
P 16.140077319108244 12.974249252357257 13.185980428453776
P 11.934912401387566 7.402601081820805 13.516392570735178
P 15.022809308910082 11.101695135471985 9.806324155905896
P 11.033022728724516 5.614317430534592 14.439767042133196
P 15.506936769300706 12.846778579752684 11.20324053913925
P 15.167788627895638 12.619475094018089 8.237087984013499
P 13.364265523172136 9.797075699503818 9.972075843594224
P 14.268178885349096 13.988780738421973 12.604383844237388
P 16.03946045583867 14.060693124851227 9.432958045510473
P 10.192063339936237 6.441041893124187 12.579951339965994
P 12.533130910874242 12.480698202607835 12.764104573899202
P 10.62076076506851 11.46185780702528 7.968013021339131
P 9.956528658466736 7.535577110452574 14.47388941090493
P 9.759648717030068 9.468185625148815 8.482114672900687
P 11.650371910870879 11.105626164915405 9.89894331622307
P 9.986970062236916 9.850953820787112 10.674580580863331
P 11.748648739277328 13.122409004449375 10.781466838092223
P 11.101663273397904 13.56771056308321 14.10078789298885
P 12.444888318017373 13.531944294713266 15.841847631495162
P 13.848084738621585 15.213312913403449 15.68265009297322
P 12.902836238489794 16.668024381863987 14.190954883910528
P 11.08684207238575 15.688201782552158 13.503276906032562
P 9.543976757432226 13.386448705809277 10.854176015986937
P 8.882143362981134 12.62887872565191 8.854393532843297
P 8.432964688486171 11.460739079982252 10.734723329803945
P 11.971424397128764 15.346911402703471 16.945338432422677
P 10.992477559584868 16.768688914968006 15.403453603605035
