30
Energy = -158.31498981 eV
P 12.303831630322955 15.70944421105095 7.165550482626976
P 11.53032340790282 13.712153260852473 7.803553823713378
P 13.889151957722795 16.23924404359728 8.656077688549322
P 13.270473652465542 13.129871693785933 9.034997644911705
P 11.843891039409682 10.188887001032814 8.631846483400867
P 9.68363666725284 10.019537570713211 8.330979186993556
P 11.79306248151326 17.108245552055667 8.821546770340248
P 10.802813483995788 8.56898641072325 9.699312967008874
P 13.467848156457363 14.854450885506875 10.381086317062342
P 12.27135853018958 11.605829488677154 10.318301126690393
P 10.118830043940044 14.38822532022992 9.375868740860835
P 8.80389752145534 11.113286633107547 10.142554794801903
P 11.396412145385506 15.726903569684431 10.56345344177474
P 10.271294797528926 12.644410542817358 10.758595696279238
P 9.717513434567778 9.548600206717758 11.424393894817324
P 12.32408136981115 8.121962271855388 12.613004739327604
P 10.700074817356185 10.796593587108509 13.13968836652061
P 14.21328520805054 9.348088131355375 12.550266183867883
P 13.340600142003472 6.5625708640784675 13.906516141678368
P 10.11506581285545 13.906357398010519 12.897212774705098
P 11.166924473986077 8.935141155562265 14.292599940657858
P 9.092951299542053 12.167685109536812 13.789826554357436
P 12.427973348037945 12.30126689314365 13.332259400526736
P 15.230202622659892 7.812017128187495 13.876679368250333
P 13.98385372500307 10.819114240274873 14.150700228502552
P 10.694694291600918 14.675158292226772 15.031819970520063
P 13.93369105395482 7.762219703408597 15.681692404047858
P 12.773291910849107 9.6971353225483 15.610247884544894
P 12.13017753385776 13.041474502509244 15.438318014777455
P 9.961395853026739 12.747741422345669 15.833651380589277
