32
Energy = -162.89995219 eV
P 17.22521123148282 11.821071750575143 12.75285272000568
P 16.121504037252212 13.2458828557913 13.782182821055162
P 16.024824132530142 9.984620157294023 12.776848167590156
P 16.054627515382336 9.307113146637635 10.6413128170032
P 14.385601540851317 12.120694053542362 14.436695165929661
P 15.34064242685991 11.177178986105575 9.504883456967407
P 13.086536709731277 13.888174565459671 14.876272711630836
P 13.801363250037463 12.314225721230928 10.733610032261883
P 13.918926432523422 10.772780110845884 12.57845470977551
P 13.891054232679693 8.85206438786979 10.826901673367972
P 13.109145026656805 6.853170035140924 10.546206646045142
P 13.490517694483865 10.027620329337678 8.990991375454422
P 11.649106863650344 13.809839381923267 13.177675525375692
P 11.72245120221028 17.551923618833694 9.988148442956621
P 12.201506228829462 11.70737200407861 9.401504565828667
P 12.5888459850095 9.906682774549113 14.090974536107082
P 12.59564650050972 6.943974168723083 8.5172183954865
P 12.998895804976074 8.664622881483835 7.384950681998761
P 8.66242480332231 14.422802322777788 12.484698179874579
P 10.921571819045226 13.385047757799677 15.224101586770415
P 10.580050475930285 10.239209076364697 13.462751749651177
P 9.563186905553287 10.993948003358753 11.606100846931305
P 9.830216868370092 13.13976007775531 11.041779333168131
P 10.510854675675 16.40064211609393 10.960165275807173
P 10.420045069851836 15.677788783176783 13.12058234555554
P 10.269384393265518 11.233257141372528 15.319790314320453
P 8.399870748492221 9.177157407695542 13.91826661475063
P 8.23349518912517 15.991130707035227 10.974304332764019
P 8.460952291334157 12.95929497652178 9.331652208847524
P 7.655207448140015 10.902662635239444 12.768788161877344
P 8.005168520508255 11.057260584300586 14.970201291156735
P 7.65374577272486 14.843609278079477 9.181715110680505
