32
Energy = -167.2262225 eV
P 16.952219155202666 9.148853581456951 12.434772829366173
P 8.316386852811439 12.438167422126735 14.935166782502366
P 15.77076238652728 11.075199222492397 12.00099691210249
P 15.105219830240094 8.251042693705013 13.390880818218058
P 16.288324347978815 9.644770257450444 10.398505023577489
P 14.101826639455043 10.259827151574253 13.273029348501627
P 9.731643271401715 11.14192518582328 13.824205165772907
P 10.416397977075247 13.108133001071014 14.579293029317332
P 14.273437967526245 7.064606888887317 11.718119359251755
P 5.152604545707264 11.279496230634548 11.293541584805089
P 14.621406677741259 8.281287448014012 9.849345365944188
P 12.14561008426183 7.607534975845997 12.152838677008116
P 12.881700992506815 9.68530658522299 9.8635206877803
P 12.317416800450037 9.838493511585053 12.001898540405566
P 13.878762141481664 14.977225831089301 12.674753866541801
P 12.987345047824654 13.330910415664619 11.498713752289937
P 11.57019592752082 7.844621925381821 9.972907078831517
P 10.94916056536511 14.066554848332613 11.063874510815168
P 10.272997779425783 14.762609230765111 13.04423602656782
P 12.128425860707939 15.768548904822367 13.809356371330335
P 12.833989264266926 16.82732869238732 11.989138748236966
P 11.36647766395471 16.136907158837495 10.455847672041816
P 13.76619097606945 13.707939111422915 9.39232267168039
P 8.136128673103755 12.24201977339922 12.714686123378552
P 9.502781687506879 8.701705151655444 10.331389885294165
P 9.74025364021759 10.789699507971322 9.625694340372975
P 14.696860129322198 15.65991616276553 9.662840187391364
P 6.593126848171347 10.581400794328356 12.769247182676038
P 7.568303066690097 10.763511476310157 9.148318104093063
P 12.72894411474676 15.571954391569665 8.727123263050395
P 6.468492419280101 9.61574288525732 10.767139886896583
P 8.95247462685843 9.256489385979586 8.23865602375664
