33
Energy = -165.49552234 eV
P 9.045105111973404 11.680243572807662 7.891547047998214
P 13.63260879467174 11.903378193243093 4.784813353025216
P 14.72523674902896 10.939545847938648 12.55937786256212
P 14.2896601156049 11.394427720902986 14.705063594769152
P 9.795204263859771 14.569607670739009 11.871919746465625
P 12.06024609567628 9.570159889731464 10.553058056010356
P 14.674380082798438 13.34764714314853 5.45865313243075
P 10.853419471074906 12.913671268213493 8.095886302731602
P 14.428840580762484 13.646226734576203 14.69524327491087
P 11.413700379015376 11.611955439922264 12.654875034423927
P 13.458086116615737 14.188724613037337 12.79725596056378
P 9.941411177873604 12.624211234479361 6.1133974731193526
P 10.248551693673987 10.13580724787212 11.703756071410805
P 13.566105346436922 8.889327112251703 12.070983678530226
P 11.733331047499236 9.224300880669846 15.62045693018936
P 10.746258779381447 16.52321140272673 12.24415621455549
P 15.699678778975102 14.016919809453398 12.856048606368757
P 16.195418789138017 16.12780010672049 13.473146571512046
P 12.020887195714355 7.0732801622170705 10.794914293987784
P 11.333320777184918 15.976713428718226 14.267424724027615
P 8.084466433741976 10.188983003914347 15.919678713500451
P 7.604133805212156 13.862738680925334 15.34986483322261
P 10.738309116610754 12.92550008574748 15.594139676233844
P 17.41631822873876 16.73660026444204 12.01429090428089
P 14.192530385259857 6.974216606871176 11.095120107526144
P 12.968112996907895 16.366684029893147 12.893577079953404
P 10.972290110747787 10.953210670639015 7.10936616994526
P 10.953032270920891 13.740514116340126 13.459740521424774
P 9.695458910178024 8.845749313637688 15.933635546033182
P 13.159314581521805 11.869586779514515 11.372659754323287
P 8.659898736089048 12.204784348439034 15.517858867448028
P 12.790645503242123 6.925388051246922 12.829096501224406
P 12.057811015918046 11.20265801106966 14.852766837339772
