37
Energy = -188.25663535 eV
P 16.88685652860573 12.79583917129642 12.906387115006247
P 11.902060108726095 15.472008337055819 15.50487974180845
P 17.44476705618372 14.942517585715294 12.790865170294753
P 18.45397206766327 11.570969891349193 13.881089623662177
P 13.629580478670269 9.286048793316525 14.579774484333013
P 12.112856587282037 8.225489929348306 13.608380221944744
P 9.964528873632146 12.423446483683792 11.8880086464692
P 15.454327147716876 19.900017815397824 9.638266700041772
P 20.515540353886813 13.187058383179693 11.580366485180644
P 9.409109057209506 14.407540247673506 12.26269028360459
P 21.66825926446206 14.799822698020474 9.091100778397102
P 15.307816961139299 15.266180087030385 12.067645319179457
P 16.37180765150025 20.421139355306128 11.490106241894933
P 11.403864583874805 13.843225607233295 20.362523277560935
P 8.912233613325105 13.86200387731586 14.359482880376632
P 21.10508371221025 12.842435686463483 9.603436171953673
P 11.841893523922957 13.58352468921665 18.224001128192977
P 9.900046231154803 15.24088524813441 20.378725694630084
P 9.562367660825796 16.612208930247508 16.8070712451363
P 21.560231551644872 16.08622948789544 10.777720120004677
P 10.427275186822262 10.633556764072484 15.433979999200377
P 14.753753820421394 15.29622793688187 14.23370260213137
P 12.613234831308995 10.614931457954672 15.948912745240458
P 9.777647148152093 16.813432028660042 18.835124664901816
P 16.57134886011413 14.071990044945625 14.702195778254788
P 13.854428662387571 12.444475399015955 15.700131187579661
P 20.86087795993832 15.061488148742212 12.465098780942323
P 10.433288662592421 12.35296241231445 14.00203537924451
P 12.93964151497397 13.90414057239194 14.307335142538674
P 13.999685346859296 13.460943889817615 17.720328003075615
P 10.19170342122763 8.966552106741391 14.079717276381485
P 12.901784142762695 15.39205645432695 17.55389556951089
P 14.833254955955402 17.899101554146643 9.65015173627549
P 10.029169032683102 14.503491323820533 16.199185234476555
P 20.277539684366044 11.486025390088859 12.945856861045495
P 16.390777082125346 18.79957123324719 12.815553130082918
P 15.376454555566928 17.411855924546455 11.612217280203627
