38
Energy = -192.85590959 eV
P 18.180832929332826 11.075806067703212 16.430727579733833
P 14.390338492493843 8.220110542382724 14.148762256431805
P 16.677298860444036 9.264527479807404 12.534450505222852
P 12.737238055226486 11.7660742250801 17.101049808959598
P 15.046625605370117 19.462540673085435 18.006222770467346
P 16.132331936088725 16.976775538828594 9.531482056268787
P 15.701202906150506 10.986605307148587 18.107379730112896
P 14.676697198002726 17.06417271972044 11.03673730775394
P 18.926796315076082 14.32497694147496 14.559713767929878
P 15.31655634989059 17.52158067600095 7.63975751282862
P 9.48039512761405 16.430067858620095 13.184720433243069
P 13.284025981080147 18.00867519338711 7.80320570532544
P 14.770135920419088 12.550993693888637 16.735428506434083
P 19.378741143920788 13.76436295957314 12.619211177474602
P 17.222211896013338 11.41457934379657 12.96375181995403
P 10.696870843727886 17.581486401598646 17.768256036366633
P 13.068735719834653 17.7175555081868 9.861480455593885
P 14.639558507131339 9.140314175875101 17.52561101531979
P 12.668067249135662 17.549938265704686 16.53403415246783
P 14.01384895146708 19.427542367409092 16.05016692682803
P 13.5886990646688 10.623518982031435 18.854008222505662
P 19.488041560419283 12.302051906939012 15.207891249799944
P 11.491744566606513 17.894260296587092 19.6527421730187
P 11.075741050052667 17.981819421675468 10.734187096681337
P 15.637106321918893 18.105766209227358 16.437927254159806
P 14.54814836161952 9.793113930992906 12.64614710856646
P 10.131421504878949 14.895259460845907 14.600697919348853
P 11.685612573997737 19.017479353835153 12.583770587428821
P 10.490732502942915 15.884958555574398 11.305335167431446
P 14.518172007302221 11.295502106068533 14.800380392658113
P 11.679862101213281 13.83205929526062 13.654946934613212
P 13.278815274115658 9.82691574385891 15.84972695359054
P 10.61644703918421 18.126851106955577 14.080998918693988
P 12.181979506277681 14.611445641196969 11.766334970682088
P 16.53742593889727 8.374400296777058 14.674856081757992
P 16.714527523146103 10.617187268378308 14.96889934872467
P 19.45260074761905 11.547281955374364 13.101599113825884
P 13.351145623898141 18.00893111044074 18.527549935832315
