4
Energy = -17.7941568 eV
P 6.078321516225624 4.938802435868063 6.887756072093381
P 5.130421894721272 5.661318907437867 5.088450729578683
P 5.937088097721303 3.663052505405237 5.206767345155097
P 4.151410525933517 7.0294228792746205 4.117925159987454
