4
Energy = -17.78190435 eV
P 6.733535536100539 6.683741351272672 7.449519334908419
P 5.8382971807769755 5.810207020712761 5.9684969332519655
P 4.440999867365696 4.353227685818909 5.199041492785227
P 5.453682782159745 5.619426013045649 3.8494210649301546
