44
Energy = -227.56540647 eV
P 5.695878993650314 8.89666078857734 3.1030540988759565
P 5.600334468053187 5.955951156586241 5.143797319518876
P 8.166516533957937 6.899072080850662 3.274248844606968
P 6.480598968090654 10.955453063055895 3.5756553512085465
P 3.59968794688234 9.5419606851449 3.444309365095186
P 8.618247637096077 10.609398562389263 3.4537972871178364
P 2.4536996727389044 7.677151962691265 3.146742566402527
P 11.321321835528144 7.6387007295910925 6.00081341728783
P 6.685481212304062 7.90608021129212 4.860824854785429
P 7.444965945827222 4.953317141869437 4.231666754858916
P 7.0324360964145205 3.642532243923112 7.246348877311729
P 11.82160753379447 5.82122460454638 3.8823546484013627
P 3.30207714493094 10.037618231907649 5.6104743738719955
P 5.69120192036845 5.447328439447799 7.359300795876919
P 9.935789012730302 6.613927645717119 4.600349512995921
P 10.369271723759011 3.9791982900063716 6.306683582799631
P 1.8659621638040016 8.476769931315218 6.240845397501454
P 6.528827643105556 11.050180284483806 6.052718784195918
P 8.347384308274737 10.005630246564422 5.439528478624324
P 5.260898750886114 9.25092211517636 6.3110790272129815
P 2.1791701359096396 6.618890579035079 5.063946889679452
P 0.6675226459325352 8.105255993505523 4.387870188421022
P 9.907734443750112 8.188573397090952 7.845928870734905
P 12.062290911434324 5.533627307202673 6.0589365246959614
P 5.151340385827244 8.951196069627793 8.495814584120911
P 8.747588403340853 5.412609287181124 6.009701260126298
P 9.66142624846965 10.349463091233494 7.312170350567
P 7.798694100125141 10.451515467354431 8.447556802901223
P 4.866560832055983 3.4423324189260924 7.376959964161309
P 4.119263282422521 7.044171974851785 8.483854351131614
P 10.27339923380194 3.6550620891263796 8.534509653312188
P 5.580803938202055 3.9087547787836896 10.039522878812166
P 11.231224698967015 8.597993744726686 9.584202951914092
P 8.126886936445844 3.0444724332344584 9.171356823572019
P 9.633538604185706 5.655072747443439 9.263961243201578
P 3.868441255864585 4.850677453583458 11.056439319055434
P 7.447162720035835 8.254205921514686 8.42046771430385
P 7.684693355908303 7.9657242564074355 10.65133241163625
P 11.204225625873514 6.583317105869942 10.543966437784302
P 6.727553811690447 5.802639519300296 10.814684655996519
P 5.6986289894487 4.466408193356674 12.285155563426803
P 4.556665687684201 6.893292257925509 10.594403824014657
P 8.602430529039848 4.530528642792445 10.84035609901424
P 9.840796326925355 8.195369470326082 11.2925399144055
