45
Energy = -229.20166172 eV
P 10.4491949083908 13.940473822694623 6.438004979671887
P 12.101731663019462 12.509181454137021 6.769867274725301
P 8.626522183530916 12.915113087575488 7.2793868661355665
P 8.955160180299531 10.690775163104385 7.207368673356422
P 11.482291732855177 13.763834432888125 8.494186404536881
P 11.263682584542227 10.469116006564857 7.327628154813532
P 14.56241366546876 12.055328782285885 8.636144148727222
P 15.277659032131991 13.92882658064038 9.523196851163972
P 13.919696789036646 8.877568824724207 9.423012475147457
P 13.121861612363784 15.212093411082478 9.222815569629915
P 15.712071530847465 10.275132599439768 9.300970862796133
P 9.283537205555191 12.481205983962422 9.370331172109818
P 7.633446146757198 11.077555000277757 9.137829741539951
P 12.721429245194727 12.023874149197 9.908570141964551
P 11.931687499892417 10.050646694644621 9.473708422310763
P 12.136246936393796 15.564712667673973 11.121882494273338
P 10.84815759113542 13.794552508579804 11.471537800248411
P 14.976407454827944 13.292455933389668 11.612295242206962
P 8.622875555579785 13.966301971838547 10.921663478667925
P 12.15404071385756 6.91895002868078 13.20167730939679
P 14.782196113732665 9.883335232549147 11.242031436896593
P 7.415376601782966 10.352993564033813 11.26520531258751
P 9.173700616661742 10.908033516017117 12.48110802436314
P 13.472636348776152 11.658537206890145 11.940389552809858
P 10.372731789641296 8.245270178006344 13.227941720531232
P 16.405775019884906 13.639170471184102 13.243903075005111
P 7.556386246977986 12.413383490562522 12.202517358197793
P 14.717081315946992 15.220146281687379 12.577564871060252
P 12.38003615959976 8.87942023374894 12.615938066020515
P 15.741882081351953 9.116567892219285 12.990588985884187
P 11.672446503354605 13.39104288218492 13.422082803813314
P 8.36260892488498 10.372490579115016 14.556549834100188
P 14.13000805353756 10.172619427242104 14.08843343273337
P 12.368691731990744 15.10907210360279 14.865218449042903
P 14.46088044438384 13.991039753223946 14.44051506628881
P 9.960884176325367 8.973188662268068 15.31324086880041
P 8.679472416813207 12.253830466899394 15.604153253628112
P 10.781436956618057 12.38813552840505 15.216197546846338
P 11.335775894716466 10.486996397420144 16.173547049954333
P 11.723948414434869 13.963419955354329 16.551202571826394
P 13.486124251381057 9.828191747758524 16.170696283346512
P 14.665522495596191 11.656522722544773 15.563701167394825
P 13.656053816524322 16.27291314381967 16.818342387911734
P 15.380574354744597 15.049285680670351 16.242572848170266
P 13.861732907740276 14.290771648293148 17.66835783844509
