5
Energy = -23.14094602 eV
P 8.956490602033904 10.09884407207277 8.766311168310322
P 8.751073891109355 7.08462716935219 7.083305349639498
P 7.95086596812915 8.14656973674784 8.88142597054642
P 6.7978381477473935 8.079321988228328 6.96587346962712
P 6.928394607939346 6.00264066724154 7.7100769206850535
