52
Energy = -270.34838618 eV
P 8.339836029019748 9.973121399712968 12.666107789498756
P 7.844193988891336 10.016035646904161 14.877505846392545
P 12.249053160575084 10.673265199548078 9.386466077370851
P 9.753412786857572 9.415454129459892 15.8484590864236
P 8.61938546483101 11.954165637272443 15.81086089048271
P 10.856635286432052 12.280728872233581 13.542018293963059
P 10.694514372263546 14.183464603589199 14.691014638218286
P 11.722272470121478 8.924598181147209 13.137365961163201
P 12.803749385123496 8.27522990212894 14.949849514810502
P 16.27211603067368 10.77860521775789 10.854084939485483
P 15.107539200297161 12.194862310429043 14.171917320413025
P 10.830591705443998 11.336311479554183 15.636446677451614
P 12.871399422451056 7.028223028705022 13.083988450867786
P 16.016775982794837 10.571692485309535 15.354140923964788
P 15.604525468335426 12.487839337573531 9.5432685066642
P 7.364427695861081 16.747026539641993 10.949488244028428
P 7.90377713417205 14.625468108946661 10.661016188849455
P 11.349379284749363 15.261105944369119 11.141817678823497
P 8.854389925893026 13.21683795349389 13.952291439261328
P 10.881227267799332 15.906115588114549 13.274453341174866
P 14.541776601147477 14.266474515495734 6.973890897225149
P 13.47249508425277 14.725144965921963 11.618085307800852
P 12.981692642202951 16.80704711331464 11.162868143589074
P 13.10876767422736 16.15756399666132 13.317885201296182
P 16.690139481832027 12.648780871928611 15.633002980134206
P 5.812643192229775 15.1892356095677 11.048087926486133
P 14.686982103211163 12.030045793120419 16.325189374539967
P 6.4788727043548064 8.806643664454022 12.269070596836304
P 9.139859860636765 10.595666674391229 9.819133542997085
P 6.75509659471633 15.688168625031404 9.116470740129436
P 7.0283706390184575 10.965819381883858 9.774328338399465
P 12.892611811735069 14.911895654959848 8.164140400264419
P 9.210598276389097 10.221442488442245 7.574335357530394
P 11.823308100739 12.401698504689891 6.296413381048688
P 11.220729105859373 13.702028427304938 7.978150376819757
P 6.566136628154111 11.10610138889637 11.931812426330579
P 16.39508397726626 10.550604425120556 8.66406883329876
P 11.994323817340373 8.50457461837879 9.80700279226032
P 14.019236802981611 12.269460375212324 6.323076488037954
P 8.902488761116985 8.232359074576289 9.950217054526256
P 9.341511229309464 7.959689742949096 7.763615380104295
P 14.265010785492137 11.162713033944353 8.362192114222564
P 14.804894722889006 7.652918122895123 12.098805344114325
P 10.650862860245848 7.724223104500152 14.682981184290458
P 14.359806272828413 9.753680805266697 11.497325372338242
P 11.565261344887354 7.504441168133083 7.835867826423434
P 14.200835862490145 8.13975152701485 10.00544388766768
P 7.22094440012874 6.329437602366116 11.420865812592838
P 9.257265350186438 6.351356566806645 11.043283574280968
P 11.411949000125325 10.474586065299372 7.275520127007484
P 6.696269289548973 8.194056785276091 10.162468926029304
P 12.249657451451423 8.806921740304164 6.256521744697484
