6
Energy = -28.9583857 eV
P 10.434007177751889 11.637488182012243 11.256752352924162
P 12.026488753901255 12.991048084023312 11.191860565977526
P 13.64670299735278 12.339515070543941 12.406077873011625
P 13.214826916175706 10.521943476994222 13.345995338300368
P 11.27509189472525 10.211243371160203 12.568497429130876
P 10.142825522741965 8.551267812575901 13.137612983315174
