8
Energy = -38.21096728 eV
P 8.851286830406597 6.511799227029429 8.004652269120502
P 7.715757052811761 9.347050713263076 9.189807716851861
P 7.217549138966258 7.084484055873916 9.416975779237037
P 9.760560663622233 8.298727158585054 8.973478781022136
P 9.497051234409911 10.698700250477168 7.031732156882149
P 9.160215411508531 10.406017626379825 5.177061507791785
P 7.668553210318509 10.186823961267617 11.108173316035792
P 9.211085689307131 6.482515630471456 10.1840356698235
