   21   21 1000    2
  0.3804455E+03  0.1999112E-08  0.1999112E-08  0.1999112E-08  0.1000000E-15
  1.000000000000000E-004
  CAR 
 unknown system                          
    231      1    152
 
  0.0000000E+00  0.0000000E+00  0.0000000E+00  0.1000000E+01
    1       -9.464767     -9.425088
    2       -9.129130     -9.111020
    3       -9.027026     -9.012787
    4       -9.006073     -8.990297
    5       -8.979667     -8.961957
    6       -8.952968     -8.933739
    7       -8.916052     -8.900467
    8       -8.852398     -8.834804
    9       -8.821894     -8.807910
   10       -8.746868     -8.733105
   11       -8.654692     -8.638650
   12       -8.638884     -8.628149
   13       -8.609299     -8.595081
   14       -8.589735     -8.576429
   15       -8.582614     -8.566731
   16       -8.518830     -8.507749
   17       -8.492453     -8.481359
   18       -8.487913     -8.478708
   19       -8.457489     -8.444835
   20       -8.411696     -8.399041
   21       -8.399803     -8.387865
   22       -8.385039     -8.371329
   23       -8.376788     -8.359018
   24       -8.349181     -8.340051
   25       -8.296823     -8.283255
   26       -8.281876     -8.269213
   27       -8.247736     -8.234148
   28       -8.213819     -8.200727
   29       -8.184771     -8.171862
   30       -8.140460     -8.127967
   31       -8.110395     -8.098962
   32       -8.094618     -8.082101
   33       -8.072825     -8.061127
   34       -8.032663     -8.022672
   35       -7.978219     -7.967488
   36       -7.951072     -7.939015
   37       -7.913518     -7.903939
   38       -7.872498     -7.862352
   39       -7.847577     -7.840545
   40       -7.805610     -7.791312
   41       -7.774630     -7.763174
   42       -7.738925     -7.723887
   43       -7.725156     -7.711052
   44       -7.711749     -7.699462
   45       -7.697835     -7.680291
   46       -7.656791     -7.640197
   47       -7.643801     -7.626371
   48       -7.591963     -7.578821
   49       -7.563800     -7.547141
   50       -7.529003     -7.514286
   51       -7.499792     -7.486087
   52       -7.483297     -7.470339
   53       -7.456817     -7.444075
   54       -7.380134     -7.365580
   55       -7.374678     -7.363690
   56       -7.344174     -7.334370
   57       -7.326548     -7.313892
   58       -7.295611     -7.287853
   59       -7.290924     -7.276174
   60       -7.272525     -7.259780
   61       -7.211796     -7.195892
   62       -7.202089     -7.188155
   63       -7.164582     -7.152430
   64       -7.154411     -7.141232
   65       -7.134516     -7.119289
   66       -7.104791     -7.092398
   67       -7.082322     -7.068160
   68       -7.068446     -7.053864
   69       -7.059460     -7.050036
   70       -7.021211     -7.005395
   71       -6.998361     -6.977164
   72       -6.970454     -6.961331
   73       -6.962749     -6.944897
   74       -6.952526     -6.938743
   75       -6.951798     -6.928280
   76       -6.891962     -6.881586
   77       -6.879970     -6.867556
   78       -6.865804     -6.853812
   79       -6.845511     -6.826727
   80       -6.819693     -6.807623
   81       -6.804469     -6.791407
   82       -6.799798     -6.789764
   83       -6.771688     -6.762424
   84       -6.757925     -6.747053
   85       -6.721252     -6.713355
   86       -6.711321     -6.701796
   87       -6.685514     -6.676947
   88       -6.665013     -6.654668
   89       -6.647046     -6.634227
   90       -6.625984     -6.614516
   91       -6.603367     -6.593952
   92       -6.595487     -6.582411
   93       -6.583911     -6.567667
   94       -6.557987     -6.546532
   95       -6.529437     -6.513841
   96       -6.525430     -6.512602
   97       -6.502684     -6.487816
   98       -6.492938     -6.477038
   99       -6.451873     -6.439250
  100       -6.442915     -6.430711
  101       -6.437826     -6.427247
  102       -6.409299     -6.396417
  103       -6.372067     -6.362121
  104       -6.357490     -6.343904
  105       -6.339346     -6.328458
  106       -6.304266     -6.293257
  107       -6.265173     -6.258620
  108       -6.202591     -6.185357
  109       -6.185713     -6.167316
  110       -5.321559     -5.264976
  111       -4.955258     -4.928697
  112       -4.617559     -4.588186
  113       -4.431488     -4.401621
  114       -4.151061     -4.115311
  115       -3.922746     -3.881206
  116       -3.404607     -3.262582
  117       -3.026812     -2.989667
  118       -2.798191     -2.760222
  119       -2.702968     -2.675403
  120       -2.587887     -2.546928
  121       -2.356403     -2.318059
  122       -2.160302     -2.128664
  123       -2.018899     -1.989961
  124       -1.898634     -1.862711
  125       -1.713054     -1.667361
  126       -1.565662     -1.398307
  127       -1.028965     -0.982050
  128       -0.914411     -0.839310
  129       -0.838625     -0.791216
  130       -0.721578     -0.668577
  131       -0.651949     -0.587228
  132       -0.559994     -0.503102
  133       -0.485174     -0.448059
  134       -0.387960     -0.348017
  135       -0.262987     -0.217276
  136       -0.153294     -0.068516
  137       -0.090512     -0.033145
  138        0.140121      0.179245
  139        0.210427      0.240290
  140        0.435548      0.468261
  141        0.508118      0.536122
  142        0.607230      0.657718
  143        0.711785      0.763432
  144        0.729603      0.771354
  145        0.766395      0.799350
  146        0.780209      0.813240
  147        0.812738      0.857304
  148        0.843253      0.875313
  149        0.914071      0.950741
  150        0.971599      1.019996
  151        1.021133      1.046552
  152        1.051763      1.092143
