<?xml version="1.0" encoding="ISO-8859-1"?>
<modeling>
 <generator>
  <i name="program" type="string">vasp </i>
  <i name="version" type="string">5.3.5  </i>
  <i name="subversion" type="string">31Mar14 (build Feb 01 2018 12:10:03) gamma-only                       parallel </i>
  <i name="platform" type="string">LinuxIFC </i>
  <i name="date" type="string">2019 03 21 </i>
  <i name="time" type="string">17:32:16 </i>
 </generator>
 <incar>
  <i type="string" name="PREC">normal</i>
  <i type="int" name="ISPIN">     2</i>
  <i type="int" name="IBRION">     2</i>
  <i type="int" name="NSW">  1000</i>
  <i type="int" name="ISIF">     2</i>
  <i name="POTIM">      0.10000000</i>
  <i type="logical" name="LPLANE"> T  </i>
  <i type="int" name="ISMEAR">     0</i>
  <i name="SIGMA">      0.00010000</i>
  <i type="logical" name="LWAVE"> F  </i>
  <i type="logical" name="LCHARG"> F  </i>
  <i type="logical" name="LVTOT"> F  </i>
  <i type="string" name="GGA"> PE</i>
 </incar>
 <kpoints>
  <varray name="kpointlist" >
   <v>       0.00000000       0.00000000       0.00000000 </v>
  </varray>
  <varray name="weights" >
   <v>       1.00000000 </v>
  </varray>
 </kpoints>
 <parameters>
  <separator name="general" >
   <i type="string" name="SYSTEM">unknown system</i>
   <i type="logical" name="LCOMPAT"> F  </i>
  </separator>
  <separator name="electronic" >
   <i type="string" name="PREC">normal</i>
   <i name="ENMAX">    249.84400000</i>
   <i name="ENAUG">    412.49600000</i>
   <i name="EDIFF">      0.00010000</i>
   <i type="int" name="IALGO">    38</i>
   <i type="int" name="IWAVPR">    11</i>
   <i type="int" name="NBANDS">   100</i>
   <i name="NELECT">    154.00000000</i>
   <i type="int" name="TURBO">     0</i>
   <i type="int" name="IRESTART">     0</i>
   <i type="int" name="NREBOOT">     0</i>
   <i type="int" name="NMIN">     0</i>
   <i name="EREF">      0.00000000</i>
   <separator name="electronic smearing" >
    <i type="int" name="ISMEAR">     0</i>
    <i name="SIGMA">      0.00010000</i>
    <i name="KSPACING">      0.50000000</i>
    <i type="logical" name="KGAMMA"> T  </i>
   </separator>
   <separator name="electronic projectors" >
    <i type="logical" name="LREAL"> F  </i>
    <v name="ROPT">      0.00000000</v>
    <i type="int" name="LMAXPAW">  -100</i>
    <i type="int" name="LMAXMIX">     2</i>
    <i type="logical" name="NLSPLINE"> F  </i>
   </separator>
   <separator name="electronic startup" >
    <i type="int" name="ISTART">     0</i>
    <i type="int" name="ICHARG">     2</i>
    <i type="int" name="INIWAV">     1</i>
   </separator>
   <separator name="electronic spin" >
    <i type="int" name="ISPIN">     2</i>
    <i type="logical" name="LNONCOLLINEAR"> F  </i>
    <v name="MAGMOM">      1.00000000      1.00000000      1.00000000      1.00000000      1.00000000      1.00000000      1.00000000      1.00000000      1.00000000      1.00000000      1.00000000      1.00000000      1.00000000      1.00000000</v>
    <i name="NUPDOWN">     -1.00000000</i>
    <i type="logical" name="LSORBIT"> F  </i>
    <v name="SAXIS">      0.00000000      0.00000000      1.00000000</v>
    <i type="logical" name="LSPIRAL"> F  </i>
    <v name="QSPIRAL">      0.00000000      0.00000000      0.00000000</v>
    <i type="logical" name="LZEROZ"> F  </i>
   </separator>
   <separator name="electronic exchange-correlation" >
    <i type="logical" name="LASPH"> F  </i>
    <i type="logical" name="LMETAGGA"> F  </i>
   </separator>
   <separator name="electronic convergence" >
    <i type="int" name="NELM">    60</i>
    <i type="int" name="NELMDL">    -5</i>
    <i type="int" name="NELMIN">     2</i>
    <i name="ENINI">    249.84400000</i>
    <separator name="electronic convergence detail" >
     <i type="logical" name="LDIAG"> T  </i>
     <i type="logical" name="LSUBROT"> F  </i>
     <i name="WEIMIN">      0.00100000</i>
     <i name="EBREAK">      0.00000025</i>
     <i name="DEPER">      0.30000000</i>
     <i type="int" name="NRMM">     4</i>
     <i name="TIME">      0.40000000</i>
    </separator>
   </separator>
   <separator name="electronic mixer" >
    <i name="AMIX">      0.40000000</i>
    <i name="BMIX">      1.00000000</i>
    <i name="AMIN">      0.10000000</i>
    <i name="AMIX_MAG">      1.60000000</i>
    <i name="BMIX_MAG">      1.00000000</i>
    <separator name="electronic mixer details" >
     <i type="int" name="IMIX">     4</i>
     <i type="int" name="MAXMIX">   -45</i>
     <i name="WC">    100.00000000</i>
     <i type="int" name="INIMIX">     1</i>
     <i type="int" name="MIXPRE">     1</i>
     <i type="int" name="MREMOVE">     5</i>
    </separator>
   </separator>
   <separator name="electronic dipolcorrection" >
    <i type="logical" name="LDIPOL"> F  </i>
    <i type="logical" name="LMONO"> F  </i>
    <i type="int" name="IDIPOL">     0</i>
    <i name="EPSILON">      1.00000000</i>
    <v name="DIPOL">   -100.00000000   -100.00000000   -100.00000000</v>
    <i name="EFIELD">      0.00000000</i>
   </separator>
  </separator>
  <separator name="grids" >
   <i type="int" name="NGX">    80</i>
   <i type="int" name="NGY">    80</i>
   <i type="int" name="NGZ">    80</i>
   <i type="int" name="NGXF">   160</i>
   <i type="int" name="NGYF">   160</i>
   <i type="int" name="NGZF">   160</i>
   <i type="logical" name="ADDGRID"> F  </i>
  </separator>
  <separator name="ionic" >
   <i type="int" name="NSW">  1000</i>
   <i type="int" name="IBRION">     2</i>
   <i type="int" name="ISIF">     2</i>
   <i name="PSTRESS">      0.00000000</i>
   <i name="EDIFFG">      0.00100000</i>
   <i type="int" name="NFREE">     1</i>
   <i name="POTIM">      0.10000000</i>
   <i name="SMASS">     -3.00000000</i>
   <i name="SCALEE">      1.00000000</i>
  </separator>
  <separator name="ionic md" >
   <i name="TEBEG">      0.00010000</i>
   <i name="TEEND">      0.00010000</i>
   <i type="int" name="NBLOCK">     1</i>
   <i type="int" name="KBLOCK">  1000</i>
   <i type="int" name="NPACO">   256</i>
   <i name="APACO">     16.00000000</i>
  </separator>
  <separator name="symmetry" >
   <i type="int" name="ISYM">     2</i>
   <i name="SYMPREC">      0.00001000</i>
  </separator>
  <separator name="dos" >
   <i type="logical" name="LORBIT"> F  </i>
   <v name="RWIGS">     -1.00000000</v>
   <i type="int" name="NEDOS">   301</i>
   <i name="EMIN">     10.00000000</i>
   <i name="EMAX">    -10.00000000</i>
   <i name="EFERMI">      0.00000000</i>
  </separator>
  <separator name="writing" >
   <i type="int" name="NWRITE">     2</i>
   <i type="logical" name="LWAVE"> F  </i>
   <i type="logical" name="LCHARG"> F  </i>
   <i type="logical" name="LPARD"> F  </i>
   <i type="logical" name="LVTOT"> F  </i>
   <i type="logical" name="LVHAR"> F  </i>
   <i type="logical" name="LELF"> F  </i>
   <i type="logical" name="LOPTICS"> F  </i>
   <v name="STM">      0.00000000      0.00000000      0.00000000      0.00000000      0.00000000      0.00000000      0.00000000</v>
  </separator>
  <separator name="performance" >
   <i type="int" name="NPAR">     4</i>
   <i type="int" name="NSIM">     4</i>
   <i type="int" name="NBLK">    -1</i>
   <i type="logical" name="LPLANE"> T  </i>
   <i type="logical" name="LSCALAPACK"> T  </i>
   <i type="logical" name="LSCAAWARE"> F  </i>
   <i type="logical" name="LSCALU"> F  </i>
   <i type="logical" name="LASYNC"> F  </i>
   <i type="logical" name="LORBITALREAL"> F  </i>
  </separator>
  <separator name="miscellaneous" >
   <i type="int" name="IDIOT">     3</i>
   <i type="logical" name="LMUSIC"> F  </i>
   <v name="POMASS">    107.86800000</v>
   <v name="DARWINR">      0.00000000</v>
   <v name="DARWINV">      1.00000000</v>
   <i type="logical" name="LCORR"> T  </i>
  </separator>
  <i type="logical" name="GGA_COMPAT"> T  </i>
  <i type="logical" name="LBERRY"> F  </i>
  <i type="int" name="ICORELEVEL">     0</i>
  <i type="logical" name="LDAU"> F  </i>
  <i type="int" name="I_CONSTRAINED_M">     0</i>
  <separator name="electronic exchange-correlation" >
   <i type="string" name="GGA">PE</i>
   <i type="int" name="VOSKOWN">     0</i>
   <i type="logical" name="LHFCALC"> F  </i>
   <i type="string" name="PRECFOCK"></i>
   <i type="logical" name="LSYMGRAD"> F  </i>
   <i type="logical" name="LHFONE"> F  </i>
   <i type="logical" name="LRHFCALC"> F  </i>
   <i type="logical" name="LTHOMAS"> F  </i>
   <i type="logical" name="LMODELHF"> F  </i>
   <i name="ENCUT4O">     -1.00000000</i>
   <i type="int" name="EXXOEP">     0</i>
   <i type="int" name="FOURORBIT">     0</i>
   <i name="AEXX">      0.00000000</i>
   <i name="HFALPHA">      0.00000000</i>
   <i name="MCALPHA">      0.00000000</i>
   <i name="ALDAX">      1.00000000</i>
   <i name="AGGAX">      1.00000000</i>
   <i name="ALDAC">      1.00000000</i>
   <i name="AGGAC">      1.00000000</i>
   <i type="int" name="NKREDX">     1</i>
   <i type="int" name="NKREDY">     1</i>
   <i type="int" name="NKREDZ">     1</i>
   <i type="logical" name="SHIFTRED"> F  </i>
   <i type="logical" name="ODDONLY"> F  </i>
   <i type="logical" name="EVENONLY"> F  </i>
   <i type="int" name="LMAXFOCK">     0</i>
   <i type="int" name="NMAXFOCKAE">     0</i>
   <i type="logical" name="LFOCKAEDFT"> F  </i>
   <i name="HFSCREEN">      0.00000000</i>
   <i name="HFSCREENC">      0.00000000</i>
   <i type="int" name="NBANDSGWLOW">     0</i>
  </separator>
  <separator name="vdW DFT" >
   <i type="logical" name="LUSE_VDW"> F  </i>
   <i name="Zab_VDW">     -0.84910000</i>
   <i name="PARAM1">      0.12340000</i>
   <i name="PARAM2">      1.00000000</i>
   <i name="PARAM3">      0.00000000</i>
  </separator>
  <separator name="model GW" >
   <i type="int" name="MODEL_GW">     0</i>
   <i name="MODEL_EPS0">    332.36218368</i>
   <i name="MODEL_ALPHA">      1.00000000</i>
  </separator>
  <separator name="linear response parameters" >
   <i type="logical" name="LEPSILON"> F  </i>
   <i type="logical" name="LRPA"> F  </i>
   <i type="logical" name="LNABLA"> F  </i>
   <i type="logical" name="LVEL"> F  </i>
   <i type="int" name="KINTER">     0</i>
   <i name="CSHIFT">      0.10000000</i>
   <i name="OMEGAMAX">     -1.00000000</i>
   <i name="DEG_THRESHOLD">      0.00200000</i>
  </separator>
  <separator name="orbital magnetization" >
   <i type="logical" name="NUCIND"> F  </i>
   <v name="MAGPOS">      0.00000000      0.00000000      0.00000000</v>
   <i type="logical" name="LNICSALL"> T  </i>
   <i type="logical" name="ORBITALMAG"> F  </i>
   <i type="logical" name="LMAGBLOCH"> F  </i>
   <i type="logical" name="LCHIMAG"> F  </i>
   <i type="logical" name="LGAUGE"> T  </i>
   <i type="int" name="MAGATOM">     0</i>
   <v name="MAGDIPOL">      0.00000000      0.00000000      0.00000000</v>
   <v name="AVECCONST">      0.00000000      0.00000000      0.00000000</v>
  </separator>
  <separator name="response functions" >
   <i type="logical" name="LADDER"> F  </i>
   <i type="logical" name="LFXC"> F  </i>
   <i type="logical" name="LHARTREE"> T  </i>
   <i type="int" name="IBSE">     0</i>
   <i type="logical" name="LTCTE"> F  </i>
   <i type="logical" name="LTETE"> F  </i>
   <i type="logical" name="LTRIPLET"> F  </i>
   <i type="logical" name="LFXCEPS"> F  </i>
   <i type="logical" name="LFXHEG"> F  </i>
   <i type="logical" name="L2ORDER"> F  </i>
   <i type="logical" name="LUSEW"> F  </i>
   <i name="ENCUTGW">     -2.00000000</i>
   <i name="ENCUTGWSOFT">     -2.00000000</i>
   <i name="ENCUTLF">     -1.00000000</i>
   <i type="int" name="LMAXMP2">    -1</i>
   <i name="SCISSOR">      0.00000000</i>
   <i type="int" name="NOMEGA">     0</i>
   <i type="int" name="NOMEGAR">     0</i>
   <i type="int" name="NBANDSGW">    -1</i>
   <i type="int" name="NBANDSO">    -1</i>
   <i type="int" name="NBANDSV">    -1</i>
   <i type="int" name="NELM">     1</i>
   <i type="int" name="DIM">     3</i>
   <i type="int" name="ANTIRES">     0</i>
   <i name="OMEGAMAX">    -30.00000000</i>
   <i name="OMEGAMIN">    -30.00000000</i>
   <i name="OMEGATL">   -200.00000000</i>
   <i type="int" name="OMEGAGRID">     0</i>
   <i name="CSHIFT">     -0.10000000</i>
   <i type="logical" name="SELFENERGY"> F  </i>
   <i type="logical" name="LSPECTRAL"> F  </i>
   <i type="logical" name="ODDONLYGW"> F  </i>
   <i type="logical" name="EVENONLYGW"> F  </i>
   <i type="int" name="NKREDLFX">     1</i>
   <i type="int" name="NKREDLFY">     1</i>
   <i type="int" name="NKREDLFZ">     1</i>
   <i type="int" name="MAXMEM">  1800</i>
   <i type="int" name="TELESCOPE">     0</i>
   <i type="int" name="TAUPAR">     1</i>
  </separator>
  <separator name="External order field" >
   <i name="OFIELD_KAPPA">      0.00000000</i>
   <v name="OFIELD_K">      0.00000000      0.00000000      0.00000000</v>
   <i name="OFIELD_Q6_NEAR">      0.00000000</i>
   <i name="OFIELD_Q6_FAR">      0.00000000</i>
   <i name="OFIELD_A">      0.00000000</i>
  </separator>
 </parameters>
 <atominfo>
  <atoms>      14 </atoms>
  <types>       1 </types>
  <array name="atoms" >
   <dimension dim="1">ion</dimension>
   <field type="string">element</field>
   <field type="int">atomtype</field>
   <set>
    <rc><c>Ag</c><c>   1</c></rc>
    <rc><c>Ag</c><c>   1</c></rc>
    <rc><c>Ag</c><c>   1</c></rc>
    <rc><c>Ag</c><c>   1</c></rc>
    <rc><c>Ag</c><c>   1</c></rc>
    <rc><c>Ag</c><c>   1</c></rc>
    <rc><c>Ag</c><c>   1</c></rc>
    <rc><c>Ag</c><c>   1</c></rc>
    <rc><c>Ag</c><c>   1</c></rc>
    <rc><c>Ag</c><c>   1</c></rc>
    <rc><c>Ag</c><c>   1</c></rc>
    <rc><c>Ag</c><c>   1</c></rc>
    <rc><c>Ag</c><c>   1</c></rc>
    <rc><c>Ag</c><c>   1</c></rc>
   </set>
  </array>
  <array name="atomtypes" >
   <dimension dim="1">type</dimension>
   <field type="int">atomspertype</field>
   <field type="string">element</field>
   <field>mass</field>
   <field>valence</field>
   <field type="string">pseudopotential</field>
   <set>
    <rc><c>  14</c><c>Ag</c><c>    107.86800000</c><c>     11.00000000</c><c>  PAW_PBE Ag 02Apr2005                  </c></rc>
   </set>
  </array>
 </atominfo>
 <structure name="initialpos" >
  <crystal>
   <varray name="basis" >
    <v>      19.79381300       0.00000000       0.00000000 </v>
    <v>       0.00000000      19.79381300       0.00000000 </v>
    <v>       0.00000000       0.00000000      19.79381300 </v>
   </varray>
   <i name="volume">   7755.11761909 </i>
   <varray name="rec_basis" >
    <v>       0.05052084       0.00000000       0.00000000 </v>
    <v>       0.00000000       0.05052084       0.00000000 </v>
    <v>       0.00000000       0.00000000       0.05052084 </v>
   </varray>
  </crystal>
  <varray name="positions" >
   <v>       0.50350039       0.54738006       0.50000000 </v>
   <v>       0.57648062       0.64574878       0.57280922 </v>
   <v>       0.57648062       0.50732896       0.61555682 </v>
   <v>       0.65399256       0.54301421       0.50000000 </v>
   <v>       0.35794794       0.39877883       0.50000000 </v>
   <v>       0.36132460       0.54370745       0.50000000 </v>
   <v>       0.44001045       0.46137723       0.40122287 </v>
   <v>       0.46743043       0.32731963       0.42913558 </v>
   <v>       0.56011858       0.41302146       0.50000000 </v>
   <v>       0.57648062       0.64574878       0.42719078 </v>
   <v>       0.57648062       0.50732896       0.38444318 </v>
   <v>       0.44001045       0.46137723       0.59877713 </v>
   <v>       0.46743043       0.32731963       0.57086442 </v>
   <v>       0.44231172       0.67054875       0.50000000 </v>
  </varray>
 </structure>
 <calculation>
  <scstep>
   <time name="dav">    0.99    0.99</time>
   <time name="total">    1.24    1.27</time>
   <energy>
    <i name="alphaZ">     21.49719833 </i>
    <i name="ewald">  17503.51614067 </i>
    <i name="hartreedc"> -31410.76043006 </i>
    <i name="XCdc">   -157.41223456 </i>
    <i name="pawpsdc">  14047.21049297 </i>
    <i name="pawaedc"> -13401.70452430 </i>
    <i name="eentropy">      0.00000000 </i>
    <i name="bandstr">    234.82559471 </i>
    <i name="atom">  14520.78082121 </i>
    <i name="e_fr_energy">   1357.95305897 </i>
    <i name="e_wo_entrp">   1357.95305897 </i>
    <i name="e_0_energy">   1357.95305897 </i>
   </energy>
  </scstep>
  <scstep>
   <time name="dav">    1.64    1.64</time>
   <time name="total">    1.64    1.65</time>
   <energy>
    <i name="e_fr_energy">    461.69359321 </i>
    <i name="e_wo_entrp">    461.69359321 </i>
    <i name="e_0_energy">    461.69359321 </i>
   </energy>
  </scstep>
  <scstep>
   <time name="dav">    1.34    1.33</time>
   <time name="total">    1.34    1.35</time>
   <energy>
    <i name="e_fr_energy">     15.05970668 </i>
    <i name="e_wo_entrp">     15.05970668 </i>
    <i name="e_0_energy">     15.05970668 </i>
   </energy>
  </scstep>
  <scstep>
   <time name="dav">    1.08    1.08</time>
   <time name="total">    1.08    1.09</time>
   <energy>
    <i name="e_fr_energy">    -25.09102194 </i>
    <i name="e_wo_entrp">    -25.09102194 </i>
    <i name="e_0_energy">    -25.09102194 </i>
   </energy>
  </scstep>
  <scstep>
   <time name="dav">    1.09    1.09</time>
   <time name="total">    1.25    1.26</time>
   <energy>
    <i name="e_fr_energy">    -25.91275693 </i>
    <i name="e_wo_entrp">    -25.91275693 </i>
    <i name="e_0_energy">    -25.91275693 </i>
   </energy>
  </scstep>
  <scstep>
   <time name="dav">    1.02    1.02</time>
   <time name="total">    1.41    1.41</time>
   <energy>
    <i name="e_fr_energy">     -4.35370727 </i>
    <i name="e_wo_entrp">     -4.35370727 </i>
    <i name="e_0_energy">     -4.35370727 </i>
   </energy>
  </scstep>
  <scstep>
   <time name="dav">    1.08    1.08</time>
   <time name="total">    1.47    1.47</time>
   <energy>
    <i name="e_fr_energy">     -5.19506862 </i>
    <i name="e_wo_entrp">     -5.19506862 </i>
    <i name="e_0_energy">     -5.19506862 </i>
   </energy>
  </scstep>
  <scstep>
   <time name="dav">    1.09    1.09</time>
   <time name="total">    1.48    1.48</time>
   <energy>
    <i name="e_fr_energy">     -3.42728957 </i>
    <i name="e_wo_entrp">     -3.42728957 </i>
    <i name="e_0_energy">     -3.42728957 </i>
   </energy>
  </scstep>
  <scstep>
   <time name="dav">    1.06    1.06</time>
   <time name="total">    1.45    1.45</time>
   <energy>
    <i name="e_fr_energy">     -8.34470123 </i>
    <i name="e_wo_entrp">     -8.34470123 </i>
    <i name="e_0_energy">     -8.34470123 </i>
   </energy>
  </scstep>
  <scstep>
   <time name="dav">    1.00    1.00</time>
   <time name="total">    1.39    1.40</time>
   <energy>
    <i name="e_fr_energy">    -13.56343035 </i>
    <i name="e_wo_entrp">    -13.56343035 </i>
    <i name="e_0_energy">    -13.56343035 </i>
   </energy>
  </scstep>
  <scstep>
   <time name="dav">    1.03    1.03</time>
   <time name="total">    1.42    1.43</time>
   <energy>
    <i name="e_fr_energy">    -18.54623184 </i>
    <i name="e_wo_entrp">    -18.54623184 </i>
    <i name="e_0_energy">    -18.54623184 </i>
   </energy>
  </scstep>
  <scstep>
   <time name="dav">    1.19    1.19</time>
   <time name="total">    1.59    2.11</time>
   <energy>
    <i name="e_fr_energy">    -18.61881017 </i>
    <i name="e_wo_entrp">    -18.61881017 </i>
    <i name="e_0_energy">    -18.61881017 </i>
   </energy>
  </scstep>
  <scstep>
   <time name="dav">    1.08    1.08</time>
   <time name="total">    1.47    1.49</time>
   <energy>
    <i name="e_fr_energy">    -18.75108662 </i>
    <i name="e_wo_entrp">    -18.75108662 </i>
    <i name="e_0_energy">    -18.75108662 </i>
   </energy>
  </scstep>
  <scstep>
   <time name="dav">    1.02    1.02</time>
   <time name="total">    1.41    1.44</time>
   <energy>
    <i name="e_fr_energy">    -22.08551657 </i>
    <i name="e_wo_entrp">    -22.08551657 </i>
    <i name="e_0_energy">    -22.08551657 </i>
   </energy>
  </scstep>
  <scstep>
   <time name="dav">    1.02    1.02</time>
   <time name="total">    1.42    1.45</time>
   <energy>
    <i name="e_fr_energy">    -23.55903553 </i>
    <i name="e_wo_entrp">    -23.55903553 </i>
    <i name="e_0_energy">    -23.55903553 </i>
   </energy>
  </scstep>
  <scstep>
   <time name="dav">    1.00    1.00</time>
   <time name="total">    1.39    1.40</time>
   <energy>
    <i name="e_fr_energy">    -24.30344355 </i>
    <i name="e_wo_entrp">    -24.30344355 </i>
    <i name="e_0_energy">    -24.30344355 </i>
   </energy>
  </scstep>
  <scstep>
   <time name="dav">    1.00    1.00</time>
   <time name="total">    1.40    1.40</time>
   <energy>
    <i name="e_fr_energy">    -25.24715955 </i>
    <i name="e_wo_entrp">    -25.24715955 </i>
    <i name="e_0_energy">    -25.24715955 </i>
   </energy>
  </scstep>
  <scstep>
   <time name="dav">    1.06    1.06</time>
   <time name="total">    1.46    1.46</time>
   <energy>
    <i name="e_fr_energy">    -25.59979256 </i>
    <i name="e_wo_entrp">    -25.59979256 </i>
    <i name="e_0_energy">    -25.59979256 </i>
   </energy>
  </scstep>
  <scstep>
   <time name="dav">    1.06    1.06</time>
   <time name="total">    1.45    1.46</time>
   <energy>
    <i name="e_fr_energy">    -25.75298319 </i>
    <i name="e_wo_entrp">    -25.75298319 </i>
    <i name="e_0_energy">    -25.75298319 </i>
   </energy>
  </scstep>
  <scstep>
   <time name="dav">    1.06    1.06</time>
   <time name="total">    1.45    1.46</time>
   <energy>
    <i name="e_fr_energy">    -25.79566117 </i>
    <i name="e_wo_entrp">    -25.79566117 </i>
    <i name="e_0_energy">    -25.79566117 </i>
   </energy>
  </scstep>
  <scstep>
   <time name="dav">    0.84    0.84</time>
   <time name="total">    1.24    1.24</time>
   <energy>
    <i name="e_fr_energy">    -25.80140214 </i>
    <i name="e_wo_entrp">    -25.80140214 </i>
    <i name="e_0_energy">    -25.80140214 </i>
   </energy>
  </scstep>
  <scstep>
   <time name="dav">    0.86    0.86</time>
   <time name="total">    1.26    1.26</time>
   <energy>
    <i name="e_fr_energy">    -25.80222142 </i>
    <i name="e_wo_entrp">    -25.80222142 </i>
    <i name="e_0_energy">    -25.80222142 </i>
   </energy>
  </scstep>
  <scstep>
   <time name="dav">    0.83    0.83</time>
   <time name="total">    1.23    1.25</time>
   <energy>
    <i name="e_fr_energy">    -25.80436254 </i>
    <i name="e_wo_entrp">    -25.80436254 </i>
    <i name="e_0_energy">    -25.80436254 </i>
   </energy>
  </scstep>
  <scstep>
   <time name="dav">    0.82    0.82</time>
   <time name="total">    1.22    2.09</time>
   <energy>
    <i name="e_fr_energy">    -25.80624942 </i>
    <i name="e_wo_entrp">    -25.80624942 </i>
    <i name="e_0_energy">    -25.80624942 </i>
   </energy>
  </scstep>
  <scstep>
   <time name="dav">    0.80    0.80</time>
   <time name="total">    1.19    1.21</time>
   <energy>
    <i name="e_fr_energy">    -25.80701500 </i>
    <i name="e_wo_entrp">    -25.80701500 </i>
    <i name="e_0_energy">    -25.80701500 </i>
   </energy>
  </scstep>
  <scstep>
   <time name="dav">    0.83    0.83</time>
   <time name="total">    1.24    1.24</time>
   <energy>
    <i name="e_fr_energy">    -25.80712179 </i>
    <i name="e_wo_entrp">    -25.80712179 </i>
    <i name="e_0_energy">    -25.80712179 </i>
   </energy>
  </scstep>
  <scstep>
   <time name="dav">    0.80    0.81</time>
   <time name="total">    1.04    1.12</time>
   <energy>
    <i name="alphaZ">     21.49719833 </i>
    <i name="ewald">  17503.51614067 </i>
    <i name="hartreedc"> -31420.20639200 </i>
    <i name="XCdc">   -161.65445776 </i>
    <i name="pawpsdc">  14834.10021262 </i>
    <i name="pawaedc"> -14206.93836521 </i>
    <i name="eentropy">      0.00000000 </i>
    <i name="bandstr">  -1116.90225905 </i>
    <i name="atom">  14520.78082121 </i>
    <i name="e_fr_energy">    -25.80710119 </i>
    <i name="e_wo_entrp">    -25.80710119 </i>
    <i name="e_0_energy">    -25.80710119 </i>
   </energy>
  </scstep>
  <structure>
   <crystal>
    <varray name="basis" >
     <v>      19.79381300       0.00000000       0.00000000 </v>
     <v>       0.00000000      19.79381300       0.00000000 </v>
     <v>       0.00000000       0.00000000      19.79381300 </v>
    </varray>
    <i name="volume">   7755.11761909 </i>
    <varray name="rec_basis" >
     <v>       0.05052084       0.00000000       0.00000000 </v>
     <v>       0.00000000       0.05052084       0.00000000 </v>
     <v>       0.00000000       0.00000000       0.05052084 </v>
    </varray>
   </crystal>
   <varray name="positions" >
    <v>       0.50350039       0.54738006       0.50000000 </v>
    <v>       0.57648062       0.64574878       0.57280922 </v>
    <v>       0.57648062       0.50732896       0.61555682 </v>
    <v>       0.65399256       0.54301421       0.50000000 </v>
    <v>       0.35794794       0.39877883       0.50000000 </v>
    <v>       0.36132460       0.54370745       0.50000000 </v>
    <v>       0.44001045       0.46137723       0.40122287 </v>
    <v>       0.46743043       0.32731963       0.42913558 </v>
    <v>       0.56011858       0.41302146       0.50000000 </v>
    <v>       0.57648062       0.64574878       0.42719078 </v>
    <v>       0.57648062       0.50732896       0.38444318 </v>
    <v>       0.44001045       0.46137723       0.59877713 </v>
    <v>       0.46743043       0.32731963       0.57086442 </v>
    <v>       0.44231172       0.67054875       0.50000000 </v>
   </varray>
  </structure>
  <varray name="forces" >
   <v>       0.13049495       0.05156848       0.00000000 </v>
   <v>      -0.02503381      -0.23347977      -0.23184398 </v>
   <v>      -0.06895931       0.09392666      -0.29173347 </v>
   <v>      -0.59575768       0.31457024       0.00000000 </v>
   <v>       0.34357780       0.12713015       0.00000000 </v>
   <v>       0.45823669      -0.40218971       0.00000000 </v>
   <v>       0.05330503      -0.15560535       0.37681008 </v>
   <v>      -0.08000823       0.25504107       0.14612502 </v>
   <v>      -0.48155308       0.18748301      -0.00000000 </v>
   <v>      -0.02503381      -0.23347977       0.23184398 </v>
   <v>      -0.06895931       0.09392666       0.29173347 </v>
   <v>       0.05330503      -0.15560535      -0.37681008 </v>
   <v>      -0.08000823       0.25504107      -0.14612502 </v>
   <v>       0.38639396      -0.19832737       0.00000000 </v>
  </varray>
  <varray name="stress" >
   <v>      -2.06917337       0.38236455       0.00000000 </v>
   <v>       0.38236456      -1.86827800       0.00000000 </v>
   <v>       0.00000000       0.00000000      -1.77866933 </v>
  </varray>
  <energy>
   <i name="e_fr_energy">    -25.80710119 </i>
   <i name="e_wo_entrp">    -25.80710119 </i>
   <i name="e_0_energy">      0.00000000 </i>
  </energy>
  <time name="totalsc">   38.40   40.27</time>
 </calculation>
 <calculation>
  <scstep>
   <time name="dav">    1.04    1.04</time>
   <time name="total">    1.43    1.44</time>
   <energy>
    <i name="alphaZ">     21.49719833 </i>
    <i name="ewald">  17550.08650780 </i>
    <i name="hartreedc"> -31466.51924595 </i>
    <i name="XCdc">   -161.57178354 </i>
    <i name="pawpsdc">  14834.16551441 </i>
    <i name="pawaedc"> -14207.00442021 </i>
    <i name="eentropy">      0.00000000 </i>
    <i name="bandstr">  -1117.26342326 </i>
    <i name="atom">  14520.78082121 </i>
    <i name="e_fr_energy">    -25.82883120 </i>
    <i name="e_wo_entrp">    -25.82883120 </i>
    <i name="e_0_energy">    -25.82883120 </i>
   </energy>
  </scstep>
  <scstep>
   <time name="dav">    1.06    1.06</time>
   <time name="total">    1.45    1.45</time>
   <energy>
    <i name="e_fr_energy">    -25.82961277 </i>
    <i name="e_wo_entrp">    -25.82961277 </i>
    <i name="e_0_energy">    -25.82961277 </i>
   </energy>
  </scstep>
  <scstep>
   <time name="dav">    0.78    0.78</time>
   <time name="total">    1.01    1.03</time>
   <energy>
    <i name="alphaZ">     21.49719833 </i>
    <i name="ewald">  17550.08650780 </i>
    <i name="hartreedc"> -31466.06477033 </i>
    <i name="XCdc">   -161.58656870 </i>
    <i name="pawpsdc">  14840.72888717 </i>
    <i name="pawaedc"> -14213.67753977 </i>
    <i name="eentropy">      0.00000000 </i>
    <i name="bandstr">  -1117.59417774 </i>
    <i name="atom">  14520.78082121 </i>
    <i name="e_fr_energy">    -25.82964203 </i>
    <i name="e_wo_entrp">    -25.82964203 </i>
    <i name="e_0_energy">    -25.82964203 </i>
   </energy>
  </scstep>
  <structure>
   <crystal>
    <varray name="basis" >
     <v>      19.79381300       0.00000000       0.00000000 </v>
     <v>       0.00000000      19.79381300       0.00000000 </v>
     <v>       0.00000000       0.00000000      19.79381300 </v>
    </varray>
    <i name="volume">   7755.11761909 </i>
    <varray name="rec_basis" >
     <v>       0.05052084       0.00000000       0.00000000 </v>
     <v>       0.00000000       0.05052084       0.00000000 </v>
     <v>       0.00000000       0.00000000       0.05052084 </v>
    </varray>
   </crystal>
   <varray name="positions" >
    <v>       0.50356400       0.54740520       0.50000000 </v>
    <v>       0.57646841       0.64563497       0.57269620 </v>
    <v>       0.57644700       0.50737475       0.61541461 </v>
    <v>       0.65370216       0.54316754       0.50000000 </v>
    <v>       0.35811541       0.39884080       0.50000000 </v>
    <v>       0.36154797       0.54351140       0.50000000 </v>
    <v>       0.44003643       0.46130138       0.40140655 </v>
    <v>       0.46739143       0.32744396       0.42920681 </v>
    <v>       0.55988385       0.41311285       0.50000000 </v>
    <v>       0.57646841       0.64563497       0.42730380 </v>
    <v>       0.57644700       0.50737475       0.38458539 </v>
    <v>       0.44003643       0.46130138       0.59859345 </v>
    <v>       0.46739143       0.32744396       0.57079319 </v>
    <v>       0.44250007       0.67045208       0.50000000 </v>
   </varray>
  </structure>
  <varray name="forces" >
   <v>       0.11482940       0.04325839      -0.00000000 </v>
   <v>      -0.02327032      -0.20980137      -0.20880553 </v>
   <v>      -0.06641817       0.08322022      -0.26540153 </v>
   <v>      -0.55161399       0.29817481      -0.00000000 </v>
   <v>       0.31502065       0.11064893      -0.00000000 </v>
   <v>       0.43400096      -0.37793661      -0.00000000 </v>
   <v>       0.05463496      -0.13894728       0.35028990 </v>
   <v>      -0.07620971       0.23037823       0.13160384 </v>
   <v>      -0.45647806       0.17783446      -0.00000000 </v>
   <v>      -0.02327032      -0.20980137       0.20880553 </v>
   <v>      -0.06641817       0.08322022       0.26540153 </v>
   <v>       0.05463496      -0.13894728      -0.35028990 </v>
   <v>      -0.07620971       0.23037823      -0.13160384 </v>
   <v>       0.36676753      -0.18167959      -0.00000000 </v>
  </varray>
  <varray name="stress" >
   <v>      -2.01976466       0.37655709       0.00000000 </v>
   <v>       0.37655708      -1.80222573       0.00000000 </v>
   <v>       0.00000000       0.00000000      -1.72579008 </v>
  </varray>
  <energy>
   <i name="e_fr_energy">    -25.82964203 </i>
   <i name="e_wo_entrp">    -25.82964203 </i>
   <i name="e_0_energy">      0.00000000 </i>
  </energy>
  <time name="totalsc">    5.67    5.76</time>
 </calculation>
 <calculation>
  <scstep>
   <time name="dav">    1.02    1.02</time>
   <time name="total">    1.41    1.42</time>
   <energy>
    <i name="alphaZ">     21.49719833 </i>
    <i name="ewald">  17690.56546273 </i>
    <i name="hartreedc"> -31605.63542547 </i>
    <i name="XCdc">   -161.33805536 </i>
    <i name="pawpsdc">  14844.07143388 </i>
    <i name="pawaedc"> -14217.08507782 </i>
    <i name="eentropy">      0.00000000 </i>
    <i name="bandstr">  -1118.73957125 </i>
    <i name="atom">  14520.78082121 </i>
    <i name="e_fr_energy">    -25.88321374 </i>
    <i name="e_wo_entrp">    -25.88321374 </i>
    <i name="e_0_energy">    -25.88321374 </i>
   </energy>
  </scstep>
  <scstep>
   <time name="dav">    1.07    1.07</time>
   <time name="total">    1.46    1.46</time>
   <energy>
    <i name="e_fr_energy">    -25.88980284 </i>
    <i name="e_wo_entrp">    -25.88980284 </i>
    <i name="e_0_energy">    -25.88980284 </i>
   </energy>
  </scstep>
  <scstep>
   <time name="dav">    1.05    1.05</time>
   <time name="total">    1.45    1.45</time>
   <energy>
    <i name="e_fr_energy">    -25.88974152 </i>
    <i name="e_wo_entrp">    -25.88974152 </i>
    <i name="e_0_energy">    -25.88974152 </i>
   </energy>
  </scstep>
  <scstep>
   <time name="dav">    1.01    1.01</time>
   <time name="total">    1.24    1.92</time>
   <energy>
    <i name="alphaZ">     21.49719833 </i>
    <i name="ewald">  17690.56546273 </i>
    <i name="hartreedc"> -31603.83411624 </i>
    <i name="XCdc">   -161.39206904 </i>
    <i name="pawpsdc">  14874.33228212 </i>
    <i name="pawaedc"> -14247.87490789 </i>
    <i name="eentropy">      0.00000000 </i>
    <i name="bandstr">  -1119.96441786 </i>
    <i name="atom">  14520.78082121 </i>
    <i name="e_fr_energy">    -25.88974665 </i>
    <i name="e_wo_entrp">    -25.88974665 </i>
    <i name="e_0_energy">    -25.88974665 </i>
   </energy>
  </scstep>
  <structure>
   <crystal>
    <varray name="basis" >
     <v>      19.79381300       0.00000000       0.00000000 </v>
     <v>       0.00000000      19.79381300       0.00000000 </v>
     <v>       0.00000000       0.00000000      19.79381300 </v>
    </varray>
    <i name="volume">   7755.11761909 </i>
    <varray name="rec_basis" >
     <v>       0.05052084       0.00000000       0.00000000 </v>
     <v>       0.00000000       0.05052084       0.00000000 </v>
     <v>       0.00000000       0.00000000       0.05052084 </v>
    </varray>
   </crystal>
   <varray name="positions" >
    <v>       0.50375483       0.54748061       0.50000000 </v>
    <v>       0.57643180       0.64529354       0.57235716 </v>
    <v>       0.57634616       0.50751210       0.61498799 </v>
    <v>       0.65283095       0.54362756       0.50000000 </v>
    <v>       0.35861785       0.39902671       0.50000000 </v>
    <v>       0.36221807       0.54292326       0.50000000 </v>
    <v>       0.44011438       0.46107383       0.40195758 </v>
    <v>       0.46727443       0.32781692       0.42942050 </v>
    <v>       0.55917965       0.41338702       0.50000000 </v>
    <v>       0.57643180       0.64529354       0.42764284 </v>
    <v>       0.57634616       0.50751210       0.38501201 </v>
    <v>       0.44011438       0.46107383       0.59804242 </v>
    <v>       0.46727443       0.32781692       0.57057950 </v>
    <v>       0.44306512       0.67016205       0.50000000 </v>
   </varray>
  </structure>
  <varray name="forces" >
   <v>       0.08100399       0.02254220       0.00000000 </v>
   <v>      -0.02115867      -0.15875218      -0.15976542 </v>
   <v>      -0.06503460       0.06079920      -0.21488967 </v>
   <v>      -0.47060007       0.27779614       0.00000000 </v>
   <v>       0.25484789       0.07054786       0.00000000 </v>
   <v>       0.40207912      -0.34221101       0.00000000 </v>
   <v>       0.06438874      -0.10219326       0.30454383 </v>
   <v>      -0.07123692       0.17724656       0.10114858 </v>
   <v>      -0.42528821       0.16710971       0.00000000 </v>
   <v>      -0.02115867      -0.15875218       0.15976542 </v>
   <v>      -0.06503460       0.06079920       0.21488967 </v>
   <v>       0.06438874      -0.10219326      -0.30454383 </v>
   <v>      -0.07123692       0.17724656      -0.10114858 </v>
   <v>       0.34404017      -0.14998554       0.00000000 </v>
  </varray>
  <varray name="stress" >
   <v>      -1.87003585       0.35723105       0.00000000 </v>
   <v>       0.35723106      -1.61703853       0.00000000 </v>
   <v>       0.00000000       0.00000000      -1.56895595 </v>
  </varray>
  <energy>
   <i name="e_fr_energy">    -25.88974665 </i>
   <i name="e_wo_entrp">    -25.88974665 </i>
   <i name="e_0_energy">      0.00000000 </i>
  </energy>
  <time name="totalsc">    7.36    8.11</time>
 </calculation>
 <calculation>
  <scstep>
   <time name="dav">    1.00    1.01</time>
   <time name="total">    1.40    1.41</time>
   <energy>
    <i name="alphaZ">     21.49719833 </i>
    <i name="ewald">  17975.02871582 </i>
    <i name="hartreedc"> -31886.76866475 </i>
    <i name="XCdc">   -160.87244957 </i>
    <i name="pawpsdc">  14874.60145184 </i>
    <i name="pawaedc"> -14248.15033796 </i>
    <i name="eentropy">      0.00000000 </i>
    <i name="bandstr">  -1122.06594556 </i>
    <i name="atom">  14520.78082121 </i>
    <i name="e_fr_energy">    -25.94921064 </i>
    <i name="e_wo_entrp">    -25.94921064 </i>
    <i name="e_0_energy">    -25.94921064 </i>
   </energy>
  </scstep>
  <scstep>
   <time name="dav">    1.06    1.06</time>
   <time name="total">    1.45    1.45</time>
   <energy>
    <i name="e_fr_energy">    -25.97623244 </i>
    <i name="e_wo_entrp">    -25.97623244 </i>
    <i name="e_0_energy">    -25.97623244 </i>
   </energy>
  </scstep>
  <scstep>
   <time name="dav">    1.05    1.05</time>
   <time name="total">    1.44    1.55</time>
   <energy>
    <i name="e_fr_energy">    -25.97584616 </i>
    <i name="e_wo_entrp">    -25.97584616 </i>
    <i name="e_0_energy">    -25.97584616 </i>
   </energy>
  </scstep>
  <scstep>
   <time name="dav">    1.06    1.06</time>
   <time name="total">    1.45    1.48</time>
   <energy>
    <i name="e_fr_energy">    -25.97581447 </i>
    <i name="e_wo_entrp">    -25.97581447 </i>
    <i name="e_0_energy">    -25.97581447 </i>
   </energy>
  </scstep>
  <scstep>
   <time name="dav">    0.81    0.81</time>
   <time name="total">    1.04    1.05</time>
   <energy>
    <i name="alphaZ">     21.49719833 </i>
    <i name="ewald">  17975.02871582 </i>
    <i name="hartreedc"> -31883.11009762 </i>
    <i name="XCdc">   -160.98279227 </i>
    <i name="pawpsdc">  14939.26074139 </i>
    <i name="pawaedc"> -14313.92019291 </i>
    <i name="eentropy">      0.00000000 </i>
    <i name="bandstr">  -1124.53017459 </i>
    <i name="atom">  14520.78082121 </i>
    <i name="e_fr_energy">    -25.97578065 </i>
    <i name="e_wo_entrp">    -25.97578065 </i>
    <i name="e_0_energy">    -25.97578065 </i>
   </energy>
  </scstep>
  <structure>
   <crystal>
    <varray name="basis" >
     <v>      19.79381300       0.00000000       0.00000000 </v>
     <v>       0.00000000      19.79381300       0.00000000 </v>
     <v>       0.00000000       0.00000000      19.79381300 </v>
    </varray>
    <i name="volume">   7755.11761909 </i>
    <varray name="rec_basis" >
     <v>       0.05052084       0.00000000       0.00000000 </v>
     <v>       0.00000000       0.05052084       0.00000000 </v>
     <v>       0.00000000       0.00000000       0.05052084 </v>
    </varray>
   </crystal>
   <varray name="positions" >
    <v>       0.50413649       0.54763144       0.50000000 </v>
    <v>       0.57635859       0.64461068       0.57167909 </v>
    <v>       0.57614447       0.50778681       0.61413476 </v>
    <v>       0.65108853       0.54454758       0.50000000 </v>
    <v>       0.35962271       0.39939853       0.50000000 </v>
    <v>       0.36355828       0.54174697       0.50000000 </v>
    <v>       0.44027028       0.46061873       0.40305964 </v>
    <v>       0.46704043       0.32856284       0.42984787 </v>
    <v>       0.55777124       0.41393535       0.50000000 </v>
    <v>       0.57635859       0.64461068       0.42832091 </v>
    <v>       0.57614447       0.50778681       0.38586524 </v>
    <v>       0.44027028       0.46061873       0.59694036 </v>
    <v>       0.46704043       0.32856284       0.57015213 </v>
    <v>       0.44419521       0.66958200       0.50000000 </v>
   </varray>
  </structure>
  <varray name="forces" >
   <v>      -0.00747461      -0.02793740       0.00000000 </v>
   <v>      -0.01538082      -0.02964806      -0.03364399 </v>
   <v>      -0.05702318       0.00652178      -0.08862401 </v>
   <v>      -0.25909636       0.21101130       0.00000000 </v>
   <v>       0.09283630      -0.02879490       0.00000000 </v>
   <v>       0.30556500      -0.24233485       0.00000000 </v>
   <v>       0.08721970      -0.01055573       0.18289757 </v>
   <v>      -0.05474188       0.04488398       0.02531043 </v>
   <v>      -0.33405673       0.13825407       0.00000000 </v>
   <v>      -0.01538082      -0.02964806       0.03364399 </v>
   <v>      -0.05702318       0.00652178       0.08862401 </v>
   <v>       0.08721970      -0.01055573      -0.18289757 </v>
   <v>      -0.05474188       0.04488398      -0.02531043 </v>
   <v>       0.28207876      -0.07260217       0.00000000 </v>
  </varray>
  <varray name="stress" >
   <v>      -1.58081984       0.31498039       0.00000000 </v>
   <v>       0.31498038      -1.22441380       0.00000000 </v>
   <v>       0.00000000       0.00000000      -1.26213960 </v>
  </varray>
  <energy>
   <i name="e_fr_energy">    -25.97578065 </i>
   <i name="e_wo_entrp">    -25.97578065 </i>
   <i name="e_0_energy">      0.00000000 </i>
  </energy>
  <time name="totalsc">    8.56    8.76</time>
 </calculation>
 <calculation>
  <scstep>
   <time name="dav">    1.01    1.01</time>
   <time name="total">    1.40    1.41</time>
   <energy>
    <i name="alphaZ">     21.49719833 </i>
    <i name="ewald">  18558.41294118 </i>
    <i name="hartreedc"> -32462.63294442 </i>
    <i name="XCdc">   -159.87080793 </i>
    <i name="pawpsdc">  14938.29358111 </i>
    <i name="pawaedc"> -14312.94141665 </i>
    <i name="eentropy">      0.00000000 </i>
    <i name="bandstr">  -1129.41772562 </i>
    <i name="atom">  14520.78082121 </i>
    <i name="e_fr_energy">    -25.87835280 </i>
    <i name="e_wo_entrp">    -25.87835280 </i>
    <i name="e_0_energy">    -25.87835280 </i>
   </energy>
  </scstep>
  <scstep>
   <time name="dav">    1.06    1.06</time>
   <time name="total">    1.45    1.46</time>
   <energy>
    <i name="e_fr_energy">    -25.99123818 </i>
    <i name="e_wo_entrp">    -25.99123818 </i>
    <i name="e_0_energy">    -25.99123818 </i>
   </energy>
  </scstep>
  <scstep>
   <time name="dav">    1.05    1.05</time>
   <time name="total">    1.44    1.44</time>
   <energy>
    <i name="e_fr_energy">    -25.98906505 </i>
    <i name="e_wo_entrp">    -25.98906505 </i>
    <i name="e_0_energy">    -25.98906505 </i>
   </energy>
  </scstep>
  <scstep>
   <time name="dav">    1.09    1.09</time>
   <time name="total">    1.48    2.49</time>
   <energy>
    <i name="e_fr_energy">    -25.98892894 </i>
    <i name="e_wo_entrp">    -25.98892894 </i>
    <i name="e_0_energy">    -25.98892894 </i>
   </energy>
  </scstep>
  <scstep>
   <time name="dav">    1.06    1.07</time>
   <time name="total">    1.46    1.47</time>
   <energy>
    <i name="e_fr_energy">    -25.98878039 </i>
    <i name="e_wo_entrp">    -25.98878039 </i>
    <i name="e_0_energy">    -25.98878039 </i>
   </energy>
  </scstep>
  <scstep>
   <time name="dav">    0.84    0.84</time>
   <time name="total">    1.07    1.22</time>
   <energy>
    <i name="alphaZ">     21.49719833 </i>
    <i name="ewald">  18558.41294118 </i>
    <i name="hartreedc"> -32454.84067431 </i>
    <i name="XCdc">   -160.09905780 </i>
    <i name="pawpsdc">  15084.61903707 </i>
    <i name="pawaedc"> -14461.67741900 </i>
    <i name="eentropy">      0.00000000 </i>
    <i name="bandstr">  -1134.68166227 </i>
    <i name="atom">  14520.78082121 </i>
    <i name="e_fr_energy">    -25.98881559 </i>
    <i name="e_wo_entrp">    -25.98881559 </i>
    <i name="e_0_energy">    -25.98881559 </i>
   </energy>
  </scstep>
  <structure>
   <crystal>
    <varray name="basis" >
     <v>      19.79381300       0.00000000       0.00000000 </v>
     <v>       0.00000000      19.79381300       0.00000000 </v>
     <v>       0.00000000       0.00000000      19.79381300 </v>
    </varray>
    <i name="volume">   7755.11761909 </i>
    <varray name="rec_basis" >
     <v>       0.05052084       0.00000000       0.00000000 </v>
     <v>       0.00000000       0.05052084       0.00000000 </v>
     <v>       0.00000000       0.00000000       0.05052084 </v>
    </varray>
   </crystal>
   <varray name="positions" >
    <v>       0.50489981       0.54793308       0.50000000 </v>
    <v>       0.57621215       0.64324496       0.57032293 </v>
    <v>       0.57574110       0.50833623       0.61242828 </v>
    <v>       0.64760369       0.54638764       0.50000000 </v>
    <v>       0.36163244       0.40014217       0.50000000 </v>
    <v>       0.36623870       0.53939439       0.50000000 </v>
    <v>       0.44058209       0.45970853       0.40526376 </v>
    <v>       0.46657243       0.33005468       0.43070262 </v>
    <v>       0.55495444       0.41503202       0.50000000 </v>
    <v>       0.57621215       0.64324496       0.42967707 </v>
    <v>       0.57574110       0.50833623       0.38757172 </v>
    <v>       0.44058209       0.45970853       0.59473624 </v>
    <v>       0.46657243       0.33005468       0.56929738 </v>
    <v>       0.44645539       0.66842190       0.50000000 </v>
   </varray>
  </structure>
  <varray name="forces" >
   <v>      -0.24669727      -0.15102022       0.00000000 </v>
   <v>      -0.00817551       0.29668636       0.28351443 </v>
   <v>      -0.04135041      -0.12383109       0.21035083 </v>
   <v>       0.29462898      -0.00373091       0.00000000 </v>
   <v>      -0.29546845      -0.27620883       0.00000000 </v>
   <v>       0.06869460       0.01789199       0.00000000 </v>
   <v>       0.15371507       0.21385009      -0.11505255 </v>
   <v>      -0.01465830      -0.27172584      -0.14948897 </v>
   <v>      -0.12098026       0.07395234       0.00000000 </v>
   <v>      -0.00817551       0.29668636      -0.28351443 </v>
   <v>      -0.04135041      -0.12383109      -0.21035083 </v>
   <v>       0.15371507       0.21385009       0.11505255 </v>
   <v>      -0.01465830      -0.27172584       0.14948897 </v>
   <v>       0.12076072       0.10915659       0.00000000 </v>
  </varray>
  <varray name="stress" >
   <v>      -0.86835309       0.20917885       0.00000000 </v>
   <v>       0.20917885      -0.26181717       0.00000000 </v>
   <v>       0.00000000       0.00000000      -0.52315765 </v>
  </varray>
  <energy>
   <i name="e_fr_energy">    -25.98881559 </i>
   <i name="e_wo_entrp">    -25.98881559 </i>
   <i name="e_0_energy">      0.00000000 </i>
  </energy>
  <time name="totalsc">   10.10   11.42</time>
 </calculation>
 <calculation>
  <scstep>
   <time name="dav">    1.00    1.00</time>
   <time name="total">    1.39    1.54</time>
   <energy>
    <i name="alphaZ">     21.49719833 </i>
    <i name="ewald">  18280.93198987 </i>
    <i name="hartreedc"> -32179.30804748 </i>
    <i name="XCdc">   -160.63322964 </i>
    <i name="pawpsdc">  15083.77329748 </i>
    <i name="pawaedc"> -14460.83932939 </i>
    <i name="eentropy">      0.00000000 </i>
    <i name="bandstr">  -1132.19224672 </i>
    <i name="atom">  14520.78082121 </i>
    <i name="e_fr_energy">    -25.98954634 </i>
    <i name="e_wo_entrp">    -25.98954634 </i>
    <i name="e_0_energy">    -25.98954634 </i>
   </energy>
  </scstep>
  <scstep>
   <time name="dav">    1.09    1.09</time>
   <time name="total">    1.48    1.51</time>
   <energy>
    <i name="e_fr_energy">    -26.01233770 </i>
    <i name="e_wo_entrp">    -26.01233770 </i>
    <i name="e_0_energy">    -26.01233770 </i>
   </energy>
  </scstep>
  <scstep>
   <time name="dav">    1.06    1.06</time>
   <time name="total">    1.45    1.48</time>
   <energy>
    <i name="e_fr_energy">    -26.01193336 </i>
    <i name="e_wo_entrp">    -26.01193336 </i>
    <i name="e_0_energy">    -26.01193336 </i>
   </energy>
  </scstep>
  <scstep>
   <time name="dav">    1.09    1.09</time>
   <time name="total">    1.48    1.50</time>
   <energy>
    <i name="e_fr_energy">    -26.01185056 </i>
    <i name="e_wo_entrp">    -26.01185056 </i>
    <i name="e_0_energy">    -26.01185056 </i>
   </energy>
  </scstep>
  <scstep>
   <time name="dav">    0.81    0.81</time>
   <time name="total">    1.04    1.06</time>
   <energy>
    <i name="alphaZ">     21.49719833 </i>
    <i name="ewald">  18280.93198987 </i>
    <i name="hartreedc"> -32182.63110088 </i>
    <i name="XCdc">   -160.53273638 </i>
    <i name="pawpsdc">  15010.19891934 </i>
    <i name="pawaedc"> -14386.07025339 </i>
    <i name="eentropy">      0.00000000 </i>
    <i name="bandstr">  -1130.18663359 </i>
    <i name="atom">  14520.78082121 </i>
    <i name="e_fr_energy">    -26.01179548 </i>
    <i name="e_wo_entrp">    -26.01179548 </i>
    <i name="e_0_energy">    -26.01179548 </i>
   </energy>
  </scstep>
  <structure>
   <crystal>
    <varray name="basis" >
     <v>      19.79381300       0.00000000       0.00000000 </v>
     <v>       0.00000000      19.79381300       0.00000000 </v>
     <v>       0.00000000       0.00000000      19.79381300 </v>
    </varray>
    <i name="volume">   7755.11761909 </i>
    <varray name="rec_basis" >
     <v>       0.05052084       0.00000000       0.00000000 </v>
     <v>       0.00000000       0.05052084       0.00000000 </v>
     <v>       0.00000000       0.00000000       0.05052084 </v>
    </varray>
   </crystal>
   <varray name="positions" >
    <v>       0.50453994       0.54779087       0.50000000 </v>
    <v>       0.57628119       0.64388883       0.57096229 </v>
    <v>       0.57593127       0.50807721       0.61323280 </v>
    <v>       0.64924661       0.54552015       0.50000000 </v>
    <v>       0.36068496       0.39979158       0.50000000 </v>
    <v>       0.36497502       0.54050351       0.50000000 </v>
    <v>       0.44043509       0.46013764       0.40422463 </v>
    <v>       0.46679306       0.32935135       0.43029965 </v>
    <v>       0.55628242       0.41451500       0.50000000 </v>
    <v>       0.57628119       0.64388883       0.42903771 </v>
    <v>       0.57593127       0.50807721       0.38676720 </v>
    <v>       0.44043509       0.46013764       0.59577537 </v>
    <v>       0.46679306       0.32935135       0.56970035 </v>
    <v>       0.44538983       0.66896883       0.50000000 </v>
   </varray>
  </structure>
  <varray name="forces" >
   <v>      -0.12363840      -0.08913602      -0.00000000 </v>
   <v>      -0.00942494       0.13139352       0.12384748 </v>
   <v>      -0.04841294      -0.05858535       0.06078174 </v>
   <v>       0.00875315       0.11303533      -0.00000000 </v>
   <v>      -0.10054827      -0.15252378      -0.00000000 </v>
   <v>       0.18660938      -0.11388204      -0.00000000 </v>
   <v>       0.11923685       0.09937553       0.03735067 </v>
   <v>      -0.03535464      -0.11393290      -0.06270617 </v>
   <v>      -0.22743275       0.10611929      -0.00000000 </v>
   <v>      -0.00942494       0.13139352      -0.12384748 </v>
   <v>      -0.04841294      -0.05858535      -0.06078174 </v>
   <v>       0.11923685       0.09937553      -0.03735067 </v>
   <v>      -0.03535464      -0.11393290       0.06270617 </v>
   <v>       0.20416822       0.01988564      -0.00000000 </v>
  </varray>
  <varray name="stress" >
   <v>      -1.22781547       0.26144224       0.00000000 </v>
   <v>       0.26144224      -0.73880973       0.00000000 </v>
   <v>       0.00000000       0.00000000      -0.89321756 </v>
  </varray>
  <energy>
   <i name="e_fr_energy">    -26.01179548 </i>
   <i name="e_wo_entrp">    -26.01179548 </i>
   <i name="e_0_energy">      0.00000000 </i>
  </energy>
  <time name="totalsc">    8.64    8.97</time>
 </calculation>
 <calculation>
  <scstep>
   <time name="dav">    1.02    1.02</time>
   <time name="total">    1.41    1.42</time>
   <energy>
    <i name="alphaZ">     21.49719833 </i>
    <i name="ewald">  18300.72390119 </i>
    <i name="hartreedc"> -32202.24259978 </i>
    <i name="XCdc">   -160.50621061 </i>
    <i name="pawpsdc">  15011.30777396 </i>
    <i name="pawaedc"> -14387.19489010 </i>
    <i name="eentropy">      0.00000000 </i>
    <i name="bandstr">  -1130.39003459 </i>
    <i name="atom">  14520.78082121 </i>
    <i name="e_fr_energy">    -26.02404039 </i>
    <i name="e_wo_entrp">    -26.02404039 </i>
    <i name="e_0_energy">    -26.02404039 </i>
   </energy>
  </scstep>
  <scstep>
   <time name="dav">    1.06    1.06</time>
   <time name="total">    1.45    1.45</time>
   <energy>
    <i name="e_fr_energy">    -26.02635901 </i>
    <i name="e_wo_entrp">    -26.02635901 </i>
    <i name="e_0_energy">    -26.02635901 </i>
   </energy>
  </scstep>
  <scstep>
   <time name="dav">    1.06    1.07</time>
   <time name="total">    1.30    1.32</time>
   <energy>
    <i name="alphaZ">     21.49719833 </i>
    <i name="ewald">  18300.72390119 </i>
    <i name="hartreedc"> -32202.12735978 </i>
    <i name="XCdc">   -160.51080776 </i>
    <i name="pawpsdc">  15013.20368933 </i>
    <i name="pawaedc"> -14389.11654013 </i>
    <i name="eentropy">      0.00000000 </i>
    <i name="bandstr">  -1130.47726017 </i>
    <i name="atom">  14520.78082121 </i>
    <i name="e_fr_energy">    -26.02635778 </i>
    <i name="e_wo_entrp">    -26.02635778 </i>
    <i name="e_0_energy">    -26.02635778 </i>
   </energy>
  </scstep>
  <structure>
   <crystal>
    <varray name="basis" >
     <v>      19.79381300       0.00000000       0.00000000 </v>
     <v>       0.00000000      19.79381300       0.00000000 </v>
     <v>       0.00000000       0.00000000      19.79381300 </v>
    </varray>
    <i name="volume">   7755.11761909 </i>
    <varray name="rec_basis" >
     <v>       0.05052084       0.00000000       0.00000000 </v>
     <v>       0.00000000       0.05052084       0.00000000 </v>
     <v>       0.00000000       0.00000000       0.05052084 </v>
    </varray>
   </crystal>
   <varray name="positions" >
    <v>       0.50432979       0.54762795       0.50000000 </v>
    <v>       0.57625577       0.64408669       0.57114563 </v>
    <v>       0.57581673       0.50798625       0.61327498 </v>
    <v>       0.64910395       0.54582882       0.50000000 </v>
    <v>       0.36057784       0.39952324       0.50000000 </v>
    <v>       0.36546819       0.54016963       0.50000000 </v>
    <v>       0.44068588       0.46029293       0.40439992 </v>
    <v>       0.46670146       0.32919391       0.43021454 </v>
    <v>       0.55570202       0.41477582       0.50000000 </v>
    <v>       0.57625577       0.64408669       0.42885437 </v>
    <v>       0.57581673       0.50798625       0.38672502 </v>
    <v>       0.44068588       0.46029293       0.59560008 </v>
    <v>       0.46670146       0.32919391       0.56978546 </v>
    <v>       0.44589853       0.66895499       0.50000000 </v>
   </varray>
  </structure>
  <varray name="forces" >
   <v>      -0.04461870      -0.03031718       0.00000000 </v>
   <v>      -0.01778539       0.10374161       0.10236912 </v>
   <v>      -0.03539150      -0.03938245       0.05226558 </v>
   <v>       0.00499055       0.11187234       0.00000000 </v>
   <v>      -0.08729429      -0.14268115       0.00000000 </v>
   <v>       0.12739587      -0.09781333       0.00000000 </v>
   <v>       0.10022124       0.05999465       0.02628994 </v>
   <v>      -0.03852186      -0.10165022      -0.05711372 </v>
   <v>      -0.20925284       0.07506541       0.00000000 </v>
   <v>      -0.01778539       0.10374161      -0.10236912 </v>
   <v>      -0.03539150      -0.03938245      -0.05226558 </v>
   <v>       0.10022124       0.05999465      -0.02628994 </v>
   <v>      -0.03852186      -0.10165022       0.05711372 </v>
   <v>       0.19173444       0.03846674       0.00000000 </v>
  </varray>
  <varray name="stress" >
   <v>      -1.17521341       0.24720632       0.00000000 </v>
   <v>       0.24720632      -0.73726387       0.00000000 </v>
   <v>       0.00000000       0.00000000      -0.90014495 </v>
  </varray>
  <energy>
   <i name="e_fr_energy">    -26.02635778 </i>
   <i name="e_wo_entrp">    -26.02635778 </i>
   <i name="e_0_energy">      0.00000000 </i>
  </energy>
  <time name="totalsc">    5.95    6.00</time>
 </calculation>
 <calculation>
  <scstep>
   <time name="dav">    1.00    1.01</time>
   <time name="total">    1.40    1.41</time>
   <energy>
    <i name="alphaZ">     21.49719833 </i>
    <i name="ewald">  18360.93467436 </i>
    <i name="hartreedc"> -32262.10261888 </i>
    <i name="XCdc">   -160.42326447 </i>
    <i name="pawpsdc">  15013.82733814 </i>
    <i name="pawaedc"> -14389.75283441 </i>
    <i name="eentropy">      0.00000000 </i>
    <i name="bandstr">  -1130.79314690 </i>
    <i name="atom">  14520.78082121 </i>
    <i name="e_fr_energy">    -26.03183263 </i>
    <i name="e_wo_entrp">    -26.03183263 </i>
    <i name="e_0_energy">    -26.03183263 </i>
   </energy>
  </scstep>
  <scstep>
   <time name="dav">    1.05    1.05</time>
   <time name="total">    1.44    1.44</time>
   <energy>
    <i name="e_fr_energy">    -26.05288559 </i>
    <i name="e_wo_entrp">    -26.05288559 </i>
    <i name="e_0_energy">    -26.05288559 </i>
   </energy>
  </scstep>
  <scstep>
   <time name="dav">    1.06    1.07</time>
   <time name="total">    1.46    1.46</time>
   <energy>
    <i name="e_fr_energy">    -26.05277145 </i>
    <i name="e_wo_entrp">    -26.05277145 </i>
    <i name="e_0_energy">    -26.05277145 </i>
   </energy>
  </scstep>
  <scstep>
   <time name="dav">    1.02    1.02</time>
   <time name="total">    1.41    1.44</time>
   <energy>
    <i name="e_fr_energy">    -26.05245787 </i>
    <i name="e_wo_entrp">    -26.05245787 </i>
    <i name="e_0_energy">    -26.05245787 </i>
   </energy>
  </scstep>
  <scstep>
   <time name="dav">    0.78    0.78</time>
   <time name="total">    1.02    1.03</time>
   <energy>
    <i name="alphaZ">     21.49719833 </i>
    <i name="ewald">  18360.93467436 </i>
    <i name="hartreedc"> -32261.40834320 </i>
    <i name="XCdc">   -160.44260163 </i>
    <i name="pawpsdc">  15023.94096405 </i>
    <i name="pawaedc"> -14400.03403512 </i>
    <i name="eentropy">      0.00000000 </i>
    <i name="bandstr">  -1131.32116490 </i>
    <i name="atom">  14520.78082121 </i>
    <i name="e_fr_energy">    -26.05248690 </i>
    <i name="e_wo_entrp">    -26.05248690 </i>
    <i name="e_0_energy">    -26.05248690 </i>
   </energy>
  </scstep>
  <structure>
   <crystal>
    <varray name="basis" >
     <v>      19.79381300       0.00000000       0.00000000 </v>
     <v>       0.00000000      19.79381300       0.00000000 </v>
     <v>       0.00000000       0.00000000      19.79381300 </v>
    </varray>
    <i name="volume">   7755.11761909 </i>
    <varray name="rec_basis" >
     <v>       0.05052084       0.00000000       0.00000000 </v>
     <v>       0.00000000       0.05052084       0.00000000 </v>
     <v>       0.00000000       0.00000000       0.05052084 </v>
    </varray>
   </crystal>
   <varray name="positions" >
    <v>       0.50369935       0.54713918       0.50000000 </v>
    <v>       0.57617953       0.64468029       0.57169565 </v>
    <v>       0.57547312       0.50771338       0.61340152 </v>
    <v>       0.64867594       0.54675483       0.50000000 </v>
    <v>       0.36025648       0.39871823       0.50000000 </v>
    <v>       0.36694771       0.53916797       0.50000000 </v>
    <v>       0.44143825       0.46075878       0.40492579 </v>
    <v>       0.46642664       0.32872157       0.42995922 </v>
    <v>       0.55396083       0.41555827       0.50000000 </v>
    <v>       0.57617953       0.64468029       0.42830435 </v>
    <v>       0.57547312       0.50771338       0.38659848 </v>
    <v>       0.44143825       0.46075878       0.59507421 </v>
    <v>       0.46642664       0.32872157       0.57004078 </v>
    <v>       0.44742462       0.66891349       0.50000000 </v>
   </varray>
  </structure>
  <varray name="forces" >
   <v>       0.19129314       0.14594657      -0.00000000 </v>
   <v>      -0.03648249       0.03140312       0.04890270 </v>
   <v>       0.00491354       0.01312011       0.03228944 </v>
   <v>       0.00113570       0.10900672      -0.00000000 </v>
   <v>      -0.04881165      -0.11868853      -0.00000000 </v>
   <v>      -0.06265512      -0.04725621      -0.00000000 </v>
   <v>       0.04545127      -0.05668212      -0.01676799 </v>
   <v>      -0.04606206      -0.07009954      -0.04381655 </v>
   <v>      -0.16369398      -0.02228385      -0.00000000 </v>
   <v>      -0.03648249       0.03140312      -0.04890270 </v>
   <v>       0.00491354       0.01312011      -0.03228944 </v>
   <v>       0.04545127      -0.05668212       0.01676799 </v>
   <v>      -0.04606206      -0.07009954       0.04381655 </v>
   <v>       0.14709139       0.09779215      -0.00000000 </v>
  </varray>
  <varray name="stress" >
   <v>      -1.02299344       0.19926451       0.00000000 </v>
   <v>       0.19926451      -0.72230676       0.00000000 </v>
   <v>       0.00000000       0.00000000      -0.92500647 </v>
  </varray>
  <energy>
   <i name="e_fr_energy">    -26.05248690 </i>
   <i name="e_wo_entrp">    -26.05248690 </i>
   <i name="e_0_energy">      0.00000000 </i>
  </energy>
  <time name="totalsc">    8.51    8.63</time>
 </calculation>
 <calculation>
  <scstep>
   <time name="dav">    1.00    1.01</time>
   <time name="total">    1.40    1.43</time>
   <energy>
    <i name="alphaZ">     21.49719833 </i>
    <i name="ewald">  18485.24231235 </i>
    <i name="hartreedc"> -32384.94904112 </i>
    <i name="XCdc">   -160.22642516 </i>
    <i name="pawpsdc">  15023.73525239 </i>
    <i name="pawaedc"> -14399.82652422 </i>
    <i name="eentropy">      0.00000000 </i>
    <i name="bandstr">  -1132.18453549 </i>
    <i name="atom">  14520.78082121 </i>
    <i name="e_fr_energy">    -25.93094170 </i>
    <i name="e_wo_entrp">    -25.93094170 </i>
    <i name="e_0_energy">    -25.93094170 </i>
   </energy>
  </scstep>
  <scstep>
   <time name="dav">    1.03    1.04</time>
   <time name="total">    1.42    1.43</time>
   <energy>
    <i name="e_fr_energy">    -26.01805403 </i>
    <i name="e_wo_entrp">    -26.01805403 </i>
    <i name="e_0_energy">    -26.01805403 </i>
   </energy>
  </scstep>
  <scstep>
   <time name="dav">    1.02    1.02</time>
   <time name="total">    1.41    1.43</time>
   <energy>
    <i name="e_fr_energy">    -26.01733968 </i>
    <i name="e_wo_entrp">    -26.01733968 </i>
    <i name="e_0_energy">    -26.01733968 </i>
   </energy>
  </scstep>
  <scstep>
   <time name="dav">    1.05    1.05</time>
   <time name="total">    1.44    1.87</time>
   <energy>
    <i name="e_fr_energy">    -26.01625506 </i>
    <i name="e_wo_entrp">    -26.01625506 </i>
    <i name="e_0_energy">    -26.01625506 </i>
   </energy>
  </scstep>
  <scstep>
   <time name="dav">    0.98    0.98</time>
   <time name="total">    1.21    1.21</time>
   <energy>
    <i name="alphaZ">     21.49719833 </i>
    <i name="ewald">  18485.24231235 </i>
    <i name="hartreedc"> -32383.22239712 </i>
    <i name="XCdc">   -160.26805251 </i>
    <i name="pawpsdc">  15053.62296313 </i>
    <i name="pawaedc"> -14430.15254035 </i>
    <i name="eentropy">      0.00000000 </i>
    <i name="bandstr">  -1133.51665412 </i>
    <i name="atom">  14520.78082121 </i>
    <i name="e_fr_energy">    -26.01634908 </i>
    <i name="e_wo_entrp">    -26.01634908 </i>
    <i name="e_0_energy">    -26.01634908 </i>
   </energy>
  </scstep>
  <structure>
   <crystal>
    <varray name="basis" >
     <v>      19.79381300       0.00000000       0.00000000 </v>
     <v>       0.00000000      19.79381300       0.00000000 </v>
     <v>       0.00000000       0.00000000      19.79381300 </v>
    </varray>
    <i name="volume">   7755.11761909 </i>
    <varray name="rec_basis" >
     <v>       0.05052084       0.00000000       0.00000000 </v>
     <v>       0.00000000       0.05052084       0.00000000 </v>
     <v>       0.00000000       0.00000000       0.05052084 </v>
    </varray>
   </crystal>
   <varray name="positions" >
    <v>       0.50243846       0.54616164       0.50000000 </v>
    <v>       0.57602703       0.64586748       0.57279569 </v>
    <v>       0.57478591       0.50716763       0.61365460 </v>
    <v>       0.64781993       0.54860685       0.50000000 </v>
    <v>       0.35961377       0.39710820       0.50000000 </v>
    <v>       0.36990675       0.53716466       0.50000000 </v>
    <v>       0.44294299       0.46169049       0.40597753 </v>
    <v>       0.46587700       0.32777690       0.42944857 </v>
    <v>       0.55047844       0.41712317       0.50000000 </v>
    <v>       0.57602703       0.64586748       0.42720431 </v>
    <v>       0.57478591       0.50716763       0.38634540 </v>
    <v>       0.44294299       0.46169049       0.59402247 </v>
    <v>       0.46587700       0.32777690       0.57055143 </v>
    <v>       0.45047681       0.66883047       0.50000000 </v>
   </varray>
  </structure>
  <varray name="forces" >
   <v>       0.73949198       0.55769741      -0.00000000 </v>
   <v>      -0.05370057      -0.09790564      -0.03500612 </v>
   <v>       0.10692921       0.12090900      -0.00243692 </v>
   <v>      -0.01083123       0.09188514      -0.00000000 </v>
   <v>       0.02714257      -0.07152852      -0.00000000 </v>
   <v>      -0.57298806       0.08270625      -0.00000000 </v>
   <v>      -0.10117118      -0.32092031      -0.17050182 </v>
   <v>      -0.05636326      -0.00533993      -0.01279169 </v>
   <v>      -0.01076684      -0.27379391      -0.00000000 </v>
   <v>      -0.05370057      -0.09790564       0.03500612 </v>
   <v>       0.10692921       0.12090900       0.00243692 </v>
   <v>      -0.10117118      -0.32092031       0.17050182 </v>
   <v>      -0.05636326      -0.00533993       0.01279169 </v>
   <v>       0.03656318       0.21954740      -0.00000000 </v>
  </varray>
  <varray name="stress" >
   <v>      -0.62792839       0.10879921       0.00000000 </v>
   <v>       0.10879921      -0.64471875       0.00000000 </v>
   <v>       0.00000000       0.00000000      -0.90881802 </v>
  </varray>
  <energy>
   <i name="e_fr_energy">    -26.01634908 </i>
   <i name="e_wo_entrp">    -26.01634908 </i>
   <i name="e_0_energy">      0.00000000 </i>
  </energy>
  <time name="totalsc">    8.67    9.21</time>
 </calculation>
 <calculation>
  <scstep>
   <time name="dav">    1.01    1.01</time>
   <time name="total">    1.41    1.41</time>
   <energy>
    <i name="alphaZ">     21.49719833 </i>
    <i name="ewald">  18386.28873213 </i>
    <i name="hartreedc"> -32285.15435209 </i>
    <i name="XCdc">   -160.43593338 </i>
    <i name="pawpsdc">  15052.93427398 </i>
    <i name="pawaedc"> -14429.45920350 </i>
    <i name="eentropy">      0.00000000 </i>
    <i name="bandstr">  -1132.45643610 </i>
    <i name="atom">  14520.78082121 </i>
    <i name="e_fr_energy">    -26.00489942 </i>
    <i name="e_wo_entrp">    -26.00489942 </i>
    <i name="e_0_energy">    -26.00489942 </i>
   </energy>
  </scstep>
  <scstep>
   <time name="dav">    1.05    1.05</time>
   <time name="total">    1.44    1.44</time>
   <energy>
    <i name="e_fr_energy">    -26.05635711 </i>
    <i name="e_wo_entrp">    -26.05635711 </i>
    <i name="e_0_energy">    -26.05635711 </i>
   </energy>
  </scstep>
  <scstep>
   <time name="dav">    1.06    1.07</time>
   <time name="total">    1.46    1.47</time>
   <energy>
    <i name="e_fr_energy">    -26.05604484 </i>
    <i name="e_wo_entrp">    -26.05604484 </i>
    <i name="e_0_energy">    -26.05604484 </i>
   </energy>
  </scstep>
  <scstep>
   <time name="dav">    1.04    1.04</time>
   <time name="total">    1.42    1.43</time>
   <energy>
    <i name="e_fr_energy">    -26.05515368 </i>
    <i name="e_wo_entrp">    -26.05515368 </i>
    <i name="e_0_energy">    -26.05515368 </i>
   </energy>
  </scstep>
  <scstep>
   <time name="dav">    1.10    1.09</time>
   <time name="total">    1.33    1.35</time>
   <energy>
    <i name="alphaZ">     21.49719833 </i>
    <i name="ewald">  18386.28873213 </i>
    <i name="hartreedc"> -32286.14788403 </i>
    <i name="XCdc">   -160.41306178 </i>
    <i name="pawpsdc">  15028.43699760 </i>
    <i name="pawaedc"> -14404.60984349 </i>
    <i name="eentropy">      0.00000000 </i>
    <i name="bandstr">  -1131.88818461 </i>
    <i name="atom">  14520.78082121 </i>
    <i name="e_fr_energy">    -26.05522464 </i>
    <i name="e_wo_entrp">    -26.05522464 </i>
    <i name="e_0_energy">    -26.05522464 </i>
   </energy>
  </scstep>
  <structure>
   <crystal>
    <varray name="basis" >
     <v>      19.79381300       0.00000000       0.00000000 </v>
     <v>       0.00000000      19.79381300       0.00000000 </v>
     <v>       0.00000000       0.00000000      19.79381300 </v>
    </varray>
    <i name="volume">   7755.11761909 </i>
    <varray name="rec_basis" >
     <v>       0.05052084       0.00000000       0.00000000 </v>
     <v>       0.00000000       0.05052084       0.00000000 </v>
     <v>       0.00000000       0.00000000       0.05052084 </v>
    </varray>
   </crystal>
   <varray name="positions" >
    <v>       0.50343779       0.54693640       0.50000000 </v>
    <v>       0.57614789       0.64492656       0.57192384 </v>
    <v>       0.57533057       0.50760017       0.61345401 </v>
    <v>       0.64849837       0.54713901       0.50000000 </v>
    <v>       0.36012316       0.39838425       0.50000000 </v>
    <v>       0.36756153       0.53875241       0.50000000 </v>
    <v>       0.44175039       0.46095205       0.40514396 </v>
    <v>       0.46631262       0.32852561       0.42985329 </v>
    <v>       0.55323845       0.41588289       0.50000000 </v>
    <v>       0.57614789       0.64492656       0.42807616 </v>
    <v>       0.57533057       0.50760017       0.38654599 </v>
    <v>       0.44175039       0.46095205       0.59485604 </v>
    <v>       0.46631262       0.32852561       0.57014671 </v>
    <v>       0.44805776       0.66889627       0.50000000 </v>
   </varray>
  </structure>
  <varray name="forces" >
   <v>       0.29926804       0.22715001      -0.00000000 </v>
   <v>      -0.04170371      -0.00001951       0.02666978 </v>
   <v>       0.02604824       0.03647373       0.02409056 </v>
   <v>       0.00104738       0.10243234      -0.00000000 </v>
   <v>      -0.03043777      -0.10557634      -0.00000000 </v>
   <v>      -0.16037308      -0.01858307      -0.00000000 </v>
   <v>       0.01535544      -0.11109307      -0.04443878 </v>
   <v>      -0.04726785      -0.05458731      -0.03674947 </v>
   <v>      -0.13512207      -0.06983396      -0.00000000 </v>
   <v>      -0.04170371      -0.00001951      -0.02666978 </v>
   <v>       0.02604824       0.03647373      -0.02409056 </v>
   <v>       0.01535544      -0.11109307       0.04443878 </v>
   <v>      -0.04726785      -0.05458731       0.03674947 </v>
   <v>       0.12075326       0.12286337      -0.00000000 </v>
  </varray>
  <varray name="stress" >
   <v>      -0.95060083       0.18306773       0.00000000 </v>
   <v>       0.18306773      -0.71855282       0.00000000 </v>
   <v>       0.00000000       0.00000000      -0.93623939 </v>
  </varray>
  <energy>
   <i name="e_fr_energy">    -26.05522464 </i>
   <i name="e_wo_entrp">    -26.05522464 </i>
   <i name="e_0_energy">      0.00000000 </i>
  </energy>
  <time name="totalsc">    8.86    9.00</time>
 </calculation>
 <calculation>
  <scstep>
   <time name="dav">    1.01    1.01</time>
   <time name="total">    1.40    1.41</time>
   <energy>
    <i name="alphaZ">     21.49719833 </i>
    <i name="ewald">  18375.86558236 </i>
    <i name="hartreedc"> -32275.72606228 </i>
    <i name="XCdc">   -160.41336933 </i>
    <i name="pawpsdc">  15028.40700117 </i>
    <i name="pawaedc"> -14404.57702689 </i>
    <i name="eentropy">      0.00000000 </i>
    <i name="bandstr">  -1131.89920510 </i>
    <i name="atom">  14520.78082121 </i>
    <i name="e_fr_energy">    -26.06506053 </i>
    <i name="e_wo_entrp">    -26.06506053 </i>
    <i name="e_0_energy">    -26.06506053 </i>
   </energy>
  </scstep>
  <scstep>
   <time name="dav">    1.06    1.06</time>
   <time name="total">    1.45    1.46</time>
   <energy>
    <i name="e_fr_energy">    -26.07132401 </i>
    <i name="e_wo_entrp">    -26.07132401 </i>
    <i name="e_0_energy">    -26.07132401 </i>
   </energy>
  </scstep>
  <scstep>
   <time name="dav">    1.05    1.05</time>
   <time name="total">    1.28    1.54</time>
   <energy>
    <i name="alphaZ">     21.49719833 </i>
    <i name="ewald">  18375.86558236 </i>
    <i name="hartreedc"> -32275.83661057 </i>
    <i name="XCdc">   -160.41237683 </i>
    <i name="pawpsdc">  15029.27833589 </i>
    <i name="pawaedc"> -14405.45015623 </i>
    <i name="eentropy">      0.00000000 </i>
    <i name="bandstr">  -1131.79405868 </i>
    <i name="atom">  14520.78082121 </i>
    <i name="e_fr_energy">    -26.07126453 </i>
    <i name="e_wo_entrp">    -26.07126453 </i>
    <i name="e_0_energy">    -26.07126453 </i>
   </energy>
  </scstep>
  <structure>
   <crystal>
    <varray name="basis" >
     <v>      19.79381300       0.00000000       0.00000000 </v>
     <v>       0.00000000      19.79381300       0.00000000 </v>
     <v>       0.00000000       0.00000000      19.79381300 </v>
    </varray>
    <i name="volume">   7755.11761909 </i>
    <varray name="rec_basis" >
     <v>       0.05052084       0.00000000       0.00000000 </v>
     <v>       0.00000000       0.05052084       0.00000000 </v>
     <v>       0.00000000       0.00000000       0.05052084 </v>
    </varray>
   </crystal>
   <varray name="positions" >
    <v>       0.50410058       0.54743555       0.50000000 </v>
    <v>       0.57599281       0.64515336       0.57221459 </v>
    <v>       0.57527791       0.50760603       0.61357513 </v>
    <v>       0.64833796       0.54780224       0.50000000 </v>
    <v>       0.35990842       0.39775776       0.50000000 </v>
    <v>       0.36764269       0.53831347       0.50000000 </v>
    <v>       0.44208430       0.46079462       0.40521075 </v>
    <v>       0.46606485       0.32818024       0.42964473 </v>
    <v>       0.55216494       0.41597104       0.50000000 </v>
    <v>       0.57599281       0.64515336       0.42778541 </v>
    <v>       0.57527791       0.50760603       0.38642487 </v>
    <v>       0.44208430       0.46079462       0.59478925 </v>
    <v>       0.46606485       0.32818024       0.57035527 </v>
    <v>       0.44900567       0.66925143       0.50000000 </v>
   </varray>
  </structure>
  <varray name="forces" >
   <v>       0.20566392       0.17909802      -0.00000000 </v>
   <v>      -0.02477780       0.00980000       0.03304169 </v>
   <v>       0.03801627       0.04037348       0.01450211 </v>
   <v>       0.03069777       0.08619131      -0.00000000 </v>
   <v>      -0.00700476      -0.07402074      -0.00000000 </v>
   <v>      -0.11588044      -0.02714368      -0.00000000 </v>
   <v>      -0.00195045      -0.10758853      -0.01953756 </v>
   <v>      -0.04976969      -0.05596839      -0.02346205 </v>
   <v>      -0.11485057      -0.07955578      -0.00000000 </v>
   <v>      -0.02477780       0.00980000      -0.03304169 </v>
   <v>       0.03801627       0.04037348      -0.01450211 </v>
   <v>      -0.00195045      -0.10758853       0.01953756 </v>
   <v>      -0.04976969      -0.05596839       0.02346205 </v>
   <v>       0.07833741       0.14219773      -0.00000000 </v>
  </varray>
  <varray name="stress" >
   <v>      -0.93215169       0.15878160       0.00000000 </v>
   <v>       0.15878160      -0.70268169       0.00000000 </v>
   <v>       0.00000000       0.00000000      -0.95297651 </v>
  </varray>
  <energy>
   <i name="e_fr_energy">    -26.07126453 </i>
   <i name="e_wo_entrp">    -26.07126453 </i>
   <i name="e_0_energy">      0.00000000 </i>
  </energy>
  <time name="totalsc">    5.93    6.22</time>
 </calculation>
 <calculation>
  <scstep>
   <time name="dav">    1.01    1.01</time>
   <time name="total">    1.40    1.41</time>
   <energy>
    <i name="alphaZ">     21.49719833 </i>
    <i name="ewald">  18345.01996162 </i>
    <i name="hartreedc"> -32245.13172577 </i>
    <i name="XCdc">   -160.39526358 </i>
    <i name="pawpsdc">  15028.93382647 </i>
    <i name="pawaedc"> -14405.10221360 </i>
    <i name="eentropy">      0.00000000 </i>
    <i name="bandstr">  -1131.64170683 </i>
    <i name="atom">  14520.78082121 </i>
    <i name="e_fr_energy">    -26.03910217 </i>
    <i name="e_wo_entrp">    -26.03910217 </i>
    <i name="e_0_energy">    -26.03910217 </i>
   </energy>
  </scstep>
  <scstep>
   <time name="dav">    1.04    1.04</time>
   <time name="total">    1.43    1.43</time>
   <energy>
    <i name="e_fr_energy">    -26.09650018 </i>
    <i name="e_wo_entrp">    -26.09650018 </i>
    <i name="e_0_energy">    -26.09650018 </i>
   </energy>
  </scstep>
  <scstep>
   <time name="dav">    1.02    1.02</time>
   <time name="total">    1.41    1.41</time>
   <energy>
    <i name="e_fr_energy">    -26.09583448 </i>
    <i name="e_wo_entrp">    -26.09583448 </i>
    <i name="e_0_energy">    -26.09583448 </i>
   </energy>
  </scstep>
  <scstep>
   <time name="dav">    1.02    1.02</time>
   <time name="total">    1.41    1.45</time>
   <energy>
    <i name="e_fr_energy">    -26.09448908 </i>
    <i name="e_wo_entrp">    -26.09448908 </i>
    <i name="e_0_energy">    -26.09448908 </i>
   </energy>
  </scstep>
  <scstep>
   <time name="dav">    1.07    1.07</time>
   <time name="total">    1.46    1.46</time>
   <energy>
    <i name="e_fr_energy">    -26.09446290 </i>
    <i name="e_wo_entrp">    -26.09446290 </i>
    <i name="e_0_energy">    -26.09446290 </i>
   </energy>
  </scstep>
  <scstep>
   <time name="dav">    0.78    0.78</time>
   <time name="total">    1.02    1.02</time>
   <energy>
    <i name="alphaZ">     21.49719833 </i>
    <i name="ewald">  18345.01996162 </i>
    <i name="hartreedc"> -32245.61714334 </i>
    <i name="XCdc">   -160.39410445 </i>
    <i name="pawpsdc">  15032.24890239 </i>
    <i name="pawaedc"> -14408.44023539 </i>
    <i name="eentropy">      0.00000000 </i>
    <i name="bandstr">  -1131.18985376 </i>
    <i name="atom">  14520.78082121 </i>
    <i name="e_fr_energy">    -26.09445339 </i>
    <i name="e_wo_entrp">    -26.09445339 </i>
    <i name="e_0_energy">    -26.09445339 </i>
   </energy>
  </scstep>
  <structure>
   <crystal>
    <varray name="basis" >
     <v>      19.79381300       0.00000000       0.00000000 </v>
     <v>       0.00000000      19.79381300       0.00000000 </v>
     <v>       0.00000000       0.00000000      19.79381300 </v>
    </varray>
    <i name="volume">   7755.11761909 </i>
    <varray name="rec_basis" >
     <v>       0.05052084       0.00000000       0.00000000 </v>
     <v>       0.00000000       0.05052084       0.00000000 </v>
     <v>       0.00000000       0.00000000       0.05052084 </v>
    </varray>
   </crystal>
   <varray name="positions" >
    <v>       0.50608893       0.54893299       0.50000000 </v>
    <v>       0.57552758       0.64583378       0.57308683 </v>
    <v>       0.57511992       0.50762359       0.61393846 </v>
    <v>       0.64785671       0.54979195       0.50000000 </v>
    <v>       0.35926422       0.39587831       0.50000000 </v>
    <v>       0.36788616       0.53699667       0.50000000 </v>
    <v>       0.44308605       0.46032231       0.40541110 </v>
    <v>       0.46532153       0.32714415       0.42901905 </v>
    <v>       0.54894443       0.41623552       0.50000000 </v>
    <v>       0.57552758       0.64583378       0.42691317 </v>
    <v>       0.57511992       0.50762359       0.38606154 </v>
    <v>       0.44308605       0.46032231       0.59458890 </v>
    <v>       0.46532153       0.32714415       0.57098095 </v>
    <v>       0.45184938       0.67031691       0.50000000 </v>
   </varray>
  </structure>
  <varray name="forces" >
[...]
       <r>    -1.5069     0.0000    84.0000 </r>
       <r>    -1.4701     0.0000    84.0000 </r>
       <r>    -1.4333     0.0000    84.0000 </r>
       <r>    -1.3965     0.0000    84.0000 </r>
       <r>    -1.3597     0.0000    84.0000 </r>
       <r>    -1.3228     0.0000    86.0000 </r>
       <r>    -1.2860     0.0000    86.0000 </r>
       <r>    -1.2492     0.0000    86.0000 </r>
       <r>    -1.2124     0.0000    86.0000 </r>
       <r>    -1.1756     0.0000    86.0000 </r>
       <r>    -1.1388     0.0000    86.0000 </r>
       <r>    -1.1020     0.0000    86.0000 </r>
       <r>    -1.0652     0.0000    86.0000 </r>
       <r>    -1.0284     0.0000    86.0000 </r>
       <r>    -0.9916     0.0000    86.0000 </r>
       <r>    -0.9548     0.0000    86.0000 </r>
       <r>    -0.9180     0.0000    86.0000 </r>
       <r>    -0.8812     0.0000    86.0000 </r>
       <r>    -0.8444     0.0000    87.0000 </r>
       <r>    -0.8076     0.0000    87.0000 </r>
       <r>    -0.7708     0.0000    87.0000 </r>
       <r>    -0.7340     0.0000    88.0000 </r>
       <r>    -0.6972     0.0000    88.0000 </r>
       <r>    -0.6604     0.0000    88.0000 </r>
       <r>    -0.6236     0.0000    88.0000 </r>
       <r>    -0.5868     0.0000    88.0000 </r>
       <r>    -0.5500     0.0000    89.0000 </r>
       <r>    -0.5132     0.0000    89.0000 </r>
       <r>    -0.4764     0.0000    89.0000 </r>
       <r>    -0.4396     0.0000    90.0000 </r>
       <r>    -0.4028     0.0000    90.0000 </r>
       <r>    -0.3660     0.0000    91.0000 </r>
       <r>    -0.3291     0.0000    91.0000 </r>
       <r>    -0.2923     0.0000    91.0000 </r>
       <r>    -0.2555     0.0000    91.0000 </r>
       <r>    -0.2187     0.0000    91.0000 </r>
       <r>    -0.1819     0.0000    91.0000 </r>
       <r>    -0.1451     0.0000    91.0000 </r>
       <r>    -0.1083     0.0000    91.0000 </r>
       <r>    -0.0715    27.1712    94.0000 </r>
       <r>    -0.0347     0.0000    94.0000 </r>
       <r>     0.0021     0.0000    94.0000 </r>
       <r>     0.0389     0.0000    94.0000 </r>
       <r>     0.0757     0.0000    94.0000 </r>
       <r>     0.1125     0.0000    94.0000 </r>
       <r>     0.1493     0.0000    95.0000 </r>
       <r>     0.1861     0.0000    95.0000 </r>
       <r>     0.2229     0.0000    95.0000 </r>
       <r>     0.2597     0.0000    95.0000 </r>
       <r>     0.2965     0.0000    95.0000 </r>
       <r>     0.3333     0.0000    96.0000 </r>
       <r>     0.3701     0.0000    97.0000 </r>
       <r>     0.4069     0.0000    97.0000 </r>
       <r>     0.4437     0.0000    98.0000 </r>
       <r>     0.4805     0.0000    98.0000 </r>
       <r>     0.5173     0.0000    98.0000 </r>
       <r>     0.5541     0.0000    98.0000 </r>
       <r>     0.5909     0.0000    99.0000 </r>
       <r>     0.6277     0.0000    99.0000 </r>
       <r>     0.6645     0.0000   100.0000 </r>
       <r>     0.7014     0.0000   100.0000 </r>
       <r>     0.7382     0.0000   100.0000 </r>
       <r>     0.7750     0.0000   100.0000 </r>
       <r>     0.8118     0.0000   100.0000 </r>
       <r>     0.8486     0.0000   100.0000 </r>
       <r>     0.8854     0.0000   100.0000 </r>
       <r>     0.9222     0.0000   100.0000 </r>
       <r>     0.9590     0.0000   100.0000 </r>
       <r>     0.9958     0.0000   100.0000 </r>
       <r>     1.0326     0.0000   100.0000 </r>
       <r>     1.0694     0.0000   100.0000 </r>
       <r>     1.1062     0.0000   100.0000 </r>
       <r>     1.1430     0.0000   100.0000 </r>
      </set>
      <set comment="spin 2">
       <r>    -9.8981     0.0000     0.0000 </r>
       <r>    -9.8613     0.0000     0.0000 </r>
       <r>    -9.8245     0.0000     0.0000 </r>
       <r>    -9.7877     0.0000     0.0000 </r>
       <r>    -9.7509     0.0000     0.0000 </r>
       <r>    -9.7141     0.0000     0.0000 </r>
       <r>    -9.6773     0.0000     0.0000 </r>
       <r>    -9.6405     0.0000     0.0000 </r>
       <r>    -9.6037     0.0000     0.0000 </r>
       <r>    -9.5669     0.0000     0.0000 </r>
       <r>    -9.5301     0.0000     0.0000 </r>
       <r>    -9.4933     0.0000     0.0000 </r>
       <r>    -9.4565     0.0000     0.0000 </r>
       <r>    -9.4196     0.0000     0.0000 </r>
       <r>    -9.3828     0.0000     1.0000 </r>
       <r>    -9.3460     0.0000     1.0000 </r>
       <r>    -9.3092     0.0000     1.0000 </r>
       <r>    -9.2724     0.0000     1.0000 </r>
       <r>    -9.2356     0.0000     1.0000 </r>
       <r>    -9.1988     0.0000     1.0000 </r>
       <r>    -9.1620     0.0000     1.0000 </r>
       <r>    -9.1252     0.0000     2.0000 </r>
       <r>    -9.0884     0.0000     2.0000 </r>
       <r>    -9.0516     0.0000     2.0000 </r>
       <r>    -9.0148     0.0000     3.0000 </r>
       <r>    -8.9780     0.0000     4.0000 </r>
       <r>    -8.9412     0.0000     5.0000 </r>
       <r>    -8.9044     0.0000     5.0000 </r>
       <r>    -8.8676     0.0000     5.0000 </r>
       <r>    -8.8308     0.0000     5.0000 </r>
       <r>    -8.7940     0.0000     6.0000 </r>
       <r>    -8.7572     0.0000     6.0000 </r>
       <r>    -8.7204     0.0000     7.0000 </r>
       <r>    -8.6836     0.0000     7.0000 </r>
       <r>    -8.6468     0.0000     7.0000 </r>
       <r>    -8.6100     0.0000     7.0000 </r>
       <r>    -8.5732     0.0000     7.0000 </r>
       <r>    -8.5364     0.0000     8.0000 </r>
       <r>    -8.4996     0.0000     8.0000 </r>
       <r>    -8.4628     0.0000     8.0000 </r>
       <r>    -8.4259     0.0000    10.0000 </r>
       <r>    -8.3891     0.0000    10.0000 </r>
       <r>    -8.3523     0.0000    11.0000 </r>
       <r>    -8.3155     0.0000    13.0000 </r>
       <r>    -8.2787     0.0000    14.0000 </r>
       <r>    -8.2419     0.0000    16.0000 </r>
       <r>    -8.2051     0.0000    17.0000 </r>
       <r>    -8.1683     0.0000    17.0000 </r>
       <r>    -8.1315     0.0000    19.0000 </r>
       <r>    -8.0947     0.0000    19.0000 </r>
       <r>    -8.0579     0.0000    21.0000 </r>
       <r>    -8.0211     0.0000    22.0000 </r>
       <r>    -7.9843     0.0000    23.0000 </r>
       <r>    -7.9475     0.0000    23.0000 </r>
       <r>    -7.9107     0.0000    24.0000 </r>
       <r>    -7.8739     0.0000    25.0000 </r>
       <r>    -7.8371     0.0000    26.0000 </r>
       <r>    -7.8003     0.0000    27.0000 </r>
       <r>    -7.7635     0.0000    28.0000 </r>
       <r>    -7.7267     0.0000    28.0000 </r>
       <r>    -7.6899     0.0000    29.0000 </r>
       <r>    -7.6531     0.0000    30.0000 </r>
       <r>    -7.6163    27.1706    31.0000 </r>
       <r>    -7.5795     0.0000    33.0000 </r>
       <r>    -7.5427     0.0000    33.0000 </r>
       <r>    -7.5059     0.0000    33.0000 </r>
       <r>    -7.4691     0.0000    35.0000 </r>
       <r>    -7.4323     0.0000    35.0000 </r>
       <r>    -7.3954     0.0000    36.0000 </r>
       <r>    -7.3586     0.0000    36.0000 </r>
       <r>    -7.3218     0.0000    36.0000 </r>
       <r>    -7.2850     0.0000    37.0000 </r>
       <r>    -7.2482     0.0000    39.0000 </r>
       <r>    -7.2114     0.0000    40.0000 </r>
       <r>    -7.1746     0.0000    41.0000 </r>
       <r>    -7.1378     0.0000    42.0000 </r>
       <r>    -7.1010     0.0000    44.0000 </r>
       <r>    -7.0642     0.0000    45.0000 </r>
       <r>    -7.0274     0.0000    46.0000 </r>
       <r>    -6.9906     0.0000    47.0000 </r>
       <r>    -6.9538     0.0000    48.0000 </r>
       <r>    -6.9170     0.0000    51.0000 </r>
       <r>    -6.8802     0.0000    53.0000 </r>
       <r>    -6.8434     0.0000    53.0000 </r>
       <r>    -6.8066     0.0000    54.0000 </r>
       <r>    -6.7698     0.0000    55.0000 </r>
       <r>    -6.7330     0.0000    56.0000 </r>
       <r>    -6.6962    23.5461    58.8666 </r>
       <r>    -6.6594     0.0000    61.0000 </r>
       <r>    -6.6226     0.0000    61.0000 </r>
       <r>    -6.5858     0.0000    64.0000 </r>
       <r>    -6.5490     0.0000    65.0000 </r>
       <r>    -6.5122     0.0000    66.0000 </r>
       <r>    -6.4754     0.0000    68.0000 </r>
       <r>    -6.4386     0.0000    68.0000 </r>
       <r>    -6.4017     0.0000    71.0000 </r>
       <r>    -6.3649     0.0000    71.0000 </r>
       <r>    -6.3281     0.0000    72.0000 </r>
       <r>    -6.2913     0.0000    72.0000 </r>
       <r>    -6.2545     0.0000    72.0000 </r>
       <r>    -6.2177     0.0000    72.0000 </r>
       <r>    -6.1809     0.0000    72.0000 </r>
       <r>    -6.1441     0.0000    72.0000 </r>
       <r>    -6.1073     0.0000    72.0000 </r>
       <r>    -6.0705     0.0000    72.0000 </r>
       <r>    -6.0337     0.0000    72.0000 </r>
       <r>    -5.9969     0.0000    72.0000 </r>
       <r>    -5.9601     0.0000    72.0000 </r>
       <r>    -5.9233     0.0000    72.0000 </r>
       <r>    -5.8865     0.0000    72.0000 </r>
       <r>    -5.8497     0.0000    72.0000 </r>
       <r>    -5.8129     0.0000    72.0000 </r>
       <r>    -5.7761     0.0000    72.0000 </r>
       <r>    -5.7393     0.0000    72.0000 </r>
       <r>    -5.7025     0.0000    72.0000 </r>
       <r>    -5.6657     0.0000    72.0000 </r>
       <r>    -5.6289     0.0000    72.0000 </r>
       <r>    -5.5921     0.0000    72.0000 </r>
       <r>    -5.5553     0.0000    72.0000 </r>
       <r>    -5.5185     0.0000    72.0000 </r>
       <r>    -5.4817     0.0000    72.0000 </r>
       <r>    -5.4449     0.0000    72.0000 </r>
       <r>    -5.4081     0.0000    72.0000 </r>
       <r>    -5.3712     0.0000    72.0000 </r>
       <r>    -5.3344     0.0000    73.0000 </r>
       <r>    -5.2976     0.0000    73.0000 </r>
       <r>    -5.2608     0.0000    73.0000 </r>
       <r>    -5.2240     0.0000    74.0000 </r>
       <r>    -5.1872     0.0000    74.0000 </r>
       <r>    -5.1504     0.0000    74.0000 </r>
       <r>    -5.1136     0.0000    74.0000 </r>
       <r>    -5.0768     0.0000    74.0000 </r>
       <r>    -5.0400     0.0000    74.0000 </r>
       <r>    -5.0032     0.0000    74.0000 </r>
       <r>    -4.9664     0.0000    74.0000 </r>
       <r>    -4.9296     0.0000    74.0000 </r>
       <r>    -4.8928     0.0000    74.0000 </r>
       <r>    -4.8560     0.0000    74.0000 </r>
       <r>    -4.8192     0.0000    74.0000 </r>
       <r>    -4.7824     0.0000    74.0000 </r>
       <r>    -4.7456     0.0000    75.0000 </r>
       <r>    -4.7088     0.0000    75.0000 </r>
       <r>    -4.6720     0.0000    75.0000 </r>
       <r>    -4.6352     0.0000    75.0000 </r>
       <r>    -4.5984     0.0000    75.0000 </r>
       <r>    -4.5616     0.0000    75.0000 </r>
       <r>    -4.5248     0.0000    75.0000 </r>
       <r>    -4.4880     0.0000    75.0000 </r>
       <r>    -4.4512     0.0000    75.0000 </r>
       <r>    -4.4144     0.0000    75.0000 </r>
       <r>    -4.3775     0.0000    75.0000 </r>
       <r>    -4.3407     0.0000    75.0000 </r>
       <r>    -4.3039     0.0000    75.0000 </r>
       <r>    -4.2671     0.0000    75.0000 </r>
       <r>    -4.2303     0.0000    75.0000 </r>
       <r>    -4.1935     0.0000    75.0000 </r>
       <r>    -4.1567     0.0000    75.0000 </r>
       <r>    -4.1199     0.0000    75.0000 </r>
       <r>    -4.0831     0.0000    75.0000 </r>
       <r>    -4.0463     0.0000    75.0000 </r>
       <r>    -4.0095     0.0000    76.0000 </r>
       <r>    -3.9727     0.0000    76.0000 </r>
       <r>    -3.9359     0.0000    77.0000 </r>
       <r>    -3.8991     0.0000    77.0000 </r>
       <r>    -3.8623     0.0000    77.0000 </r>
       <r>    -3.8255     0.0000    77.0000 </r>
       <r>    -3.7887     0.0000    77.0000 </r>
       <r>    -3.7519     0.0000    77.0000 </r>
       <r>    -3.7151     0.0000    77.0000 </r>
       <r>    -3.6783     0.0000    77.0000 </r>
       <r>    -3.6415     0.0000    77.0000 </r>
       <r>    -3.6047     0.0000    77.0000 </r>
       <r>    -3.5679     0.0000    77.0000 </r>
       <r>    -3.5311     0.0000    77.0000 </r>
       <r>    -3.4943     0.0000    77.0000 </r>
       <r>    -3.4575     0.0000    77.0000 </r>
       <r>    -3.4207     0.0000    77.0000 </r>
       <r>    -3.3839     0.0000    77.0000 </r>
       <r>    -3.3470     0.0000    77.0000 </r>
       <r>    -3.3102     0.0000    77.0000 </r>
       <r>    -3.2734     0.0000    77.0000 </r>
       <r>    -3.2366     0.0000    77.0000 </r>
       <r>    -3.1998     0.0000    77.0000 </r>
       <r>    -3.1630     0.0000    77.0000 </r>
       <r>    -3.1262     0.0000    77.0000 </r>
       <r>    -3.0894     0.0000    77.0000 </r>
       <r>    -3.0526     0.0000    77.0000 </r>
       <r>    -3.0158     0.0000    77.0000 </r>
       <r>    -2.9790     0.0000    77.0000 </r>
       <r>    -2.9422     0.0000    78.0000 </r>
       <r>    -2.9054     0.0000    78.0000 </r>
       <r>    -2.8686     0.0000    78.0000 </r>
       <r>    -2.8318     0.0000    78.0000 </r>
       <r>    -2.7950     0.0000    78.0000 </r>
       <r>    -2.7582     0.0000    78.0000 </r>
       <r>    -2.7214     0.0000    78.0000 </r>
       <r>    -2.6846     0.0000    78.0000 </r>
       <r>    -2.6478     0.0000    78.0000 </r>
       <r>    -2.6110     0.0000    78.0000 </r>
       <r>    -2.5742     0.0000    80.0000 </r>
       <r>    -2.5374     0.0000    80.0000 </r>
       <r>    -2.5006     0.0000    81.0000 </r>
       <r>    -2.4638     0.0000    81.0000 </r>
       <r>    -2.4270     0.0000    81.0000 </r>
       <r>    -2.3902     0.0000    82.0000 </r>
       <r>    -2.3533     0.0000    82.0000 </r>
       <r>    -2.3165     0.0000    82.0000 </r>
       <r>    -2.2797     0.0000    83.0000 </r>
       <r>    -2.2429     0.0000    83.0000 </r>
       <r>    -2.2061     0.0000    83.0000 </r>
       <r>    -2.1693     0.0000    83.0000 </r>
       <r>    -2.1325     0.0000    83.0000 </r>
       <r>    -2.0957     0.0000    83.0000 </r>
       <r>    -2.0589     0.0000    83.0000 </r>
       <r>    -2.0221     0.0000    83.0000 </r>
       <r>    -1.9853     0.0000    83.0000 </r>
       <r>    -1.9485     0.0000    83.0000 </r>
       <r>    -1.9117     0.0000    83.0000 </r>
       <r>    -1.8749     0.0000    83.0000 </r>
       <r>    -1.8381     0.0000    83.0000 </r>
       <r>    -1.8013     0.0000    83.0000 </r>
       <r>    -1.7645     0.0000    83.0000 </r>
       <r>    -1.7277     0.0000    83.0000 </r>
       <r>    -1.6909     0.0000    84.0000 </r>
       <r>    -1.6541     0.0000    84.0000 </r>
       <r>    -1.6173     0.0000    84.0000 </r>
       <r>    -1.5805     0.0000    84.0000 </r>
       <r>    -1.5437     0.0000    84.0000 </r>
       <r>    -1.5069     0.0000    84.0000 </r>
       <r>    -1.4701     0.0000    84.0000 </r>
       <r>    -1.4333     0.0000    84.0000 </r>
       <r>    -1.3965     0.0000    84.0000 </r>
       <r>    -1.3597     0.0000    84.0000 </r>
       <r>    -1.3228     0.0000    86.0000 </r>
       <r>    -1.2860     0.0000    86.0000 </r>
       <r>    -1.2492     0.0000    86.0000 </r>
       <r>    -1.2124     0.0000    86.0000 </r>
       <r>    -1.1756     0.0000    86.0000 </r>
       <r>    -1.1388     0.0000    86.0000 </r>
       <r>    -1.1020     0.0000    86.0000 </r>
       <r>    -1.0652     0.0000    86.0000 </r>
       <r>    -1.0284     0.0000    86.0000 </r>
       <r>    -0.9916     0.0000    86.0000 </r>
       <r>    -0.9548     0.0000    86.0000 </r>
       <r>    -0.9180     0.0000    86.0000 </r>
       <r>    -0.8812     0.0000    86.0000 </r>
       <r>    -0.8444     0.0000    87.0000 </r>
       <r>    -0.8076     0.0000    87.0000 </r>
       <r>    -0.7708     0.0000    87.0000 </r>
       <r>    -0.7340     0.0000    88.0000 </r>
       <r>    -0.6972     0.0000    88.0000 </r>
       <r>    -0.6604     0.0000    88.0000 </r>
       <r>    -0.6236     0.0000    88.0000 </r>
       <r>    -0.5868     0.0000    88.0000 </r>
       <r>    -0.5500     0.0000    89.0000 </r>
       <r>    -0.5132     0.0000    89.0000 </r>
       <r>    -0.4764     0.0000    89.0000 </r>
       <r>    -0.4396     0.0000    90.0000 </r>
       <r>    -0.4028     0.0000    90.0000 </r>
       <r>    -0.3660     0.0000    91.0000 </r>
       <r>    -0.3291     0.0000    91.0000 </r>
       <r>    -0.2923     0.0000    91.0000 </r>
       <r>    -0.2555     0.0000    91.0000 </r>
       <r>    -0.2187     0.0000    91.0000 </r>
       <r>    -0.1819     0.0000    91.0000 </r>
       <r>    -0.1451     0.0000    91.0000 </r>
       <r>    -0.1083     0.0000    91.0000 </r>
       <r>    -0.0715    27.1712    94.0000 </r>
       <r>    -0.0347     0.0000    94.0000 </r>
       <r>     0.0021     0.0000    94.0000 </r>
       <r>     0.0389     0.0000    94.0000 </r>
       <r>     0.0757     0.0000    94.0000 </r>
       <r>     0.1125     0.0000    94.0000 </r>
       <r>     0.1493     0.0000    95.0000 </r>
       <r>     0.1861     0.0000    95.0000 </r>
       <r>     0.2229     0.0000    95.0000 </r>
       <r>     0.2597     0.0000    95.0000 </r>
       <r>     0.2965     0.0000    95.0000 </r>
       <r>     0.3333     0.0000    96.0000 </r>
       <r>     0.3701     0.0000    97.0000 </r>
       <r>     0.4069     0.0000    97.0000 </r>
       <r>     0.4437     0.0000    98.0000 </r>
       <r>     0.4805     0.0000    98.0000 </r>
       <r>     0.5173     0.0000    98.0000 </r>
       <r>     0.5541     0.0000    98.0000 </r>
       <r>     0.5909     0.0000    99.0000 </r>
       <r>     0.6277     0.0000    99.0000 </r>
       <r>     0.6645     0.0000   100.0000 </r>
       <r>     0.7014     0.0000   100.0000 </r>
       <r>     0.7382     0.0000   100.0000 </r>
       <r>     0.7750     0.0000   100.0000 </r>
       <r>     0.8118     0.0000   100.0000 </r>
       <r>     0.8486     0.0000   100.0000 </r>
       <r>     0.8854     0.0000   100.0000 </r>
       <r>     0.9222     0.0000   100.0000 </r>
       <r>     0.9590     0.0000   100.0000 </r>
       <r>     0.9958     0.0000   100.0000 </r>
       <r>     1.0326     0.0000   100.0000 </r>
       <r>     1.0694     0.0000   100.0000 </r>
       <r>     1.1062     0.0000   100.0000 </r>
       <r>     1.1430     0.0000   100.0000 </r>
      </set>
     </set>
    </array>
   </total>
  </dos>
 </calculation>
 <structure name="finalpos" >
  <crystal>
   <varray name="basis" >
    <v>      19.79381300       0.00000000       0.00000000 </v>
    <v>       0.00000000      19.79381300       0.00000000 </v>
    <v>       0.00000000       0.00000000      19.79381300 </v>
   </varray>
   <i name="volume">   7755.11761909 </i>
   <varray name="rec_basis" >
    <v>       0.05052084       0.00000000       0.00000000 </v>
    <v>       0.00000000       0.05052084       0.00000000 </v>
    <v>       0.00000000       0.00000000       0.05052084 </v>
   </varray>
  </crystal>
  <varray name="positions" >
   <v>       0.50275919       0.55261102       0.50000000 </v>
   <v>       0.57555497       0.64765332       0.57454196 </v>
   <v>       0.57687898       0.50934681       0.60981426 </v>
   <v>       0.65217601       0.55741742       0.50000000 </v>
   <v>       0.35929478       0.39168855       0.50000000 </v>
   <v>       0.36528334       0.53115384       0.50000000 </v>
   <v>       0.44461603       0.45697852       0.40701122 </v>
   <v>       0.46181759       0.32210001       0.42876930 </v>
   <v>       0.54484218       0.41395943       0.50000000 </v>
   <v>       0.57555497       0.64765332       0.42545804 </v>
   <v>       0.57687898       0.50934681       0.39018574 </v>
   <v>       0.44461603       0.45697852       0.59298878 </v>
   <v>       0.46181759       0.32210001       0.57123070 </v>
   <v>       0.45790938       0.68101242       0.50000000 </v>
  </varray>
 </structure>
</modeling>
