   8   8   0   0
  0.7060421E+03  0.1780903E-08  0.1780903E-08  0.1780903E-08  0.1000000E-15
  1.000000000000000E-004
  CAR 
 unknown system                          
      0.34525094     -9.37631741  301     -4.53983716      1.00000000
     -9.376  0.0000E+00  0.0000E+00  0.0000E+00  0.0000E+00
     -9.344  0.0000E+00  0.0000E+00  0.0000E+00  0.0000E+00
     -9.312  0.0000E+00  0.0000E+00  0.0000E+00  0.0000E+00
     -9.279  0.0000E+00  0.0000E+00  0.0000E+00  0.0000E+00
     -9.247  0.0000E+00  0.0000E+00  0.0000E+00  0.0000E+00
     -9.214  0.0000E+00  0.0000E+00  0.0000E+00  0.0000E+00
     -9.182  0.0000E+00  0.0000E+00  0.0000E+00  0.0000E+00
     -9.149  0.0000E+00  0.0000E+00  0.0000E+00  0.0000E+00
     -9.117  0.0000E+00  0.0000E+00  0.0000E+00  0.0000E+00
     -9.085  0.0000E+00  0.0000E+00  0.0000E+00  0.0000E+00
     -9.052  0.0000E+00  0.0000E+00  0.0000E+00  0.0000E+00
     -9.020  0.0000E+00  0.0000E+00  0.0000E+00  0.0000E+00
     -8.987  0.0000E+00  0.0000E+00  0.0000E+00  0.0000E+00
     -8.955  0.0000E+00  0.0000E+00  0.0000E+00  0.0000E+00
     -8.923  0.0000E+00  0.0000E+00  0.1000E-02  0.1000E-02
     -8.890  0.0000E+00  0.0000E+00  0.1000E-02  0.1000E-02
     -8.858  0.0000E+00  0.0000E+00  0.1000E-02  0.1000E-02
     -8.825  0.0000E+00  0.0000E+00  0.1000E-02  0.1000E-02
     -8.793  0.0000E+00  0.0000E+00  0.1000E-02  0.1000E-02
     -8.761  0.0000E+00  0.0000E+00  0.1000E-02  0.1000E-02
     -8.728  0.0000E+00  0.0000E+00  0.1000E-02  0.1000E-02
     -8.696  0.0000E+00  0.0000E+00  0.2000E-02  0.2000E-02
     -8.663  0.0000E+00  0.0000E+00  0.2000E-02  0.2000E-02
     -8.631  0.0000E+00  0.0000E+00  0.3000E-02  0.3000E-02
     -8.599  0.0000E+00  0.0000E+00  0.3000E-02  0.3000E-02
     -8.566  0.0000E+00  0.0000E+00  0.3000E-02  0.3000E-02
     -8.534  0.0000E+00  0.0000E+00  0.3000E-02  0.3000E-02
     -8.501  0.0000E+00  0.0000E+00  0.3000E-02  0.3000E-02
     -8.469  0.0000E+00  0.0000E+00  0.3000E-02  0.3000E-02
     -8.437  0.0000E+00  0.0000E+00  0.4000E-02  0.4000E-02
     -8.404  0.0000E+00  0.0000E+00  0.4000E-02  0.4000E-02
     -8.372  0.0000E+00  0.0000E+00  0.4000E-02  0.4000E-02
     -8.339  0.0000E+00  0.0000E+00  0.4000E-02  0.4000E-02
     -8.307  0.0000E+00  0.0000E+00  0.4000E-02  0.4000E-02
     -8.275  0.0000E+00  0.0000E+00  0.4000E-02  0.4000E-02
     -8.242  0.0000E+00  0.0000E+00  0.4000E-02  0.4000E-02
     -8.210  0.0000E+00  0.0000E+00  0.4000E-02  0.4000E-02
     -8.177  0.0000E+00  0.0000E+00  0.4000E-02  0.4000E-02
     -8.145  0.0000E+00  0.0000E+00  0.5000E-02  0.5000E-02
     -8.113  0.0000E+00  0.0000E+00  0.6000E-02  0.6000E-02
     -8.080  0.0000E+00  0.0000E+00  0.6000E-02  0.6000E-02
     -8.048  0.0000E+00  0.0000E+00  0.6000E-02  0.6000E-02
     -8.015  0.0000E+00  0.0000E+00  0.7000E-02  0.7000E-02
     -7.983  0.3084E-01  0.3084E-01  0.7999E-02  0.7999E-02
     -7.950  0.0000E+00  0.0000E+00  0.9000E-02  0.9000E-02
     -7.918  0.0000E+00  0.0000E+00  0.9000E-02  0.9000E-02
     -7.886  0.0000E+00  0.0000E+00  0.9000E-02  0.9000E-02
     -7.853  0.0000E+00  0.0000E+00  0.9000E-02  0.9000E-02
     -7.821  0.0000E+00  0.0000E+00  0.9000E-02  0.9000E-02
     -7.788  0.0000E+00  0.0000E+00  0.1000E-01  0.1000E-01
     -7.756  0.0000E+00  0.0000E+00  0.1000E-01  0.1000E-01
     -7.724  0.0000E+00  0.0000E+00  0.1100E-01  0.1100E-01
     -7.691  0.0000E+00  0.0000E+00  0.1100E-01  0.1100E-01
     -7.659  0.0000E+00  0.0000E+00  0.1100E-01  0.1100E-01
     -7.626  0.0000E+00  0.0000E+00  0.1300E-01  0.1300E-01
     -7.594  0.0000E+00  0.0000E+00  0.1300E-01  0.1300E-01
     -7.562  0.0000E+00  0.0000E+00  0.1300E-01  0.1300E-01
     -7.529  0.0000E+00  0.0000E+00  0.1300E-01  0.1300E-01
     -7.497  0.0000E+00  0.0000E+00  0.1300E-01  0.1300E-01
     -7.464  0.0000E+00  0.0000E+00  0.1300E-01  0.1300E-01
     -7.432  0.0000E+00  0.0000E+00  0.1300E-01  0.1300E-01
     -7.400  0.0000E+00  0.0000E+00  0.1300E-01  0.1300E-01
     -7.367  0.0000E+00  0.0000E+00  0.1500E-01  0.1500E-01
     -7.335  0.0000E+00  0.0000E+00  0.1600E-01  0.1600E-01
     -7.302  0.0000E+00  0.0000E+00  0.1700E-01  0.1700E-01
     -7.270  0.0000E+00  0.0000E+00  0.1900E-01  0.1900E-01
     -7.238  0.0000E+00  0.0000E+00  0.2000E-01  0.2000E-01
     -7.205  0.3086E-01  0.3086E-01  0.2100E-01  0.2100E-01
     -7.173  0.0000E+00  0.0000E+00  0.2200E-01  0.2200E-01
     -7.140  0.0000E+00  0.0000E+00  0.2400E-01  0.2400E-01
     -7.108  0.0000E+00  0.0000E+00  0.2400E-01  0.2400E-01
     -7.076  0.0000E+00  0.0000E+00  0.2400E-01  0.2400E-01
     -7.043  0.0000E+00  0.0000E+00  0.2500E-01  0.2500E-01
     -7.011  0.0000E+00  0.0000E+00  0.2600E-01  0.2600E-01
     -6.978  0.0000E+00  0.0000E+00  0.2600E-01  0.2600E-01
     -6.946  0.0000E+00  0.0000E+00  0.2600E-01  0.2600E-01
     -6.914  0.0000E+00  0.0000E+00  0.2600E-01  0.2600E-01
     -6.881  0.0000E+00  0.0000E+00  0.2700E-01  0.2700E-01
     -6.849  0.0000E+00  0.0000E+00  0.2700E-01  0.2700E-01
     -6.816  0.2481E-02  0.2486E-02  0.2808E-01  0.2808E-01
     -6.784  0.0000E+00  0.0000E+00  0.2900E-01  0.2900E-01
     -6.751  0.0000E+00  0.0000E+00  0.3200E-01  0.3200E-01
     -6.719  0.0000E+00  0.0000E+00  0.3200E-01  0.3200E-01
     -6.687  0.0000E+00  0.0000E+00  0.3200E-01  0.3200E-01
     -6.654  0.0000E+00  0.0000E+00  0.3300E-01  0.3300E-01
     -6.622  0.2316E-01  0.2316E-01  0.3475E-01  0.3475E-01
     -6.589  0.0000E+00  0.0000E+00  0.3600E-01  0.3600E-01
     -6.557  0.0000E+00  0.0000E+00  0.3600E-01  0.3600E-01
     -6.525  0.0000E+00  0.0000E+00  0.3600E-01  0.3600E-01
     -6.492  0.0000E+00  0.0000E+00  0.3600E-01  0.3600E-01
     -6.460  0.0000E+00  0.0000E+00  0.3600E-01  0.3600E-01
     -6.427  0.0000E+00  0.0000E+00  0.3700E-01  0.3700E-01
     -6.395  0.0000E+00  0.0000E+00  0.3800E-01  0.3800E-01
     -6.363  0.0000E+00  0.0000E+00  0.3900E-01  0.3900E-01
     -6.330  0.0000E+00  0.0000E+00  0.3900E-01  0.3900E-01
     -6.298  0.0000E+00  0.0000E+00  0.3900E-01  0.3900E-01
     -6.265  0.0000E+00  0.0000E+00  0.3900E-01  0.3900E-01
     -6.233  0.0000E+00  0.0000E+00  0.4000E-01  0.4000E-01
     -6.201  0.0000E+00  0.0000E+00  0.4000E-01  0.4000E-01
     -6.168  0.0000E+00  0.0000E+00  0.4100E-01  0.4100E-01
     -6.136  0.0000E+00  0.0000E+00  0.4100E-01  0.4100E-01
     -6.103  0.0000E+00  0.0000E+00  0.4100E-01  0.4100E-01
     -6.071  0.0000E+00  0.0000E+00  0.4100E-01  0.4100E-01
     -6.039  0.0000E+00  0.0000E+00  0.4100E-01  0.4100E-01
     -6.006  0.0000E+00  0.0000E+00  0.4100E-01  0.4100E-01
     -5.974  0.0000E+00  0.0000E+00  0.4100E-01  0.4100E-01
     -5.941  0.0000E+00  0.0000E+00  0.4100E-01  0.4100E-01
     -5.909  0.0000E+00  0.0000E+00  0.4100E-01  0.4100E-01
     -5.877  0.0000E+00  0.0000E+00  0.4100E-01  0.4100E-01
     -5.844  0.0000E+00  0.0000E+00  0.4100E-01  0.4100E-01
     -5.812  0.0000E+00  0.0000E+00  0.4100E-01  0.4100E-01
     -5.779  0.0000E+00  0.0000E+00  0.4100E-01  0.4100E-01
     -5.747  0.0000E+00  0.0000E+00  0.4100E-01  0.4100E-01
     -5.715  0.0000E+00  0.0000E+00  0.4100E-01  0.4100E-01
     -5.682  0.0000E+00  0.0000E+00  0.4100E-01  0.4100E-01
     -5.650  0.0000E+00  0.0000E+00  0.4100E-01  0.4100E-01
     -5.617  0.0000E+00  0.0000E+00  0.4100E-01  0.4100E-01
     -5.585  0.0000E+00  0.0000E+00  0.4100E-01  0.4100E-01
     -5.553  0.0000E+00  0.0000E+00  0.4100E-01  0.4100E-01
     -5.520  0.0000E+00  0.0000E+00  0.4100E-01  0.4100E-01
     -5.488  0.0000E+00  0.0000E+00  0.4100E-01  0.4100E-01
     -5.455  0.0000E+00  0.0000E+00  0.4100E-01  0.4100E-01
     -5.423  0.0000E+00  0.0000E+00  0.4100E-01  0.4100E-01
     -5.390  0.0000E+00  0.0000E+00  0.4100E-01  0.4100E-01
     -5.358  0.0000E+00  0.0000E+00  0.4100E-01  0.4100E-01
     -5.326  0.0000E+00  0.0000E+00  0.4100E-01  0.4100E-01
     -5.293  0.0000E+00  0.0000E+00  0.4100E-01  0.4100E-01
     -5.261  0.0000E+00  0.0000E+00  0.4100E-01  0.4100E-01
     -5.228  0.0000E+00  0.0000E+00  0.4100E-01  0.4100E-01
     -5.196  0.0000E+00  0.0000E+00  0.4100E-01  0.4100E-01
     -5.164  0.0000E+00  0.0000E+00  0.4200E-01  0.4200E-01
     -5.131  0.0000E+00  0.0000E+00  0.4300E-01  0.4300E-01
     -5.099  0.0000E+00  0.0000E+00  0.4300E-01  0.4300E-01
     -5.066  0.0000E+00  0.0000E+00  0.4300E-01  0.4300E-01
     -5.034  0.0000E+00  0.0000E+00  0.4300E-01  0.4300E-01
     -5.002  0.0000E+00  0.0000E+00  0.4300E-01  0.4300E-01
     -4.969  0.0000E+00  0.0000E+00  0.4300E-01  0.4300E-01
     -4.937  0.0000E+00  0.0000E+00  0.4300E-01  0.4300E-01
     -4.904  0.0000E+00  0.0000E+00  0.4300E-01  0.4300E-01
     -4.872  0.0000E+00  0.0000E+00  0.4300E-01  0.4300E-01
     -4.840  0.0000E+00  0.0000E+00  0.4300E-01  0.4300E-01
     -4.807  0.0000E+00  0.0000E+00  0.4300E-01  0.4300E-01
     -4.775  0.0000E+00  0.0000E+00  0.4300E-01  0.4300E-01
     -4.742  0.0000E+00  0.0000E+00  0.4300E-01  0.4300E-01
     -4.710  0.0000E+00  0.0000E+00  0.4300E-01  0.4300E-01
     -4.678  0.0000E+00  0.0000E+00  0.4300E-01  0.4300E-01
     -4.645  0.0000E+00  0.0000E+00  0.4300E-01  0.4300E-01
     -4.613  0.0000E+00  0.0000E+00  0.4300E-01  0.4300E-01
     -4.580  0.0000E+00  0.0000E+00  0.4300E-01  0.4300E-01
     -4.548  0.0000E+00  0.0000E+00  0.4400E-01  0.4400E-01
     -4.516  0.0000E+00  0.0000E+00  0.4400E-01  0.4400E-01
     -4.483  0.0000E+00  0.0000E+00  0.4400E-01  0.4400E-01
     -4.451  0.0000E+00  0.0000E+00  0.4400E-01  0.4400E-01
     -4.418  0.0000E+00  0.0000E+00  0.4400E-01  0.4400E-01
     -4.386  0.0000E+00  0.0000E+00  0.4400E-01  0.4400E-01
     -4.354  0.0000E+00  0.0000E+00  0.4400E-01  0.4400E-01
     -4.321  0.0000E+00  0.0000E+00  0.4400E-01  0.4400E-01
     -4.289  0.0000E+00  0.0000E+00  0.4400E-01  0.4400E-01
     -4.256  0.0000E+00  0.0000E+00  0.4400E-01  0.4400E-01
     -4.224  0.0000E+00  0.0000E+00  0.4400E-01  0.4400E-01
     -4.191  0.0000E+00  0.0000E+00  0.4400E-01  0.4400E-01
     -4.159  0.0000E+00  0.0000E+00  0.4400E-01  0.4400E-01
     -4.127  0.0000E+00  0.0000E+00  0.4400E-01  0.4400E-01
     -4.094  0.0000E+00  0.0000E+00  0.4400E-01  0.4400E-01
     -4.062  0.0000E+00  0.0000E+00  0.4400E-01  0.4400E-01
     -4.029  0.0000E+00  0.0000E+00  0.4400E-01  0.4400E-01
     -3.997  0.0000E+00  0.0000E+00  0.4400E-01  0.4400E-01
     -3.965  0.0000E+00  0.0000E+00  0.4400E-01  0.4400E-01
     -3.932  0.0000E+00  0.0000E+00  0.4400E-01  0.4400E-01
     -3.900  0.0000E+00  0.0000E+00  0.4400E-01  0.4400E-01
     -3.867  0.0000E+00  0.0000E+00  0.4400E-01  0.4400E-01
     -3.835  0.0000E+00  0.0000E+00  0.4400E-01  0.4400E-01
     -3.803  0.0000E+00  0.0000E+00  0.4400E-01  0.4400E-01
     -3.770  0.0000E+00  0.0000E+00  0.4400E-01  0.4400E-01
     -3.738  0.0000E+00  0.0000E+00  0.4400E-01  0.4400E-01
     -3.705  0.0000E+00  0.0000E+00  0.4400E-01  0.4400E-01
     -3.673  0.0000E+00  0.0000E+00  0.4400E-01  0.4400E-01
     -3.641  0.0000E+00  0.0000E+00  0.4400E-01  0.4400E-01
     -3.608  0.0000E+00  0.0000E+00  0.4400E-01  0.4400E-01
     -3.576  0.0000E+00  0.0000E+00  0.4400E-01  0.4400E-01
     -3.543  0.0000E+00  0.0000E+00  0.4400E-01  0.4400E-01
     -3.511  0.0000E+00  0.0000E+00  0.4400E-01  0.4400E-01
     -3.479  0.0000E+00  0.0000E+00  0.4400E-01  0.4400E-01
     -3.446  0.0000E+00  0.0000E+00  0.4400E-01  0.4400E-01
     -3.414  0.0000E+00  0.0000E+00  0.4400E-01  0.4400E-01
     -3.381  0.0000E+00  0.0000E+00  0.4400E-01  0.4400E-01
     -3.349  0.0000E+00  0.0000E+00  0.4400E-01  0.4400E-01
     -3.317  0.0000E+00  0.0000E+00  0.4400E-01  0.4400E-01
     -3.284  0.0000E+00  0.0000E+00  0.4400E-01  0.4400E-01
     -3.252  0.0000E+00  0.0000E+00  0.4400E-01  0.4400E-01
     -3.219  0.0000E+00  0.0000E+00  0.4400E-01  0.4400E-01
     -3.187  0.0000E+00  0.0000E+00  0.4400E-01  0.4400E-01
     -3.155  0.0000E+00  0.0000E+00  0.4400E-01  0.4400E-01
     -3.122  0.0000E+00  0.0000E+00  0.4400E-01  0.4400E-01
     -3.090  0.0000E+00  0.0000E+00  0.4400E-01  0.4400E-01
     -3.057  0.0000E+00  0.0000E+00  0.4400E-01  0.4400E-01
     -3.025  0.0000E+00  0.0000E+00  0.4400E-01  0.4400E-01
     -2.992  0.0000E+00  0.0000E+00  0.4400E-01  0.4400E-01
     -2.960  0.0000E+00  0.0000E+00  0.4400E-01  0.4400E-01
     -2.928  0.0000E+00  0.0000E+00  0.4400E-01  0.4400E-01
     -2.895  0.0000E+00  0.0000E+00  0.4400E-01  0.4400E-01
     -2.863  0.0000E+00  0.0000E+00  0.4400E-01  0.4400E-01
     -2.830  0.0000E+00  0.0000E+00  0.4500E-01  0.4500E-01
     -2.798  0.0000E+00  0.0000E+00  0.4500E-01  0.4500E-01
     -2.766  0.0000E+00  0.0000E+00  0.4500E-01  0.4500E-01
     -2.733  0.0000E+00  0.0000E+00  0.4500E-01  0.4500E-01
     -2.701  0.0000E+00  0.0000E+00  0.4500E-01  0.4500E-01
     -2.668  0.0000E+00  0.0000E+00  0.4500E-01  0.4500E-01
     -2.636  0.0000E+00  0.0000E+00  0.4500E-01  0.4500E-01
     -2.604  0.0000E+00  0.0000E+00  0.4500E-01  0.4500E-01
     -2.571  0.0000E+00  0.0000E+00  0.4500E-01  0.4500E-01
     -2.539  0.0000E+00  0.0000E+00  0.4500E-01  0.4500E-01
     -2.506  0.0000E+00  0.0000E+00  0.4500E-01  0.4500E-01
     -2.474  0.0000E+00  0.0000E+00  0.4500E-01  0.4500E-01
     -2.442  0.0000E+00  0.0000E+00  0.4600E-01  0.4600E-01
     -2.409  0.0000E+00  0.0000E+00  0.4600E-01  0.4600E-01
     -2.377  0.0000E+00  0.0000E+00  0.4600E-01  0.4600E-01
     -2.344  0.0000E+00  0.0000E+00  0.4600E-01  0.4600E-01
     -2.312  0.0000E+00  0.0000E+00  0.4600E-01  0.4600E-01
     -2.280  0.0000E+00  0.0000E+00  0.4700E-01  0.4700E-01
     -2.247  0.0000E+00  0.0000E+00  0.4700E-01  0.4700E-01
     -2.215  0.0000E+00  0.0000E+00  0.4800E-01  0.4800E-01
     -2.182  0.0000E+00  0.0000E+00  0.4800E-01  0.4800E-01
     -2.150  0.0000E+00  0.0000E+00  0.4800E-01  0.4800E-01
     -2.118  0.0000E+00  0.0000E+00  0.4800E-01  0.4800E-01
     -2.085  0.0000E+00  0.0000E+00  0.4800E-01  0.4800E-01
     -2.053  0.0000E+00  0.0000E+00  0.4800E-01  0.4800E-01
     -2.020  0.0000E+00  0.0000E+00  0.4800E-01  0.4800E-01
     -1.988  0.0000E+00  0.0000E+00  0.4800E-01  0.4800E-01
     -1.956  0.0000E+00  0.0000E+00  0.4800E-01  0.4800E-01
     -1.923  0.0000E+00  0.0000E+00  0.4800E-01  0.4800E-01
     -1.891  0.0000E+00  0.0000E+00  0.4800E-01  0.4800E-01
     -1.858  0.0000E+00  0.0000E+00  0.4800E-01  0.4800E-01
     -1.826  0.0000E+00  0.0000E+00  0.4800E-01  0.4800E-01
     -1.793  0.0000E+00  0.0000E+00  0.4800E-01  0.4800E-01
     -1.761  0.0000E+00  0.0000E+00  0.4800E-01  0.4800E-01
     -1.729  0.0000E+00  0.0000E+00  0.4900E-01  0.4900E-01
     -1.696  0.0000E+00  0.0000E+00  0.4900E-01  0.4900E-01
     -1.664  0.0000E+00  0.0000E+00  0.4900E-01  0.4900E-01
     -1.631  0.0000E+00  0.0000E+00  0.4900E-01  0.4900E-01
     -1.599  0.0000E+00  0.0000E+00  0.4900E-01  0.4900E-01
     -1.567  0.0000E+00  0.0000E+00  0.4900E-01  0.4900E-01
     -1.534  0.0000E+00  0.0000E+00  0.4900E-01  0.4900E-01
     -1.502  0.0000E+00  0.0000E+00  0.4900E-01  0.4900E-01
     -1.469  0.0000E+00  0.0000E+00  0.4900E-01  0.4900E-01
     -1.437  0.0000E+00  0.0000E+00  0.4900E-01  0.4900E-01
     -1.405  0.0000E+00  0.0000E+00  0.4900E-01  0.4900E-01
     -1.372  0.0000E+00  0.0000E+00  0.4900E-01  0.4900E-01
     -1.340  0.0000E+00  0.0000E+00  0.4900E-01  0.4900E-01
     -1.307  0.0000E+00  0.0000E+00  0.4900E-01  0.4900E-01
     -1.275  0.0000E+00  0.0000E+00  0.4900E-01  0.4900E-01
     -1.243  0.0000E+00  0.0000E+00  0.4900E-01  0.4900E-01
     -1.210  0.0000E+00  0.0000E+00  0.4900E-01  0.4900E-01
     -1.178  0.0000E+00  0.0000E+00  0.4900E-01  0.4900E-01
     -1.145  0.0000E+00  0.0000E+00  0.4900E-01  0.4900E-01
     -1.113  0.0000E+00  0.0000E+00  0.4900E-01  0.4900E-01
     -1.081  0.0000E+00  0.0000E+00  0.4900E-01  0.4900E-01
     -1.048  0.0000E+00  0.0000E+00  0.4900E-01  0.4900E-01
     -1.016  0.0000E+00  0.0000E+00  0.4900E-01  0.4900E-01
     -0.983  0.0000E+00  0.0000E+00  0.4900E-01  0.4900E-01
     -0.951  0.0000E+00  0.0000E+00  0.4900E-01  0.4900E-01
     -0.919  0.0000E+00  0.0000E+00  0.4900E-01  0.4900E-01
     -0.886  0.0000E+00  0.0000E+00  0.4900E-01  0.4900E-01
     -0.854  0.0000E+00  0.0000E+00  0.4900E-01  0.4900E-01
     -0.821  0.0000E+00  0.0000E+00  0.4900E-01  0.4900E-01
     -0.789  0.0000E+00  0.0000E+00  0.4900E-01  0.4900E-01
     -0.757  0.0000E+00  0.0000E+00  0.5100E-01  0.5100E-01
     -0.724  0.0000E+00  0.0000E+00  0.5200E-01  0.5200E-01
     -0.692  0.0000E+00  0.0000E+00  0.5200E-01  0.5200E-01
     -0.659  0.0000E+00  0.0000E+00  0.5300E-01  0.5300E-01
     -0.627  0.0000E+00  0.0000E+00  0.5300E-01  0.5300E-01
     -0.595  0.0000E+00  0.0000E+00  0.5300E-01  0.5300E-01
     -0.562  0.0000E+00  0.0000E+00  0.5300E-01  0.5300E-01
     -0.530  0.0000E+00  0.0000E+00  0.5300E-01  0.5300E-01
     -0.497  0.0000E+00  0.0000E+00  0.5300E-01  0.5300E-01
     -0.465  0.0000E+00  0.0000E+00  0.5300E-01  0.5300E-01
     -0.432  0.0000E+00  0.0000E+00  0.5300E-01  0.5300E-01
     -0.400  0.0000E+00  0.0000E+00  0.5300E-01  0.5300E-01
     -0.368  0.0000E+00  0.0000E+00  0.5300E-01  0.5300E-01
     -0.335  0.0000E+00  0.0000E+00  0.5300E-01  0.5300E-01
     -0.303  0.0000E+00  0.0000E+00  0.5300E-01  0.5300E-01
     -0.270  0.0000E+00  0.0000E+00  0.5300E-01  0.5300E-01
     -0.238  0.0000E+00  0.0000E+00  0.5300E-01  0.5300E-01
     -0.206  0.0000E+00  0.0000E+00  0.5300E-01  0.5300E-01
     -0.173  0.0000E+00  0.0000E+00  0.5300E-01  0.5300E-01
     -0.141  0.0000E+00  0.0000E+00  0.5500E-01  0.5500E-01
     -0.108  0.0000E+00  0.0000E+00  0.5500E-01  0.5500E-01
     -0.076  0.0000E+00  0.0000E+00  0.5600E-01  0.5600E-01
     -0.044  0.0000E+00  0.0000E+00  0.5600E-01  0.5600E-01
     -0.011  0.0000E+00  0.0000E+00  0.5600E-01  0.5600E-01
      0.021  0.0000E+00  0.0000E+00  0.5600E-01  0.5600E-01
      0.054  0.0000E+00  0.0000E+00  0.5600E-01  0.5600E-01
      0.086  0.0000E+00  0.0000E+00  0.5600E-01  0.5600E-01
      0.118  0.0000E+00  0.0000E+00  0.5600E-01  0.5600E-01
      0.151  0.0000E+00  0.0000E+00  0.5600E-01  0.5600E-01
      0.183  0.0000E+00  0.0000E+00  0.5600E-01  0.5600E-01
      0.216  0.0000E+00  0.0000E+00  0.5600E-01  0.5600E-01
      0.248  0.0000E+00  0.0000E+00  0.5600E-01  0.5600E-01
      0.280  0.0000E+00  0.0000E+00  0.5600E-01  0.5600E-01
      0.313  0.0000E+00  0.0000E+00  0.5600E-01  0.5600E-01
      0.345  0.0000E+00  0.0000E+00  0.5600E-01  0.5600E-01
