<?xml version="1.0" encoding="ISO-8859-1"?>
<modeling>
 <generator>
  <i name="program" type="string">vasp </i>
  <i name="version" type="string">5.3.5  </i>
  <i name="subversion" type="string">31Mar14 (build Feb 01 2018 12:10:03) gamma-only                       parallel </i>
  <i name="platform" type="string">LinuxIFC </i>
  <i name="date" type="string">2019 03 23 </i>
  <i name="time" type="string">23:55:34 </i>
 </generator>
 <incar>
  <i type="string" name="PREC">normal</i>
  <i type="int" name="ISPIN">     2</i>
  <i type="int" name="IBRION">     2</i>
  <i type="int" name="NSW">  1000</i>
  <i type="int" name="ISIF">     2</i>
  <i name="POTIM">      0.10000000</i>
  <i type="logical" name="LPLANE"> T  </i>
  <i type="int" name="ISMEAR">     0</i>
  <i name="SIGMA">      0.00010000</i>
  <i type="logical" name="LWAVE"> F  </i>
  <i type="logical" name="LCHARG"> F  </i>
  <i type="logical" name="LVTOT"> F  </i>
  <i type="string" name="GGA"> PE</i>
 </incar>
 <kpoints>
  <varray name="kpointlist" >
   <v>       0.00000000       0.00000000       0.00000000 </v>
  </varray>
  <varray name="weights" >
   <v>       1.00000000 </v>
  </varray>
 </kpoints>
 <parameters>
  <separator name="general" >
   <i type="string" name="SYSTEM">unknown system</i>
   <i type="logical" name="LCOMPAT"> F  </i>
  </separator>
  <separator name="electronic" >
   <i type="string" name="PREC">normal</i>
   <i name="ENMAX">    249.84400000</i>
   <i name="ENAUG">    412.49600000</i>
   <i name="EDIFF">      0.00010000</i>
   <i type="int" name="IALGO">    38</i>
   <i type="int" name="IWAVPR">    11</i>
   <i type="int" name="NBANDS">   312</i>
   <i name="NELECT">    484.00000000</i>
   <i type="int" name="TURBO">     0</i>
   <i type="int" name="IRESTART">     0</i>
   <i type="int" name="NREBOOT">     0</i>
   <i type="int" name="NMIN">     0</i>
   <i name="EREF">      0.00000000</i>
   <separator name="electronic smearing" >
    <i type="int" name="ISMEAR">     0</i>
    <i name="SIGMA">      0.00010000</i>
    <i name="KSPACING">      0.50000000</i>
    <i type="logical" name="KGAMMA"> T  </i>
   </separator>
   <separator name="electronic projectors" >
    <i type="logical" name="LREAL"> F  </i>
    <v name="ROPT">      0.00000000</v>
    <i type="int" name="LMAXPAW">  -100</i>
    <i type="int" name="LMAXMIX">     2</i>
    <i type="logical" name="NLSPLINE"> F  </i>
   </separator>
   <separator name="electronic startup" >
    <i type="int" name="ISTART">     0</i>
    <i type="int" name="ICHARG">     2</i>
    <i type="int" name="INIWAV">     1</i>
   </separator>
   <separator name="electronic spin" >
    <i type="int" name="ISPIN">     2</i>
    <i type="logical" name="LNONCOLLINEAR"> F  </i>
    <v name="MAGMOM">      1.00000000      1.00000000      1.00000000      1.00000000      1.00000000      1.00000000      1.00000000      1.00000000      1.00000000      1.00000000      1.00000000      1.00000000      1.00000000      1.00000000      1.00000000      1.00000000      1.00000000      1.00000000      1.00000000      1.00000000
      1.00000000      1.00000000      1.00000000      1.00000000      1.00000000      1.00000000      1.00000000      1.00000000      1.00000000      1.00000000      1.00000000      1.00000000      1.00000000      1.00000000      1.00000000      1.00000000      1.00000000      1.00000000      1.00000000      1.00000000
      1.00000000      1.00000000      1.00000000      1.00000000</v>
    <i name="NUPDOWN">     -1.00000000</i>
    <i type="logical" name="LSORBIT"> F  </i>
    <v name="SAXIS">      0.00000000      0.00000000      1.00000000</v>
    <i type="logical" name="LSPIRAL"> F  </i>
    <v name="QSPIRAL">      0.00000000      0.00000000      0.00000000</v>
    <i type="logical" name="LZEROZ"> F  </i>
   </separator>
   <separator name="electronic exchange-correlation" >
    <i type="logical" name="LASPH"> F  </i>
    <i type="logical" name="LMETAGGA"> F  </i>
   </separator>
   <separator name="electronic convergence" >
    <i type="int" name="NELM">    60</i>
    <i type="int" name="NELMDL">    -5</i>
    <i type="int" name="NELMIN">     2</i>
    <i name="ENINI">    249.84400000</i>
    <separator name="electronic convergence detail" >
     <i type="logical" name="LDIAG"> T  </i>
     <i type="logical" name="LSUBROT"> F  </i>
     <i name="WEIMIN">      0.00100000</i>
     <i name="EBREAK">      0.00000008</i>
     <i name="DEPER">      0.30000000</i>
     <i type="int" name="NRMM">     4</i>
     <i name="TIME">      0.40000000</i>
    </separator>
   </separator>
   <separator name="electronic mixer" >
    <i name="AMIX">      0.40000000</i>
    <i name="BMIX">      1.00000000</i>
    <i name="AMIN">      0.10000000</i>
    <i name="AMIX_MAG">      1.60000000</i>
    <i name="BMIX_MAG">      1.00000000</i>
    <separator name="electronic mixer details" >
     <i type="int" name="IMIX">     4</i>
     <i type="int" name="MAXMIX">   -45</i>
     <i name="WC">    100.00000000</i>
     <i type="int" name="INIMIX">     1</i>
     <i type="int" name="MIXPRE">     1</i>
     <i type="int" name="MREMOVE">     5</i>
    </separator>
   </separator>
   <separator name="electronic dipolcorrection" >
    <i type="logical" name="LDIPOL"> F  </i>
    <i type="logical" name="LMONO"> F  </i>
    <i type="int" name="IDIPOL">     0</i>
    <i name="EPSILON">      1.00000000</i>
    <v name="DIPOL">   -100.00000000   -100.00000000   -100.00000000</v>
    <i name="EFIELD">      0.00000000</i>
   </separator>
  </separator>
  <separator name="grids" >
   <i type="int" name="NGX">    96</i>
   <i type="int" name="NGY">    96</i>
   <i type="int" name="NGZ">    96</i>
   <i type="int" name="NGXF">   192</i>
   <i type="int" name="NGYF">   192</i>
   <i type="int" name="NGZF">   192</i>
   <i type="logical" name="ADDGRID"> F  </i>
  </separator>
  <separator name="ionic" >
   <i type="int" name="NSW">  1000</i>
   <i type="int" name="IBRION">     2</i>
   <i type="int" name="ISIF">     2</i>
   <i name="PSTRESS">      0.00000000</i>
   <i name="EDIFFG">      0.00100000</i>
   <i type="int" name="NFREE">     1</i>
   <i name="POTIM">      0.10000000</i>
   <i name="SMASS">     -3.00000000</i>
   <i name="SCALEE">      1.00000000</i>
  </separator>
  <separator name="ionic md" >
   <i name="TEBEG">      0.00010000</i>
   <i name="TEEND">      0.00010000</i>
   <i type="int" name="NBLOCK">     1</i>
   <i type="int" name="KBLOCK">  1000</i>
   <i type="int" name="NPACO">   256</i>
   <i name="APACO">     16.00000000</i>
  </separator>
  <separator name="symmetry" >
   <i type="int" name="ISYM">     2</i>
   <i name="SYMPREC">      0.00001000</i>
  </separator>
  <separator name="dos" >
   <i type="logical" name="LORBIT"> F  </i>
   <v name="RWIGS">     -1.00000000</v>
   <i type="int" name="NEDOS">   301</i>
   <i name="EMIN">     10.00000000</i>
   <i name="EMAX">    -10.00000000</i>
   <i name="EFERMI">      0.00000000</i>
  </separator>
  <separator name="writing" >
   <i type="int" name="NWRITE">     2</i>
   <i type="logical" name="LWAVE"> F  </i>
   <i type="logical" name="LCHARG"> F  </i>
   <i type="logical" name="LPARD"> F  </i>
   <i type="logical" name="LVTOT"> F  </i>
   <i type="logical" name="LVHAR"> F  </i>
   <i type="logical" name="LELF"> F  </i>
   <i type="logical" name="LOPTICS"> F  </i>
   <v name="STM">      0.00000000      0.00000000      0.00000000      0.00000000      0.00000000      0.00000000      0.00000000</v>
  </separator>
  <separator name="performance" >
   <i type="int" name="NPAR">     4</i>
   <i type="int" name="NSIM">     4</i>
   <i type="int" name="NBLK">    -1</i>
   <i type="logical" name="LPLANE"> T  </i>
   <i type="logical" name="LSCALAPACK"> T  </i>
   <i type="logical" name="LSCAAWARE"> F  </i>
   <i type="logical" name="LSCALU"> F  </i>
   <i type="logical" name="LASYNC"> F  </i>
   <i type="logical" name="LORBITALREAL"> F  </i>
  </separator>
  <separator name="miscellaneous" >
   <i type="int" name="IDIOT">     3</i>
   <i type="logical" name="LMUSIC"> F  </i>
   <v name="POMASS">    107.86800000</v>
   <v name="DARWINR">      0.00000000</v>
   <v name="DARWINV">      1.00000000</v>
   <i type="logical" name="LCORR"> T  </i>
  </separator>
  <i type="logical" name="GGA_COMPAT"> T  </i>
  <i type="logical" name="LBERRY"> F  </i>
  <i type="int" name="ICORELEVEL">     0</i>
  <i type="logical" name="LDAU"> F  </i>
  <i type="int" name="I_CONSTRAINED_M">     0</i>
  <separator name="electronic exchange-correlation" >
   <i type="string" name="GGA">PE</i>
   <i type="int" name="VOSKOWN">     0</i>
   <i type="logical" name="LHFCALC"> F  </i>
   <i type="string" name="PRECFOCK"></i>
   <i type="logical" name="LSYMGRAD"> F  </i>
   <i type="logical" name="LHFONE"> F  </i>
   <i type="logical" name="LRHFCALC"> F  </i>
   <i type="logical" name="LTHOMAS"> F  </i>
   <i type="logical" name="LMODELHF"> F  </i>
   <i name="ENCUT4O">     -1.00000000</i>
   <i type="int" name="EXXOEP">     0</i>
   <i type="int" name="FOURORBIT">     0</i>
   <i name="AEXX">      0.00000000</i>
   <i name="HFALPHA">      0.00000000</i>
   <i name="MCALPHA">      0.00000000</i>
   <i name="ALDAX">      1.00000000</i>
   <i name="AGGAX">      1.00000000</i>
   <i name="ALDAC">      1.00000000</i>
   <i name="AGGAC">      1.00000000</i>
   <i type="int" name="NKREDX">     1</i>
   <i type="int" name="NKREDY">     1</i>
   <i type="int" name="NKREDZ">     1</i>
   <i type="logical" name="SHIFTRED"> F  </i>
   <i type="logical" name="ODDONLY"> F  </i>
   <i type="logical" name="EVENONLY"> F  </i>
   <i type="int" name="LMAXFOCK">     0</i>
   <i type="int" name="NMAXFOCKAE">     0</i>
   <i type="logical" name="LFOCKAEDFT"> F  </i>
   <i name="HFSCREEN">      0.00000000</i>
   <i name="HFSCREENC">      0.00000000</i>
   <i type="int" name="NBANDSGWLOW">     0</i>
  </separator>
  <separator name="vdW DFT" >
   <i type="logical" name="LUSE_VDW"> F  </i>
   <i name="Zab_VDW">     -0.84910000</i>
   <i name="PARAM1">      0.12340000</i>
   <i name="PARAM2">      1.00000000</i>
   <i name="PARAM3">      0.00000000</i>
  </separator>
  <separator name="model GW" >
   <i type="int" name="MODEL_GW">     0</i>
   <i name="MODEL_EPS0">    183.71562097</i>
   <i name="MODEL_ALPHA">      1.00000000</i>
  </separator>
  <separator name="linear response parameters" >
   <i type="logical" name="LEPSILON"> F  </i>
   <i type="logical" name="LRPA"> F  </i>
   <i type="logical" name="LNABLA"> F  </i>
   <i type="logical" name="LVEL"> F  </i>
   <i type="int" name="KINTER">     0</i>
   <i name="CSHIFT">      0.10000000</i>
   <i name="OMEGAMAX">     -1.00000000</i>
   <i name="DEG_THRESHOLD">      0.00200000</i>
  </separator>
  <separator name="orbital magnetization" >
   <i type="logical" name="NUCIND"> F  </i>
   <v name="MAGPOS">      0.00000000      0.00000000      0.00000000</v>
   <i type="logical" name="LNICSALL"> T  </i>
   <i type="logical" name="ORBITALMAG"> F  </i>
   <i type="logical" name="LMAGBLOCH"> F  </i>
   <i type="logical" name="LCHIMAG"> F  </i>
   <i type="logical" name="LGAUGE"> T  </i>
   <i type="int" name="MAGATOM">     0</i>
   <v name="MAGDIPOL">      0.00000000      0.00000000      0.00000000</v>
   <v name="AVECCONST">      0.00000000      0.00000000      0.00000000</v>
  </separator>
  <separator name="response functions" >
   <i type="logical" name="LADDER"> F  </i>
   <i type="logical" name="LFXC"> F  </i>
   <i type="logical" name="LHARTREE"> T  </i>
   <i type="int" name="IBSE">     0</i>
   <i type="logical" name="LTCTE"> F  </i>
   <i type="logical" name="LTETE"> F  </i>
   <i type="logical" name="LTRIPLET"> F  </i>
   <i type="logical" name="LFXCEPS"> F  </i>
   <i type="logical" name="LFXHEG"> F  </i>
   <i type="logical" name="L2ORDER"> F  </i>
   <i type="logical" name="LUSEW"> F  </i>
   <i name="ENCUTGW">     -2.00000000</i>
   <i name="ENCUTGWSOFT">     -2.00000000</i>
   <i name="ENCUTLF">     -1.00000000</i>
   <i type="int" name="LMAXMP2">    -1</i>
   <i name="SCISSOR">      0.00000000</i>
   <i type="int" name="NOMEGA">     0</i>
   <i type="int" name="NOMEGAR">     0</i>
   <i type="int" name="NBANDSGW">    -1</i>
   <i type="int" name="NBANDSO">    -1</i>
   <i type="int" name="NBANDSV">    -1</i>
   <i type="int" name="NELM">     1</i>
   <i type="int" name="DIM">     3</i>
   <i type="int" name="ANTIRES">     0</i>
   <i name="OMEGAMAX">    -30.00000000</i>
   <i name="OMEGAMIN">    -30.00000000</i>
   <i name="OMEGATL">   -200.00000000</i>
   <i type="int" name="OMEGAGRID">     0</i>
   <i name="CSHIFT">     -0.10000000</i>
   <i type="logical" name="SELFENERGY"> F  </i>
   <i type="logical" name="LSPECTRAL"> F  </i>
   <i type="logical" name="ODDONLYGW"> F  </i>
   <i type="logical" name="EVENONLYGW"> F  </i>
   <i type="int" name="NKREDLFX">     1</i>
   <i type="int" name="NKREDLFY">     1</i>
   <i type="int" name="NKREDLFZ">     1</i>
   <i type="int" name="MAXMEM">  1800</i>
   <i type="int" name="TELESCOPE">     0</i>
   <i type="int" name="TAUPAR">     1</i>
  </separator>
  <separator name="External order field" >
   <i name="OFIELD_KAPPA">      0.00000000</i>
   <v name="OFIELD_K">      0.00000000      0.00000000      0.00000000</v>
   <i name="OFIELD_Q6_NEAR">      0.00000000</i>
   <i name="OFIELD_Q6_FAR">      0.00000000</i>
   <i name="OFIELD_A">      0.00000000</i>
  </separator>
 </parameters>
 <atominfo>
  <atoms>      44 </atoms>
  <types>       1 </types>
  <array name="atoms" >
   <dimension dim="1">ion</dimension>
   <field type="string">element</field>
   <field type="int">atomtype</field>
   <set>
    <rc><c>Ag</c><c>   1</c></rc>
    <rc><c>Ag</c><c>   1</c></rc>
    <rc><c>Ag</c><c>   1</c></rc>
    <rc><c>Ag</c><c>   1</c></rc>
    <rc><c>Ag</c><c>   1</c></rc>
    <rc><c>Ag</c><c>   1</c></rc>
    <rc><c>Ag</c><c>   1</c></rc>
    <rc><c>Ag</c><c>   1</c></rc>
    <rc><c>Ag</c><c>   1</c></rc>
    <rc><c>Ag</c><c>   1</c></rc>
    <rc><c>Ag</c><c>   1</c></rc>
    <rc><c>Ag</c><c>   1</c></rc>
    <rc><c>Ag</c><c>   1</c></rc>
    <rc><c>Ag</c><c>   1</c></rc>
    <rc><c>Ag</c><c>   1</c></rc>
    <rc><c>Ag</c><c>   1</c></rc>
    <rc><c>Ag</c><c>   1</c></rc>
    <rc><c>Ag</c><c>   1</c></rc>
    <rc><c>Ag</c><c>   1</c></rc>
    <rc><c>Ag</c><c>   1</c></rc>
    <rc><c>Ag</c><c>   1</c></rc>
    <rc><c>Ag</c><c>   1</c></rc>
    <rc><c>Ag</c><c>   1</c></rc>
    <rc><c>Ag</c><c>   1</c></rc>
    <rc><c>Ag</c><c>   1</c></rc>
    <rc><c>Ag</c><c>   1</c></rc>
    <rc><c>Ag</c><c>   1</c></rc>
    <rc><c>Ag</c><c>   1</c></rc>
    <rc><c>Ag</c><c>   1</c></rc>
    <rc><c>Ag</c><c>   1</c></rc>
    <rc><c>Ag</c><c>   1</c></rc>
    <rc><c>Ag</c><c>   1</c></rc>
    <rc><c>Ag</c><c>   1</c></rc>
    <rc><c>Ag</c><c>   1</c></rc>
    <rc><c>Ag</c><c>   1</c></rc>
    <rc><c>Ag</c><c>   1</c></rc>
    <rc><c>Ag</c><c>   1</c></rc>
    <rc><c>Ag</c><c>   1</c></rc>
    <rc><c>Ag</c><c>   1</c></rc>
    <rc><c>Ag</c><c>   1</c></rc>
    <rc><c>Ag</c><c>   1</c></rc>
    <rc><c>Ag</c><c>   1</c></rc>
    <rc><c>Ag</c><c>   1</c></rc>
    <rc><c>Ag</c><c>   1</c></rc>
   </set>
  </array>
  <array name="atomtypes" >
   <dimension dim="1">type</dimension>
   <field type="int">atomspertype</field>
   <field type="string">element</field>
   <field>mass</field>
   <field>valence</field>
   <field type="string">pseudopotential</field>
   <set>
    <rc><c>  44</c><c>Ag</c><c>    107.86800000</c><c>     11.00000000</c><c>  PAW_PBE Ag 02Apr2005                  </c></rc>
   </set>
  </array>
 </atominfo>
 <structure name="initialpos" >
  <crystal>
   <varray name="basis" >
    <v>      23.79482438       0.00000000       0.00000000 </v>
    <v>       0.00000000      23.79482438       0.00000000 </v>
    <v>       0.00000000       0.00000000      23.79482438 </v>
   </varray>
   <i name="volume">  13472.47887137 </i>
   <varray name="rec_basis" >
    <v>       0.04202595       0.00000000       0.00000000 </v>
    <v>       0.00000000       0.04202595       0.00000000 </v>
    <v>       0.00000000       0.00000000       0.04202595 </v>
   </varray>
  </crystal>
  <varray name="positions" >
   <v>       0.28083949       0.50903876       0.56306863 </v>
   <v>       0.28549112       0.51363385       0.44692819 </v>
   <v>       0.36935660       0.44954273       0.62073927 </v>
   <v>       0.36229138       0.57609603       0.61743652 </v>
   <v>       0.36154556       0.44307858       0.50249856 </v>
   <v>       0.39707319       0.51904464       0.71174215 </v>
   <v>       0.36394341       0.57756154       0.49999313 </v>
   <v>       0.35633017       0.45347145       0.38185547 </v>
   <v>       0.35816954       0.57951324       0.37492192 </v>
   <v>       0.44814926       0.38903825       0.55953460 </v>
   <v>       0.44898630       0.51416273       0.55295089 </v>
   <v>       0.44010402       0.64624510       0.55419753 </v>
   <v>       0.43635937       0.38919093       0.43955004 </v>
   <v>       0.48236054       0.46182042       0.65243391 </v>
   <v>       0.47796515       0.58411346       0.64308940 </v>
   <v>       0.43432213       0.64538536       0.43159956 </v>
   <v>       0.44153355       0.51458064       0.43525947 </v>
   <v>       0.52962465       0.33834298       0.49438200 </v>
   <v>       0.43309266       0.39688563       0.31788931 </v>
   <v>       0.50758050       0.53804161       0.74990696 </v>
   <v>       0.43040926       0.51486116       0.30636484 </v>
   <v>       0.53277568       0.45682890       0.48342456 </v>
   <v>       0.57816451       0.61400769       0.69183413 </v>
   <v>       0.50976549       0.70747795       0.48733611 </v>
   <v>       0.51595680       0.33809619       0.37442455 </v>
   <v>       0.50404973       0.58476372       0.35637760 </v>
   <v>       0.65211555       0.47928936       0.48979310 </v>
   <v>       0.56199338       0.41091552       0.59097707 </v>
   <v>       0.59137245       0.49427748       0.68455450 </v>
   <v>       0.56333239       0.64876935       0.57858842 </v>
   <v>       0.64250236       0.36423381       0.52632179 </v>
   <v>       0.58794690       0.64660689       0.40290338 </v>
   <v>       0.56563590       0.52939180       0.57365125 </v>
   <v>       0.52572030       0.58691424       0.48157535 </v>
   <v>       0.52000190       0.46150218       0.36401677 </v>
   <v>       0.62414573       0.71158355       0.49232069 </v>
   <v>       0.66177565       0.57705095       0.62886253 </v>
   <v>       0.74648506       0.43012948       0.53562194 </v>
   <v>       0.60736606       0.39897368       0.41132376 </v>
   <v>       0.66790597       0.45647063       0.61163140 </v>
   <v>       0.71769524       0.38409600       0.43628637 </v>
   <v>       0.64365081       0.59679567       0.49913948 </v>
   <v>       0.60532247       0.53131207       0.39943731 </v>
   <v>       0.73515912       0.54386017       0.55036450 </v>
  </varray>
 </structure>
 <calculation>
  <scstep>
   <time name="dav">    5.28    5.29</time>
   <time name="total">    5.53    6.27</time>
   <energy>
    <i name="alphaZ">    122.22837069 </i>
    <i name="ewald"> 128617.86894518 </i>
    <i name="hartreedc">-172434.55747430 </i>
    <i name="XCdc">   -479.44439879 </i>
    <i name="pawpsdc">  44148.37583506 </i>
    <i name="pawaedc"> -42119.64279067 </i>
    <i name="eentropy">     -0.00000000 </i>
    <i name="bandstr">    695.76473735 </i>
    <i name="atom">  45636.73972380 </i>
    <i name="e_fr_energy">   4187.33294832 </i>
    <i name="e_wo_entrp">   4187.33294832 </i>
    <i name="e_0_energy">   4187.33294832 </i>
   </energy>
  </scstep>
  <scstep>
   <time name="dav">    7.94    7.95</time>
   <time name="total">    7.94    7.95</time>
   <energy>
    <i name="e_fr_energy">    791.18280039 </i>
    <i name="e_wo_entrp">    791.18280039 </i>
    <i name="e_0_energy">    791.18280039 </i>
   </energy>
  </scstep>
  <scstep>
   <time name="dav">    6.34    6.34</time>
   <time name="total">    6.34    6.37</time>
   <energy>
    <i name="e_fr_energy">    -55.77138624 </i>
    <i name="e_wo_entrp">    -55.77138624 </i>
    <i name="e_0_energy">    -55.77138624 </i>
   </energy>
  </scstep>
  <scstep>
   <time name="dav">    5.63    5.63</time>
   <time name="total">    5.63    5.64</time>
   <energy>
    <i name="e_fr_energy">    -94.67260699 </i>
    <i name="e_wo_entrp">    -94.67260699 </i>
    <i name="e_0_energy">    -94.67260699 </i>
   </energy>
  </scstep>
  <scstep>
   <time name="dav">    5.82    5.82</time>
   <time name="total">    5.97    5.98</time>
   <energy>
    <i name="e_fr_energy">    -95.25248259 </i>
    <i name="e_wo_entrp">    -95.25248259 </i>
    <i name="e_0_energy">    -95.25248259 </i>
   </energy>
  </scstep>
  <scstep>
   <time name="dav">    5.33    5.33</time>
   <time name="total">    5.71    6.71</time>
   <energy>
    <i name="e_fr_energy">    -40.16272611 </i>
    <i name="e_wo_entrp">    -40.16272611 </i>
    <i name="e_0_energy">    -40.16272611 </i>
   </energy>
  </scstep>
  <scstep>
   <time name="dav">    5.54    5.55</time>
   <time name="total">    5.93    5.96</time>
   <energy>
    <i name="e_fr_energy">    -35.90642087 </i>
    <i name="e_wo_entrp">    -35.90642087 </i>
    <i name="e_0_energy">    -35.90642087 </i>
   </energy>
  </scstep>
  <scstep>
   <time name="dav">    5.59    5.60</time>
   <time name="total">    5.98    5.99</time>
   <energy>
    <i name="e_fr_energy">    -29.66081033 </i>
    <i name="e_wo_entrp">    -29.66081033 </i>
    <i name="e_0_energy">    -29.66081033 </i>
   </energy>
  </scstep>
  <scstep>
   <time name="dav">    5.62    5.62</time>
   <time name="total">    6.00    6.01</time>
   <energy>
    <i name="e_fr_energy">    -34.38403461 </i>
    <i name="e_wo_entrp">    -34.38403461 </i>
    <i name="e_0_energy">    -34.38403461 </i>
   </energy>
  </scstep>
  <scstep>
   <time name="dav">    5.53    5.53</time>
   <time name="total">    5.94    6.38</time>
   <energy>
    <i name="e_fr_energy">    -46.19671571 </i>
    <i name="e_wo_entrp">    -46.19671571 </i>
    <i name="e_0_energy">    -46.19671571 </i>
   </energy>
  </scstep>
  <scstep>
   <time name="dav">    5.54    5.55</time>
   <time name="total">    5.94    6.02</time>
   <energy>
    <i name="e_fr_energy">    -54.22936583 </i>
    <i name="e_wo_entrp">    -54.22936583 </i>
    <i name="e_0_energy">    -54.22936583 </i>
   </energy>
  </scstep>
  <scstep>
   <time name="dav">    5.40    5.41</time>
   <time name="total">    5.79    5.97</time>
   <energy>
    <i name="e_fr_energy">    -67.57275126 </i>
    <i name="e_wo_entrp">    -67.57275126 </i>
    <i name="e_0_energy">    -67.57275126 </i>
   </energy>
  </scstep>
  <scstep>
   <time name="dav">    5.79    5.80</time>
   <time name="total">    6.18    6.19</time>
   <energy>
    <i name="e_fr_energy">    -70.33912138 </i>
    <i name="e_wo_entrp">    -70.33912138 </i>
    <i name="e_0_energy">    -70.33912138 </i>
   </energy>
  </scstep>
  <scstep>
   <time name="dav">    5.40    5.41</time>
   <time name="total">    5.80    5.80</time>
   <energy>
    <i name="e_fr_energy">    -77.59216167 </i>
    <i name="e_wo_entrp">    -77.59216167 </i>
    <i name="e_0_energy">    -77.59216167 </i>
   </energy>
  </scstep>
  <scstep>
   <time name="dav">    5.63    5.64</time>
   <time name="total">    6.02    6.03</time>
   <energy>
    <i name="e_fr_energy">    -80.18315056 </i>
    <i name="e_wo_entrp">    -80.18315056 </i>
    <i name="e_0_energy">    -80.18315056 </i>
   </energy>
  </scstep>
  <scstep>
   <time name="dav">    5.33    5.33</time>
   <time name="total">    5.72    5.73</time>
   <energy>
    <i name="e_fr_energy">    -84.62808802 </i>
    <i name="e_wo_entrp">    -84.62808802 </i>
    <i name="e_0_energy">    -84.62808802 </i>
   </energy>
  </scstep>
  <scstep>
   <time name="dav">    5.40    5.40</time>
   <time name="total">    5.79    5.81</time>
   <energy>
    <i name="e_fr_energy">    -88.49281324 </i>
    <i name="e_wo_entrp">    -88.49281324 </i>
    <i name="e_0_energy">    -88.49281324 </i>
   </energy>
  </scstep>
  <scstep>
   <time name="dav">    5.46    5.46</time>
   <time name="total">    5.85    5.91</time>
   <energy>
    <i name="e_fr_energy">    -90.22079492 </i>
    <i name="e_wo_entrp">    -90.22079492 </i>
    <i name="e_0_energy">    -90.22079492 </i>
   </energy>
  </scstep>
  <scstep>
   <time name="dav">    5.40    5.40</time>
   <time name="total">    5.80    6.38</time>
   <energy>
    <i name="e_fr_energy">    -92.39233430 </i>
    <i name="e_wo_entrp">    -92.39233430 </i>
    <i name="e_0_energy">    -92.39233430 </i>
   </energy>
  </scstep>
  <scstep>
   <time name="dav">    5.58    5.59</time>
   <time name="total">    5.98    6.00</time>
   <energy>
    <i name="e_fr_energy">    -93.26195320 </i>
    <i name="e_wo_entrp">    -93.26195320 </i>
    <i name="e_0_energy">    -93.26195320 </i>
   </energy>
  </scstep>
  <scstep>
   <time name="dav">    5.56    5.57</time>
   <time name="total">    5.96    5.97</time>
   <energy>
    <i name="e_fr_energy">    -93.49437427 </i>
    <i name="e_wo_entrp">    -93.49437427 </i>
    <i name="e_0_energy">    -93.49437427 </i>
   </energy>
  </scstep>
  <scstep>
   <time name="dav">    5.58    5.59</time>
   <time name="total">    5.99    6.04</time>
   <energy>
    <i name="e_fr_energy">    -93.62418040 </i>
    <i name="e_wo_entrp">    -93.62418040 </i>
    <i name="e_0_energy">    -93.62418040 </i>
   </energy>
  </scstep>
  <scstep>
   <time name="dav">    5.52    5.52</time>
   <time name="total">    5.91    7.91</time>
   <energy>
    <i name="e_fr_energy">    -93.70142179 </i>
    <i name="e_wo_entrp">    -93.70142179 </i>
    <i name="e_0_energy">    -93.70142179 </i>
   </energy>
  </scstep>
  <scstep>
   <time name="dav">    4.12    4.13</time>
   <time name="total">    4.52    4.53</time>
   <energy>
    <i name="e_fr_energy">    -93.72910570 </i>
    <i name="e_wo_entrp">    -93.72910570 </i>
    <i name="e_0_energy">    -93.72910570 </i>
   </energy>
  </scstep>
  <scstep>
   <time name="dav">    4.10    4.11</time>
   <time name="total">    4.50    4.50</time>
   <energy>
    <i name="e_fr_energy">    -93.73964527 </i>
    <i name="e_wo_entrp">    -93.73964527 </i>
    <i name="e_0_energy">    -93.73964527 </i>
   </energy>
  </scstep>
  <scstep>
   <time name="dav">    4.10    4.10</time>
   <time name="total">    4.49    4.51</time>
   <energy>
    <i name="e_fr_energy">    -93.74447499 </i>
    <i name="e_wo_entrp">    -93.74447499 </i>
    <i name="e_0_energy">    -93.74447499 </i>
   </energy>
  </scstep>
  <scstep>
   <time name="dav">    4.05    4.06</time>
   <time name="total">    4.45    4.47</time>
   <energy>
    <i name="e_fr_energy">    -93.75064513 </i>
    <i name="e_wo_entrp">    -93.75064513 </i>
    <i name="e_0_energy">    -93.75064513 </i>
   </energy>
  </scstep>
  <scstep>
   <time name="dav">    4.12    4.13</time>
   <time name="total">    4.52    4.54</time>
   <energy>
    <i name="e_fr_energy">    -93.75564459 </i>
    <i name="e_wo_entrp">    -93.75564459 </i>
    <i name="e_0_energy">    -93.75564459 </i>
   </energy>
  </scstep>
  <scstep>
   <time name="dav">    4.10    4.11</time>
   <time name="total">    4.50    4.51</time>
   <energy>
    <i name="e_fr_energy">    -93.75847550 </i>
    <i name="e_wo_entrp">    -93.75847550 </i>
    <i name="e_0_energy">    -93.75847550 </i>
   </energy>
  </scstep>
  <scstep>
   <time name="dav">    4.03    4.04</time>
   <time name="total">    4.43    5.39</time>
   <energy>
    <i name="e_fr_energy">    -93.75960627 </i>
    <i name="e_wo_entrp">    -93.75960627 </i>
    <i name="e_0_energy">    -93.75960627 </i>
   </energy>
  </scstep>
  <scstep>
   <time name="dav">    3.94    3.94</time>
   <time name="total">    4.34    4.37</time>
   <energy>
    <i name="e_fr_energy">    -93.76022546 </i>
    <i name="e_wo_entrp">    -93.76022546 </i>
    <i name="e_0_energy">    -93.76022546 </i>
   </energy>
  </scstep>
  <scstep>
   <time name="dav">    3.98    3.98</time>
   <time name="total">    4.38    4.39</time>
   <energy>
    <i name="e_fr_energy">    -93.76039502 </i>
    <i name="e_wo_entrp">    -93.76039502 </i>
    <i name="e_0_energy">    -93.76039502 </i>
   </energy>
  </scstep>
  <scstep>
   <time name="dav">    3.90    3.90</time>
   <time name="total">    4.14    4.17</time>
   <energy>
    <i name="alphaZ">    122.22837069 </i>
    <i name="ewald"> 128617.86894518 </i>
    <i name="hartreedc">-172356.08724158 </i>
    <i name="XCdc">   -496.97279823 </i>
    <i name="pawpsdc">  47791.39255458 </i>
    <i name="pawaedc"> -45847.11620450 </i>
    <i name="eentropy">     -0.00000000 </i>
    <i name="bandstr">  -3561.81380408 </i>
    <i name="atom">  45636.73972380 </i>
    <i name="e_fr_energy">    -93.76045415 </i>
    <i name="e_wo_entrp">    -93.76045415 </i>
    <i name="e_0_energy">    -93.76045415 </i>
   </energy>
  </scstep>
  <structure>
   <crystal>
    <varray name="basis" >
     <v>      23.79482438       0.00000000       0.00000000 </v>
     <v>       0.00000000      23.79482438       0.00000000 </v>
     <v>       0.00000000       0.00000000      23.79482438 </v>
    </varray>
    <i name="volume">  13472.47887137 </i>
    <varray name="rec_basis" >
     <v>       0.04202595       0.00000000       0.00000000 </v>
     <v>       0.00000000       0.04202595       0.00000000 </v>
     <v>       0.00000000       0.00000000       0.04202595 </v>
    </varray>
   </crystal>
   <varray name="positions" >
    <v>       0.28083949       0.50903876       0.56306863 </v>
    <v>       0.28549112       0.51363385       0.44692819 </v>
    <v>       0.36935660       0.44954273       0.62073927 </v>
    <v>       0.36229138       0.57609603       0.61743652 </v>
    <v>       0.36154556       0.44307858       0.50249856 </v>
    <v>       0.39707319       0.51904464       0.71174215 </v>
    <v>       0.36394341       0.57756154       0.49999313 </v>
    <v>       0.35633017       0.45347145       0.38185547 </v>
    <v>       0.35816954       0.57951324       0.37492192 </v>
    <v>       0.44814926       0.38903825       0.55953460 </v>
    <v>       0.44898630       0.51416273       0.55295089 </v>
    <v>       0.44010402       0.64624510       0.55419753 </v>
    <v>       0.43635937       0.38919093       0.43955004 </v>
    <v>       0.48236054       0.46182042       0.65243391 </v>
    <v>       0.47796515       0.58411346       0.64308940 </v>
    <v>       0.43432213       0.64538536       0.43159956 </v>
    <v>       0.44153355       0.51458064       0.43525947 </v>
    <v>       0.52962465       0.33834298       0.49438200 </v>
    <v>       0.43309266       0.39688563       0.31788931 </v>
    <v>       0.50758050       0.53804161       0.74990696 </v>
    <v>       0.43040926       0.51486116       0.30636484 </v>
    <v>       0.53277568       0.45682890       0.48342456 </v>
    <v>       0.57816451       0.61400769       0.69183413 </v>
    <v>       0.50976549       0.70747795       0.48733611 </v>
    <v>       0.51595680       0.33809619       0.37442455 </v>
    <v>       0.50404973       0.58476372       0.35637760 </v>
    <v>       0.65211555       0.47928936       0.48979310 </v>
    <v>       0.56199338       0.41091552       0.59097707 </v>
    <v>       0.59137245       0.49427748       0.68455450 </v>
    <v>       0.56333239       0.64876935       0.57858842 </v>
    <v>       0.64250236       0.36423381       0.52632179 </v>
    <v>       0.58794690       0.64660689       0.40290338 </v>
    <v>       0.56563590       0.52939180       0.57365125 </v>
    <v>       0.52572030       0.58691424       0.48157535 </v>
    <v>       0.52000190       0.46150218       0.36401677 </v>
    <v>       0.62414573       0.71158355       0.49232069 </v>
    <v>       0.66177565       0.57705095       0.62886253 </v>
    <v>       0.74648506       0.43012948       0.53562194 </v>
    <v>       0.60736606       0.39897368       0.41132376 </v>
    <v>       0.66790597       0.45647063       0.61163140 </v>
    <v>       0.71769524       0.38409600       0.43628637 </v>
    <v>       0.64365081       0.59679567       0.49913948 </v>
    <v>       0.60532247       0.53131207       0.39943731 </v>
    <v>       0.73515912       0.54386017       0.55036450 </v>
   </varray>
  </structure>
  <varray name="forces" >
   <v>       0.15513178       0.00793423      -0.04651015 </v>
   <v>      -0.33237754       0.00674364      -0.05563327 </v>
   <v>      -0.26599928       0.17535789       0.13298311 </v>
   <v>       0.12670162      -0.07419810      -0.20896829 </v>
   <v>      -0.56095795       0.42951470       0.08547103 </v>
   <v>       0.14923801      -0.00491206       0.05460175 </v>
   <v>      -0.43451432       0.19928158      -0.06323960 </v>
   <v>      -0.21434732       0.00208656      -0.23536864 </v>
   <v>      -0.05373508      -0.18955434       0.18446368 </v>
   <v>       0.24894761       0.03547496       0.18043124 </v>
   <v>       0.06344524       0.07214643      -0.15362264 </v>
   <v>      -0.04280935      -0.10231542      -0.02140646 </v>
   <v>       0.34163502      -0.13926816      -0.30924441 </v>
   <v>      -0.29484806       0.01871441       0.53637891 </v>
   <v>      -0.01660379       0.06412868       0.34553965 </v>
   <v>      -0.20809336      -0.11346793       0.00079929 </v>
   <v>      -0.21269296       0.25228368      -0.31916420 </v>
   <v>       0.36842424      -0.09055766      -0.04675401 </v>
   <v>       0.02403370      -0.12209739      -0.07479550 </v>
   <v>      -0.12890766       0.00429172      -0.00836485 </v>
   <v>      -0.20705079      -0.26378947      -0.02180468 </v>
   <v>       0.00848308       0.24303476       0.05436203 </v>
   <v>      -0.28837341       0.08995883       0.28125575 </v>
   <v>       0.32662789       0.25293744       0.10571450 </v>
   <v>       0.10563901      -0.10602770      -0.07169730 </v>
   <v>       0.13491412      -0.13951538       0.12178325 </v>
   <v>       0.16067443      -0.09602554       0.08522199 </v>
   <v>      -0.03700863      -0.28858816       0.04691812 </v>
   <v>      -0.10215119       0.08261090       0.14931369 </v>
   <v>      -0.03784975       0.19619234       0.06679032 </v>
   <v>       0.24490992       0.07803210      -0.22566282 </v>
   <v>       0.18852662       0.27686734       0.08528091 </v>
   <v>       0.35546861      -0.11267027       0.22770777 </v>
   <v>      -0.27002828      -0.22150889      -0.13908376 </v>
   <v>       0.03445083      -0.22816869      -0.36220717 </v>
   <v>       0.14898215       0.05953677       0.14177549 </v>
   <v>       0.03930440      -0.03958265      -0.33126621 </v>
   <v>       0.41945593      -0.22858048       0.07106090 </v>
   <v>       0.01349702       0.15016942       0.06705220 </v>
   <v>       0.13172339       0.13515405      -0.18403665 </v>
   <v>      -0.14599643      -0.04982159      -0.07950780 </v>
   <v>       0.07560016       0.01019671       0.01066852 </v>
   <v>      -0.17125271      -0.06604855       0.04523170 </v>
   <v>       0.15978310      -0.16595072      -0.12246737 </v>
  </varray>
  <varray name="stress" >
   <v>      -0.67458410      -0.29373232      -0.00005436 </v>
   <v>      -0.29373233      -1.62081881       0.46894890 </v>
   <v>      -0.00005436       0.46894890      -1.23541229 </v>
  </varray>
  <energy>
   <i name="e_fr_energy">    -93.76045415 </i>
   <i name="e_wo_entrp">    -93.76045415 </i>
   <i name="e_0_energy">     -0.00000000 </i>
  </energy>
  <time name="totalsc">  192.24  198.68</time>
 </calculation>
 <calculation>
  <scstep>
   <time name="dav">    5.47    5.47</time>
   <time name="total">    5.86    5.88</time>
   <energy>
    <i name="alphaZ">    122.22837069 </i>
    <i name="ewald"> 128559.94943063 </i>
    <i name="hartreedc">-172298.43885456 </i>
    <i name="XCdc">   -497.02064445 </i>
    <i name="pawpsdc">  47791.36174905 </i>
    <i name="pawaedc"> -45847.08578653 </i>
    <i name="eentropy">     -0.00000000 </i>
    <i name="bandstr">  -3561.53811948 </i>
    <i name="atom">  45636.73972380 </i>
    <i name="e_fr_energy">    -93.80413085 </i>
    <i name="e_wo_entrp">    -93.80413085 </i>
    <i name="e_0_energy">    -93.80413085 </i>
   </energy>
  </scstep>
  <scstep>
   <time name="dav">    5.46    5.47</time>
   <time name="total">    5.86    5.87</time>
   <energy>
    <i name="e_fr_energy">    -93.80550829 </i>
    <i name="e_wo_entrp">    -93.80550829 </i>
    <i name="e_0_energy">    -93.80550829 </i>
   </energy>
  </scstep>
  <scstep>
   <time name="dav">    4.10    4.11</time>
   <time name="total">    4.35    4.39</time>
   <energy>
    <i name="alphaZ">    122.22837069 </i>
    <i name="ewald"> 128559.94943063 </i>
    <i name="hartreedc">-172298.79723599 </i>
    <i name="XCdc">   -497.01528456 </i>
    <i name="pawpsdc">  47787.48149531 </i>
    <i name="pawaedc"> -45843.14009596 </i>
    <i name="eentropy">     -0.00000000 </i>
    <i name="bandstr">  -3561.25189186 </i>
    <i name="atom">  45636.73972380 </i>
    <i name="e_fr_energy">    -93.80548794 </i>
    <i name="e_wo_entrp">    -93.80548794 </i>
    <i name="e_0_energy">    -93.80548794 </i>
   </energy>
  </scstep>
  <structure>
   <crystal>
    <varray name="basis" >
     <v>      23.79482438       0.00000000       0.00000000 </v>
     <v>       0.00000000      23.79482438       0.00000000 </v>
     <v>       0.00000000       0.00000000      23.79482438 </v>
    </varray>
    <i name="volume">  13472.47887137 </i>
    <varray name="rec_basis" >
     <v>       0.04202595       0.00000000       0.00000000 </v>
     <v>       0.00000000       0.04202595       0.00000000 </v>
     <v>       0.00000000       0.00000000       0.04202595 </v>
    </varray>
   </crystal>
   <varray name="positions" >
    <v>       0.28090240       0.50904198       0.56304977 </v>
    <v>       0.28535634       0.51363659       0.44690564 </v>
    <v>       0.36924874       0.44961383       0.62079319 </v>
    <v>       0.36234276       0.57606595       0.61735179 </v>
    <v>       0.36131810       0.44325274       0.50253322 </v>
    <v>       0.39713371       0.51904265       0.71176429 </v>
    <v>       0.36376722       0.57764235       0.49996749 </v>
    <v>       0.35624325       0.45347230       0.38176003 </v>
    <v>       0.35814775       0.57943638       0.37499672 </v>
    <v>       0.44825021       0.38905263       0.55960776 </v>
    <v>       0.44901203       0.51419199       0.55288860 </v>
    <v>       0.44008666       0.64620362       0.55418885 </v>
    <v>       0.43649790       0.38913446       0.43942464 </v>
    <v>       0.48224099       0.46182800       0.65265140 </v>
    <v>       0.47795841       0.58413947       0.64322951 </v>
    <v>       0.43423775       0.64533935       0.43159989 </v>
    <v>       0.44144731       0.51468294       0.43513005 </v>
    <v>       0.52977404       0.33830626       0.49436305 </v>
    <v>       0.43310240       0.39683612       0.31785898 </v>
    <v>       0.50752823       0.53804335       0.74990357 </v>
    <v>       0.43032531       0.51475420       0.30635600 </v>
    <v>       0.53277912       0.45692745       0.48344660 </v>
    <v>       0.57804758       0.61404417       0.69194817 </v>
    <v>       0.50989794       0.70758051       0.48737898 </v>
    <v>       0.51599963       0.33805319       0.37439548 </v>
    <v>       0.50410443       0.58470715       0.35642699 </v>
    <v>       0.65218070       0.47925042       0.48982766 </v>
    <v>       0.56197838       0.41079850       0.59099609 </v>
    <v>       0.59133103       0.49431097       0.68461505 </v>
    <v>       0.56331704       0.64884890       0.57861550 </v>
    <v>       0.64260167       0.36426545       0.52623028 </v>
    <v>       0.58802335       0.64671916       0.40293796 </v>
    <v>       0.56578004       0.52934611       0.57374358 </v>
    <v>       0.52561081       0.58682442       0.48151895 </v>
    <v>       0.52001587       0.46140966       0.36386990 </v>
    <v>       0.62420614       0.71160770       0.49237818 </v>
    <v>       0.66179158       0.57703490       0.62872821 </v>
    <v>       0.74665514       0.43003679       0.53565075 </v>
    <v>       0.60737153       0.39903457       0.41135095 </v>
    <v>       0.66795938       0.45652544       0.61155678 </v>
    <v>       0.71763604       0.38407580       0.43625413 </v>
    <v>       0.64368147       0.59679980       0.49914380 </v>
    <v>       0.60525303       0.53128529       0.39945565 </v>
    <v>       0.73522391       0.54379288       0.55031485 </v>
   </varray>
  </structure>
  <varray name="forces" >
   <v>       0.13772782       0.01191944      -0.04060124 </v>
   <v>      -0.32775102       0.00753530      -0.06240000 </v>
   <v>      -0.24751481       0.16416972       0.12219770 </v>
   <v>       0.12680611      -0.07289412      -0.19620250 </v>
   <v>      -0.49147319       0.38489213       0.06054004 </v>
   <v>       0.13099450       0.00074286       0.05694777 </v>
   <v>      -0.41724543       0.19164086      -0.06190356 </v>
   <v>      -0.20402870      -0.00453845      -0.21764994 </v>
   <v>      -0.06074482      -0.18332736       0.17100370 </v>
   <v>       0.22367760       0.04940159       0.16015181 </v>
   <v>       0.06551652       0.06935891      -0.14058477 </v>
   <v>      -0.03214164      -0.09879145      -0.02591786 </v>
   <v>       0.29681250      -0.10054483      -0.26370164 </v>
   <v>      -0.27009111       0.00775683       0.49526629 </v>
   <v>      -0.02013359       0.06122842       0.31635649 </v>
   <v>      -0.18456277      -0.09435334       0.01311775 </v>
   <v>      -0.20431403       0.22613490      -0.30426092 </v>
   <v>       0.35311967      -0.07995352      -0.04528589 </v>
   <v>       0.01959170      -0.12288229      -0.07394980 </v>
   <v>      -0.12381310       0.00327461       0.00470166 </v>
   <v>      -0.19444531      -0.24656293      -0.01881710 </v>
   <v>       0.00301771       0.23491999       0.04795216 </v>
   <v>      -0.25723929       0.08377551       0.25807260 </v>
   <v>       0.29475868       0.22370276       0.09662261 </v>
   <v>       0.11157751      -0.10788172      -0.07378347 </v>
   <v>       0.12972775      -0.13691283       0.11377651 </v>
   <v>       0.15924453      -0.08814521       0.07889040 </v>
   <v>      -0.03849015      -0.26733150       0.05516656 </v>
   <v>      -0.08828902       0.07400751       0.13581590 </v>
   <v>      -0.03805537       0.17892533       0.06439904 </v>
   <v>       0.23355403       0.07510530      -0.21012616 </v>
   <v>       0.17632070       0.25549550       0.08585111 </v>
   <v>       0.33005361      -0.10288110       0.21052024 </v>
   <v>      -0.24621493      -0.20709655      -0.12274479 </v>
   <v>       0.03220579      -0.21584434      -0.34251539 </v>
   <v>       0.15232596       0.05897286       0.14148137 </v>
   <v>       0.01753686      -0.02429704      -0.30520891 </v>
   <v>       0.40343727      -0.22265013       0.06532726 </v>
   <v>       0.00490380       0.14703380       0.06239310 </v>
   <v>       0.11709127       0.13035777      -0.17257059 </v>
   <v>      -0.13270986      -0.04601069      -0.07568357 </v>
   <v>       0.06661762       0.00812622       0.01024657 </v>
   <v>      -0.16510253      -0.06266966       0.05001011 </v>
   <v>       0.15774114      -0.16290906      -0.12290066 </v>
  </varray>
  <varray name="stress" >
   <v>      -0.71018125      -0.28015520       0.00754106 </v>
   <v>      -0.28015520      -1.65230588       0.45953554 </v>
   <v>       0.00754105       0.45953554      -1.27490934 </v>
  </varray>
  <energy>
   <i name="e_fr_energy">    -93.80548794 </i>
   <i name="e_wo_entrp">    -93.80548794 </i>
   <i name="e_0_energy">     -0.00000000 </i>
  </energy>
  <time name="totalsc">   26.30   26.53</time>
 </calculation>
 <calculation>
  <scstep>
   <time name="dav">    5.36    5.37</time>
   <time name="total">    5.76    5.77</time>
   <energy>
    <i name="alphaZ">    122.22837069 </i>
    <i name="ewald"> 128386.76153673 </i>
    <i name="hartreedc">-172126.53006303 </i>
    <i name="XCdc">   -497.15055082 </i>
    <i name="pawpsdc">  47784.27426939 </i>
    <i name="pawaedc"> -45839.89014596 </i>
    <i name="eentropy">     -0.00000000 </i>
    <i name="bandstr">  -3560.34656171 </i>
    <i name="atom">  45636.73972380 </i>
    <i name="e_fr_energy">    -93.91342091 </i>
    <i name="e_wo_entrp">    -93.91342091 </i>
    <i name="e_0_energy">    -93.91342091 </i>
   </energy>
  </scstep>
  <scstep>
   <time name="dav">    5.51    5.51</time>
   <time name="total">    5.90    5.90</time>
   <energy>
    <i name="e_fr_energy">    -93.92556961 </i>
    <i name="e_wo_entrp">    -93.92556961 </i>
    <i name="e_0_energy">    -93.92556961 </i>
   </energy>
  </scstep>
  <scstep>
   <time name="dav">    5.70    5.71</time>
   <time name="total">    6.09    6.10</time>
   <energy>
    <i name="e_fr_energy">    -93.92530343 </i>
    <i name="e_wo_entrp">    -93.92530343 </i>
    <i name="e_0_energy">    -93.92530343 </i>
   </energy>
  </scstep>
  <scstep>
   <time name="dav">    5.57    5.58</time>
   <time name="total">    5.96    5.97</time>
   <energy>
    <i name="e_fr_energy">    -93.92502749 </i>
    <i name="e_wo_entrp">    -93.92502749 </i>
    <i name="e_0_energy">    -93.92502749 </i>
   </energy>
  </scstep>
  <scstep>
   <time name="dav">    3.90    3.90</time>
   <time name="total">    4.14    4.16</time>
   <energy>
    <i name="alphaZ">    122.22837069 </i>
    <i name="ewald"> 128386.76153673 </i>
    <i name="hartreedc">-172127.92611887 </i>
    <i name="XCdc">   -497.12880066 </i>
    <i name="pawpsdc">  47762.15229425 </i>
    <i name="pawaedc"> -45817.43061660 </i>
    <i name="eentropy">      0.00000000 </i>
    <i name="bandstr">  -3559.32142003 </i>
    <i name="atom">  45636.73972380 </i>
    <i name="e_fr_energy">    -93.92503069 </i>
    <i name="e_wo_entrp">    -93.92503069 </i>
    <i name="e_0_energy">    -93.92503069 </i>
   </energy>
  </scstep>
  <structure>
   <crystal>
    <varray name="basis" >
     <v>      23.79482438       0.00000000       0.00000000 </v>
     <v>       0.00000000      23.79482438       0.00000000 </v>
     <v>       0.00000000       0.00000000      23.79482438 </v>
    </varray>
    <i name="volume">  13472.47887137 </i>
    <varray name="rec_basis" >
     <v>       0.04202595       0.00000000       0.00000000 </v>
     <v>       0.00000000       0.04202595       0.00000000 </v>
     <v>       0.00000000       0.00000000       0.04202595 </v>
    </varray>
   </crystal>
   <varray name="positions" >
    <v>       0.28109111       0.50905163       0.56299319 </v>
    <v>       0.28495202       0.51364479       0.44683796 </v>
    <v>       0.36892516       0.44982715       0.62095496 </v>
    <v>       0.36249688       0.57597569       0.61709758 </v>
    <v>       0.36063571       0.44377523       0.50263719 </v>
    <v>       0.39731525       0.51903668       0.71183071 </v>
    <v>       0.36323864       0.57788477       0.49989056 </v>
    <v>       0.35598251       0.45347484       0.38147371 </v>
    <v>       0.35808239       0.57920579       0.37522111 </v>
    <v>       0.44855304       0.38909578       0.55982725 </v>
    <v>       0.44908920       0.51427975       0.55270172 </v>
    <v>       0.44003458       0.64607915       0.55416281 </v>
    <v>       0.43691349       0.38896505       0.43904846 </v>
    <v>       0.48188231       0.46185077       0.65330389 </v>
    <v>       0.47793822       0.58421748       0.64364985 </v>
    <v>       0.43398462       0.64520132       0.43160086 </v>
    <v>       0.44118858       0.51498983       0.43474180 </v>
    <v>       0.53022222       0.33819610       0.49430617 </v>
    <v>       0.43313164       0.39668759       0.31776800 </v>
    <v>       0.50737142       0.53804857       0.74989339 </v>
    <v>       0.43007344       0.51443330       0.30632947 </v>
    <v>       0.53278944       0.45722309       0.48351273 </v>
    <v>       0.57769678       0.61415360       0.69229031 </v>
    <v>       0.51029527       0.70788820       0.48750757 </v>
    <v>       0.51612814       0.33792421       0.37430826 </v>
    <v>       0.50426855       0.58453744       0.35657513 </v>
    <v>       0.65237616       0.47913361       0.48993133 </v>
    <v>       0.56193336       0.41044745       0.59105316 </v>
    <v>       0.59120676       0.49441147       0.68479668 </v>
    <v>       0.56327100       0.64908756       0.57869675 </v>
    <v>       0.64289960       0.36436037       0.52595577 </v>
    <v>       0.58825268       0.64705596       0.40304170 </v>
    <v>       0.56621245       0.52920906       0.57402058 </v>
    <v>       0.52528233       0.58655496       0.48134976 </v>
    <v>       0.52005778       0.46113210       0.36342928 </v>
    <v>       0.62438737       0.71168012       0.49255065 </v>
    <v>       0.66183940       0.57698675       0.62832524 </v>
    <v>       0.74716540       0.42975873       0.53573720 </v>
    <v>       0.60738795       0.39921725       0.41143251 </v>
    <v>       0.66811962       0.45668985       0.61133290 </v>
    <v>       0.71745844       0.38401519       0.43615741 </v>
    <v>       0.64377343       0.59681221       0.49915678 </v>
    <v>       0.60504471       0.53120495       0.39951067 </v>
    <v>       0.73541828       0.54359101       0.55016587 </v>
   </varray>
  </structure>
  <varray name="forces" >
   <v>       0.09625910       0.02411535      -0.02596449 </v>
   <v>      -0.33491049       0.01065357      -0.08505971 </v>
   <v>      -0.21328499       0.14393582       0.10177265 </v>
   <v>       0.13533087      -0.07328950      -0.17449303 </v>
   <v>      -0.33572037       0.29075311      -0.00203223 </v>
   <v>       0.08895763       0.01614269       0.06841594 </v>
   <v>      -0.39690692       0.18247970      -0.06203218 </v>
   <v>      -0.18782447      -0.02116000      -0.18423288 </v>
   <v>      -0.08601705      -0.17842715       0.14595253 </v>
   <v>       0.17199239       0.08870037       0.11833033 </v>
   <v>       0.07505061       0.06619350      -0.11302076 </v>
   <v>      -0.00514242      -0.09449782      -0.03886306 </v>
   <v>       0.19580491      -0.00413491      -0.16091918 </v>
   <v>      -0.21851574      -0.02315973       0.41349752 </v>
   <v>      -0.03308229       0.05755073       0.25596287 </v>
   <v>      -0.13508558      -0.04961099       0.04710833 </v>
   <v>      -0.19173603       0.16724073      -0.27970934 </v>
   <v>       0.33454099      -0.05659678      -0.04431489 </v>
   <v>       0.00873671      -0.13166394      -0.07611741 </v>
   <v>      -0.11761475       0.00126107       0.04083534 </v>
   <v>      -0.17397654      -0.21947293      -0.01284210 </v>
   <v>      -0.01091392       0.22698198       0.03382434 </v>
   <v>      -0.18854953       0.07331257       0.21450457 </v>
   <v>       0.22713106       0.15878030       0.07910610 </v>
   <v>       0.13482182      -0.11978780      -0.08446930 </v>
   <v>       0.12534596      -0.13777895       0.09984225 </v>
   <v>       0.16430583      -0.07166728       0.06610218 </v>
   <v>      -0.04461444      -0.22601355       0.07914167 </v>
   <v>      -0.05677016       0.05573677       0.10757612 </v>
   <v>      -0.04043342       0.14581442       0.06222760 </v>
   <v>       0.21595068       0.07125643      -0.18749519 </v>
   <v>       0.15451398       0.21387654       0.09312923 </v>
   <v>       0.27958374      -0.08220291       0.17288705 </v>
   <v>      -0.19734784      -0.18105956      -0.08653965 </v>
   <v>       0.02840802      -0.19453436      -0.30925086 </v>
   <v>       0.16974646       0.06093836       0.14931484 </v>
   <v>      -0.03857540       0.01600611      -0.25480098 </v>
   <v>       0.38588135      -0.22063549       0.05385891 </v>
   <v>      -0.01887489       0.14760386       0.05461880 </v>
   <v>       0.08507231       0.12518984      -0.15148599 </v>
   <v>      -0.10386082      -0.03852234      -0.06947211 </v>
   <v>       0.04756907       0.00338377       0.01079899 </v>
   <v>      -0.15812478      -0.05819574       0.06565743 </v>
   <v>       0.16287934      -0.16549586      -0.13135026 </v>
  </varray>
  <varray name="stress" >
   <v>      -0.79557646      -0.24888979       0.02493469 </v>
   <v>      -0.24888979      -1.72229200       0.43345766 </v>
   <v>       0.02493470       0.43345766      -1.36374592 </v>
  </varray>
  <energy>
   <i name="e_fr_energy">    -93.92503069 </i>
   <i name="e_wo_entrp">    -93.92503069 </i>
   <i name="e_0_energy">      0.00000000 </i>
  </energy>
  <time name="totalsc">   38.10   38.18</time>
 </calculation>
 <calculation>
  <scstep>
   <time name="dav">    5.31    5.32</time>
   <time name="total">    5.71    5.73</time>
   <energy>
    <i name="alphaZ">    122.22837069 </i>
    <i name="ewald"> 128042.93598184 </i>
    <i name="hartreedc">-171785.44427976 </i>
    <i name="XCdc">   -497.37228563 </i>
    <i name="pawpsdc">  47762.16171452 </i>
    <i name="pawaedc"> -45817.44121800 </i>
    <i name="eentropy">      0.00000000 </i>
    <i name="bandstr">  -3557.86056623 </i>
    <i name="atom">  45636.73972380 </i>
    <i name="e_fr_energy">    -94.05255876 </i>
    <i name="e_wo_entrp">    -94.05255876 </i>
    <i name="e_0_energy">    -94.05255876 </i>
   </energy>
  </scstep>
  <scstep>
   <time name="dav">    5.46    5.47</time>
   <time name="total">    5.85    5.86</time>
   <energy>
    <i name="e_fr_energy">    -94.10155435 </i>
    <i name="e_wo_entrp">    -94.10155435 </i>
    <i name="e_0_energy">    -94.10155435 </i>
   </energy>
  </scstep>
  <scstep>
   <time name="dav">    5.68    5.68</time>
   <time name="total">    6.06   20.13</time>
   <energy>
    <i name="e_fr_energy">    -94.10062003 </i>
    <i name="e_wo_entrp">    -94.10062003 </i>
    <i name="e_0_energy">    -94.10062003 </i>
   </energy>
  </scstep>
  <scstep>
   <time name="dav">    5.58    5.59</time>
   <time name="total">    5.97    5.99</time>
   <energy>
    <i name="e_fr_energy">    -94.09944278 </i>
    <i name="e_wo_entrp">    -94.09944278 </i>
    <i name="e_0_energy">    -94.09944278 </i>
   </energy>
  </scstep>
  <scstep>
   <time name="dav">    4.10    4.11</time>
   <time name="total">    4.34    4.68</time>
   <energy>
    <i name="alphaZ">    122.22837069 </i>
    <i name="ewald"> 128042.93598184 </i>
    <i name="hartreedc">-171788.09993624 </i>
    <i name="XCdc">   -497.33321166 </i>
    <i name="pawpsdc">  47726.67422265 </i>
    <i name="pawaedc"> -45781.38325595 </i>
    <i name="eentropy">      0.00000000 </i>
    <i name="bandstr">  -3555.86137330 </i>
    <i name="atom">  45636.73972380 </i>
    <i name="e_fr_energy">    -94.09947817 </i>
    <i name="e_wo_entrp">    -94.09947817 </i>
    <i name="e_0_energy">    -94.09947817 </i>
   </energy>
  </scstep>
  <structure>
   <crystal>
    <varray name="basis" >
     <v>      23.79482438       0.00000000       0.00000000 </v>
     <v>       0.00000000      23.79482438       0.00000000 </v>
     <v>       0.00000000       0.00000000      23.79482438 </v>
    </varray>
    <i name="volume">  13472.47887137 </i>
    <varray name="rec_basis" >
     <v>       0.04202595       0.00000000       0.00000000 </v>
     <v>       0.00000000       0.04202595       0.00000000 </v>
     <v>       0.00000000       0.00000000       0.04202595 </v>
    </varray>
   </crystal>
   <varray name="positions" >
    <v>       0.28146854       0.50907094       0.56288004 </v>
    <v>       0.28414336       0.51366120       0.44670261 </v>
    <v>       0.36827800       0.45025379       0.62127850 </v>
    <v>       0.36280514       0.57579517       0.61658918 </v>
    <v>       0.35927094       0.44482021       0.50284514 </v>
    <v>       0.39767834       0.51902472       0.71196355 </v>
    <v>       0.36218150       0.57836961       0.49973670 </v>
    <v>       0.35546101       0.45347991       0.38090107 </v>
    <v>       0.35795165       0.57874462       0.37566990 </v>
    <v>       0.44915872       0.38918209       0.56026623 </v>
    <v>       0.44924356       0.51445528       0.55232797 </v>
    <v>       0.43993043       0.64583023       0.55411073 </v>
    <v>       0.43774466       0.38862622       0.43829609 </v>
    <v>       0.48116497       0.46189630       0.65460886 </v>
    <v>       0.47789782       0.58437350       0.64449052 </v>
    <v>       0.43347834       0.64492526       0.43160280 </v>
    <v>       0.44067111       0.51560362       0.43396529 </v>
    <v>       0.53111857       0.33797578       0.49419242 </v>
    <v>       0.43319011       0.39639054       0.31758602 </v>
    <v>       0.50705780       0.53805901       0.74987304 </v>
    <v>       0.42956970       0.51379152       0.30627642 </v>
    <v>       0.53281007       0.45781438       0.48364499 </v>
    <v>       0.57699519       0.61437247       0.69297459 </v>
    <v>       0.51108993       0.70850358       0.48776477 </v>
    <v>       0.51638515       0.33766626       0.37413383 </v>
    <v>       0.50459679       0.58419801       0.35687142 </v>
    <v>       0.65276707       0.47889999       0.49013867 </v>
    <v>       0.56184332       0.40974533       0.59116731 </v>
    <v>       0.59095824       0.49461245       0.68515995 </v>
    <v>       0.56317891       0.64956488       0.57885924 </v>
    <v>       0.64349545       0.36455022       0.52540675 </v>
    <v>       0.58871136       0.64772956       0.40324918 </v>
    <v>       0.56707729       0.52893494       0.57457458 </v>
    <v>       0.52462537       0.58601604       0.48101138 </v>
    <v>       0.52014160       0.46057698       0.36254806 </v>
    <v>       0.62474984       0.71182497       0.49289558 </v>
    <v>       0.66193502       0.57689045       0.62751929 </v>
    <v>       0.74818590       0.42920261       0.53591008 </v>
    <v>       0.60742079       0.39958260       0.41159565 </v>
    <v>       0.66844009       0.45701867       0.61088515 </v>
    <v>       0.71710324       0.38389398       0.43596397 </v>
    <v>       0.64395736       0.59683701       0.49918274 </v>
    <v>       0.60462806       0.53104426       0.39962072 </v>
    <v>       0.73580702       0.54318726       0.54986791 </v>
   </varray>
  </structure>
  <varray name="forces" >
   <v>      -0.00456571       0.05771958       0.01163642 </v>
   <v>      -0.34299039       0.01823188      -0.13018268 </v>
   <v>      -0.13736529       0.09692683       0.06009478 </v>
   <v>       0.14763583      -0.07074740      -0.12214538 </v>
   <v>      -0.03014202       0.10541444      -0.11461406 </v>
   <v>      -0.01069253       0.05208473       0.09420336 </v>
   <v>      -0.34126446       0.15952447      -0.06091218 </v>
   <v>      -0.15191145      -0.05421871      -0.10973361 </v>
   <v>      -0.13914762      -0.15805167       0.08420794 </v>
   <v>       0.06994028       0.15677076       0.03713773 </v>
   <v>       0.08711354       0.05639380      -0.05508552 </v>
   <v>       0.04955446      -0.08181466      -0.06339498 </v>
   <v>       0.00835237       0.16989442       0.03023507 </v>
   <v>      -0.10674440      -0.09247008       0.23570055 </v>
   <v>      -0.06257469       0.05231438       0.12273572 </v>
   <v>      -0.03957896       0.03892198       0.10690742 </v>
   <v>      -0.16251030       0.03574912      -0.21871564 </v>
   <v>       0.28201890      -0.00816541      -0.04171717 </v>
   <v>      -0.01473403      -0.14660646      -0.07952490 </v>
   <v>      -0.09814381      -0.00167248       0.11922633 </v>
   <v>      -0.12797431      -0.16019424      -0.00451534 </v>
   <v>      -0.03604488       0.19883022       0.00427944 </v>
   <v>      -0.04715721       0.05574468       0.12697288 </v>
   <v>       0.08961655       0.03200673       0.04587352 </v>
   <v>       0.18181787      -0.14221180      -0.10637718 </v>
   <v>       0.11132938      -0.12831617       0.06341527 </v>
   <v>       0.16716945      -0.03292483       0.03478867 </v>
   <v>      -0.04322101      -0.13837782       0.12017143 </v>
   <v>       0.00798008       0.01813510       0.04917958 </v>
   <v>      -0.04312300       0.07488888       0.05794857 </v>
   <v>       0.16884769       0.05837096      -0.11705974 </v>
   <v>       0.10788570       0.12531176       0.10277028 </v>
   <v>       0.16268875      -0.04103686       0.08922793 </v>
   <v>      -0.09123814      -0.11670270      -0.01267470 </v>
   <v>       0.02142112      -0.14619287      -0.23992085 </v>
   <v>       0.20240093       0.06229167       0.16065672 </v>
   <v>      -0.13176737       0.09397707      -0.14418810 </v>
   <v>       0.33483431      -0.20890174       0.02927064 </v>
   <v>      -0.06860551       0.14495183       0.03613166 </v>
   <v>       0.02438094       0.10473977      -0.10412387 </v>
   <v>      -0.03558796      -0.02198678      -0.05928148 </v>
   <v>       0.00824075      -0.00685632       0.00947541 </v>
   <v>      -0.13572970      -0.04844707       0.09573245 </v>
   <v>       0.16958586      -0.16329900      -0.14381240 </v>
  </varray>
  <varray name="stress" >
   <v>      -0.93605151      -0.19452124       0.05605100 </v>
   <v>      -0.19452124      -1.84859214       0.38607526 </v>
   <v>       0.05605099       0.38607527      -1.52619804 </v>
  </varray>
  <energy>
   <i name="e_fr_energy">    -94.09947817 </i>
   <i name="e_wo_entrp">    -94.09947817 </i>
   <i name="e_0_energy">      0.00000000 </i>
  </energy>
  <time name="totalsc">   38.19   55.12</time>
 </calculation>
 <calculation>
  <scstep>
   <time name="dav">    5.31    5.31</time>
   <time name="total">    5.70    7.50</time>
   <energy>
    <i name="alphaZ">    122.22837069 </i>
    <i name="ewald"> 127365.34606219 </i>
    <i name="hartreedc">-171112.41116976 </i>
    <i name="XCdc">   -497.70260318 </i>
    <i name="pawpsdc">  47726.48674981 </i>
    <i name="pawaedc"> -45781.19549065 </i>
    <i name="eentropy">      0.00000000 </i>
    <i name="bandstr">  -3553.50664374 </i>
    <i name="atom">  45636.73972380 </i>
    <i name="e_fr_energy">    -94.01500083 </i>
    <i name="e_wo_entrp">    -94.01500083 </i>
    <i name="e_0_energy">    -94.01500083 </i>
   </energy>
  </scstep>
  <scstep>
   <time name="dav">    5.46    5.47</time>
   <time name="total">    5.85   15.37</time>
   <energy>
    <i name="e_fr_energy">    -94.21504496 </i>
    <i name="e_wo_entrp">    -94.21504496 </i>
    <i name="e_0_energy">    -94.21504496 </i>
   </energy>
  </scstep>
  <scstep>
   <time name="dav">    5.65    5.66</time>
   <time name="total">    6.04    6.27</time>
   <energy>
    <i name="e_fr_energy">    -94.21189571 </i>
    <i name="e_wo_entrp">    -94.21189571 </i>
    <i name="e_0_energy">    -94.21189571 </i>
   </energy>
  </scstep>
  <scstep>
   <time name="dav">    5.55    5.56</time>
   <time name="total">    5.94    6.04</time>
   <energy>
    <i name="e_fr_energy">    -94.20716125 </i>
    <i name="e_wo_entrp">    -94.20716125 </i>
    <i name="e_0_energy">    -94.20716125 </i>
   </energy>
  </scstep>
  <scstep>
   <time name="dav">    5.62    5.63</time>
   <time name="total">    6.01    6.41</time>
   <energy>
    <i name="e_fr_energy">    -94.20725965 </i>
    <i name="e_wo_entrp">    -94.20725965 </i>
    <i name="e_0_energy">    -94.20725965 </i>
   </energy>
  </scstep>
  <scstep>
   <time name="dav">    4.23    4.24</time>
   <time name="total">    4.47    4.54</time>
   <energy>
    <i name="alphaZ">    122.22837069 </i>
    <i name="ewald"> 127365.34606219 </i>
    <i name="hartreedc">-171116.87121146 </i>
    <i name="XCdc">   -497.63892743 </i>
    <i name="pawpsdc">  47683.05719287 </i>
    <i name="pawaedc"> -45736.96307056 </i>
    <i name="eentropy">      0.00000000 </i>
    <i name="bandstr">  -3550.10539604 </i>
    <i name="atom">  45636.73972380 </i>
    <i name="e_fr_energy">    -94.20725594 </i>
    <i name="e_wo_entrp">    -94.20725594 </i>
    <i name="e_0_energy">    -94.20725594 </i>
   </energy>
  </scstep>
  <structure>
   <crystal>
    <varray name="basis" >
     <v>      23.79482438       0.00000000       0.00000000 </v>
     <v>       0.00000000      23.79482438       0.00000000 </v>
     <v>       0.00000000       0.00000000      23.79482438 </v>
    </varray>
    <i name="volume">  13472.47887137 </i>
    <varray name="rec_basis" >
     <v>       0.04202595       0.00000000       0.00000000 </v>
     <v>       0.00000000       0.04202595       0.00000000 </v>
     <v>       0.00000000       0.00000000       0.04202595 </v>
    </varray>
   </crystal>
   <varray name="positions" >
    <v>       0.28222339       0.50910954       0.56265372 </v>
    <v>       0.28252606       0.51369401       0.44643190 </v>
    <v>       0.36698368       0.45110705       0.62192558 </v>
    <v>       0.36342165       0.57543413       0.61557237 </v>
    <v>       0.35654139       0.44691017       0.50326103 </v>
    <v>       0.39840451       0.51900082       0.71222923 </v>
    <v>       0.36006721       0.57933928       0.49942899 </v>
    <v>       0.35441803       0.45349007       0.37975580 </v>
    <v>       0.35769019       0.57782228       0.37656747 </v>
    <v>       0.45037006       0.38935471       0.56114418 </v>
    <v>       0.44955228       0.51480633       0.55158046 </v>
    <v>       0.43972212       0.64533237       0.55400657 </v>
    <v>       0.43940701       0.38794856       0.43679135 </v>
    <v>       0.47973028       0.46198736       0.65721881 </v>
    <v>       0.47781703       0.58468554       0.64617187 </v>
    <v>       0.43246578       0.64437314       0.43160669 </v>
    <v>       0.43963617       0.51683120       0.43241228 </v>
    <v>       0.53291127       0.33753514       0.49396492 </v>
    <v>       0.43330706       0.39579643       0.31722208 </v>
    <v>       0.50643055       0.53807989       0.74983234 </v>
    <v>       0.42856221       0.51250796       0.30617033 </v>
    <v>       0.53285135       0.45899695       0.48390951 </v>
    <v>       0.57559200       0.61481019       0.69434314 </v>
    <v>       0.51267926       0.70973434       0.48827916 </v>
    <v>       0.51689918       0.33715034       0.37378496 </v>
    <v>       0.50525326       0.58351914       0.35746400 </v>
    <v>       0.65354889       0.47843274       0.49055334 </v>
    <v>       0.56166324       0.40834110       0.59139561 </v>
    <v>       0.59046118       0.49501443       0.68588649 </v>
    <v>       0.56299474       0.65051953       0.57918424 </v>
    <v>       0.64468714       0.36492991       0.52430871 </v>
    <v>       0.58962870       0.64907676       0.40366415 </v>
    <v>       0.56880695       0.52838670       0.57568258 </v>
    <v>       0.52331145       0.58493821       0.48033462 </v>
    <v>       0.52030923       0.45946674       0.36078561 </v>
    <v>       0.62547476       0.71211467       0.49358544 </v>
    <v>       0.66212627       0.57669784       0.62590739 </v>
    <v>       0.75022692       0.42809037       0.53625585 </v>
    <v>       0.60748646       0.40031330       0.41192191 </v>
    <v>       0.66908104       0.45767631       0.60998966 </v>
    <v>       0.71639284       0.38365155       0.43557710 </v>
    <v>       0.64432522       0.59688663       0.49923465 </v>
    <v>       0.60379477       0.53072287       0.39984081 </v>
    <v>       0.73658450       0.54237977       0.54927200 </v>
   </varray>
  </structure>
  <varray name="forces" >
   <v>      -0.25861650       0.16424107       0.12210207 </v>
   <v>      -0.36740267       0.03683158      -0.22513250 </v>
   <v>       0.00116890       0.00705076      -0.00474713 </v>
   <v>       0.16898492      -0.05876619      -0.01169212 </v>
   <v>       0.50284713      -0.23190198      -0.30646701 </v>
   <v>      -0.24876090       0.14025774       0.16394860 </v>
   <v>      -0.23882004       0.13237572      -0.06144054 </v>
   <v>      -0.09424823      -0.12219059       0.03311496 </v>
   <v>      -0.26693195      -0.10148993      -0.06057757 </v>
   <v>      -0.10149323       0.25826353      -0.08820737 </v>
   <v>       0.09032755       0.03210309       0.05403058 </v>
   <v>       0.15037775      -0.05265892      -0.10469328 </v>
   <v>      -0.28001902       0.44565212       0.34048244 </v>
   <v>       0.12438372      -0.25295645      -0.12031211 </v>
   <v>      -0.13034907       0.04924891      -0.14923526 </v>
   <v>       0.12082397       0.19744524       0.19927985 </v>
   <v>      -0.08783449      -0.23669330      -0.06832398 </v>
   <v>       0.17370639       0.08201713      -0.03662428 </v>
   <v>      -0.06391687      -0.17925953      -0.09029886 </v>
   <v>      -0.05019707      -0.00524389       0.29526168 </v>
   <v>      -0.04158606      -0.05046563      -0.00032595 </v>
   <v>      -0.07418894       0.12377879      -0.04722249 </v>
   <v>       0.20876178       0.04262235      -0.02516884 </v>
   <v>      -0.15326686      -0.17991016      -0.00068117 </v>
   <v>       0.28528485      -0.19303416      -0.15765042 </v>
   <v>       0.08495883      -0.09009156      -0.02020112 </v>
   <v>       0.15899179       0.05234058      -0.03625489 </v>
   <v>      -0.00013845       0.01933967       0.18023885 </v>
   <v>       0.12691922      -0.04954635      -0.05343235 </v>
   <v>      -0.04556336      -0.05963362       0.05782741 </v>
   <v>       0.07862205       0.01902221       0.03579482 </v>
   <v>       0.01588086      -0.03089465       0.12072052 </v>
   <v>      -0.08767711       0.01625895      -0.08044841 </v>
   <v>       0.11165791       0.02490403       0.12452463 </v>
   <v>       0.01778561      -0.04306015      -0.11661380 </v>
   <v>       0.27070563       0.06340717       0.18418759 </v>
   <v>      -0.24356834       0.23314155       0.05948979 </v>
   <v>       0.22034340      -0.17787745      -0.01692904 </v>
   <v>      -0.17294376       0.14038634      -0.01076356 </v>
   <v>      -0.07006984       0.04350012      -0.01040637 </v>
   <v>       0.11918915       0.00750005      -0.05609835 </v>
   <v>      -0.06288928      -0.02774077       0.00346078 </v>
   <v>      -0.07720033      -0.03605881       0.15200692 </v>
   <v>       0.18596096      -0.15221461      -0.16652271 </v>
  </varray>
  <varray name="stress" >
   <v>      -1.06999095      -0.12502640       0.09828967 </v>
   <v>      -0.12502640      -2.00749354       0.31085800 </v>
   <v>       0.09828967       0.31085800      -1.73768893 </v>
  </varray>
  <energy>
   <i name="e_fr_energy">    -94.20725594 </i>
   <i name="e_wo_entrp">    -94.20725594 </i>
   <i name="e_0_energy">      0.00000000 </i>
  </energy>
  <time name="totalsc">   44.28   57.43</time>
 </calculation>
 <calculation>
  <scstep>
   <time name="dav">    5.30    5.31</time>
   <time name="total">    5.70    5.87</time>
   <energy>
    <i name="alphaZ">    122.22837069 </i>
    <i name="ewald"> 127050.04418235 </i>
    <i name="hartreedc">-170803.26250074 </i>
    <i name="XCdc">   -497.95924187 </i>
    <i name="pawpsdc">  47681.81972345 </i>
    <i name="pawaedc"> -45735.71778141 </i>
    <i name="eentropy">      0.00000000 </i>
    <i name="bandstr">  -3548.18117941 </i>
    <i name="atom">  45636.73972380 </i>
    <i name="e_fr_energy">    -94.28870313 </i>
    <i name="e_wo_entrp">    -94.28870313 </i>
    <i name="e_0_energy">    -94.28870313 </i>
   </energy>
  </scstep>
  <scstep>
   <time name="dav">    5.48    5.49</time>
   <time name="total">    5.88    5.89</time>
   <energy>
    <i name="e_fr_energy">    -94.32623409 </i>
    <i name="e_wo_entrp">    -94.32623409 </i>
    <i name="e_0_energy">    -94.32623409 </i>
   </energy>
  </scstep>
  <scstep>
   <time name="dav">    5.65    5.66</time>
   <time name="total">    6.04    6.33</time>
   <energy>
    <i name="e_fr_energy">    -94.32583284 </i>
    <i name="e_wo_entrp">    -94.32583284 </i>
    <i name="e_0_energy">    -94.32583284 </i>
   </energy>
  </scstep>
  <scstep>
   <time name="dav">    5.47    5.48</time>
   <time name="total">    5.86    7.18</time>
   <energy>
    <i name="e_fr_energy">    -94.32464617 </i>
    <i name="e_wo_entrp">    -94.32464617 </i>
    <i name="e_0_energy">    -94.32464617 </i>
   </energy>
  </scstep>
  <scstep>
   <time name="dav">    5.65    5.65</time>
   <time name="total">    6.04    6.04</time>
   <energy>
    <i name="e_fr_energy">    -94.32469111 </i>
    <i name="e_wo_entrp">    -94.32469111 </i>
    <i name="e_0_energy">    -94.32469111 </i>
   </energy>
  </scstep>
  <scstep>
   <time name="dav">    3.88    3.88</time>
   <time name="total">    4.12    4.13</time>
   <energy>
    <i name="alphaZ">    122.22837069 </i>
    <i name="ewald"> 127050.04418235 </i>
    <i name="hartreedc">-170806.65479317 </i>
    <i name="XCdc">   -497.89493664 </i>
    <i name="pawpsdc">  47636.22388997 </i>
    <i name="pawaedc"> -45689.39693435 </i>
    <i name="eentropy">      0.00000000 </i>
    <i name="bandstr">  -3545.61421932 </i>
    <i name="atom">  45636.73972380 </i>
    <i name="e_fr_energy">    -94.32471668 </i>
    <i name="e_wo_entrp">    -94.32471668 </i>
    <i name="e_0_energy">    -94.32471668 </i>
   </energy>
  </scstep>
  <structure>
   <crystal>
    <varray name="basis" >
     <v>      23.79482438       0.00000000       0.00000000 </v>
     <v>       0.00000000      23.79482438       0.00000000 </v>
     <v>       0.00000000       0.00000000      23.79482438 </v>
    </varray>
    <i name="volume">  13472.47887137 </i>
    <varray name="rec_basis" >
     <v>       0.04202595       0.00000000       0.00000000 </v>
     <v>       0.00000000       0.04202595       0.00000000 </v>
     <v>       0.00000000       0.00000000       0.04202595 </v>
    </varray>
   </crystal>
   <varray name="positions" >
    <v>       0.28191085       0.50946503       0.56284071 </v>
    <v>       0.28126682       0.51378105       0.44587861 </v>
    <v>       0.36659383       0.45138043       0.62211177 </v>
    <v>       0.36396223       0.57520169       0.61523970 </v>
    <v>       0.35676662       0.44705822       0.50274560 </v>
    <v>       0.39810391       0.51928716       0.71265293 </v>
    <v>       0.35892649       0.57991027       0.49920711 </v>
    <v>       0.35390462       0.45323738       0.37947799 </v>
    <v>       0.35705220       0.57733028       0.37671273 </v>
    <v>       0.45052478       0.38994762       0.56122565 </v>
    <v>       0.44983492       0.51497993       0.55146699 </v>
    <v>       0.43997375       0.64507125       0.55375586 </v>
    <v>       0.43932474       0.38867598       0.43704795 </v>
    <v>       0.47955578       0.46148548       0.65775805 </v>
    <v>       0.47751970       0.58488320       0.64636911 </v>
    <v>       0.43241179       0.64461908       0.43202500 </v>
    <v>       0.43913863       0.51670784       0.43179855 </v>
    <v>       0.53381823       0.33757325       0.49381931 </v>
    <v>       0.43320871       0.39524114       0.31692276 </v>
    <v>       0.50613536       0.53807524       0.75043803 </v>
    <v>       0.42816980       0.51201328       0.30613749 </v>
    <v>       0.53270857       0.45961448       0.48389084 </v>
    <v>       0.57560367       0.61503208       0.69470526 </v>
    <v>       0.51284017       0.70973080       0.48843365 </v>
    <v>       0.51765212       0.33658991       0.37334923 </v>
    <v>       0.50563007       0.58312480       0.35760133 </v>
    <v>       0.65411865       0.47840068       0.49060315 </v>
    <v>       0.56160837       0.40795596       0.59184208 </v>
    <v>       0.59057619       0.49503255       0.68599486 </v>
    <v>       0.56284355       0.65068406       0.57940378 </v>
    <v>       0.64521291       0.36508481       0.52405081 </v>
    <v>       0.58993999       0.64942042       0.40404261 </v>
    <v>       0.56914768       0.52825456       0.57585002 </v>
    <v>       0.52314692       0.58466365       0.48039014 </v>
    <v>       0.52039727       0.45904010       0.36000732 </v>
    <v>       0.62626112       0.71233520       0.49418007 </v>
    <v>       0.66167441       0.57712747       0.62554335 </v>
    <v>       0.75130676       0.42738092       0.53632522 </v>
    <v>       0.60714437       0.40082863       0.41199827 </v>
    <v>       0.66912864       0.45796669       0.60969645 </v>
    <v>       0.71642700       0.38359377       0.43534241 </v>
    <v>       0.64430508       0.59684360       0.49925763 </v>
    <v>       0.60338061       0.53054998       0.40022570 </v>
    <v>       0.73720940       0.54181641       0.54874283 </v>
   </varray>
  </structure>
  <varray name="forces" >
   <v>      -0.20788994       0.12750950       0.05007771 </v>
   <v>      -0.28031669       0.00349700      -0.15203558 </v>
   <v>       0.02621154       0.00790393      -0.02885923 </v>
   <v>       0.12878832      -0.05540974      -0.00627432 </v>
   <v>       0.40790564      -0.13964893      -0.25322078 </v>
   <v>      -0.21886874       0.11757815       0.13539677 </v>
   <v>      -0.19545418       0.08848130      -0.06758635 </v>
   <v>      -0.09330802      -0.13545877       0.03845686 </v>
   <v>      -0.23562395      -0.05640404      -0.05642357 </v>
   <v>      -0.09152162       0.23379678      -0.10908955 </v>
   <v>       0.04717205       0.04224552       0.05174400 </v>
   <v>       0.12339914      -0.05861756      -0.09667274 </v>
   <v>      -0.14514237       0.35581196       0.23631089 </v>
   <v>       0.10462760      -0.19250923      -0.11781659 </v>
   <v>      -0.06800236       0.01871453      -0.10787939 </v>
   <v>       0.08548187       0.12893607       0.14150885 </v>
   <v>      -0.05184635      -0.21318644      -0.01066042 </v>
   <v>       0.10342965       0.12518359      -0.03999335 </v>
   <v>      -0.05234851      -0.17960192      -0.04008321 </v>
   <v>      -0.01641852      -0.00467225       0.21898818 </v>
   <v>      -0.01888906      -0.02565121       0.00842627 </v>
   <v>      -0.05641208       0.07784588      -0.04878114 </v>
   <v>       0.16568004       0.00853557      -0.03396443 </v>
   <v>      -0.09250217      -0.17641270      -0.00772811 </v>
   <v>       0.17017274      -0.10440951      -0.07928074 </v>
   <v>       0.05473683      -0.06990181      -0.01821341 </v>
   <v>       0.15232855       0.04362731      -0.04971683 </v>
   <v>       0.03874185       0.03641451       0.13901242 </v>
   <v>       0.08317837      -0.03745871      -0.03766004 </v>
   <v>      -0.02893405      -0.07404521       0.05489618 </v>
   <v>       0.04790083       0.02282802       0.07849714 </v>
   <v>      -0.00864989      -0.05282118       0.13004105 </v>
   <v>      -0.13250535       0.00669733      -0.10021661 </v>
   <v>       0.11619168       0.05057947       0.11064143 </v>
   <v>      -0.01321447      -0.02508250      -0.09712605 </v>
   <v>       0.20960024       0.04093613       0.17932903 </v>
   <v>      -0.15794472       0.22407769       0.00943774 </v>
   <v>       0.14194854      -0.14939019      -0.00574188 </v>
   <v>      -0.11786013       0.12341038       0.00311869 </v>
   <v>      -0.03965032       0.02044826      -0.02963475 </v>
   <v>       0.10637558       0.02337038      -0.05728087 </v>
   <v>      -0.04843633      -0.02943051       0.01910156 </v>
   <v>      -0.05389505      -0.03647074       0.15371393 </v>
   <v>       0.11176380      -0.11184610      -0.10675874 </v>
  </varray>
  <varray name="stress" >
   <v>      -1.26466852      -0.07944207       0.12166222 </v>
   <v>      -0.07944206      -2.11596711       0.25213865 </v>
   <v>       0.12166222       0.25213866      -1.90798891 </v>
  </varray>
  <energy>
   <i name="e_fr_energy">    -94.32471668 </i>
[...]
       <r>     0.4950     0.0000   285.0000 </r>
       <r>     0.5357     0.0000   285.0000 </r>
       <r>     0.5764     0.0000   286.0000 </r>
       <r>     0.6171     0.0000   286.0000 </r>
       <r>     0.6578     0.0000   286.0000 </r>
       <r>     0.6985     0.0000   286.0000 </r>
       <r>     0.7392     0.0000   288.0000 </r>
       <r>     0.7799     0.0000   289.0000 </r>
       <r>     0.8206     0.0000   290.0000 </r>
       <r>     0.8613     0.0000   291.0000 </r>
       <r>     0.9020     0.0000   294.0000 </r>
       <r>     0.9427     0.0000   295.0000 </r>
       <r>     0.9834     0.0000   296.0000 </r>
       <r>     1.0241     0.0000   299.0000 </r>
       <r>     1.0648     0.0000   301.0000 </r>
       <r>     1.1056     0.0000   302.0000 </r>
       <r>     1.1463     0.0000   305.0000 </r>
       <r>     1.1870     0.0000   306.0000 </r>
       <r>     1.2277     0.0000   307.0000 </r>
       <r>     1.2684     0.0000   309.0000 </r>
       <r>     1.3091     0.0000   311.0000 </r>
       <r>     1.3498     0.0000   312.0000 </r>
       <r>     1.3905     0.0000   312.0000 </r>
       <r>     1.4312     0.0000   312.0000 </r>
       <r>     1.4719     0.0000   312.0000 </r>
       <r>     1.5126     0.0000   312.0000 </r>
       <r>     1.5533     0.0000   312.0000 </r>
       <r>     1.5940     0.0000   312.0000 </r>
       <r>     1.6347     0.0000   312.0000 </r>
       <r>     1.6754     0.0000   312.0000 </r>
       <r>     1.7161     0.0000   312.0000 </r>
       <r>     1.7568     0.0000   312.0000 </r>
       <r>     1.7975     0.0000   312.0000 </r>
       <r>     1.8382     0.0000   312.0000 </r>
       <r>     1.8790     0.0000   312.0000 </r>
      </set>
      <set comment="spin 2">
       <r>   -10.3326     0.0000     0.0000 </r>
       <r>   -10.2919     0.0000     0.0000 </r>
       <r>   -10.2512     0.0000     0.0000 </r>
       <r>   -10.2105     0.0000     0.0000 </r>
       <r>   -10.1698     0.0000     0.0000 </r>
       <r>   -10.1291     0.0000     0.0000 </r>
       <r>   -10.0884     0.0000     0.0000 </r>
       <r>   -10.0477     0.0000     0.0000 </r>
       <r>   -10.0070     0.0000     0.0000 </r>
       <r>    -9.9663     0.0000     0.0000 </r>
       <r>    -9.9256     0.0000     0.0000 </r>
       <r>    -9.8849     0.0000     0.0000 </r>
       <r>    -9.8442     0.0000     0.0000 </r>
       <r>    -9.8035     0.0000     0.0000 </r>
       <r>    -9.7627     0.0000     0.0000 </r>
       <r>    -9.7220     0.0000     1.0000 </r>
       <r>    -9.6813     0.0000     1.0000 </r>
       <r>    -9.6406     0.0000     1.0000 </r>
       <r>    -9.5999     0.0000     1.0000 </r>
       <r>    -9.5592     0.0000     1.0000 </r>
       <r>    -9.5185     0.0000     1.0000 </r>
       <r>    -9.4778     0.0000     1.0000 </r>
       <r>    -9.4371     0.0000     1.0000 </r>
       <r>    -9.3964     0.0000     1.0000 </r>
       <r>    -9.3557     0.0000     1.0000 </r>
       <r>    -9.3150     0.0000     1.0000 </r>
       <r>    -9.2743     0.0000     1.0000 </r>
       <r>    -9.2336     0.0000     1.0000 </r>
       <r>    -9.1929     0.0000     2.0000 </r>
       <r>    -9.1522     0.0000     2.0000 </r>
       <r>    -9.1115     0.0000     3.0000 </r>
       <r>    -9.0708     0.0000     6.0000 </r>
       <r>    -9.0301     0.0000     7.0000 </r>
       <r>    -8.9893     0.0000    10.0000 </r>
       <r>    -8.9486     0.0000    11.0000 </r>
       <r>    -8.9079     0.0000    14.0000 </r>
       <r>    -8.8672     0.0000    15.0000 </r>
       <r>    -8.8265     0.0000    17.0000 </r>
       <r>    -8.7858     0.0000    20.0000 </r>
       <r>    -8.7451     0.0000    21.0000 </r>
       <r>    -8.7044     0.0000    24.0000 </r>
       <r>    -8.6637     0.0000    27.0000 </r>
       <r>    -8.6230     0.0000    29.0000 </r>
       <r>    -8.5823     0.0000    31.0000 </r>
       <r>    -8.5416     0.0000    34.0000 </r>
       <r>    -8.5009     0.3017    36.0123 </r>
       <r>    -8.4602     0.0000    38.0000 </r>
       <r>    -8.4195     0.0000    40.0000 </r>
       <r>    -8.3788     0.0000    42.0000 </r>
       <r>    -8.3381     0.0000    45.0000 </r>
       <r>    -8.2974     0.0000    47.0000 </r>
       <r>    -8.2567     0.0000    50.0000 </r>
       <r>    -8.2159     0.0000    53.0000 </r>
       <r>    -8.1752    24.5669    56.0000 </r>
       <r>    -8.1345     0.0000    58.0000 </r>
       <r>    -8.0938     0.0000    62.0000 </r>
       <r>    -8.0531     0.0000    64.0000 </r>
       <r>    -8.0124     0.0000    68.0000 </r>
       <r>    -7.9717    24.5669    71.0000 </r>
       <r>    -7.9310     0.0000    73.0000 </r>
       <r>    -7.8903     0.0000    76.0000 </r>
       <r>    -7.8496     0.0000    80.0000 </r>
       <r>    -7.8089     0.0000    83.0000 </r>
       <r>    -7.7682     0.0000    87.0000 </r>
       <r>    -7.7275     0.0000    89.0000 </r>
       <r>    -7.6868     0.0000    92.0000 </r>
       <r>    -7.6461     0.0000    96.0000 </r>
       <r>    -7.6054     0.0000    99.0000 </r>
       <r>    -7.5647     0.0000   101.0000 </r>
       <r>    -7.5240    24.5669   105.0000 </r>
       <r>    -7.4833     0.0000   106.0000 </r>
       <r>    -7.4425     0.0000   109.0000 </r>
       <r>    -7.4018     0.0000   112.0000 </r>
       <r>    -7.3611     0.0000   115.0000 </r>
       <r>    -7.3204     0.0000   118.0000 </r>
       <r>    -7.2797     0.0000   121.0000 </r>
       <r>    -7.2390     0.0000   124.0000 </r>
       <r>    -7.1983     0.0000   127.0000 </r>
       <r>    -7.1576     0.0000   129.0000 </r>
       <r>    -7.1169     0.0000   132.0000 </r>
       <r>    -7.0762     0.0000   136.0000 </r>
       <r>    -7.0355     0.0000   140.0000 </r>
       <r>    -6.9948     0.0000   143.0000 </r>
       <r>    -6.9541     0.0000   149.0000 </r>
       <r>    -6.9134     0.0000   152.0000 </r>
       <r>    -6.8727     0.0000   157.0000 </r>
       <r>    -6.8320     0.0000   161.0000 </r>
       <r>    -6.7913     0.0000   165.0000 </r>
       <r>    -6.7506     0.0000   168.0000 </r>
       <r>    -6.7099     0.0000   172.0000 </r>
       <r>    -6.6691     0.0000   177.0000 </r>
       <r>    -6.6284     0.0000   182.0000 </r>
       <r>    -6.5877     0.0000   186.0000 </r>
       <r>    -6.5470    24.5669   192.0000 </r>
       <r>    -6.5063     0.0000   195.0000 </r>
       <r>    -6.4656    24.5669   200.0000 </r>
       <r>    -6.4249     0.0000   203.0000 </r>
       <r>    -6.3842     0.0000   208.0000 </r>
       <r>    -6.3435    24.5669   212.0000 </r>
       <r>    -6.3028     0.0000   214.0000 </r>
       <r>    -6.2621     0.0000   217.0000 </r>
       <r>    -6.2214     0.0000   219.0000 </r>
       <r>    -6.1807     0.0000   223.0000 </r>
       <r>    -6.1400    24.5454   224.9991 </r>
       <r>    -6.0993     0.0000   226.0000 </r>
       <r>    -6.0586     0.0000   226.0000 </r>
       <r>    -6.0179     0.0000   226.0000 </r>
       <r>    -5.9772     0.0000   226.0000 </r>
       <r>    -5.9365     0.0000   226.0000 </r>
       <r>    -5.8957     0.0000   227.0000 </r>
       <r>    -5.8550     0.0000   227.0000 </r>
       <r>    -5.8143     0.0000   227.0000 </r>
       <r>    -5.7736     0.0000   228.0000 </r>
       <r>    -5.7329     0.0000   228.0000 </r>
       <r>    -5.6922     0.0000   228.0000 </r>
       <r>    -5.6515     0.0000   229.0000 </r>
       <r>    -5.6108     0.0000   229.0000 </r>
       <r>    -5.5701     0.0000   229.0000 </r>
       <r>    -5.5294     0.0000   229.0000 </r>
       <r>    -5.4887     0.0000   229.0000 </r>
       <r>    -5.4480     0.0000   229.0000 </r>
       <r>    -5.4073     0.0000   229.0000 </r>
       <r>    -5.3666     0.0000   230.0000 </r>
       <r>    -5.3259     0.0000   231.0000 </r>
       <r>    -5.2852     0.0000   231.0000 </r>
       <r>    -5.2445     0.0000   231.0000 </r>
       <r>    -5.2038     0.0000   231.0000 </r>
       <r>    -5.1631     0.0000   231.0000 </r>
       <r>    -5.1223     0.0000   231.0000 </r>
       <r>    -5.0816     0.0000   231.0000 </r>
       <r>    -5.0409     0.0000   232.0000 </r>
       <r>    -5.0002     0.0000   232.0000 </r>
       <r>    -4.9595     0.0000   232.0000 </r>
       <r>    -4.9188     0.0000   232.0000 </r>
       <r>    -4.8781     0.0000   232.0000 </r>
       <r>    -4.8374     0.0000   233.0000 </r>
       <r>    -4.7967     0.0000   233.0000 </r>
       <r>    -4.7560     0.0000   233.0000 </r>
       <r>    -4.7153     0.0000   233.0000 </r>
       <r>    -4.6746     0.0000   234.0000 </r>
       <r>    -4.6339     0.0000   234.0000 </r>
       <r>    -4.5932     0.0000   234.0000 </r>
       <r>    -4.5525     0.0000   235.0000 </r>
       <r>    -4.5118     0.0000   235.0000 </r>
       <r>    -4.4711     0.0000   235.0000 </r>
       <r>    -4.4304     0.0000   235.0000 </r>
       <r>    -4.3897     0.0000   235.0000 </r>
       <r>    -4.3489     0.0000   235.0000 </r>
       <r>    -4.3082     0.0000   235.0000 </r>
       <r>    -4.2675     0.0000   235.0000 </r>
       <r>    -4.2268     0.0000   236.0000 </r>
       <r>    -4.1861     0.0000   236.0000 </r>
       <r>    -4.1454     0.0000   236.0000 </r>
       <r>    -4.1047     0.0000   236.0000 </r>
       <r>    -4.0640     0.0000   236.0000 </r>
       <r>    -4.0233     0.0000   236.0000 </r>
       <r>    -3.9826     0.0000   236.0000 </r>
       <r>    -3.9419     0.0000   237.0000 </r>
       <r>    -3.9012     0.0000   238.0000 </r>
       <r>    -3.8605     0.0000   239.0000 </r>
       <r>    -3.8198     0.0000   240.0000 </r>
       <r>    -3.7791     0.0000   240.0000 </r>
       <r>    -3.7384     0.0000   240.0000 </r>
       <r>    -3.6977     0.0000   240.0000 </r>
       <r>    -3.6570     0.0000   240.0000 </r>
       <r>    -3.6163     0.0000   241.0000 </r>
       <r>    -3.5755     0.0000   241.0000 </r>
       <r>    -3.5348     0.0000   241.0000 </r>
       <r>    -3.4941     0.0000   241.0000 </r>
       <r>    -3.4534     0.0000   241.0000 </r>
       <r>    -3.4127     0.0000   241.0000 </r>
       <r>    -3.3720     0.0000   241.0000 </r>
       <r>    -3.3313     0.0000   241.0000 </r>
       <r>    -3.2906     0.0000   241.0000 </r>
       <r>    -3.2499     0.0000   242.0000 </r>
       <r>    -3.2092     0.0000   243.0000 </r>
       <r>    -3.1685     0.0000   243.0000 </r>
       <r>    -3.1278     0.0000   244.0000 </r>
       <r>    -3.0871     0.0000   244.0000 </r>
       <r>    -3.0464     0.0000   245.0000 </r>
       <r>    -3.0057     0.0000   245.0000 </r>
       <r>    -2.9650     0.0000   246.0000 </r>
       <r>    -2.9243     0.0000   246.0000 </r>
       <r>    -2.8836     0.0000   246.0000 </r>
       <r>    -2.8429     0.0000   246.0000 </r>
       <r>    -2.8022     0.0000   246.0000 </r>
       <r>    -2.7614     0.0000   246.0000 </r>
       <r>    -2.7207     0.0000   247.0000 </r>
       <r>    -2.6800     0.0000   247.0000 </r>
       <r>    -2.6393     0.0000   247.0000 </r>
       <r>    -2.5986     0.0000   247.0000 </r>
       <r>    -2.5579     0.0000   247.0000 </r>
       <r>    -2.5172     0.0000   247.0000 </r>
       <r>    -2.4765     0.0000   248.0000 </r>
       <r>    -2.4358     0.0000   248.0000 </r>
       <r>    -2.3951     0.0000   249.0000 </r>
       <r>    -2.3544     0.0000   249.0000 </r>
       <r>    -2.3137     0.0000   249.0000 </r>
       <r>    -2.2730     0.0000   250.0000 </r>
       <r>    -2.2323     0.0000   250.0000 </r>
       <r>    -2.1916     0.0000   251.0000 </r>
       <r>    -2.1509     0.0000   251.0000 </r>
       <r>    -2.1102     0.0000   252.0000 </r>
       <r>    -2.0695    22.5305   252.9171 </r>
       <r>    -2.0288     0.0000   253.0000 </r>
       <r>    -1.9880     0.0000   254.0000 </r>
       <r>    -1.9473     0.0000   254.0000 </r>
       <r>    -1.9066     0.0000   255.0000 </r>
       <r>    -1.8659     0.0000   256.0000 </r>
       <r>    -1.8252     0.0000   256.0000 </r>
       <r>    -1.7845     0.0000   257.0000 </r>
       <r>    -1.7438     0.0000   257.0000 </r>
       <r>    -1.7031     0.0000   258.0000 </r>
       <r>    -1.6624     0.0000   259.0000 </r>
       <r>    -1.6217     0.0000   259.0000 </r>
       <r>    -1.5810     0.0000   259.0000 </r>
       <r>    -1.5403     0.0000   260.0000 </r>
       <r>    -1.4996     0.0000   260.0000 </r>
       <r>    -1.4589     0.0000   260.0000 </r>
       <r>    -1.4182     0.0000   261.0000 </r>
       <r>    -1.3775     0.0000   261.0000 </r>
       <r>    -1.3368     0.0000   261.0000 </r>
       <r>    -1.2961     0.0000   262.0000 </r>
       <r>    -1.2554     0.0000   262.0000 </r>
       <r>    -1.2146     0.0000   262.0000 </r>
       <r>    -1.1739     0.0000   263.0000 </r>
       <r>    -1.1332     0.0000   263.0000 </r>
       <r>    -1.0925     0.0000   264.0000 </r>
       <r>    -1.0518     0.0000   264.0000 </r>
       <r>    -1.0111     0.0000   264.0000 </r>
       <r>    -0.9704     0.0000   265.0000 </r>
       <r>    -0.9297     0.0000   265.0000 </r>
       <r>    -0.8890     0.0000   266.0000 </r>
       <r>    -0.8483     0.0000   266.0000 </r>
       <r>    -0.8076     0.0000   266.0000 </r>
       <r>    -0.7669     0.0000   267.0000 </r>
       <r>    -0.7262     0.0000   267.0000 </r>
       <r>    -0.6855     2.6683   267.1086 </r>
       <r>    -0.6448    24.4411   268.9949 </r>
       <r>    -0.6041     0.0000   269.0000 </r>
       <r>    -0.5634     0.0000   269.0000 </r>
       <r>    -0.5227     0.0000   270.0000 </r>
       <r>    -0.4820     0.0000   271.0000 </r>
       <r>    -0.4412     0.0000   271.0000 </r>
       <r>    -0.4005     0.0000   271.0000 </r>
       <r>    -0.3598     0.0000   271.0000 </r>
       <r>    -0.3191     0.0000   273.0000 </r>
       <r>    -0.2784     0.0000   273.0000 </r>
       <r>    -0.2377     0.0000   273.0000 </r>
       <r>    -0.1970     0.0000   274.0000 </r>
       <r>    -0.1563     0.0000   274.0000 </r>
       <r>    -0.1156     0.0000   275.0000 </r>
       <r>    -0.0749     0.0000   275.0000 </r>
       <r>    -0.0342     0.0000   276.0000 </r>
       <r>     0.0065     0.0000   277.0000 </r>
       <r>     0.0472     0.0000   277.0000 </r>
       <r>     0.0879     0.0000   278.0000 </r>
       <r>     0.1286     0.0000   279.0000 </r>
       <r>     0.1693     0.0000   279.0000 </r>
       <r>     0.2100     0.0000   280.0000 </r>
       <r>     0.2507     0.0000   280.0000 </r>
       <r>     0.2914     0.0000   281.0000 </r>
       <r>     0.3322     0.0000   283.0000 </r>
       <r>     0.3729     0.0000   284.0000 </r>
       <r>     0.4136     0.0000   284.0000 </r>
       <r>     0.4543     0.0000   284.0000 </r>
       <r>     0.4950     0.0000   284.0000 </r>
       <r>     0.5357     0.0000   285.0000 </r>
       <r>     0.5764     0.0000   286.0000 </r>
       <r>     0.6171     0.0000   286.0000 </r>
       <r>     0.6578     0.0000   286.0000 </r>
       <r>     0.6985     0.0000   286.0000 </r>
       <r>     0.7392     0.0000   287.0000 </r>
       <r>     0.7799     0.0000   288.0000 </r>
       <r>     0.8206     0.0000   290.0000 </r>
       <r>     0.8613     0.0000   291.0000 </r>
       <r>     0.9020     0.0000   293.0000 </r>
       <r>     0.9427     0.0000   294.0000 </r>
       <r>     0.9834     0.0000   296.0000 </r>
       <r>     1.0241     0.0000   298.0000 </r>
       <r>     1.0648     0.0000   300.0000 </r>
       <r>     1.1056     0.0000   301.0000 </r>
       <r>     1.1463     0.0000   303.0000 </r>
       <r>     1.1870     0.0000   305.0000 </r>
       <r>     1.2277     0.0000   306.0000 </r>
       <r>     1.2684     0.0000   308.0000 </r>
       <r>     1.3091     0.0000   311.0000 </r>
       <r>     1.3498     0.0000   312.0000 </r>
       <r>     1.3905     0.0000   312.0000 </r>
       <r>     1.4312     0.0000   312.0000 </r>
       <r>     1.4719     0.0000   312.0000 </r>
       <r>     1.5126     0.0000   312.0000 </r>
       <r>     1.5533     0.0000   312.0000 </r>
       <r>     1.5940     0.0000   312.0000 </r>
       <r>     1.6347     0.0000   312.0000 </r>
       <r>     1.6754     0.0000   312.0000 </r>
       <r>     1.7161     0.0000   312.0000 </r>
       <r>     1.7568     0.0000   312.0000 </r>
       <r>     1.7975     0.0000   312.0000 </r>
       <r>     1.8382     0.0000   312.0000 </r>
       <r>     1.8790     0.0000   312.0000 </r>
      </set>
     </set>
    </array>
   </total>
  </dos>
 </calculation>
 <structure name="finalpos" >
  <crystal>
   <varray name="basis" >
    <v>      23.79482438       0.00000000       0.00000000 </v>
    <v>       0.00000000      23.79482438       0.00000000 </v>
    <v>       0.00000000       0.00000000      23.79482438 </v>
   </varray>
   <i name="volume">  13472.47887137 </i>
   <varray name="rec_basis" >
    <v>       0.04202595       0.00000000       0.00000000 </v>
    <v>       0.00000000       0.04202595       0.00000000 </v>
    <v>       0.00000000       0.00000000       0.04202595 </v>
   </varray>
  </crystal>
  <varray name="positions" >
   <v>       0.27469503       0.51112892       0.56180315 </v>
   <v>       0.26923996       0.50980050       0.44399538 </v>
   <v>       0.36497491       0.45361843       0.61845956 </v>
   <v>       0.36095742       0.57385545       0.61179312 </v>
   <v>       0.35761769       0.45381432       0.49951116 </v>
   <v>       0.39303982       0.52004202       0.71224788 </v>
   <v>       0.34848436       0.58125677       0.49589005 </v>
   <v>       0.34824272       0.45026272       0.38070068 </v>
   <v>       0.34574424       0.57305115       0.37749813 </v>
   <v>       0.45285215       0.39937634       0.55650696 </v>
   <v>       0.44908462       0.51995559       0.54911794 </v>
   <v>       0.43797725       0.64219353       0.55016874 </v>
   <v>       0.44352849       0.39815349       0.43785456 </v>
   <v>       0.47792172       0.46146107       0.65614269 </v>
   <v>       0.47146933       0.58669638       0.64864411 </v>
   <v>       0.42972583       0.64140015       0.43082457 </v>
   <v>       0.43705495       0.51892697       0.43025593 </v>
   <v>       0.54063090       0.34697187       0.49227256 </v>
   <v>       0.43042987       0.39075538       0.32069652 </v>
   <v>       0.50326232       0.53095336       0.75066637 </v>
   <v>       0.42576122       0.51059361       0.31143269 </v>
   <v>       0.53749730       0.46646292       0.48286940 </v>
   <v>       0.57497769       0.60637704       0.69429650 </v>
   <v>       0.51425232       0.70519484       0.48658232 </v>
   <v>       0.52212777       0.33887361       0.37383923 </v>
   <v>       0.51046266       0.58179764       0.35850581 </v>
   <v>       0.67012849       0.47706681       0.48286452 </v>
   <v>       0.56396274       0.40881098       0.59437764 </v>
   <v>       0.59222860       0.48917350       0.68580391 </v>
   <v>       0.55708116       0.64898217       0.58379765 </v>
   <v>       0.65046944       0.36794242       0.52841337 </v>
   <v>       0.59452886       0.64990527       0.40949474 </v>
   <v>       0.56461568       0.52910702       0.57983358 </v>
   <v>       0.52522365       0.58648399       0.48068631 </v>
   <v>       0.52120000       0.45903857       0.35697691 </v>
   <v>       0.62904517       0.70568758       0.50922715 </v>
   <v>       0.66016736       0.58354029       0.61865921 </v>
   <v>       0.75832808       0.42153819       0.53979700 </v>
   <v>       0.61137150       0.40601841       0.41018874 </v>
   <v>       0.67029189       0.46252328       0.60446823 </v>
   <v>       0.72039423       0.37803151       0.43667957 </v>
   <v>       0.64628385       0.59087821       0.50043045 </v>
   <v>       0.60536436       0.52988904       0.40284156 </v>
   <v>       0.74366968       0.53940510       0.54999238 </v>
  </varray>
 </structure>
</modeling>
