 vasp.5.3.5 31Mar14 (build Feb 01 2018 12:10:03) gamma-only                     
  
 executed on             LinuxIFC date 2019.04.02  05:20:52
 running on   32 total cores
 distrk:  each k-point on   32 cores,    1 groups
 distr:  one band on NCORES_PER_BAND=   8 cores,    4 groups


--------------------------------------------------------------------------------------------------------


 INCAR:
 POTCAR:    PAW_PBE Cu 22Jun2005                  
 POTCAR:    PAW_PBE Cu 22Jun2005                  
   VRHFIN =Cu: d10 p1                                                           
   LEXCH  = PE                                                                  
   EATOM  =  1390.9808 eV,  102.2342 Ry                                         
                                                                                
   TITEL  = PAW_PBE Cu 22Jun2005                                                
   LULTRA =        F    use ultrasoft PP ?                                      
   IUNSCR =        1    unscreen: 0-lin 1-nonlin 2-no                           
   RPACOR =    2.000    partial core radius                                     
   POMASS =   63.546; ZVAL   =   11.000    mass and valenz                      
   RCORE  =    2.300    outmost cutoff radius                                   
   RWIGS  =    2.200; RWIGS  =    1.164    wigner-seitz radius (au A)           
   ENMAX  =  295.446; ENMIN  =  221.585 eV                                      
   ICORE  =        3    local potential                                         
   LCOR   =        T    correct aug charges                                     
   LPAW   =        T    paw PP                                                  
   EAUG   =  586.980                                                            
   DEXC   =    0.000                                                            
   RMAX   =    2.344    core radius for proj-oper                               
   RAUG   =    1.300    factor for augmentation sphere                          
   RDEP   =    2.302    radius for radial grids                                 
   RDEPT  =    1.771    core radius for aug-charge                              
                                                                                
   Atomic configuration                                                         
    9 entries                                                                   
     n  l   j            E        occ.                                          
     1  0  0.50     -8850.2468   2.0000                                         
     2  0  0.50     -1062.3498   2.0000                                         
     2  1  1.50      -916.8226   6.0000                                         
     3  0  0.50      -114.6929   2.0000                                         
     3  1  1.50       -72.1325   6.0000                                         
     3  2  2.50        -5.0394  10.0000                                         
     4  0  0.50        -4.6097   1.0000                                         
     4  1  0.50        -4.0817   0.0000                                         
     4  3  2.50        -1.3606   0.0000                                         
   Description                                                                  
     l       E           TYP  RCUT    TYP  RCUT                                 
     2     -5.0393973     23  2.200                                             
     2     10.8846608     23  2.200                                             
     0     -4.6097109     23  2.200                                             
     0      8.2520465     23  2.200                                             
     1     -2.7211652     23  2.200                                             
     1     21.7055443     23  2.200                                             
     3      2.7211652     23  2.300                                             
  local pseudopotential read in
  partial core-charges read in
  partial kinetic energy density read in
  atomic valenz-charges read in
  non local Contribution for L=           2  read in
    real space projection operators read in
  non local Contribution for L=           2  read in
    real space projection operators read in
  non local Contribution for L=           0  read in
    real space projection operators read in
  non local Contribution for L=           0  read in
    real space projection operators read in
  non local Contribution for L=           1  read in
    real space projection operators read in
  non local Contribution for L=           1  read in
    real space projection operators read in
    PAW grid and wavefunctions read in
 
   number of l-projection  operators is LMAX  =           6
   number of lm-projection operators is LMMAX =          18
 
  PAW_PBE Cu 22Jun2005                  :
 energy of atom  1       EATOM=-1390.9808
 kinetic energy error for atom=    0.0452 (will be added to EATOM!!)
 
 
 POSCAR: Ti12, -71.64213332 <s> Cu </s>          
  positions in direct lattice
  No initial velocities read in
 exchange correlation table for  LEXCH =        8
   RHO(1)=    0.500       N(1)  =     2000
   RHO(2)=  100.500       N(2)  =     4000
 


--------------------------------------------------------------------------------------------------------


 ion  position               nearest neighbor table
   1  0.408  0.384  0.386-   3 2.31   9 2.33   8 2.34  10 2.34  12 2.40   2 2.75
   2  0.336  0.494  0.451-  12 2.16   4 2.35   8 2.39  11 2.41   1 2.75
   3  0.523  0.424  0.365-   5 2.26   8 2.28  10 2.30   1 2.31   6 2.33
   4  0.378  0.539  0.560-   7 2.19  11 2.24  12 2.35   2 2.35
   5  0.536  0.517  0.440-   3 2.26  11 2.31   7 2.34   8 2.39  12 2.42   6 2.48
   6  0.541  0.391  0.483-  12 2.28  10 2.29   3 2.33   9 2.37   5 2.48
   7  0.495  0.535  0.557-   4 2.19  12 2.27  11 2.31   5 2.34
   8  0.432  0.505  0.368-  11 2.24   3 2.28   1 2.34   2 2.39   5 2.39  12 2.50
   9  0.434  0.324  0.492-  10 2.19   1 2.33   6 2.37  12 2.42
  10  0.506  0.308  0.401-   9 2.19   6 2.29   3 2.30   1 2.34
  11  0.432  0.579  0.462-   4 2.24   8 2.24   7 2.31   5 2.31   2 2.41  12 2.43
  12  0.436  0.453  0.491-   2 2.16   7 2.27   6 2.28   4 2.35   1 2.40   9 2.42   5 2.42  11 2.43
                             8 2.50
 
  LATTYP: Found a simple cubic cell.
 ALAT       =    18.7330833914
  
  Lattice vectors:
  
 A1 = (  18.7330833914,   0.0000000000,   0.0000000000)
 A2 = (   0.0000000000,  18.7330833914,   0.0000000000)
 A3 = (   0.0000000000,   0.0000000000,  18.7330833914)


Analysis of symmetry for initial positions (statically):
=====================================================================
 Subroutine PRICEL returns:
 Original cell was already a primitive cell.
 

 Routine SETGRP: Setting up the symmetry group for a 
 simple cubic supercell.


 Subroutine GETGRP returns: Found  1 space group operations
 (whereof  1 operations were pure point group operations)
 out of a pool of 48 trial point group operations.


The static configuration has the point symmetry C_1 .


Analysis of symmetry for dynamics (positions and initial velocities):
=====================================================================
 Subroutine PRICEL returns:
 Original cell was already a primitive cell.
 

 Routine SETGRP: Setting up the symmetry group for a 
 simple cubic supercell.


 Subroutine GETGRP returns: Found  1 space group operations
 (whereof  1 operations were pure point group operations)
 out of a pool of 48 trial point group operations.


The dynamic configuration has the point symmetry C_1 .


Analysis of magnetic symmetry:
=====================================================================
 Subroutine PRICEL returns:
 Original cell was already a primitive cell.
 

 Subroutine MAGSYM returns: Found  1 space group operations
 (whereof  1 operations were pure point group operations)
 out of a pool of  1 trial space group operations
 (whereof  1 operations were pure point group operations)
 and found also     1 'primitive' translations


The magnetic configuration has the point symmetry C_1 .
 
 
 KPOINTS: Gamma-point only                        
  k-points in reciprocal lattice
Space group operators:
 irot       det(A)        alpha          n_x          n_y          n_z        tau_x        tau_y        tau_z
    1     1.000000     0.000001     1.000000     0.000000     0.000000     0.000000     0.000000     0.000000


--------------------------------------------------------------------------------------------------------




 Dimension of arrays:
   k-points           NKPTS =      1   k-points in BZ     NKDIM =      1   number of bands    NBANDS=     88
   number of dos      NEDOS =    301   number of ions     NIONS =     12
   non local maximal  LDIM  =      6   non local SUM 2l+1 LMDIM =     18
   total plane-waves  NPLWV = 512000
   max r-space proj   IRMAX =      1   max aug-charges    IRDMAX=   2455
   dimension x,y,z NGX =    80 NGY =   80 NGZ =   80
   dimension x,y,z NGXF=   160 NGYF=  160 NGZF=  160
   support grid    NGXF=   160 NGYF=  160 NGZF=  160
   ions per type =              12
 NGX,Y,Z   is equivalent  to a cutoff of   7.10,  7.10,  7.10 a.u.
 NGXF,Y,Z  is equivalent  to a cutoff of  14.20, 14.20, 14.20 a.u.


 I would recommend the setting:
   dimension x,y,z NGX =    79 NGY =   79 NGZ =   79
 SYSTEM =  unknown system                          
 POSCAR =  Ti12, -71.64213332 <s> Cu </s>          

 Startparameter for this run:
   NWRITE =      2    write-flag & timer
   PREC   = normal    normal or accurate (medium, high low for compatibility)
   ISTART =      0    job   : 0-new  1-cont  2-samecut
   ICHARG =      2    charge: 1-file 2-atom 10-const
   ISPIN  =      2    spin polarized calculation?
   LNONCOLLINEAR =      F non collinear calculations
   LSORBIT =      F    spin-orbit coupling
   INIWAV =      1    electr: 0-lowe 1-rand  2-diag
   LASPH  =      F    aspherical Exc in radial PAW
   METAGGA=      F    non-selfconsistent MetaGGA calc.

 Electronic Relaxation 1
   ENCUT  =  295.4 eV  21.71 Ry    4.66 a.u.  26.25 26.25 26.25*2*pi/ulx,y,z
   ENINI  =  295.4     initial cutoff
   ENAUG  =  587.0 eV  augmentation charge cutoff
   NELM   =     60;   NELMIN=  2; NELMDL= -5     # of ELM steps 
   EDIFF  = 0.1E-03   stopping-criterion for ELM
   LREAL  =      F    real-space projection
   NLSPLINE    = F    spline interpolate recip. space projectors
   LCOMPAT=      F    compatible to vasp.4.4
   GGA_COMPAT  = T    GGA compatible to vasp.4.4-vasp.4.6
   LMAXPAW     = -100 max onsite density
   LMAXMIX     =    2 max onsite mixed and CHGCAR
   VOSKOWN=      0    Vosko Wilk Nusair interpolation
   ROPT   =    0.00000
 Ionic relaxation
   EDIFFG = 0.1E-02   stopping-criterion for IOM
   NSW    =   1000    number of steps for IOM
   NBLOCK =      1;   KBLOCK =   1000    inner block; outer block 
   IBRION =      2    ionic relax: 0-MD 1-quasi-New 2-CG
   NFREE  =      1    steps in history (QN), initial steepest desc. (CG)
   ISIF   =      2    stress and relaxation
   IWAVPR =     11    prediction:  0-non 1-charg 2-wave 3-comb
   ISYM   =      2    0-nonsym 1-usesym 2-fastsym
   LCORR  =      T    Harris-Foulkes like correction to forces

   POTIM  = 0.1000    time-step for ionic-motion
   TEIN   =    0.0    initial temperature
   TEBEG  =    0.0;   TEEND  =   0.0 temperature during run
   SMASS  =  -3.00    Nose mass-parameter (am)
   estimated Nose-frequenzy (Omega)   =  0.10E-29 period in steps =****** mass=  -0.802E-26a.u.
   SCALEE = 1.0000    scale energy and forces
   NPACO  =    256;   APACO  = 16.0  distance and # of slots for P.C.
   PSTRESS=    0.0 pullay stress

  Mass of Ions in am
   POMASS =  63.55
  Ionic Valenz
   ZVAL   =  11.00
  Atomic Wigner-Seitz radii
   RWIGS  =  -1.00
  virtual crystal weights 
   VCA    =   1.00
   NELECT =     132.0000    total number of electrons
   NUPDOWN=      -1.0000    fix difference up-down

 DOS related values:
   EMIN   =  10.00;   EMAX   =-10.00  energy-range for DOS
   EFERMI =   0.00
   ISMEAR =     0;   SIGMA  =   0.00  broadening in eV -4-tet -1-fermi 0-gaus

 Electronic relaxation 2 (details)
   IALGO  =     38    algorithm
   LDIAG  =      T    sub-space diagonalisation (order eigenvalues)
   LSUBROT=      F    optimize rotation matrix (better conditioning)
   TURBO    =      0    0=normal 1=particle mesh
   IRESTART =      0    0=no restart 2=restart with 2 vectors
   NREBOOT  =      0    no. of reboots
   NMIN     =      0    reboot dimension
   EREF     =   0.00    reference energy to select bands
   IMIX   =      4    mixing-type and parameters
     AMIX     =   0.40;   BMIX     =  1.00
     AMIX_MAG =   1.60;   BMIX_MAG =  1.00
     AMIN     =   0.10
     WC   =   100.;   INIMIX=   1;  MIXPRE=   1;  MAXMIX= -45

 Intra band minimization:
   WEIMIN = 0.0010     energy-eigenvalue tresh-hold
   EBREAK =  0.28E-06  absolut break condition
   DEPER  =   0.30     relativ break condition  

   TIME   =   0.40     timestep for ELM

  volume/ion in A,a.u.               =     547.83      3696.95
  Fermi-wavevector in a.u.,A,eV,Ry     =   0.444963  0.840857  2.693841  0.197992
  Thomas-Fermi vector in A             =   1.422380
 
 Write flags
   LWAVE  =      F    write WAVECAR
   LCHARG =      F    write CHGCAR
   LVTOT  =      F    write LOCPOT, total local potential
   LVHAR  =      F    write LOCPOT, Hartree potential only
   LELF   =      F    write electronic localiz. function (ELF)
   LORBIT =      0    0 simple, 1 ext, 2 COOP (PROOUT)


 Dipole corrections
   LMONO  =      F    monopole corrections only (constant potential shift)
   LDIPOL =      F    correct potential (dipole corrections)
   IDIPOL =      0    1-x, 2-y, 3-z, 4-all directions 
   EPSILON=  1.0000000 bulk dielectric constant

 Exchange correlation treatment:
   GGA     =    PE    GGA type
   LEXCH   =     8    internal setting for exchange type
   VOSKOWN=      0    Vosko Wilk Nusair interpolation
   LHFCALC =     F    Hartree Fock is set to
   LHFONE  =     F    Hartree Fock one center treatment
   AEXX    =    0.0000 exact exchange contribution

 Linear response parameters
   LEPSILON=     F    determine dielectric tensor
   LRPA    =     F    only Hartree local field effects (RPA)
   LNABLA  =     F    use nabla operator in PAW spheres
   LVEL    =     F    velocity operator in full k-point grid
   LINTERFAST=   F  fast interpolation
   KINTER  =     0    interpolate to denser k-point grid
   CSHIFT  =0.1000    complex shift for real part using Kramers Kronig
   OMEGAMAX=  -1.0    maximum frequency
   DEG_THRESHOLD= 0.2000000E-02 threshold for treating states as degnerate
   RTIME   =    0.100 relaxation time in fs

 Orbital magnetization related:
   ORBITALMAG=     F  switch on orbital magnetization
   LCHIMAG   =     F  perturbation theory with respect to B field
   DQ        =  0.001000  dq finite difference perturbation B field



--------------------------------------------------------------------------------------------------------


 conjugate gradient relaxation of ions
 charge density and potential will be updated during run
 spin polarized calculation
 Variant of blocked Davidson
 Davidson routine will perform the subspace rotation
 perform sub-space diagonalisation
    after iterative eigenvector-optimisation
 modified Broyden-mixing scheme, WC =      100.0
 initial mixing is a Kerker type mixing with AMIX =  0.4000 and BMIX =      1.0000
 Hartree-type preconditioning will be used
 using additional bands           22
 reciprocal scheme for non local part
 use partial core corrections
 calculate Harris-corrections to forces 
   (improved forces if not selfconsistent)
 use gradient corrections 
 use of overlap-Matrix (Vanderbilt PP)
 Gauss-broadening in eV      SIGMA  =   0.00


--------------------------------------------------------------------------------------------------------


  energy-cutoff  :      295.45
  volume of cell :     6573.97
      direct lattice vectors                 reciprocal lattice vectors
    18.733083391  0.000000000  0.000000000     0.053381495  0.000000000  0.000000000
     0.000000000 18.733083391  0.000000000     0.000000000  0.053381495  0.000000000
     0.000000000  0.000000000 18.733083391     0.000000000  0.000000000  0.053381495

  length of vectors
    18.733083391 18.733083391 18.733083391     0.053381495  0.053381495  0.053381495


 
 k-points in units of 2pi/SCALE and weight: Gamma-point only                        
   0.00000000  0.00000000  0.00000000       1.000
 
 k-points in reciprocal lattice and weights: Gamma-point only                        
   0.00000000  0.00000000  0.00000000       1.000
 
 position of ions in fractional coordinates (direct lattice) 
   0.40807516  0.38394006  0.38637141
   0.33619089  0.49395593  0.45127821
   0.52261598  0.42388400  0.36485002
   0.37841778  0.53911634  0.56048128
   0.53616229  0.51686092  0.44049953
   0.54075239  0.39147572  0.48332286
   0.49527279  0.53480406  0.55734260
   0.43195450  0.50496510  0.36773788
   0.43425131  0.32375980  0.49203403
   0.50609846  0.30781837  0.40115499
   0.43192335  0.57927259  0.46160236
   0.43610695  0.45266822  0.49062268
 
 position of ions in cartesian coordinates  (Angst):
   7.64450605  7.19238124  7.23792777
   6.29789198  9.25331769  8.45383229
   9.79020865  7.94065425  6.83476590
   7.08893176 10.09931140 10.49954258
  10.04397297  9.68239865  8.25191445
  10.12995966  7.33354736  9.05412743
   9.27798641 10.01852909 10.44074541
   8.09183969  9.45955328  6.88886430
   8.13486599  6.06501935  9.21731450
   9.48078466  5.76638723  7.51486986
   8.09125613 10.85156181  8.64723548
   8.16962795  8.47987148  9.19087553
 


--------------------------------------------------------------------------------------------------------


 use parallel FFT for wavefunctions z direction half grid
 k-point  1 :   0.0000 0.0000 0.0000  plane waves:   37963

 maximum and minimum number of plane-waves per node :      4755     4742

 maximum number of plane-waves:     37963
 maximum index in each direction: 
   IXMAX=   26   IYMAX=   26   IZMAX=   26
   IXMIN=  -26   IYMIN=  -26   IZMIN=    0

 WARNING: aliasing errors must be expected set NGX to 106 to avoid them
 WARNING: aliasing errors must be expected set NGY to 106 to avoid them
 WARNING: aliasing errors must be expected set NGZ to 106 to avoid them
 aliasing errors are usually negligible using standard VASP settings
 and one can safely disregard these warnings

 parallel 3D FFT for wavefunctions:
    minimum data exchange during FFTs selected (reduces bandwidth)
 parallel 3D FFT for charge:
    minimum data exchange during FFTs selected (reduces bandwidth)


 total amount of memory used by VASP on root node    55215. kBytes
========================================================================

   base      :      30000. kBytes
   nonl-proj :       1598. kBytes
   fftplans  :       5775. kBytes
   grid      :      14451. kBytes
   one-center:         31. kBytes
   wavefun   :       3360. kBytes
 
     INWAV:  cpu time    0.00: real time    0.00
 Broyden mixing: mesh for mixing (old mesh)
   NGX = 53   NGY = 53   NGZ = 53
  (NGX  =160   NGY  =160   NGZ  =160)
  gives a total of 148877 points

 initial charge density was supplied:
 charge density of overlapping atoms calculated
 number of electron     132.0000000 magnetization      12.0000000
 keeping initial charge density in first step


--------------------------------------------------------------------------------------------------------


 Maximum index for augmentation-charges          198 (set IRDMAX)


--------------------------------------------------------------------------------------------------------


 First call to EWALD:  gamma=   0.095
 Maximum number of real-space cells 3x 3x 3
 Maximum number of reciprocal cells 3x 3x 3

 FEWALD executed in parallel
    FEWALD:  cpu time    0.00: real time    0.00


----------------------------------------- Iteration    1(   1)  ---------------------------------------


    POTLOK:  cpu time    0.23: real time    0.23
    SETDIJ:  cpu time    0.01: real time    0.01
     EDDAV:  cpu time    0.88: real time    0.88
       DOS:  cpu time    0.00: real time    0.00
    --------------------------------------------
      LOOP:  cpu time    1.12: real time    1.14

 eigenvalue-minimisations  :   352
 total energy-change (2. order) : 0.8786415E+03  (-0.2473114E+04)
 number of electron     132.0000000 magnetization      12.0000000
 augmentation part      132.0000000 magnetization      12.0000000

 Free energy of the ion-electron system (eV)
  ---------------------------------------------------
  alpha Z        PSCENC =        16.01942473
  Ewald energy   TEWEN  =     20040.70583669
  -Hartree energ DENC   =    -35212.91845550
  -exchange      EXHF   =         0.00000000
  -V(xc)+E(xc)   XCENC  =       542.53078839
  PAW double counting   =     14737.16995259   -16007.05117830
  entropy T*S    EENTRO =         0.00000000
  eigenvalues    EBANDS =        70.95809485
  atomic energy  EATOM  =     16691.22701589
  ---------------------------------------------------
  free energy    TOTEN  =       878.64147935 eV

  energy without entropy =      878.64147935  energy(sigma->0) =      878.64147935


--------------------------------------------------------------------------------------------------------




----------------------------------------- Iteration    1(   2)  ---------------------------------------


     EDDAV:  cpu time    0.91: real time    0.91
       DOS:  cpu time    0.00: real time    0.00
    --------------------------------------------
      LOOP:  cpu time    0.92: real time    0.92

 eigenvalue-minimisations  :   368
 total energy-change (2. order) :-0.7714963E+03  (-0.7025251E+03)
 number of electron     132.0000000 magnetization      12.0000000
 augmentation part      132.0000000 magnetization      12.0000000

 Free energy of the ion-electron system (eV)
  ---------------------------------------------------
  alpha Z        PSCENC =        16.01942473
  Ewald energy   TEWEN  =     20040.70583669
  -Hartree energ DENC   =    -35212.91845550
  -exchange      EXHF   =         0.00000000
  -V(xc)+E(xc)   XCENC  =       542.53078839
  PAW double counting   =     14737.16995259   -16007.05117830
  entropy T*S    EENTRO =         0.00000000
  eigenvalues    EBANDS =      -700.53815527
  atomic energy  EATOM  =     16691.22701589
  ---------------------------------------------------
  free energy    TOTEN  =       107.14522923 eV

  energy without entropy =      107.14522923  energy(sigma->0) =      107.14522923


--------------------------------------------------------------------------------------------------------




----------------------------------------- Iteration    1(   3)  ---------------------------------------


     EDDAV:  cpu time    1.03: real time    1.03
       DOS:  cpu time    0.00: real time    0.00
    --------------------------------------------
      LOOP:  cpu time    1.03: real time    1.04

 eigenvalue-minimisations  :   424
 total energy-change (2. order) :-0.1260994E+03  (-0.1191738E+03)
 number of electron     132.0000000 magnetization      12.0000000
 augmentation part      132.0000000 magnetization      12.0000000

 Free energy of the ion-electron system (eV)
  ---------------------------------------------------
  alpha Z        PSCENC =        16.01942473
  Ewald energy   TEWEN  =     20040.70583669
  -Hartree energ DENC   =    -35212.91845550
  -exchange      EXHF   =         0.00000000
  -V(xc)+E(xc)   XCENC  =       542.53078839
  PAW double counting   =     14737.16995259   -16007.05117830
  entropy T*S    EENTRO =         0.00000000
  eigenvalues    EBANDS =      -826.63758773
  atomic energy  EATOM  =     16691.22701589
  ---------------------------------------------------
  free energy    TOTEN  =       -18.95420323 eV

  energy without entropy =      -18.95420323  energy(sigma->0) =      -18.95420323


--------------------------------------------------------------------------------------------------------




----------------------------------------- Iteration    1(   4)  ---------------------------------------


     EDDAV:  cpu time    1.00: real time    1.00
       DOS:  cpu time    0.00: real time    0.00
    --------------------------------------------
      LOOP:  cpu time    1.00: real time    1.01

 eigenvalue-minimisations  :   408
 total energy-change (2. order) :-0.1327687E+02  (-0.1258763E+02)
 number of electron     132.0000000 magnetization      12.0000000
 augmentation part      132.0000000 magnetization      12.0000000

 Free energy of the ion-electron system (eV)
  ---------------------------------------------------
  alpha Z        PSCENC =        16.01942473
  Ewald energy   TEWEN  =     20040.70583669
  -Hartree energ DENC   =    -35212.91845550
  -exchange      EXHF   =         0.00000000
  -V(xc)+E(xc)   XCENC  =       542.53078839
  PAW double counting   =     14737.16995259   -16007.05117830
  entropy T*S    EENTRO =         0.00000000
  eigenvalues    EBANDS =      -839.91445725
  atomic energy  EATOM  =     16691.22701589
  ---------------------------------------------------
  free energy    TOTEN  =       -32.23107275 eV

  energy without entropy =      -32.23107275  energy(sigma->0) =      -32.23107275


--------------------------------------------------------------------------------------------------------




----------------------------------------- Iteration    1(   5)  ---------------------------------------


     EDDAV:  cpu time    0.96: real time    0.96
       DOS:  cpu time    0.00: real time    0.00
    CHARGE:  cpu time    0.05: real time    0.06
    MIXING:  cpu time    0.01: real time    0.01
    --------------------------------------------
      LOOP:  cpu time    1.03: real time    1.22

 eigenvalue-minimisations  :   400
 total energy-change (2. order) :-0.3907060E+00  (-0.3899931E+00)
 number of electron     131.9999895 magnetization      10.3820603
 augmentation part       80.5619289 magnetization       9.8005605

 Broyden mixing:
  rms(total) = 0.27430E+01    rms(broyden)= 0.27425E+01
  rms(prec ) = 0.28556E+01
  weight for this iteration     100.00

 Free energy of the ion-electron system (eV)
  ---------------------------------------------------
  alpha Z        PSCENC =        16.01942473
  Ewald energy   TEWEN  =     20040.70583669
  -Hartree energ DENC   =    -35212.91845550
  -exchange      EXHF   =         0.00000000
  -V(xc)+E(xc)   XCENC  =       542.53078839
  PAW double counting   =     14737.16995259   -16007.05117830
  entropy T*S    EENTRO =        -0.00000000
  eigenvalues    EBANDS =      -840.30516324
  atomic energy  EATOM  =     16691.22701589
  ---------------------------------------------------
  free energy    TOTEN  =       -32.62177874 eV

  energy without entropy =      -32.62177874  energy(sigma->0) =      -32.62177874


--------------------------------------------------------------------------------------------------------




----------------------------------------- Iteration    1(   6)  ---------------------------------------


    POTLOK:  cpu time    0.23: real time    0.22
    SETDIJ:  cpu time    0.00: real time    0.01
     EDDAV:  cpu time    0.93: real time    0.93
       DOS:  cpu time    0.00: real time    0.00
    CHARGE:  cpu time    0.05: real time    0.05
    MIXING:  cpu time    0.01: real time    0.01
    --------------------------------------------
      LOOP:  cpu time    1.22: real time    1.94

 eigenvalue-minimisations  :   368
 total energy-change (2. order) : 0.1815346E+02  (-0.1053587E+02)
 number of electron     131.9999899 magnetization       9.5838161
 augmentation part       87.0094665 magnetization       4.7207386

 Broyden mixing:
  rms(total) = 0.10259E+01    rms(broyden)= 0.10251E+01
  rms(prec ) = 0.11314E+01
  weight for this iteration     100.00

 eigenvalues of (default mixing * dielectric matrix)
  average eigenvalue GAMMA=   0.8410
  0.8410

 Free energy of the ion-electron system (eV)
  ---------------------------------------------------
  alpha Z        PSCENC =        16.01942473
  Ewald energy   TEWEN  =     20040.70583669
  -Hartree energ DENC   =    -35024.35872622
  -exchange      EXHF   =         0.00000000
  -V(xc)+E(xc)   XCENC  =       542.42447418
  PAW double counting   =     15123.18616956   -16357.05407632
  entropy T*S    EENTRO =         0.00000000
  eigenvalues    EBANDS =     -1046.61843351
  atomic energy  EATOM  =     16691.22701589
  ---------------------------------------------------
  free energy    TOTEN  =       -14.46831498 eV

  energy without entropy =      -14.46831498  energy(sigma->0) =      -14.46831498


--------------------------------------------------------------------------------------------------------




----------------------------------------- Iteration    1(   7)  ---------------------------------------


    POTLOK:  cpu time    0.22: real time    0.23
    SETDIJ:  cpu time    0.01: real time    0.01
     EDDAV:  cpu time    1.04: real time    1.04
       DOS:  cpu time    0.00: real time    0.00
    CHARGE:  cpu time    0.06: real time    0.05
    MIXING:  cpu time    0.00: real time    0.01
    --------------------------------------------
      LOOP:  cpu time    1.34: real time    1.34

 eigenvalue-minimisations  :   432
 total energy-change (2. order) : 0.2743530E+01  (-0.2565260E+01)
 number of electron     131.9999894 magnetization       8.6689591
 augmentation part       84.4780745 magnetization       3.8569961

 Broyden mixing:
  rms(total) = 0.45725E+00    rms(broyden)= 0.45696E+00
  rms(prec ) = 0.49007E+00
  weight for this iteration     100.00

 eigenvalues of (default mixing * dielectric matrix)
  average eigenvalue GAMMA=   0.8355
  0.6438  1.0272

 Free energy of the ion-electron system (eV)
  ---------------------------------------------------
  alpha Z        PSCENC =        16.01942473
  Ewald energy   TEWEN  =     20040.70583669
  -Hartree energ DENC   =    -35163.89152390
  -exchange      EXHF   =         0.00000000
  -V(xc)+E(xc)   XCENC  =       547.51582032
  PAW double counting   =     15479.60596456   -16762.16820551
  entropy T*S    EENTRO =         0.00000000
  eigenvalues    EBANDS =      -860.73911789
  atomic energy  EATOM  =     16691.22701589
  ---------------------------------------------------
  free energy    TOTEN  =       -11.72478510 eV

  energy without entropy =      -11.72478510  energy(sigma->0) =      -11.72478510


--------------------------------------------------------------------------------------------------------




----------------------------------------- Iteration    1(   8)  ---------------------------------------


    POTLOK:  cpu time    0.23: real time    0.23
    SETDIJ:  cpu time    0.00: real time    0.01
     EDDAV:  cpu time    1.08: real time    1.08
       DOS:  cpu time    0.00: real time    0.00
    CHARGE:  cpu time    0.06: real time    0.05
    MIXING:  cpu time    0.00: real time    0.01
    --------------------------------------------
      LOOP:  cpu time    1.38: real time    1.38

 eigenvalue-minimisations  :   448
 total energy-change (2. order) : 0.4751839E+00  (-0.5076893E+00)
 number of electron     131.9999899 magnetization       8.0659676
 augmentation part       84.2435971 magnetization       3.2224655

 Broyden mixing:
  rms(total) = 0.38868E+00    rms(broyden)= 0.38855E+00
  rms(prec ) = 0.41755E+00
  weight for this iteration     100.00

 eigenvalues of (default mixing * dielectric matrix)
  average eigenvalue GAMMA=   0.7940
  1.1718  0.6051  0.6051

 Free energy of the ion-electron system (eV)
  ---------------------------------------------------
  alpha Z        PSCENC =        16.01942473
  Ewald energy   TEWEN  =     20040.70583669
  -Hartree energ DENC   =    -35183.74848842
  -exchange      EXHF   =         0.00000000
  -V(xc)+E(xc)   XCENC  =       547.48791218
  PAW double counting   =     15726.64714645   -17018.65474727
  entropy T*S    EENTRO =         0.00000000
  eigenvalues    EBANDS =      -830.93370145
  atomic energy  EATOM  =     16691.22701589
  ---------------------------------------------------
  free energy    TOTEN  =       -11.24960119 eV

  energy without entropy =      -11.24960119  energy(sigma->0) =      -11.24960119


--------------------------------------------------------------------------------------------------------




----------------------------------------- Iteration    1(   9)  ---------------------------------------


    POTLOK:  cpu time    0.22: real time    0.23
    SETDIJ:  cpu time    0.01: real time    0.01
     EDDAV:  cpu time    1.12: real time    1.12
       DOS:  cpu time    0.00: real time    0.00
    CHARGE:  cpu time    0.06: real time    0.05
    MIXING:  cpu time    0.01: real time    0.01
    --------------------------------------------
      LOOP:  cpu time    1.41: real time    1.42

 eigenvalue-minimisations  :   472
 total energy-change (2. order) :-0.1070926E+01  (-0.1060869E+00)
 number of electron     131.9999897 magnetization       6.9247619
 augmentation part       84.2470355 magnetization       2.1489919

 Broyden mixing:
  rms(total) = 0.22984E+00    rms(broyden)= 0.22978E+00
  rms(prec ) = 0.24125E+00
  weight for this iteration     100.00

 eigenvalues of (default mixing * dielectric matrix)
  average eigenvalue GAMMA=   0.9901
  0.4656  0.7571  1.3688  1.3688

 Free energy of the ion-electron system (eV)
  ---------------------------------------------------
  alpha Z        PSCENC =        16.01942473
  Ewald energy   TEWEN  =     20040.70583669
  -Hartree energ DENC   =    -35187.23925064
  -exchange      EXHF   =         0.00000000
  -V(xc)+E(xc)   XCENC  =       546.06445551
  PAW double counting   =     15834.24726063   -17128.47866922
  entropy T*S    EENTRO =         0.00000000
  eigenvalues    EBANDS =      -824.86660084
  atomic energy  EATOM  =     16691.22701589
  ---------------------------------------------------
  free energy    TOTEN  =       -12.32052724 eV

  energy without entropy =      -12.32052724  energy(sigma->0) =      -12.32052724


--------------------------------------------------------------------------------------------------------




----------------------------------------- Iteration    1(  10)  ---------------------------------------


    POTLOK:  cpu time    0.23: real time    0.23
    SETDIJ:  cpu time    0.01: real time    0.01
     EDDAV:  cpu time    1.01: real time    1.01
       DOS:  cpu time    0.00: real time    0.00
    CHARGE:  cpu time    0.06: real time    0.05
    MIXING:  cpu time    0.01: real time    0.01
    --------------------------------------------
      LOOP:  cpu time    1.31: real time    1.31

 eigenvalue-minimisations  :   416
 total energy-change (2. order) :-0.4994103E+01  (-0.2578284E+00)
 number of electron     131.9999893 magnetization       6.7875345
 augmentation part       84.6716509 magnetization       4.0391764

 Broyden mixing:
  rms(total) = 0.29516E+00    rms(broyden)= 0.29406E+00
  rms(prec ) = 0.31917E+00
  weight for this iteration     100.00

 eigenvalues of (default mixing * dielectric matrix)
  average eigenvalue GAMMA=   0.8427
  1.3946  1.3946  0.7601  0.4570  0.2071

 Free energy of the ion-electron system (eV)
  ---------------------------------------------------
  alpha Z        PSCENC =        16.01942473
  Ewald energy   TEWEN  =     20040.70583669
  -Hartree energ DENC   =    -35178.43390031
  -exchange      EXHF   =         0.00000000
  -V(xc)+E(xc)   XCENC  =       541.39796398
  PAW double counting   =     15928.56021247   -17221.05170777
  entropy T*S    EENTRO =         0.00000000
  eigenvalues    EBANDS =      -835.73947636
  atomic energy  EATOM  =     16691.22701589
  ---------------------------------------------------
  free energy    TOTEN  =       -17.31463066 eV

  energy without entropy =      -17.31463066  energy(sigma->0) =      -17.31463066


--------------------------------------------------------------------------------------------------------




----------------------------------------- Iteration    1(  11)  ---------------------------------------


    POTLOK:  cpu time    0.22: real time    0.23
    SETDIJ:  cpu time    0.01: real time    0.01
     EDDAV:  cpu time    1.16: real time    1.16
       DOS:  cpu time    0.00: real time    0.00
    CHARGE:  cpu time    0.05: real time    0.05
    MIXING:  cpu time    0.01: real time    0.01
    --------------------------------------------
      LOOP:  cpu time    1.46: real time    1.47

 eigenvalue-minimisations  :   496
 total energy-change (2. order) : 0.2226902E+00  (-0.1419219E-01)
 number of electron     131.9999894 magnetization       6.7824007
 augmentation part       84.6777846 magnetization       4.0544317

 Broyden mixing:
  rms(total) = 0.26921E+00    rms(broyden)= 0.26916E+00
  rms(prec ) = 0.29126E+00
  weight for this iteration     100.00

 eigenvalues of (default mixing * dielectric matrix)
  average eigenvalue GAMMA=   0.7813
  1.3956  1.3956  0.7504  0.4631  0.3414  0.3414

 Free energy of the ion-electron system (eV)
  ---------------------------------------------------
  alpha Z        PSCENC =        16.01942473
  Ewald energy   TEWEN  =     20040.70583669
  -Hartree energ DENC   =    -35180.86216427
  -exchange      EXHF   =         0.00000000
  -V(xc)+E(xc)   XCENC  =       541.66181949
  PAW double counting   =     15939.66700974   -17232.77388559
  entropy T*S    EENTRO =         0.00000000
  eigenvalues    EBANDS =      -832.73699713
  atomic energy  EATOM  =     16691.22701589
  ---------------------------------------------------
  free energy    TOTEN  =       -17.09194044 eV

  energy without entropy =      -17.09194044  energy(sigma->0) =      -17.09194044


--------------------------------------------------------------------------------------------------------




----------------------------------------- Iteration    1(  12)  ---------------------------------------


    POTLOK:  cpu time    0.22: real time    0.23
    SETDIJ:  cpu time    0.01: real time    0.01
     EDDAV:  cpu time    1.01: real time    1.01
       DOS:  cpu time    0.00: real time    0.00
    CHARGE:  cpu time    0.06: real time    0.05
    MIXING:  cpu time    0.01: real time    0.01
    --------------------------------------------
      LOOP:  cpu time    1.31: real time    1.31

 eigenvalue-minimisations  :   416
 total energy-change (2. order) : 0.4130752E-01  (-0.1342759E-02)
 number of electron     131.9999894 magnetization       6.7496219
 augmentation part       84.6870537 magnetization       4.0241276

 Broyden mixing:
  rms(total) = 0.26945E+00    rms(broyden)= 0.26944E+00
  rms(prec ) = 0.29149E+00
  weight for this iteration     100.00

 eigenvalues of (default mixing * dielectric matrix)
  average eigenvalue GAMMA=   0.6792
  1.3922  1.3922  0.7453  0.4638  0.3625  0.3625  0.0362

 Free energy of the ion-electron system (eV)
  ---------------------------------------------------
  alpha Z        PSCENC =        16.01942473
  Ewald energy   TEWEN  =     20040.70583669
  -Hartree energ DENC   =    -35180.95692823
  -exchange      EXHF   =         0.00000000
  -V(xc)+E(xc)   XCENC  =       541.70940773
  PAW double counting   =     15939.76822968   -17232.89871530
  entropy T*S    EENTRO =         0.00000000
  eigenvalues    EBANDS =      -832.62490412
  atomic energy  EATOM  =     16691.22701589
  ---------------------------------------------------
  free energy    TOTEN  =       -17.05063292 eV

  energy without entropy =      -17.05063292  energy(sigma->0) =      -17.05063292


--------------------------------------------------------------------------------------------------------




----------------------------------------- Iteration    1(  13)  ---------------------------------------


    POTLOK:  cpu time    0.23: real time    0.23
    SETDIJ:  cpu time    0.00: real time    0.01
     EDDAV:  cpu time    1.17: real time    1.17
       DOS:  cpu time    0.00: real time    0.00
    CHARGE:  cpu time    0.05: real time    0.05
    MIXING:  cpu time    0.01: real time    0.01
    --------------------------------------------
      LOOP:  cpu time    1.46: real time    1.47

 eigenvalue-minimisations  :   496
 total energy-change (2. order) :-0.3500838E-01  (-0.4052223E-03)
 number of electron     131.9999894 magnetization       6.0044666
 augmentation part       84.6688794 magnetization       3.2844057

 Broyden mixing:
  rms(total) = 0.26365E+00    rms(broyden)= 0.26365E+00
  rms(prec ) = 0.28480E+00
  weight for this iteration     100.00

 eigenvalues of (default mixing * dielectric matrix)
  average eigenvalue GAMMA=   0.8324
  1.5639  1.5639  0.9064  0.9064  0.7274  0.4590  0.3446  0.1875

 Free energy of the ion-electron system (eV)
  ---------------------------------------------------
  alpha Z        PSCENC =        16.01942473
  Ewald energy   TEWEN  =     20040.70583669
  -Hartree energ DENC   =    -35181.84586083
  -exchange      EXHF   =         0.00000000
  -V(xc)+E(xc)   XCENC  =       541.72257935
  PAW double counting   =     15939.84417742   -17233.32053480
  entropy T*S    EENTRO =         0.00000000
  eigenvalues    EBANDS =      -831.43827977
  atomic energy  EATOM  =     16691.22701589
  ---------------------------------------------------
  free energy    TOTEN  =       -17.08564130 eV

  energy without entropy =      -17.08564130  energy(sigma->0) =      -17.08564130


--------------------------------------------------------------------------------------------------------




----------------------------------------- Iteration    1(  14)  ---------------------------------------


    POTLOK:  cpu time    0.22: real time    0.23
    SETDIJ:  cpu time    0.01: real time    0.01
     EDDAV:  cpu time    1.07: real time    1.07
       DOS:  cpu time    0.00: real time    0.00
    CHARGE:  cpu time    0.05: real time    0.05
    MIXING:  cpu time    0.01: real time    0.01
    --------------------------------------------
      LOOP:  cpu time    1.37: real time    1.39

 eigenvalue-minimisations  :   448
 total energy-change (2. order) :-0.1930200E+01  (-0.8765536E-01)
 number of electron     131.9999894 magnetization       4.5597374
 augmentation part       84.4320831 magnetization       1.9814780

 Broyden mixing:
  rms(total) = 0.21103E+00    rms(broyden)= 0.21102E+00
  rms(prec ) = 0.22620E+00
  weight for this iteration     100.00

 eigenvalues of (default mixing * dielectric matrix)
  average eigenvalue GAMMA=   0.9313
  2.0396  2.0396  0.9713  0.9713  0.7607  0.5237  0.4483  0.4483  0.1786

 Free energy of the ion-electron system (eV)
  ---------------------------------------------------
  alpha Z        PSCENC =        16.01942473
  Ewald energy   TEWEN  =     20040.70583669
  -Hartree energ DENC   =    -35190.58223293
  -exchange      EXHF   =         0.00000000
  -V(xc)+E(xc)   XCENC  =       540.66265605
  PAW double counting   =     15933.44627366   -17230.92120378
  entropy T*S    EENTRO =         0.00000000
  eigenvalues    EBANDS =      -819.57361188
  atomic energy  EATOM  =     16691.22701589
  ---------------------------------------------------
  free energy    TOTEN  =       -19.01584156 eV

  energy without entropy =      -19.01584156  energy(sigma->0) =      -19.01584156


--------------------------------------------------------------------------------------------------------




----------------------------------------- Iteration    1(  15)  ---------------------------------------


    POTLOK:  cpu time    0.23: real time    0.23
    SETDIJ:  cpu time    0.00: real time    0.01
     EDDAV:  cpu time    1.22: real time    1.22
       DOS:  cpu time    0.00: real time    0.00
    CHARGE:  cpu time    0.06: real time    0.05
    MIXING:  cpu time    0.01: real time    0.01
    --------------------------------------------
      LOOP:  cpu time    1.52: real time    1.53

 eigenvalue-minimisations  :   528
 total energy-change (2. order) :-0.3831576E+01  (-0.2090510E+00)
 number of electron     131.9999894 magnetization       3.9180105
 augmentation part       84.3176729 magnetization       1.6430741

 Broyden mixing:
  rms(total) = 0.22739E+00    rms(broyden)= 0.22735E+00
  rms(prec ) = 0.24051E+00
  weight for this iteration     100.00

 eigenvalues of (default mixing * dielectric matrix)
  average eigenvalue GAMMA=   0.9793
  2.3066  2.3066  1.0649  1.0649  0.7167  0.7167  0.5812  0.4502  0.4066  0.1781

 Free energy of the ion-electron system (eV)
  ---------------------------------------------------
  alpha Z        PSCENC =        16.01942473
  Ewald energy   TEWEN  =     20040.70583669
  -Hartree energ DENC   =    -35189.94527647
  -exchange      EXHF   =         0.00000000
  -V(xc)+E(xc)   XCENC  =       537.67386955
  PAW double counting   =     15913.36597166   -17212.91520814
  entropy T*S    EENTRO =         0.00000000
  eigenvalues    EBANDS =      -818.97905174
  atomic energy  EATOM  =     16691.22701589
  ---------------------------------------------------
  free energy    TOTEN  =       -22.84741782 eV

  energy without entropy =      -22.84741782  energy(sigma->0) =      -22.84741782


--------------------------------------------------------------------------------------------------------




----------------------------------------- Iteration    1(  16)  ---------------------------------------


    POTLOK:  cpu time    0.22: real time    0.23
    SETDIJ:  cpu time    0.01: real time    0.01
     EDDAV:  cpu time    1.06: real time    1.06
       DOS:  cpu time    0.00: real time    0.00
    CHARGE:  cpu time    0.05: real time    0.05
    MIXING:  cpu time    0.01: real time    0.01
    --------------------------------------------
      LOOP:  cpu time    1.36: real time    1.36

 eigenvalue-minimisations  :   440
 total energy-change (2. order) :-0.1833718E+01  (-0.6801879E-01)
 number of electron     131.9999896 magnetization       3.4178779
 augmentation part       84.3172717 magnetization       1.3052080

 Broyden mixing:
  rms(total) = 0.18558E+00    rms(broyden)= 0.18557E+00
  rms(prec ) = 0.19600E+00
  weight for this iteration     100.00

 eigenvalues of (default mixing * dielectric matrix)
  average eigenvalue GAMMA=   1.0275
  2.7046  2.7046  1.0044  1.0044  0.8851  0.8851  0.6296  0.4581  0.4581  0.3901
  0.1785

 Free energy of the ion-electron system (eV)
  ---------------------------------------------------
  alpha Z        PSCENC =        16.01942473
  Ewald energy   TEWEN  =     20040.70583669
  -Hartree energ DENC   =    -35186.69625318
  -exchange      EXHF   =         0.00000000
  -V(xc)+E(xc)   XCENC  =       536.02523818
  PAW double counting   =     15900.35179247   -17199.25811933
  entropy T*S    EENTRO =         0.00000000
  eigenvalues    EBANDS =      -823.05607088
  atomic energy  EATOM  =     16691.22701589
  ---------------------------------------------------
  free energy    TOTEN  =       -24.68113542 eV

  energy without entropy =      -24.68113542  energy(sigma->0) =      -24.68113542


--------------------------------------------------------------------------------------------------------




----------------------------------------- Iteration    1(  17)  ---------------------------------------


    POTLOK:  cpu time    0.23: real time    0.23
    SETDIJ:  cpu time    0.00: real time    0.01
     EDDAV:  cpu time    1.12: real time    1.12
       DOS:  cpu time    0.00: real time    0.00
    CHARGE:  cpu time    0.06: real time    0.05
    MIXING:  cpu time    0.01: real time    0.01
    --------------------------------------------
      LOOP:  cpu time    1.42: real time    1.42

 eigenvalue-minimisations  :   472
 total energy-change (2. order) :-0.1209540E+01  (-0.3391492E-01)
 number of electron     131.9999895 magnetization       2.8036778
 augmentation part       84.3396789 magnetization       0.7961084

 Broyden mixing:
  rms(total) = 0.14226E+00    rms(broyden)= 0.14226E+00
  rms(prec ) = 0.14956E+00
  weight for this iteration     100.00

 eigenvalues of (default mixing * dielectric matrix)
  average eigenvalue GAMMA=   1.1061
  3.6581  2.6625  1.0501  1.0501  1.0416  1.0416  0.6933  0.6119  0.4435  0.4435
  0.3984  0.1784

 Free energy of the ion-electron system (eV)
  ---------------------------------------------------
  alpha Z        PSCENC =        16.01942473
  Ewald energy   TEWEN  =     20040.70583669
  -Hartree energ DENC   =    -35183.12437081
  -exchange      EXHF   =         0.00000000
  -V(xc)+E(xc)   XCENC  =       534.90731166
  PAW double counting   =     15884.66445841   -17182.69372041
  entropy T*S    EENTRO =         0.00000000
  eigenvalues    EBANDS =      -827.59663152
  atomic energy  EATOM  =     16691.22701589
  ---------------------------------------------------
  free energy    TOTEN  =       -25.89067534 eV

  energy without entropy =      -25.89067534  energy(sigma->0) =      -25.89067534


--------------------------------------------------------------------------------------------------------




----------------------------------------- Iteration    1(  18)  ---------------------------------------


    POTLOK:  cpu time    0.23: real time    0.23
    SETDIJ:  cpu time    0.00: real time    0.01
     EDDAV:  cpu time    1.04: real time    1.03
       DOS:  cpu time    0.00: real time    0.00
    CHARGE:  cpu time    0.06: real time    0.05
    MIXING:  cpu time    0.01: real time    0.01
    --------------------------------------------
      LOOP:  cpu time    1.33: real time    1.34

 eigenvalue-minimisations  :   424
 total energy-change (2. order) :-0.9535750E+00  (-0.1938387E-01)
 number of electron     131.9999896 magnetization       2.5111553
 augmentation part       84.3629123 magnetization       0.6021937

 Broyden mixing:
  rms(total) = 0.12398E+00    rms(broyden)= 0.12398E+00
  rms(prec ) = 0.13034E+00
  weight for this iteration     100.00

 eigenvalues of (default mixing * dielectric matrix)
  average eigenvalue GAMMA=   1.1306
  4.2842  1.9263  1.9263  1.0579  1.0579  0.8703  0.7821  0.7821  0.5386  0.4489
  0.4489  0.3965  0.1784

 Free energy of the ion-electron system (eV)
  ---------------------------------------------------
  alpha Z        PSCENC =        16.01942473
  Ewald energy   TEWEN  =     20040.70583669
  -Hartree energ DENC   =    -35179.07203538
  -exchange      EXHF   =         0.00000000
  -V(xc)+E(xc)   XCENC  =       534.00112069
  PAW double counting   =     15868.63203224   -17166.05535141
  entropy T*S    EENTRO =         0.00000000
  eigenvalues    EBANDS =      -832.30229381
  atomic energy  EATOM  =     16691.22701589
  ---------------------------------------------------
  free energy    TOTEN  =       -26.84425035 eV

  energy without entropy =      -26.84425035  energy(sigma->0) =      -26.84425035


--------------------------------------------------------------------------------------------------------




----------------------------------------- Iteration    1(  19)  ---------------------------------------


    POTLOK:  cpu time    0.22: real time    0.23
    SETDIJ:  cpu time    0.01: real time    0.01
     EDDAV:  cpu time    1.03: real time    1.03
       DOS:  cpu time    0.00: real time    0.00
    CHARGE:  cpu time    0.06: real time    0.05
    MIXING:  cpu time    0.01: real time    0.01
    --------------------------------------------
      LOOP:  cpu time    1.34: real time    1.34

 eigenvalue-minimisations  :   424
 total energy-change (2. order) :-0.4622441E+00  (-0.5281914E-02)
 number of electron     131.9999896 magnetization       2.2415052
 augmentation part       84.3467738 magnetization       0.3564558

 Broyden mixing:
  rms(total) = 0.96674E-01    rms(broyden)= 0.96671E-01
  rms(prec ) = 0.10215E+00
  weight for this iteration     100.00

 eigenvalues of (default mixing * dielectric matrix)
  average eigenvalue GAMMA=   1.2107
  5.2198  2.1403  2.1403  1.0086  1.0086  1.1183  0.8495  0.8495  0.6612  0.4749
  0.4509  0.4509  0.3981  0.1784

 Free energy of the ion-electron system (eV)
  ---------------------------------------------------
  alpha Z        PSCENC =        16.01942473
  Ewald energy   TEWEN  =     20040.70583669
  -Hartree energ DENC   =    -35178.81973231
  -exchange      EXHF   =         0.00000000
  -V(xc)+E(xc)   XCENC  =       533.56491364
  PAW double counting   =     15880.74413806   -17178.30319261
  entropy T*S    EENTRO =         0.00000000
  eigenvalues    EBANDS =      -832.44489858
  atomic energy  EATOM  =     16691.22701589
  ---------------------------------------------------
  free energy    TOTEN  =       -27.30649449 eV

  energy without entropy =      -27.30649449  energy(sigma->0) =      -27.30649449


--------------------------------------------------------------------------------------------------------




----------------------------------------- Iteration    1(  20)  ---------------------------------------


    POTLOK:  cpu time    0.23: real time    0.23
    SETDIJ:  cpu time    0.00: real time    0.01
     EDDAV:  cpu time    1.02: real time    1.02
       DOS:  cpu time    0.00: real time    0.00
    CHARGE:  cpu time    0.06: real time    0.05
    MIXING:  cpu time    0.01: real time    0.01
    --------------------------------------------
      LOOP:  cpu time    1.32: real time    1.32

 eigenvalue-minimisations  :   416
 total energy-change (2. order) :-0.4309121E+00  (-0.4956397E-02)
 number of electron     131.9999896 magnetization       2.1177617
 augmentation part       84.4006554 magnetization       0.2509936

 Broyden mixing:
  rms(total) = 0.51994E-01    rms(broyden)= 0.51988E-01
  rms(prec ) = 0.55008E-01
  weight for this iteration     100.00

 eigenvalues of (default mixing * dielectric matrix)
  average eigenvalue GAMMA=   1.2485
  5.5553  2.4926  2.4926  1.3173  1.0014  1.0014  0.8527  0.8527  0.6970  0.1784
  0.5290  0.4764  0.4454  0.4454  0.3907

 Free energy of the ion-electron system (eV)
  ---------------------------------------------------
  alpha Z        PSCENC =        16.01942473
  Ewald energy   TEWEN  =     20040.70583669
  -Hartree energ DENC   =    -35175.22341850
  -exchange      EXHF   =         0.00000000
  -V(xc)+E(xc)   XCENC  =       533.03173179
  PAW double counting   =     15887.56774183   -17184.11521564
  entropy T*S    EENTRO =         0.00000000
  eigenvalues    EBANDS =      -836.95052336
  atomic energy  EATOM  =     16691.22701589
  ---------------------------------------------------
  free energy    TOTEN  =       -27.73740657 eV

  energy without entropy =      -27.73740657  energy(sigma->0) =      -27.73740657


--------------------------------------------------------------------------------------------------------




----------------------------------------- Iteration    1(  21)  ---------------------------------------


    POTLOK:  cpu time    0.22: real time    0.23
    SETDIJ:  cpu time    0.01: real time    0.01
     EDDAV:  cpu time    1.02: real time    1.02
       DOS:  cpu time    0.00: real time    0.00
    CHARGE:  cpu time    0.06: real time    0.05
    MIXING:  cpu time    0.01: real time    0.01
    --------------------------------------------
      LOOP:  cpu time    1.32: real time    1.32

 eigenvalue-minimisations  :   416
 total energy-change (2. order) :-0.2111301E+00  (-0.3317450E-02)
 number of electron     131.9999896 magnetization       2.1014653
 augmentation part       84.4684972 magnetization       0.2389826

 Broyden mixing:
  rms(total) = 0.13690E-01    rms(broyden)= 0.13672E-01
  rms(prec ) = 0.14990E-01
  weight for this iteration     100.00

 eigenvalues of (default mixing * dielectric matrix)
  average eigenvalue GAMMA=   1.2773
  5.3285  2.9302  2.9302  1.5508  1.0136  1.0136  0.8997  0.8997  0.7423  0.7423
  0.1784  0.5206  0.4490  0.4490  0.3944  0.3944

 Free energy of the ion-electron system (eV)
  ---------------------------------------------------
  alpha Z        PSCENC =        16.01942473
  Ewald energy   TEWEN  =     20040.70583669
  -Hartree energ DENC   =    -35171.92704091
  -exchange      EXHF   =         0.00000000
  -V(xc)+E(xc)   XCENC  =       532.72640875
  PAW double counting   =     15893.13461695   -17188.51039645
  entropy T*S    EENTRO =         0.00000000
  eigenvalues    EBANDS =      -841.32440228
  atomic energy  EATOM  =     16691.22701589
  ---------------------------------------------------
  free energy    TOTEN  =       -27.94853663 eV

  energy without entropy =      -27.94853663  energy(sigma->0) =      -27.94853663


--------------------------------------------------------------------------------------------------------




----------------------------------------- Iteration    1(  22)  ---------------------------------------


    POTLOK:  cpu time    0.23: real time    0.23
    SETDIJ:  cpu time    0.01: real time    0.01
     EDDAV:  cpu time    1.03: real time    1.03
       DOS:  cpu time    0.00: real time    0.00
    CHARGE:  cpu time    0.06: real time    0.05
    MIXING:  cpu time    0.02: real time    0.01
    --------------------------------------------
      LOOP:  cpu time    1.34: real time    1.60

 eigenvalue-minimisations  :   424
 total energy-change (2. order) :-0.6570073E-01  (-0.8278255E-03)
 number of electron     131.9999896 magnetization       2.0512772
 augmentation part       84.4848147 magnetization       0.1839218

 Broyden mixing:
  rms(total) = 0.81856E-02    rms(broyden)= 0.81787E-02
  rms(prec ) = 0.92151E-02
  weight for this iteration     100.00

 eigenvalues of (default mixing * dielectric matrix)
  average eigenvalue GAMMA=   1.3007
  6.0862  2.7209  2.4180  2.4180  1.0131  1.0131  0.9140  0.9140  0.8069  0.8069
  0.1784  0.6271  0.5246  0.4459  0.4459  0.3985  0.3810

 Free energy of the ion-electron system (eV)
  ---------------------------------------------------
  alpha Z        PSCENC =        16.01942473
  Ewald energy   TEWEN  =     20040.70583669
  -Hartree energ DENC   =    -35171.08393755
  -exchange      EXHF   =         0.00000000
  -V(xc)+E(xc)   XCENC  =       532.66065022
  PAW double counting   =     15897.12645270   -17192.03853121
  entropy T*S    EENTRO =         0.00000000
  eigenvalues    EBANDS =      -842.63114884
  atomic energy  EATOM  =     16691.22701589
  ---------------------------------------------------
  free energy    TOTEN  =       -28.01423736 eV

  energy without entropy =      -28.01423736  energy(sigma->0) =      -28.01423736


--------------------------------------------------------------------------------------------------------




----------------------------------------- Iteration    1(  23)  ---------------------------------------


    POTLOK:  cpu time    0.23: real time    0.23
    SETDIJ:  cpu time    0.00: real time    0.01
     EDDAV:  cpu time    1.05: real time    1.05
       DOS:  cpu time    0.00: real time    0.00
    CHARGE:  cpu time    0.05: real time    0.05
    MIXING:  cpu time    0.01: real time    0.01
    --------------------------------------------
      LOOP:  cpu time    1.35: real time    1.35

 eigenvalue-minimisations  :   432
 total energy-change (2. order) :-0.2494598E-01  (-0.2346654E-03)
 number of electron     131.9999896 magnetization       2.0311410
 augmentation part       84.4885817 magnetization       0.1682897

 Broyden mixing:
  rms(total) = 0.77231E-02    rms(broyden)= 0.77218E-02
  rms(prec ) = 0.85274E-02
  weight for this iteration     100.00

 eigenvalues of (default mixing * dielectric matrix)
  average eigenvalue GAMMA=   1.2855
  6.1240  2.7330  2.4964  2.4964  1.0147  1.0147  1.1483  0.8788  0.8788  0.7635
  0.7159  0.1784  0.5740  0.4548  0.4548  0.4337  0.4022  0.3765

 Free energy of the ion-electron system (eV)
  ---------------------------------------------------
  alpha Z        PSCENC =        16.01942473
  Ewald energy   TEWEN  =     20040.70583669
  -Hartree energ DENC   =    -35170.29746239
  -exchange      EXHF   =         0.00000000
  -V(xc)+E(xc)   XCENC  =       532.63846203
  PAW double counting   =     15895.54516311   -17190.33952859
  entropy T*S    EENTRO =         0.00000000
  eigenvalues    EBANDS =      -843.53809482
  atomic energy  EATOM  =     16691.22701589
  ---------------------------------------------------
  free energy    TOTEN  =       -28.03918334 eV

  energy without entropy =      -28.03918334  energy(sigma->0) =      -28.03918334


--------------------------------------------------------------------------------------------------------




----------------------------------------- Iteration    1(  24)  ---------------------------------------


    POTLOK:  cpu time    0.22: real time    0.23
    SETDIJ:  cpu time    0.01: real time    0.01
     EDDAV:  cpu time    0.99: real time    0.99
       DOS:  cpu time    0.00: real time    0.00
    CHARGE:  cpu time    0.06: real time    0.05
    MIXING:  cpu time    0.02: real time    0.02
    --------------------------------------------
      LOOP:  cpu time    1.30: real time    1.30

 eigenvalue-minimisations  :   400
 total energy-change (2. order) :-0.6563932E-02  (-0.5828447E-04)
 number of electron     131.9999896 magnetization       2.0241753
 augmentation part       84.4843867 magnetization       0.1631234

 Broyden mixing:
  rms(total) = 0.53396E-02    rms(broyden)= 0.53392E-02
  rms(prec ) = 0.60132E-02
  weight for this iteration     100.00

 eigenvalues of (default mixing * dielectric matrix)
  average eigenvalue GAMMA=   1.2831
  6.0325  2.9170  2.4668  2.4668  1.6315  1.0131  1.0131  0.9255  0.9255  0.7583
  0.7583  0.6579  0.1784  0.5091  0.4448  0.4448  0.4587  0.3978  0.3796

 Free energy of the ion-electron system (eV)
  ---------------------------------------------------
  alpha Z        PSCENC =        16.01942473
  Ewald energy   TEWEN  =     20040.70583669
  -Hartree energ DENC   =    -35170.07575985
  -exchange      EXHF   =         0.00000000
  -V(xc)+E(xc)   XCENC  =       532.64052758
  PAW double counting   =     15895.38494504   -17190.27696997
  entropy T*S    EENTRO =         0.00000000
  eigenvalues    EBANDS =      -843.67076739
  atomic energy  EATOM  =     16691.22701589
  ---------------------------------------------------
  free energy    TOTEN  =       -28.04574728 eV

  energy without entropy =      -28.04574728  energy(sigma->0) =      -28.04574728


--------------------------------------------------------------------------------------------------------




----------------------------------------- Iteration    1(  25)  ---------------------------------------


    POTLOK:  cpu time    0.23: real time    0.23
    SETDIJ:  cpu time    0.00: real time    0.01
     EDDAV:  cpu time    0.74: real time    0.74
       DOS:  cpu time    0.00: real time    0.00
    CHARGE:  cpu time    0.05: real time    0.05
    MIXING:  cpu time    0.02: real time    0.02
    --------------------------------------------
      LOOP:  cpu time    1.04: real time    1.05

 eigenvalue-minimisations  :   264
 total energy-change (2. order) :-0.3881561E-02  (-0.3147941E-04)
 number of electron     131.9999896 magnetization       2.0149736
 augmentation part       84.4785732 magnetization       0.1533785

 Broyden mixing:
  rms(total) = 0.35173E-02    rms(broyden)= 0.35169E-02
  rms(prec ) = 0.40662E-02
  weight for this iteration     100.00

 eigenvalues of (default mixing * dielectric matrix)
  average eigenvalue GAMMA=   1.2876
  6.1891  2.7977  2.7977  2.4618  1.7156  1.0130  1.0130  1.1221  0.9071  0.9071
  0.7253  0.7253  0.1784  0.6125  0.4952  0.4471  0.4471  0.4236  0.3935  0.3797

 Free energy of the ion-electron system (eV)
  ---------------------------------------------------
  alpha Z        PSCENC =        16.01942473
  Ewald energy   TEWEN  =     20040.70583669
  -Hartree energ DENC   =    -35169.85343495
  -exchange      EXHF   =         0.00000000
  -V(xc)+E(xc)   XCENC  =       532.64161298
  PAW double counting   =     15896.96633263   -17191.98553055
  entropy T*S    EENTRO =         0.00000000
  eigenvalues    EBANDS =      -843.77088626
  atomic energy  EATOM  =     16691.22701589
  ---------------------------------------------------
  free energy    TOTEN  =       -28.04962884 eV

  energy without entropy =      -28.04962884  energy(sigma->0) =      -28.04962884


--------------------------------------------------------------------------------------------------------




----------------------------------------- Iteration    1(  26)  ---------------------------------------


    POTLOK:  cpu time    0.22: real time    0.23
    SETDIJ:  cpu time    0.01: real time    0.01
     EDDAV:  cpu time    0.78: real time    0.79
       DOS:  cpu time    0.00: real time    0.00
    CHARGE:  cpu time    0.06: real time    0.05
    MIXING:  cpu time    0.02: real time    0.02
    --------------------------------------------
      LOOP:  cpu time    1.09: real time    1.09

 eigenvalue-minimisations  :   288
 total energy-change (2. order) :-0.2448169E-02  (-0.2618515E-04)
 number of electron     131.9999896 magnetization       2.0155503
 augmentation part       84.4812814 magnetization       0.1544548

 Broyden mixing:
  rms(total) = 0.28451E-02    rms(broyden)= 0.28449E-02
  rms(prec ) = 0.32479E-02
  weight for this iteration     100.00

 eigenvalues of (default mixing * dielectric matrix)
  average eigenvalue GAMMA=   1.2935
  6.0561  3.5442  2.5046  2.5046  2.0134  1.0135  1.0135  1.1595  0.9187  0.9187
  0.7271  0.7271  0.7069  0.1784  0.6132  0.4918  0.4487  0.4487  0.4047  0.3850
  0.3850

 Free energy of the ion-electron system (eV)
  ---------------------------------------------------
  alpha Z        PSCENC =        16.01942473
  Ewald energy   TEWEN  =     20040.70583669
  -Hartree energ DENC   =    -35169.24078051
  -exchange      EXHF   =         0.00000000
  -V(xc)+E(xc)   XCENC  =       532.63046732
  PAW double counting   =     15896.85476642   -17191.85154738
  entropy T*S    EENTRO =         0.00000000
  eigenvalues    EBANDS =      -844.39726018
  atomic energy  EATOM  =     16691.22701589
  ---------------------------------------------------
  free energy    TOTEN  =       -28.05207701 eV

  energy without entropy =      -28.05207701  energy(sigma->0) =      -28.05207701


--------------------------------------------------------------------------------------------------------




----------------------------------------- Iteration    1(  27)  ---------------------------------------


    POTLOK:  cpu time    0.23: real time    0.23
    SETDIJ:  cpu time    0.00: real time    0.01
     EDDAV:  cpu time    0.74: real time    0.74
       DOS:  cpu time    0.00: real time    0.00
    CHARGE:  cpu time    0.06: real time    0.05
    MIXING:  cpu time    0.02: real time    0.02
    --------------------------------------------
      LOOP:  cpu time    1.05: real time    1.05

 eigenvalue-minimisations  :   264
 total energy-change (2. order) :-0.7433976E-03  (-0.1111916E-04)
 number of electron     131.9999896 magnetization       2.0117570
 augmentation part       84.4815952 magnetization       0.1502630

 Broyden mixing:
  rms(total) = 0.28860E-02    rms(broyden)= 0.28859E-02
  rms(prec ) = 0.31981E-02
  weight for this iteration     100.00

 eigenvalues of (default mixing * dielectric matrix)
  average eigenvalue GAMMA=   1.2854
  6.0166  3.7868  2.5803  2.5803  2.0757  1.0135  1.0135  1.1532  0.9922  0.9120
  0.9120  0.7184  0.6758  0.6758  0.1784  0.5039  0.4461  0.4461  0.4406  0.3993
  0.3798  0.3798

 Free energy of the ion-electron system (eV)
  ---------------------------------------------------
  alpha Z        PSCENC =        16.01942473
  Ewald energy   TEWEN  =     20040.70583669
  -Hartree energ DENC   =    -35168.80000596
  -exchange      EXHF   =         0.00000000
  -V(xc)+E(xc)   XCENC  =       532.62667246
  PAW double counting   =     15896.71638820   -17191.73386873
  entropy T*S    EENTRO =         0.00000000
  eigenvalues    EBANDS =      -844.81428368
  atomic energy  EATOM  =     16691.22701589
  ---------------------------------------------------
  free energy    TOTEN  =       -28.05282040 eV

  energy without entropy =      -28.05282040  energy(sigma->0) =      -28.05282040


--------------------------------------------------------------------------------------------------------




----------------------------------------- Iteration    1(  28)  ---------------------------------------


    POTLOK:  cpu time    0.22: real time    0.23
    SETDIJ:  cpu time    0.01: real time    0.01
     EDDAV:  cpu time    0.78: real time    0.77
       DOS:  cpu time    0.00: real time    0.00
    CHARGE:  cpu time    0.05: real time    0.05
    MIXING:  cpu time    0.02: real time    0.02
    --------------------------------------------
      LOOP:  cpu time    1.08: real time    1.09

 eigenvalue-minimisations  :   280
 total energy-change (2. order) :-0.3388566E-03  (-0.1134448E-04)
 number of electron     131.9999896 magnetization       2.0014207
 augmentation part       84.4803894 magnetization       0.1401770

 Broyden mixing:
  rms(total) = 0.17988E-02    rms(broyden)= 0.17986E-02
  rms(prec ) = 0.20507E-02
  weight for this iteration     100.00

 eigenvalues of (default mixing * dielectric matrix)
  average eigenvalue GAMMA=   1.3023
  6.1195  3.5677  2.8728  2.8728  2.2258  1.0131  1.0131  1.3357  1.2568  0.9124
  0.9124  0.7765  0.6990  0.6990  0.1784  0.5942  0.4962  0.4478  0.4478  0.4124
  0.3954  0.3797  0.3235

 Free energy of the ion-electron system (eV)
  ---------------------------------------------------
  alpha Z        PSCENC =        16.01942473
  Ewald energy   TEWEN  =     20040.70583669
  -Hartree energ DENC   =    -35168.47584032
  -exchange      EXHF   =         0.00000000
  -V(xc)+E(xc)   XCENC  =       532.62586341
  PAW double counting   =     15896.49279239   -17191.55349642
  entropy T*S    EENTRO =         0.00000000
  eigenvalues    EBANDS =      -845.09475563
  atomic energy  EATOM  =     16691.22701589
  ---------------------------------------------------
  free energy    TOTEN  =       -28.05315926 eV

  energy without entropy =      -28.05315926  energy(sigma->0) =      -28.05315926


--------------------------------------------------------------------------------------------------------




----------------------------------------- Iteration    1(  29)  ---------------------------------------


    POTLOK:  cpu time    0.22: real time    0.23
    SETDIJ:  cpu time    0.01: real time    0.01
     EDDAV:  cpu time    0.76: real time    0.76
       DOS:  cpu time    0.00: real time    0.00
    CHARGE:  cpu time    0.06: real time    0.05
    MIXING:  cpu time    0.02: real time    0.02
    --------------------------------------------
      LOOP:  cpu time    1.07: real time    1.08

 eigenvalue-minimisations  :   272
 total energy-change (2. order) :-0.3306500E-03  (-0.1179835E-04)
 number of electron     131.9999896 magnetization       1.9988678
 augmentation part       84.4775468 magnetization       0.1390577

 Broyden mixing:
  rms(total) = 0.13383E-02    rms(broyden)= 0.13378E-02
  rms(prec ) = 0.14942E-02
  weight for this iteration     100.00

 eigenvalues of (default mixing * dielectric matrix)
  average eigenvalue GAMMA=   1.3194
  6.1024  3.7106  3.7106  2.5212  2.5212  1.4240  1.0130  1.0130  1.2508  0.9110
  0.9110  0.8782  0.7138  0.7138  0.1784  0.6150  0.6044  0.4732  0.4511  0.4511
  0.4111  0.3914  0.3805  0.3153

 Free energy of the ion-electron system (eV)
  ---------------------------------------------------
  alpha Z        PSCENC =        16.01942473
  Ewald energy   TEWEN  =     20040.70583669
  -Hartree energ DENC   =    -35168.18740742
  -exchange      EXHF   =         0.00000000
  -V(xc)+E(xc)   XCENC  =       532.62749719
  PAW double counting   =     15896.02790409   -17191.16055085
  entropy T*S    EENTRO =         0.00000000
  eigenvalues    EBANDS =      -845.31321024
  atomic energy  EATOM  =     16691.22701589
  ---------------------------------------------------
  free energy    TOTEN  =       -28.05348991 eV

  energy without entropy =      -28.05348991  energy(sigma->0) =      -28.05348991


--------------------------------------------------------------------------------------------------------




----------------------------------------- Iteration    1(  30)  ---------------------------------------


    POTLOK:  cpu time    0.23: real time    0.23
    SETDIJ:  cpu time    0.00: real time    0.01
     EDDAV:  cpu time    0.76: real time    0.76
       DOS:  cpu time    0.00: real time    0.00
    CHARGE:  cpu time    0.06: real time    0.06
    MIXING:  cpu time    0.02: real time    0.02
    --------------------------------------------
      LOOP:  cpu time    1.07: real time    1.07

 eigenvalue-minimisations  :   272
 total energy-change (2. order) :-0.3067129E-03  (-0.9484660E-05)
 number of electron     131.9999896 magnetization       1.9986775
 augmentation part       84.4742800 magnetization       0.1392483

 Broyden mixing:
  rms(total) = 0.24464E-02    rms(broyden)= 0.24463E-02
  rms(prec ) = 0.26100E-02
  weight for this iteration     100.00

 eigenvalues of (default mixing * dielectric matrix)
  average eigenvalue GAMMA=   1.3140
  6.1313  3.9434  3.9434  2.4742  2.4742  1.5704  1.0131  1.0131  1.2767  0.9078
  0.9078  0.8469  0.8469  0.1784  0.6527  0.6527  0.6279  0.5199  0.4901  0.4492
  0.4492  0.4052  0.3835  0.3863  0.3048

 Free energy of the ion-electron system (eV)
  ---------------------------------------------------
  alpha Z        PSCENC =        16.01942473
  Ewald energy   TEWEN  =     20040.70583669
  -Hartree energ DENC   =    -35168.07822997
  -exchange      EXHF   =         0.00000000
  -V(xc)+E(xc)   XCENC  =       532.62867108
  PAW double counting   =     15896.11142618   -17191.28073863
  entropy T*S    EENTRO =         0.00000000
  eigenvalues    EBANDS =      -845.38720260
  atomic energy  EATOM  =     16691.22701589
  ---------------------------------------------------
  free energy    TOTEN  =       -28.05379662 eV

  energy without entropy =      -28.05379662  energy(sigma->0) =      -28.05379662


--------------------------------------------------------------------------------------------------------




----------------------------------------- Iteration    1(  31)  ---------------------------------------


    POTLOK:  cpu time    0.22: real time    0.22
    SETDIJ:  cpu time    0.01: real time    0.01
     EDDAV:  cpu time    0.76: real time    0.76
       DOS:  cpu time    0.00: real time    0.00
    --------------------------------------------
      LOOP:  cpu time    0.99: real time    1.00

 eigenvalue-minimisations  :   272
 total energy-change (2. order) :-0.6476057E-04  (-0.3754061E-05)
 number of electron     131.9999896 magnetization       1.9986775
 augmentation part       84.4742800 magnetization       0.1392483

 Free energy of the ion-electron system (eV)
  ---------------------------------------------------
  alpha Z        PSCENC =        16.01942473
  Ewald energy   TEWEN  =     20040.70583669
  -Hartree energ DENC   =    -35168.02408374
  -exchange      EXHF   =         0.00000000
  -V(xc)+E(xc)   XCENC  =       532.62756453
  PAW double counting   =     15896.20390232   -17191.36034343
  entropy T*S    EENTRO =         0.00000000
  eigenvalues    EBANDS =      -845.45317838
  atomic energy  EATOM  =     16691.22701589
  ---------------------------------------------------
  free energy    TOTEN  =       -28.05386138 eV

  energy without entropy =      -28.05386138  energy(sigma->0) =      -28.05386138


--------------------------------------------------------------------------------------------------------




 average (electrostatic) potential at core
  the test charge radii are     0.9430
  (the norm of the test charge is              1.0000)
       1 -74.7095       2 -74.7101       3 -74.7117       4 -74.5642       5 -74.8430
       6 -74.6501       7 -74.6718       8 -74.8616       9 -74.4889      10 -74.5326
      11 -74.9295      12 -75.3351
 
 
 
 E-fermi :  -3.9652     XC(G=0):  -0.6421     alpha+bet : -0.2894


 spin component 1

 k-point     1 :       0.0000    0.0000    0.0000
  band No.  band energies     occupation 
      1     -11.1862      1.00000
      2      -9.5381      1.00000
      3      -8.9108      1.00000
      4      -8.7368      1.00000
      5      -8.3437      1.00000
      6      -8.2546      1.00000
      7      -8.1635      1.00000
      8      -8.0112      1.00000
      9      -7.7180      1.00000
     10      -7.6349      1.00000
     11      -7.5938      1.00000
     12      -7.5244      1.00000
     13      -7.4869      1.00000
     14      -7.3935      1.00000
     15      -7.3739      1.00000
     16      -7.3177      1.00000
     17      -7.3094      1.00000
     18      -7.1842      1.00000
     19      -7.1819      1.00000
     20      -7.0516      1.00000
     21      -7.0200      1.00000
     22      -6.9312      1.00000
     23      -6.8102      1.00000
     24      -6.6997      1.00000
     25      -6.6290      1.00000
     26      -6.5549      1.00000
     27      -6.4907      1.00000
     28      -6.4561      1.00000
     29      -6.4160      1.00000
     30      -6.3465      1.00000
     31      -6.3004      1.00000
     32      -6.2539      1.00000
     33      -6.2043      1.00000
     34      -6.1096      1.00000
     35      -5.9930      1.00000
     36      -5.9618      1.00000
     37      -5.9187      1.00000
     38      -5.8563      1.00000
     39      -5.8122      1.00000
     40      -5.7794      1.00000
     41      -5.7483      1.00000
     42      -5.7310      1.00000
     43      -5.6953      1.00000
     44      -5.6642      1.00000
     45      -5.6580      1.00000
     46      -5.6316      1.00000
     47      -5.5792      1.00000
     48      -5.5593      1.00000
     49      -5.5253      1.00000
     50      -5.4916      1.00000
     51      -5.4397      1.00000
     52      -5.4218      1.00000
     53      -5.3834      1.00000
     54      -5.3644      1.00000
     55      -5.3416      1.00000
     56      -5.3241      1.00000
     57      -5.3117      1.00000
     58      -5.2322      1.00000
     59      -5.2028      1.00000
     60      -5.1958      1.00000
     61      -5.1851      1.00000
     62      -5.1729      1.00000
     63      -5.1332      1.00000
     64      -5.0491      1.00000
     65      -4.2478      1.00000
     66      -4.1066      1.00000
     67      -3.9699      1.00000
     68      -3.1864      0.00000
     69      -2.9877      0.00000
     70      -2.8873      0.00000
     71      -2.1519      0.00000
     72      -1.6764      0.00000
     73      -1.5736      0.00000
     74      -1.3504      0.00000
     75      -1.2610      0.00000
     76      -1.1225      0.00000
     77      -0.5927      0.00000
     78      -0.4014      0.00000
     79      -0.2083      0.00000
     80      -0.1464      0.00000
     81       0.1325      0.00000
     82       0.1816      0.00000
     83       0.3287      0.00000
     84       0.4409      0.00000
     85       0.5966      0.00000
     86       0.6060      0.00000
     87       0.6332      0.00000
     88       0.6482      0.00000

 spin component 2

 k-point     1 :       0.0000    0.0000    0.0000
  band No.  band energies     occupation 
      1     -11.1270      1.00000
      2      -9.4559      1.00000
      3      -8.8545      1.00000
      4      -8.6696      1.00000
      5      -8.2449      1.00000
      6      -8.1895      1.00000
      7      -8.0909      1.00000
      8      -7.9345      1.00000
      9      -7.6443      1.00000
     10      -7.5649      1.00000
     11      -7.5292      1.00000
     12      -7.4666      1.00000
     13      -7.4211      1.00000
     14      -7.3238      1.00000
     15      -7.3027      1.00000
     16      -7.2621      1.00000
[...]
     48      -5.3578      1.00000
     49      -5.3397      1.00000
     50      -5.2921      1.00000
     51      -5.2643      1.00000
     52      -5.2324      1.00000
     53      -5.1876      1.00000
     54      -5.1819      1.00000
     55      -5.1552      1.00000
     56      -5.1367      1.00000
     57      -5.1232      1.00000
     58      -5.1015      1.00000
     59      -5.0716      1.00000
     60      -5.0586      1.00000
     61      -5.0277      1.00000
     62      -4.9808      1.00000
     63      -4.9498      1.00000
     64      -4.5677      1.00000
     65      -4.4324      1.00000
     66      -4.3489      1.00000
     67      -3.4123      0.00000
     68      -3.1699      0.00000
     69      -2.6027      0.00000
     70      -2.3428      0.00000
     71      -2.2198      0.00000
     72      -1.9571      0.00000
     73      -1.7982      0.00000
     74      -1.2275      0.00000
     75      -1.0840      0.00000
     76      -1.0183      0.00000
     77      -0.6261      0.00000
     78      -0.5510      0.00000
     79      -0.1774      0.00000
     80      -0.1026      0.00000
     81       0.0646      0.00000
     82       0.2103      0.00000
     83       0.3195      0.00000
     84       0.4421      0.00000
     85       0.4732      0.00000
     86       0.5223      0.00000
     87       0.5910      0.00000
     88       0.6056      0.00000

 spin component 2

 k-point     1 :       0.0000    0.0000    0.0000
  band No.  band energies     occupation 
      1     -10.2986      1.00000
      2      -8.8825      1.00000
      3      -8.2999      1.00000
      4      -7.7661      1.00000
      5      -7.7005      1.00000
      6      -7.5723      1.00000
      7      -7.3934      1.00000
      8      -7.2678      1.00000
      9      -7.1466      1.00000
     10      -7.1288      1.00000
     11      -6.9319      1.00000
     12      -6.8569      1.00000
     13      -6.7617      1.00000
     14      -6.7381      1.00000
     15      -6.6890      1.00000
     16      -6.6684      1.00000
     17      -6.6340      1.00000
     18      -6.5404      1.00000
     19      -6.5268      1.00000
     20      -6.4675      1.00000
     21      -6.4273      1.00000
     22      -6.3874      1.00000
     23      -6.3039      1.00000
     24      -6.1850      1.00000
     25      -6.1341      1.00000
     26      -6.0790      1.00000
     27      -6.0049      1.00000
     28      -5.9447      1.00000
     29      -5.8823      1.00000
     30      -5.8444      1.00000
     31      -5.8126      1.00000
     32      -5.7676      1.00000
     33      -5.7442      1.00000
     34      -5.7108      1.00000
     35      -5.6960      1.00000
     36      -5.6866      1.00000
     37      -5.6250      1.00000
     38      -5.6107      1.00000
     39      -5.5900      1.00000
     40      -5.5463      1.00000
     41      -5.5410      1.00000
     42      -5.5153      1.00000
     43      -5.4695      1.00000
     44      -5.4392      1.00000
     45      -5.4239      1.00000
     46      -5.4070      1.00000
     47      -5.3717      1.00000
     48      -5.3578      1.00000
     49      -5.3397      1.00000
     50      -5.2921      1.00000
     51      -5.2643      1.00000
     52      -5.2324      1.00000
     53      -5.1876      1.00000
     54      -5.1819      1.00000
     55      -5.1552      1.00000
     56      -5.1367      1.00000
     57      -5.1232      1.00000
     58      -5.1015      1.00000
     59      -5.0716      1.00000
     60      -5.0586      1.00000
     61      -5.0277      1.00000
     62      -4.9808      1.00000
     63      -4.9498      1.00000
     64      -4.5677      1.00000
     65      -4.4324      1.00000
     66      -4.3489      1.00000
     67      -3.4123      0.00000
     68      -3.1699      0.00000
     69      -2.6027      0.00000
     70      -2.3428      0.00000
     71      -2.2198      0.00000
     72      -1.9571      0.00000
     73      -1.7982      0.00000
     74      -1.2275      0.00000
     75      -1.0840      0.00000
     76      -1.0183      0.00000
     77      -0.6261      0.00000
     78      -0.5510      0.00000
     79      -0.1774      0.00000
     80      -0.1026      0.00000
     81       0.0646      0.00000
     82       0.2103      0.00000
     83       0.3195      0.00000
     84       0.4421      0.00000
     85       0.4732      0.00000
     86       0.5223      0.00000
     87       0.5910      0.00000
     88       0.6056      0.00000


--------------------------------------------------------------------------------------------------------


 soft charge-density along one line, spin component           1
         0         1         2         3         4         5         6         7         8         9
 total charge-density along one line
 
 soft charge-density along one line, spin component           2
         0         1         2         3         4         5         6         7         8         9
 total charge-density along one line
 
 pseudopotential strength for first ion, spin component:           1
-10.835   0.024  -0.014   0.018   0.001   1.265  -0.019   0.011
  0.024 -10.874   0.013   0.007  -0.014  -0.019   1.295  -0.010
 -0.014   0.013 -10.849   0.011  -0.022   0.011  -0.010   1.276
  0.018   0.007   0.011 -10.822   0.014  -0.014  -0.006  -0.009
  0.001  -0.014  -0.022   0.014 -10.834  -0.001   0.011   0.018
  1.265  -0.019   0.011  -0.014  -0.001   6.111   0.014  -0.008
 -0.019   1.295  -0.010  -0.006   0.011   0.014   6.089   0.007
  0.011  -0.010   1.276  -0.009   0.018  -0.008   0.007   6.102
 -0.014  -0.006  -0.009   1.255  -0.012   0.009   0.004   0.007
 -0.001   0.011   0.018  -0.012   1.264   0.001  -0.007  -0.013
 -0.004  -0.005   0.002  -0.006  -0.007   0.001  -0.000  -0.002
 -0.007  -0.009   0.004  -0.011  -0.013   0.001  -0.001  -0.003
 -0.017  -0.007   0.002  -0.000   0.004   0.018   0.007  -0.001
 -0.000  -0.004  -0.009  -0.016   0.000  -0.000   0.002   0.008
 -0.004  -0.000   0.009  -0.007  -0.015   0.002  -0.000  -0.010
 -0.021  -0.009   0.002  -0.000   0.004   0.024   0.008  -0.001
 -0.000  -0.004  -0.010  -0.020   0.000  -0.000   0.001   0.011
 -0.004  -0.000   0.012  -0.008  -0.019   0.001  -0.000  -0.013
 pseudopotential strength for first ion, spin component:           2
-10.835   0.024  -0.014   0.018   0.001   1.265  -0.019   0.011
  0.024 -10.874   0.013   0.007  -0.014  -0.019   1.295  -0.010
 -0.014   0.013 -10.849   0.011  -0.022   0.011  -0.010   1.276
  0.018   0.007   0.011 -10.822   0.014  -0.014  -0.006  -0.009
  0.001  -0.014  -0.022   0.014 -10.834  -0.001   0.011   0.018
  1.265  -0.019   0.011  -0.014  -0.001   6.111   0.014  -0.008
 -0.019   1.295  -0.010  -0.006   0.011   0.014   6.089   0.007
  0.011  -0.010   1.276  -0.009   0.018  -0.008   0.007   6.102
 -0.014  -0.006  -0.009   1.255  -0.012   0.009   0.004   0.007
 -0.001   0.011   0.018  -0.012   1.264   0.001  -0.007  -0.013
 -0.004  -0.005   0.002  -0.006  -0.007   0.001  -0.000  -0.002
 -0.007  -0.009   0.004  -0.011  -0.013   0.001  -0.001  -0.003
 -0.017  -0.007   0.002  -0.000   0.004   0.018   0.007  -0.001
 -0.000  -0.004  -0.009  -0.016   0.000  -0.000   0.002   0.008
 -0.004  -0.000   0.009  -0.007  -0.015   0.002  -0.000  -0.010
 -0.021  -0.009   0.002  -0.000   0.004   0.024   0.008  -0.001
 -0.000  -0.004  -0.010  -0.020   0.000  -0.000   0.001   0.011
 -0.004  -0.000   0.012  -0.008  -0.019   0.001  -0.000  -0.013
 total augmentation occupancy for first ion, spin component:           1
  1.932   0.016  -0.009   0.010   0.005  -0.018  -0.008   0.007  -0.004   0.001   0.005   0.009   0.002  -0.005   0.012  -0.011
  0.016   1.918   0.011  -0.000   0.004  -0.008  -0.005  -0.005  -0.002   0.004   0.028   0.003   0.016   0.024  -0.009  -0.007
 -0.009   0.011   1.929   0.009  -0.005   0.007  -0.005  -0.019  -0.001   0.003  -0.008   0.001  -0.016   0.015  -0.010   0.005
  0.010  -0.000   0.009   1.946  -0.001  -0.004  -0.002  -0.001  -0.023   0.001   0.007   0.004   0.003   0.019   0.010  -0.000
  0.005   0.004  -0.005  -0.001   1.943   0.001   0.004   0.003   0.001  -0.017   0.000   0.008  -0.016   0.006   0.031   0.008
 -0.018  -0.008   0.007  -0.004   0.001   0.014   0.000   0.001  -0.000   0.002  -0.029   0.001   0.028  -0.002   0.004  -0.002
 -0.008  -0.005  -0.005  -0.002   0.004   0.000   0.015  -0.000  -0.001   0.002  -0.031   0.001   0.010   0.003  -0.000  -0.001
  0.007  -0.005  -0.019  -0.001   0.003   0.001  -0.000   0.013   0.001   0.001  -0.003   0.002   0.001   0.019  -0.013   0.000
 -0.004  -0.002  -0.001  -0.023   0.001  -0.000  -0.001   0.001   0.014  -0.000  -0.016  -0.001  -0.004   0.032   0.003   0.000
  0.001   0.004   0.003   0.001  -0.017   0.002   0.002   0.001  -0.000   0.017  -0.031   0.001  -0.006  -0.006   0.027   0.001
  0.005   0.028  -0.008   0.007   0.000  -0.029  -0.031  -0.003  -0.016  -0.031   1.677  -0.150   0.066   0.080   0.165  -0.008
  0.009   0.003   0.001   0.004   0.008   0.001   0.001   0.002  -0.001   0.001  -0.150   0.018  -0.006  -0.012  -0.031   0.001
  0.002   0.016  -0.016   0.003  -0.016   0.028   0.010   0.001  -0.004  -0.006   0.066  -0.006   0.223  -0.019  -0.028  -0.014
 -0.005   0.024   0.015   0.019   0.006  -0.002   0.003   0.019   0.032  -0.006   0.080  -0.012  -0.019   0.184  -0.021   0.001
  0.012  -0.009  -0.010   0.010   0.031   0.004  -0.000  -0.013   0.003   0.027   0.165  -0.031  -0.028  -0.021   0.157   0.001
 -0.011  -0.007   0.005  -0.000   0.008  -0.002  -0.001   0.000   0.000   0.001  -0.008   0.001  -0.014   0.001   0.001   0.001
 -0.000  -0.009  -0.010  -0.012   0.000   0.000  -0.000  -0.001  -0.002   0.000  -0.011   0.001   0.001  -0.011   0.000  -0.000
 -0.009  -0.000   0.007  -0.007  -0.013   0.000   0.000   0.001  -0.000  -0.001  -0.024   0.003   0.001   0.000  -0.011  -0.000
 total augmentation occupancy for first ion, spin component:           2
  0.000   0.000   0.000   0.000   0.000   0.000   0.000   0.000   0.000  -0.000  -0.000   0.000   0.000  -0.000   0.000  -0.000
  0.000   0.000  -0.000  -0.000   0.000   0.000   0.000  -0.000   0.000  -0.000  -0.000  -0.000   0.000   0.000  -0.000  -0.000
  0.000  -0.000  -0.000   0.000   0.000  -0.000  -0.000  -0.000   0.000   0.000   0.000  -0.000   0.000   0.000  -0.000  -0.000
  0.000  -0.000   0.000   0.000  -0.000   0.000   0.000  -0.000   0.000  -0.000   0.000  -0.000  -0.000  -0.000  -0.000   0.000
  0.000   0.000   0.000  -0.000  -0.000  -0.000  -0.000   0.000  -0.000  -0.000   0.000  -0.000   0.000  -0.000   0.000  -0.000
  0.000   0.000  -0.000   0.000  -0.000  -0.000  -0.000  -0.000   0.000   0.000  -0.000  -0.000  -0.000  -0.000   0.000   0.000
  0.000   0.000  -0.000   0.000  -0.000  -0.000  -0.000   0.000  -0.000   0.000   0.000   0.000  -0.000  -0.000   0.000  -0.000
  0.000  -0.000  -0.000  -0.000   0.000  -0.000   0.000   0.000  -0.000  -0.000  -0.000   0.000  -0.000  -0.000   0.000   0.000
  0.000   0.000   0.000   0.000  -0.000   0.000  -0.000  -0.000  -0.000   0.000  -0.000   0.000   0.000  -0.000   0.000  -0.000
 -0.000  -0.000   0.000  -0.000  -0.000   0.000   0.000  -0.000   0.000   0.000  -0.000   0.000  -0.000   0.000  -0.000   0.000
 -0.000  -0.000   0.000   0.000   0.000  -0.000   0.000  -0.000  -0.000  -0.000  -0.000   0.000  -0.000   0.000   0.000   0.000
  0.000  -0.000  -0.000  -0.000  -0.000  -0.000   0.000   0.000   0.000   0.000   0.000  -0.000   0.000  -0.000   0.000  -0.000
  0.000   0.000   0.000  -0.000   0.000  -0.000  -0.000  -0.000   0.000  -0.000  -0.000   0.000  -0.000   0.000  -0.000   0.000
 -0.000   0.000   0.000  -0.000  -0.000  -0.000  -0.000  -0.000  -0.000   0.000   0.000  -0.000   0.000   0.000  -0.000  -0.000
  0.000  -0.000  -0.000  -0.000   0.000   0.000   0.000   0.000   0.000  -0.000   0.000   0.000  -0.000  -0.000   0.000   0.000
 -0.000  -0.000  -0.000   0.000  -0.000   0.000  -0.000   0.000  -0.000   0.000   0.000  -0.000   0.000  -0.000   0.000  -0.000
  0.000  -0.000  -0.000   0.000   0.000  -0.000   0.000   0.000  -0.000  -0.000  -0.000   0.000   0.000  -0.000   0.000   0.000
 -0.000   0.000   0.000   0.000  -0.000   0.000  -0.000  -0.000  -0.000   0.000  -0.000  -0.000   0.000   0.000  -0.000  -0.000


------------------------ aborting loop because EDIFF is reached ----------------------------------------


    CHARGE:  cpu time    0.06: real time    0.05
    FORLOC:  cpu time    0.01: real time    0.01
    FORNL :  cpu time    0.41: real time    0.41
    STRESS:  cpu time    0.49: real time    0.49
    FORCOR:  cpu time    0.22: real time    0.23
    FORHAR:  cpu time    0.03: real time    0.03
    MIXING:  cpu time    0.01: real time    0.01
    OFIELD:  cpu time    0.00: real time    0.00

  FORCE on cell =-STRESS in cart. coord.  units (eV):
  Direction    XX          YY          ZZ          XY          YZ          ZX
  --------------------------------------------------------------------------------------
  Alpha Z    16.01942    16.01942    16.01942
  Ewald    1988.61228  9690.59196  6122.28124 -1502.12610   846.77766 -2339.65720
  Hartree  7498.71805 14398.86886 11089.05582 -1361.88696   799.03513 -2032.97304
  E(xc)    -770.94336  -769.46954  -769.92277    -0.21055     0.10413    -0.61372
  Local  -10660.81885-25256.07430-18374.06593  2863.26298 -1649.31419  4367.77732
  n-local  -292.15561  -287.45441  -290.28181    -1.03335     1.17176    -1.29386
  augment  1128.80458  1122.91703  1122.70196     0.95510     1.03334     3.11504
  Kinetic  1088.47260  1081.21864  1080.93809     1.08723     1.17386     3.64808
  Fock        0.00000     0.00000     0.00000     0.00000     0.00000     0.00000
  -------------------------------------------------------------------------------------
  Total      -3.29089    -3.38234    -3.27397     0.04836    -0.01831     0.00263
  in kB      -0.80204    -0.82433    -0.79792     0.01179    -0.00446     0.00064
  external pressure =       -0.81 kB  Pullay stress =        0.00 kB


 VOLUME and BASIS-vectors are now :
 -----------------------------------------------------------------------------
  energy-cutoff  :      295.45
  volume of cell :     6573.97
      direct lattice vectors                 reciprocal lattice vectors
    18.733083391  0.000000000  0.000000000     0.053381495  0.000000000  0.000000000
     0.000000000 18.733083391  0.000000000     0.000000000  0.053381495  0.000000000
     0.000000000  0.000000000 18.733083391     0.000000000  0.000000000  0.053381495

  length of vectors
    18.733083391 18.733083391 18.733083391     0.053381495  0.053381495  0.053381495


 FORCES acting on ions
    electron-ion (+dipol)            ewald-force                    non-local-force                 convergence-correction
 -----------------------------------------------------------------------------------------------
   0.837E+03 0.509E+03 0.527E+03   -.835E+03 -.507E+03 -.526E+03   -.132E+01 -.249E+01 -.157E+01   0.736E-01 -.511E-01 -.415E-01
   0.113E+04 -.386E+03 0.155E+03   -.112E+04 0.384E+03 -.155E+03   -.340E+01 0.196E+01 -.538E+00   0.752E-01 -.205E+00 0.733E-01
   -.779E+03 0.134E+03 0.106E+04   0.773E+03 -.135E+03 -.105E+04   0.518E+01 0.121E+01 -.635E+01   0.740E-01 -.456E-01 0.339E-01
   0.837E+03 -.236E+03 -.900E+03   -.828E+03 0.235E+03 0.893E+03   -.900E+01 0.669E+00 0.793E+01   -.100E+00 -.535E-01 -.474E-01
   -.103E+04 -.505E+03 -.575E+01   0.103E+04 0.502E+03 0.717E+01   0.150E+01 0.249E+01 -.146E+01   0.205E-01 0.598E-01 0.310E-01
   -.112E+04 0.496E+03 -.474E+03   0.111E+04 -.493E+03 0.472E+03   0.591E+01 -.336E+01 0.186E+01   -.308E-01 -.319E-01 -.125E+00
   -.364E+03 -.884E+03 -.884E+03   0.360E+03 0.880E+03 0.878E+03   0.448E+01 0.343E+01 0.558E+01   -.797E-01 0.355E-01 -.103E+00
   0.296E+03 -.448E+03 0.122E+04   -.296E+03 0.444E+03 -.121E+04   -.629E+00 0.337E+01 -.905E+01   0.172E-01 0.368E-01 0.182E-01
   0.387E+03 0.109E+04 -.587E+03   -.383E+03 -.109E+04 0.581E+03   -.450E+01 -.750E+01 0.587E+01   0.297E-01 0.536E-01 0.473E-01
   -.218E+03 0.112E+04 0.590E+03   0.217E+03 -.112E+04 -.585E+03   0.100E+01 -.772E+01 -.478E+01   -.160E+00 -.183E-01 0.320E-01
   -.686E+02 -.126E+04 0.361E+03   0.683E+02 0.125E+04 -.357E+03   0.269E+00 0.916E+01 -.396E+01   -.673E-01 0.185E+00 -.132E-01
   0.941E+02 0.359E+03 -.106E+04   -.939E+02 -.359E+03 0.106E+04   -.330E+00 -.540E+00 0.533E+01   0.167E+00 -.148E-01 0.847E-01
 -----------------------------------------------------------------------------------------------
   0.829E+00 -.648E+00 0.121E+01   0.000E+00 -.227E-12 0.227E-12   -.842E+00 0.681E+00 -.113E+01   0.193E-01 -.488E-01 -.105E-01
 
 
 POSITION                                       TOTAL-FORCE (eV/Angst)
 -----------------------------------------------------------------------------------
      7.89433      7.47597      7.72298        -0.004743      0.012067      0.000225
      7.07750      9.66346      8.59859         0.010722     -0.006201     -0.019560
      9.93708      7.73337      6.47547         0.008753      0.004629     -0.005724
      6.58457      9.70432     10.95502         0.004527     -0.007688     -0.006125
      9.65048      9.40050      8.37874         0.000351      0.009077     -0.010321
     10.07299      7.09875      8.84025         0.015140      0.003809      0.001010
      8.62502     10.64017     10.19070        -0.014138      0.009290      0.004910
      8.19938      9.53567      6.45802         0.005113      0.005458      0.015200
      8.18004      5.73824      9.35771        -0.005710     -0.000923      0.016488
      9.28754      5.50088      7.19704        -0.013734     -0.017279     -0.011075
      8.49796     11.52366      7.94225        -0.017885     -0.016694      0.002002
      8.23495      8.12755     10.11523         0.011604      0.004453      0.012970
 -----------------------------------------------------------------------------------
    total drift:                                0.006301     -0.015778      0.070064


--------------------------------------------------------------------------------------------------------



  FREE ENERGIE OF THE ION-ELECTRON SYSTEM (eV)
  ---------------------------------------------------
  free  energy   TOTEN  =       -30.29402042 eV

  energy  without entropy=      -30.29402042  energy(sigma->0) =      -30.29402042
 
 d Force = 0.7860192E-04[ 0.187E-04, 0.139E-03]  d Energy = 0.1359528E-03-0.574E-04
 d Force = 0.3288753E-01[ 0.355E-01, 0.303E-01]  d Ewald  = 0.3288768E-01-0.152E-06


--------------------------------------------------------------------------------------------------------


    POTLOK:  cpu time    0.24: real time    0.24


--------------------------------------------------------------------------------------------------------




--------------------------------------------------------------------------------------------------------


  
 reached required accuracy - stopping structural energy minimisation
     LOOP+:  cpu time    5.18: real time    5.40
    4ORBIT:  cpu time    0.00: real time    0.00

 total amount of memory used by VASP on root node    55215. kBytes
========================================================================

   base      :      30000. kBytes
   nonl-proj :       1598. kBytes
   fftplans  :       5775. kBytes
   grid      :      14451. kBytes
   one-center:         31. kBytes
   wavefun   :       3360. kBytes
 
  
  
 General timing and accounting informations for this job:
 ========================================================
  
                  Total CPU time used (sec):     1006.979
                            User time (sec):      994.038
                          System time (sec):       12.941
                         Elapsed time (sec):     1117.174
  
                   Maximum memory used (kb):       64392.
                   Average memory used (kb):           0.
  
                          Minor page faults:      2214080
                          Major page faults:            0
                 Voluntary context switches:        18719
