   10   10 1000    2
  0.6158054E+03  0.1832938E-08  0.1832938E-08  0.1832938E-08  0.1000000E-15
  1.000000000000000E-004
  CAR 
 unknown system                          
    110      1     72
 
  0.0000000E+00  0.0000000E+00  0.0000000E+00  0.1000000E+01
    1       -9.220951     -9.220951
    2       -8.969614     -8.969614
    3       -8.918411     -8.918411
    4       -8.856295     -8.856296
    5       -8.793228     -8.793228
    6       -8.616255     -8.616256
    7       -8.562030     -8.562030
    8       -8.481200     -8.481201
    9       -8.445202     -8.445202
   10       -8.408418     -8.408417
   11       -8.288586     -8.288585
   12       -8.261388     -8.261387
   13       -8.169208     -8.169208
   14       -8.148107     -8.148105
   15       -8.063712     -8.063711
   16       -8.021116     -8.021115
   17       -7.905264     -7.905263
   18       -7.883724     -7.883722
   19       -7.849480     -7.849478
   20       -7.692737     -7.692736
   21       -7.645516     -7.645513
   22       -7.540097     -7.540095
   23       -7.484202     -7.484199
   24       -7.417415     -7.417412
   25       -7.393166     -7.393162
   26       -7.344174     -7.344172
   27       -7.321686     -7.321684
   28       -7.227493     -7.227490
   29       -7.193616     -7.193613
   30       -7.180663     -7.180660
   31       -7.156532     -7.156529
   32       -7.084744     -7.084742
   33       -7.059938     -7.059936
   34       -7.032504     -7.032502
   35       -7.019397     -7.019395
   36       -6.986400     -6.986398
   37       -6.931182     -6.931179
   38       -6.910613     -6.910611
   39       -6.870807     -6.870805
   40       -6.826076     -6.826074
   41       -6.815121     -6.815118
   42       -6.763541     -6.763539
   43       -6.739849     -6.739846
   44       -6.696688     -6.696685
   45       -6.661368     -6.661365
   46       -6.643713     -6.643711
   47       -6.579917     -6.579915
   48       -6.539872     -6.539870
   49       -6.519344     -6.519342
   50       -6.430938     -6.430935
   51       -6.345426     -6.345422
   52       -5.689081     -5.689057
   53       -5.328641     -5.328604
   54       -4.365215     -4.365161
   55       -4.031678     -4.031622
   56       -2.970940     -2.970824
   57       -2.959724     -2.959537
   58       -2.556984     -2.556818
   59       -2.281951     -2.281776
   60       -1.973046     -1.972832
   61       -1.449640     -1.449066
   62       -1.018632     -1.018113
   63       -0.965981     -0.965130
   64       -0.694996     -0.694252
   65       -0.591831     -0.591172
   66       -0.383769     -0.382440
   67       -0.344272     -0.343451
   68       -0.051454     -0.050359
   69        0.187019      0.189089
   70        0.275859      0.253971
   71        0.452121      0.454451
   72        0.546291      0.548102
