 vasp.5.3.5 31Mar14 (build Feb 01 2018 12:10:03) gamma-only                     
  
 executed on             LinuxIFC date 2019.03.21  16:59:48
 running on   32 total cores
 distrk:  each k-point on   32 cores,    1 groups
 distr:  one band on NCORES_PER_BAND=   8 cores,    4 groups


--------------------------------------------------------------------------------------------------------


 INCAR:
 POTCAR:    PAW_PBE Ag 02Apr2005                  
 POTCAR:    PAW_PBE Ag 02Apr2005                  
   VRHFIN =Ag : s1 d10                                                          
   LEXCH  = PE                                                                  
   EATOM  =  1037.2675 eV,   76.2370 Ry                                         
                                                                                
   TITEL  = PAW_PBE Ag 02Apr2005                                                
   LULTRA =        F    use ultrasoft PP ?                                      
   IUNSCR =        1    unscreen: 0-lin 1-nonlin 2-no                           
   RPACOR =    2.000    partial core radius                                     
   POMASS =  107.868; ZVAL   =   11.000    mass and valenz                      
   RCORE  =    2.500    outmost cutoff radius                                   
   RWIGS  =    2.840; RWIGS  =    1.503    wigner-seitz radius (au A)           
   ENMAX  =  249.844; ENMIN  =  187.383 eV                                      
   ICORE  =        3    local potential                                         
   LCOR   =        T    correct aug charges                                     
   LPAW   =        T    paw PP                                                  
   EAUG   =  412.496                                                            
   DEXC   =    0.000                                                            
   RMAX   =    2.560    core radius for proj-oper                               
   RAUG   =    1.300    factor for augmentation sphere                          
   RDEP   =    2.576    radius for radial grids                                 
   RDEPT  =    2.072    core radius for aug-charge                              
                                                                                
   Atomic configuration                                                         
   12 entries                                                                   
     n  l   j            E        occ.                                          
     1  0  0.50    -25324.9161   2.0000                                         
     2  0  0.50     -3728.5341   2.0000                                         
     2  1  1.50     -3344.0404   6.0000                                         
     3  0  0.50      -683.5581   2.0000                                         
     3  1  1.50      -557.3225   6.0000                                         
     3  2  2.50      -358.3853  10.0000                                         
     4  0  0.50       -95.0341   2.0000                                         
     4  1  1.50       -58.5511   6.0000                                         
     4  2  2.50        -7.4440  10.0000                                         
     5  0  0.50        -4.4045   1.0000                                         
     5  1  0.50        -1.3606   0.0000                                         
     4  3  2.50        -1.3606   0.0000                                         
   Description                                                                  
     l       E           TYP  RCUT    TYP  RCUT                                 
     2     -7.4439781     23  2.400                                             
     2     -8.8045607     23  2.400                                             
     0     -4.4044681     23  2.400                                             
     0      1.9520038     23  2.400                                             
     1     -1.3605826     23  2.500                                             
     1     27.2116520     23  2.500                                             
     3     -4.0817478     23  2.400                                             
  local pseudopotential read in
  partial core-charges read in
  partial kinetic energy density read in
  atomic valenz-charges read in
  non local Contribution for L=           2  read in
    real space projection operators read in
  non local Contribution for L=           2  read in
    real space projection operators read in
  non local Contribution for L=           0  read in
    real space projection operators read in
  non local Contribution for L=           0  read in
    real space projection operators read in
  non local Contribution for L=           1  read in
    real space projection operators read in
  non local Contribution for L=           1  read in
    real space projection operators read in
    PAW grid and wavefunctions read in
 
   number of l-projection  operators is LMAX  =           6
   number of lm-projection operators is LMMAX =          18
 
  PAW_PBE Ag 02Apr2005                  :
 energy of atom  1       EATOM=-1037.2675
 kinetic energy error for atom=    0.0689 (will be added to EATOM!!)
 
 
 POSCAR: Al12, -32.80840456 <s> Ag </s>          
  positions in direct lattice
  No initial velocities read in
 exchange correlation table for  LEXCH =        8
   RHO(1)=    0.500       N(1)  =     2000
   RHO(2)=  100.500       N(2)  =     4000
 


--------------------------------------------------------------------------------------------------------


 ion  position               nearest neighbor table
   1  0.400  0.474  0.395-   2 2.57   4 2.63   3 2.86   6 2.91
   2  0.324  0.519  0.485-   1 2.57   5 2.66   3 2.86   6 2.96
   3  0.452  0.576  0.474-   7 2.62  10 2.76   6 2.79   1 2.86   2 2.86   4 2.97   5 3.31
   4  0.526  0.465  0.417-   1 2.63   9 2.71   7 2.75   6 2.84   8 2.92   3 2.97
   5  0.364  0.543  0.607-   2 2.66  10 2.72   6 2.94   3 3.31
   6  0.444  0.451  0.529-   8 2.58   3 2.79   4 2.84   1 2.91  10 2.91   5 2.94   2 2.96
   7  0.579  0.569  0.483-   3 2.62   4 2.75   8 2.79  11 2.86  12 2.86  10 2.96   9 3.29
   8  0.568  0.453  0.553-   6 2.58   7 2.79  10 2.85  11 2.91   4 2.92   9 2.95  12 2.96
   9  0.653  0.433  0.439-  12 2.66   4 2.71   8 2.95   7 3.29
  10  0.496  0.563  0.601-  11 2.62   5 2.72   3 2.76   8 2.85   6 2.91   7 2.96
  11  0.623  0.569  0.616-  12 2.57  10 2.62   7 2.86   8 2.91
  12  0.698  0.513  0.531-  11 2.57   9 2.66   7 2.86   8 2.96
 
  LATTYP: Found a simple cubic cell.
 ALAT       =    20.4420728377
  
  Lattice vectors:
  
 A1 = (  20.4420728377,   0.0000000000,   0.0000000000)
 A2 = (   0.0000000000,  20.4420728377,   0.0000000000)
 A3 = (   0.0000000000,   0.0000000000,  20.4420728377)


Analysis of symmetry for initial positions (statically):
=====================================================================
 Subroutine PRICEL returns:
 Original cell was already a primitive cell.
 

 Routine SETGRP: Setting up the symmetry group for a 
 simple cubic supercell.


 Subroutine GETGRP returns: Found  1 space group operations
 (whereof  1 operations were pure point group operations)
 out of a pool of 48 trial point group operations.


The static configuration has the point symmetry C_1 .


Analysis of symmetry for dynamics (positions and initial velocities):
=====================================================================
 Subroutine PRICEL returns:
 Original cell was already a primitive cell.
 

 Routine SETGRP: Setting up the symmetry group for a 
 simple cubic supercell.


 Subroutine GETGRP returns: Found  1 space group operations
 (whereof  1 operations were pure point group operations)
 out of a pool of 48 trial point group operations.


The dynamic configuration has the point symmetry C_1 .


Analysis of magnetic symmetry:
=====================================================================
 Subroutine PRICEL returns:
 Original cell was already a primitive cell.
 

 Subroutine MAGSYM returns: Found  1 space group operations
 (whereof  1 operations were pure point group operations)
 out of a pool of  1 trial space group operations
 (whereof  1 operations were pure point group operations)
 and found also     1 'primitive' translations


The magnetic configuration has the point symmetry C_1 .
 
 
 KPOINTS: Gamma-point only                        
  k-points in reciprocal lattice
Space group operators:
 irot       det(A)        alpha          n_x          n_y          n_z        tau_x        tau_y        tau_z
    1     1.000000     0.000000     1.000000     0.000000     0.000000     0.000000     0.000000     0.000000


--------------------------------------------------------------------------------------------------------




 Dimension of arrays:
   k-points           NKPTS =      1   k-points in BZ     NKDIM =      1   number of bands    NBANDS=     88
   number of dos      NEDOS =    301   number of ions     NIONS =     12
   non local maximal  LDIM  =      6   non local SUM 2l+1 LMDIM =     18
   total plane-waves  NPLWV = 512000
   max r-space proj   IRMAX =      1   max aug-charges    IRDMAX=   3146
   dimension x,y,z NGX =    80 NGY =   80 NGZ =   80
   dimension x,y,z NGXF=   160 NGYF=  160 NGZF=  160
   support grid    NGXF=   160 NGYF=  160 NGZF=  160
   ions per type =              12
 NGX,Y,Z   is equivalent  to a cutoff of   6.51,  6.51,  6.51 a.u.
 NGXF,Y,Z  is equivalent  to a cutoff of  13.01, 13.01, 13.01 a.u.


 I would recommend the setting:
   dimension x,y,z NGX =    79 NGY =   79 NGZ =   79
 SYSTEM =  unknown system                          
 POSCAR =  Al12, -32.80840456 <s> Ag </s>          

 Startparameter for this run:
   NWRITE =      2    write-flag & timer
   PREC   = normal    normal or accurate (medium, high low for compatibility)
   ISTART =      0    job   : 0-new  1-cont  2-samecut
   ICHARG =      2    charge: 1-file 2-atom 10-const
   ISPIN  =      2    spin polarized calculation?
   LNONCOLLINEAR =      F non collinear calculations
   LSORBIT =      F    spin-orbit coupling
   INIWAV =      1    electr: 0-lowe 1-rand  2-diag
   LASPH  =      F    aspherical Exc in radial PAW
   METAGGA=      F    non-selfconsistent MetaGGA calc.

 Electronic Relaxation 1
   ENCUT  =  249.8 eV  18.36 Ry    4.29 a.u.  26.35 26.35 26.35*2*pi/ulx,y,z
   ENINI  =  249.8     initial cutoff
   ENAUG  =  412.5 eV  augmentation charge cutoff
   NELM   =     60;   NELMIN=  2; NELMDL= -5     # of ELM steps 
   EDIFF  = 0.1E-03   stopping-criterion for ELM
   LREAL  =      F    real-space projection
   NLSPLINE    = F    spline interpolate recip. space projectors
   LCOMPAT=      F    compatible to vasp.4.4
   GGA_COMPAT  = T    GGA compatible to vasp.4.4-vasp.4.6
   LMAXPAW     = -100 max onsite density
   LMAXMIX     =    2 max onsite mixed and CHGCAR
   VOSKOWN=      0    Vosko Wilk Nusair interpolation
   ROPT   =    0.00000
 Ionic relaxation
   EDIFFG = 0.1E-02   stopping-criterion for IOM
   NSW    =   1000    number of steps for IOM
   NBLOCK =      1;   KBLOCK =   1000    inner block; outer block 
   IBRION =      2    ionic relax: 0-MD 1-quasi-New 2-CG
   NFREE  =      1    steps in history (QN), initial steepest desc. (CG)
   ISIF   =      2    stress and relaxation
   IWAVPR =     11    prediction:  0-non 1-charg 2-wave 3-comb
   ISYM   =      2    0-nonsym 1-usesym 2-fastsym
   LCORR  =      T    Harris-Foulkes like correction to forces

   POTIM  = 0.1000    time-step for ionic-motion
   TEIN   =    0.0    initial temperature
   TEBEG  =    0.0;   TEEND  =   0.0 temperature during run
   SMASS  =  -3.00    Nose mass-parameter (am)
   estimated Nose-frequenzy (Omega)   =  0.10E-29 period in steps =****** mass=  -0.955E-26a.u.
   SCALEE = 1.0000    scale energy and forces
   NPACO  =    256;   APACO  = 16.0  distance and # of slots for P.C.
   PSTRESS=    0.0 pullay stress

  Mass of Ions in am
   POMASS = 107.87
  Ionic Valenz
   ZVAL   =  11.00
  Atomic Wigner-Seitz radii
   RWIGS  =  -1.00
  virtual crystal weights 
   VCA    =   1.00
   NELECT =     132.0000    total number of electrons
   NUPDOWN=      -1.0000    fix difference up-down

 DOS related values:
   EMIN   =  10.00;   EMAX   =-10.00  energy-range for DOS
   EFERMI =   0.00
   ISMEAR =     0;   SIGMA  =   0.00  broadening in eV -4-tet -1-fermi 0-gaus

 Electronic relaxation 2 (details)
   IALGO  =     38    algorithm
   LDIAG  =      T    sub-space diagonalisation (order eigenvalues)
   LSUBROT=      F    optimize rotation matrix (better conditioning)
   TURBO    =      0    0=normal 1=particle mesh
   IRESTART =      0    0=no restart 2=restart with 2 vectors
   NREBOOT  =      0    no. of reboots
   NMIN     =      0    reboot dimension
   EREF     =   0.00    reference energy to select bands
   IMIX   =      4    mixing-type and parameters
     AMIX     =   0.40;   BMIX     =  1.00
     AMIX_MAG =   1.60;   BMIX_MAG =  1.00
     AMIN     =   0.10
     WC   =   100.;   INIMIX=   1;  MIXPRE=   1;  MAXMIX= -45

 Intra band minimization:
   WEIMIN = 0.0010     energy-eigenvalue tresh-hold
   EBREAK =  0.28E-06  absolut break condition
   DEPER  =   0.30     relativ break condition  

   TIME   =   0.40     timestep for ELM

  volume/ion in A,a.u.               =     711.86      4803.86
  Fermi-wavevector in a.u.,A,eV,Ry     =   0.407763  0.770560  2.262250  0.166271
  Thomas-Fermi vector in A             =   1.361626
 
 Write flags
   LWAVE  =      F    write WAVECAR
   LCHARG =      F    write CHGCAR
   LVTOT  =      F    write LOCPOT, total local potential
   LVHAR  =      F    write LOCPOT, Hartree potential only
   LELF   =      F    write electronic localiz. function (ELF)
   LORBIT =      0    0 simple, 1 ext, 2 COOP (PROOUT)


 Dipole corrections
   LMONO  =      F    monopole corrections only (constant potential shift)
   LDIPOL =      F    correct potential (dipole corrections)
   IDIPOL =      0    1-x, 2-y, 3-z, 4-all directions 
   EPSILON=  1.0000000 bulk dielectric constant

 Exchange correlation treatment:
   GGA     =    PE    GGA type
   LEXCH   =     8    internal setting for exchange type
   VOSKOWN=      0    Vosko Wilk Nusair interpolation
   LHFCALC =     F    Hartree Fock is set to
   LHFONE  =     F    Hartree Fock one center treatment
   AEXX    =    0.0000 exact exchange contribution

 Linear response parameters
   LEPSILON=     F    determine dielectric tensor
   LRPA    =     F    only Hartree local field effects (RPA)
   LNABLA  =     F    use nabla operator in PAW spheres
   LVEL    =     F    velocity operator in full k-point grid
   LINTERFAST=   F  fast interpolation
   KINTER  =     0    interpolate to denser k-point grid
   CSHIFT  =0.1000    complex shift for real part using Kramers Kronig
   OMEGAMAX=  -1.0    maximum frequency
   DEG_THRESHOLD= 0.2000000E-02 threshold for treating states as degnerate
   RTIME   =    0.100 relaxation time in fs

 Orbital magnetization related:
   ORBITALMAG=     F  switch on orbital magnetization
   LCHIMAG   =     F  perturbation theory with respect to B field
   DQ        =  0.001000  dq finite difference perturbation B field



--------------------------------------------------------------------------------------------------------


 conjugate gradient relaxation of ions
 charge density and potential will be updated during run
 spin polarized calculation
 Variant of blocked Davidson
 Davidson routine will perform the subspace rotation
 perform sub-space diagonalisation
    after iterative eigenvector-optimisation
 modified Broyden-mixing scheme, WC =      100.0
 initial mixing is a Kerker type mixing with AMIX =  0.4000 and BMIX =      1.0000
 Hartree-type preconditioning will be used
 using additional bands           22
 reciprocal scheme for non local part
 use partial core corrections
 calculate Harris-corrections to forces 
   (improved forces if not selfconsistent)
 use gradient corrections 
 use of overlap-Matrix (Vanderbilt PP)
 Gauss-broadening in eV      SIGMA  =   0.00


--------------------------------------------------------------------------------------------------------


  energy-cutoff  :      249.84
  volume of cell :     8542.30
      direct lattice vectors                 reciprocal lattice vectors
    20.442072838  0.000000000  0.000000000     0.048918718  0.000000000  0.000000000
     0.000000000 20.442072838  0.000000000     0.000000000  0.048918718  0.000000000
     0.000000000  0.000000000 20.442072838     0.000000000  0.000000000  0.048918718

  length of vectors
    20.442072838 20.442072838 20.442072838     0.048918718  0.048918718  0.048918718


 
 k-points in units of 2pi/SCALE and weight: Gamma-point only                        
   0.00000000  0.00000000  0.00000000       1.000
 
 k-points in reciprocal lattice and weights: Gamma-point only                        
   0.00000000  0.00000000  0.00000000       1.000
 
 position of ions in fractional coordinates (direct lattice) 
   0.39974707  0.47353417  0.39526922
   0.32434339  0.51939918  0.48479722
   0.45189230  0.57625686  0.47430758
   0.52600220  0.46467580  0.41743466
   0.36434454  0.54257167  0.60653433
   0.44399509  0.45124920  0.52881387
   0.57935582  0.56942764  0.48283167
   0.56788316  0.45313537  0.55345287
   0.65320356  0.43342774  0.43897126
   0.49571575  0.56259770  0.60108148
   0.62310540  0.56856370  0.61571885
   0.69801609  0.51305504  0.53139659
 
 position of ions in cartesian coordinates  (Angst):
   8.17165865  9.68002008  8.08012226
   6.63025111 10.61759596  9.91026017
   9.23761522 11.77988464  9.69583005
  10.75257525  9.49893658  8.53322981
   7.44795763 11.09128961 12.39881899
   9.07618003  9.22446903 10.81005174
  11.84323389 11.64028128  9.87008016
  11.60870889  9.26302628 11.31372398
  13.35283484  8.86016135  8.97348247
  10.13345747 11.50066311 12.28735139
  12.73756605 11.62262063 12.58656957
  14.26889580 10.48790851 10.86284773
 


--------------------------------------------------------------------------------------------------------


 use parallel FFT for wavefunctions z direction half grid
 k-point  1 :   0.0000 0.0000 0.0000  plane waves:   38407

 maximum and minimum number of plane-waves per node :      4807     4795

 maximum number of plane-waves:     38407
 maximum index in each direction: 
   IXMAX=   26   IYMAX=   26   IZMAX=   26
   IXMIN=  -26   IYMIN=  -26   IZMIN=    0

 WARNING: aliasing errors must be expected set NGX to 106 to avoid them
 WARNING: aliasing errors must be expected set NGY to 106 to avoid them
 WARNING: aliasing errors must be expected set NGZ to 106 to avoid them
 aliasing errors are usually negligible using standard VASP settings
 and one can safely disregard these warnings

 parallel 3D FFT for wavefunctions:
    minimum data exchange during FFTs selected (reduces bandwidth)
 parallel 3D FFT for charge:
    minimum data exchange during FFTs selected (reduces bandwidth)


 total amount of memory used by VASP on root node    55257. kBytes
========================================================================

   base      :      30000. kBytes
   nonl-proj :       1611. kBytes
   fftplans  :       5775. kBytes
   grid      :      14451. kBytes
   one-center:         31. kBytes
   wavefun   :       3389. kBytes
 
     INWAV:  cpu time    0.00: real time    0.00
 Broyden mixing: mesh for mixing (old mesh)
   NGX = 53   NGY = 53   NGZ = 53
  (NGX  =160   NGY  =160   NGZ  =160)
  gives a total of 148877 points

 initial charge density was supplied:
 charge density of overlapping atoms calculated
 number of electron     132.0000000 magnetization      12.0000000
 keeping initial charge density in first step


--------------------------------------------------------------------------------------------------------


 Maximum index for augmentation-charges          242 (set IRDMAX)


--------------------------------------------------------------------------------------------------------


 First call to EWALD:  gamma=   0.087
 Maximum number of real-space cells 3x 3x 3
 Maximum number of reciprocal cells 3x 3x 3

 FEWALD executed in parallel
    FEWALD:  cpu time    0.00: real time    0.00


----------------------------------------- Iteration    1(   1)  ---------------------------------------


    POTLOK:  cpu time    0.23: real time    0.23
    SETDIJ:  cpu time    0.00: real time    0.01
     EDDAV:  cpu time    0.88: real time    0.89
       DOS:  cpu time    0.00: real time    0.00
    --------------------------------------------
      LOOP:  cpu time    1.12: real time    1.14

 eigenvalue-minimisations  :   352
 total energy-change (2. order) : 0.1175987E+04  (-0.1947842E+04)
 number of electron     132.0000000 magnetization      12.0000000
 augmentation part      132.0000000 magnetization      12.0000000

 Free energy of the ion-electron system (eV)
  ---------------------------------------------------
  alpha Z        PSCENC =        14.33843919
  Ewald energy   TEWEN  =     14553.22206064
  -Hartree energ DENC   =    -26443.77086953
  -exchange      EXHF   =         0.00000000
  -V(xc)+E(xc)   XCENC  =      -133.75379666
  PAW double counting   =     12040.46613684   -11487.17530655
  entropy T*S    EENTRO =        -0.00000000
  eigenvalues    EBANDS =       186.27717021
  atomic energy  EATOM  =     12446.38356104
  ---------------------------------------------------
  free energy    TOTEN  =      1175.98739517 eV

  energy without entropy =     1175.98739517  energy(sigma->0) =     1175.98739517


--------------------------------------------------------------------------------------------------------




----------------------------------------- Iteration    1(   2)  ---------------------------------------


     EDDAV:  cpu time    1.46: real time    1.46
       DOS:  cpu time    0.00: real time    0.00
    --------------------------------------------
      LOOP:  cpu time    1.46: real time    1.47

 eigenvalue-minimisations  :   664
 total energy-change (2. order) :-0.6980577E+03  (-0.6078455E+03)
 number of electron     132.0000000 magnetization      12.0000000
 augmentation part      132.0000000 magnetization      12.0000000

 Free energy of the ion-electron system (eV)
  ---------------------------------------------------
  alpha Z        PSCENC =        14.33843919
  Ewald energy   TEWEN  =     14553.22206064
  -Hartree energ DENC   =    -26443.77086953
  -exchange      EXHF   =         0.00000000
  -V(xc)+E(xc)   XCENC  =      -133.75379666
  PAW double counting   =     12040.46613684   -11487.17530655
  entropy T*S    EENTRO =         0.00000000
  eigenvalues    EBANDS =      -511.78052406
  atomic energy  EATOM  =     12446.38356104
  ---------------------------------------------------
  free energy    TOTEN  =       477.92970090 eV

  energy without entropy =      477.92970090  energy(sigma->0) =      477.92970090


--------------------------------------------------------------------------------------------------------




----------------------------------------- Iteration    1(   3)  ---------------------------------------


     EDDAV:  cpu time    1.23: real time    1.23
       DOS:  cpu time    0.00: real time    0.00
    --------------------------------------------
      LOOP:  cpu time    1.23: real time    1.23

 eigenvalue-minimisations  :   528
 total energy-change (2. order) :-0.4376818E+03  (-0.4070333E+03)
 number of electron     132.0000000 magnetization      12.0000000
 augmentation part      132.0000000 magnetization      12.0000000

 Free energy of the ion-electron system (eV)
  ---------------------------------------------------
  alpha Z        PSCENC =        14.33843919
  Ewald energy   TEWEN  =     14553.22206064
  -Hartree energ DENC   =    -26443.77086953
  -exchange      EXHF   =         0.00000000
  -V(xc)+E(xc)   XCENC  =      -133.75379666
  PAW double counting   =     12040.46613684   -11487.17530655
  entropy T*S    EENTRO =         0.00000000
  eigenvalues    EBANDS =      -949.46232026
  atomic energy  EATOM  =     12446.38356104
  ---------------------------------------------------
  free energy    TOTEN  =        40.24790470 eV

  energy without entropy =       40.24790470  energy(sigma->0) =       40.24790470


--------------------------------------------------------------------------------------------------------




----------------------------------------- Iteration    1(   4)  ---------------------------------------


     EDDAV:  cpu time    1.03: real time    1.03
       DOS:  cpu time    0.00: real time    0.00
    --------------------------------------------
      LOOP:  cpu time    1.04: real time    1.04

 eigenvalue-minimisations  :   424
 total energy-change (2. order) :-0.6026405E+02  (-0.5537795E+02)
 number of electron     132.0000000 magnetization      12.0000000
 augmentation part      132.0000000 magnetization      12.0000000

 Free energy of the ion-electron system (eV)
  ---------------------------------------------------
  alpha Z        PSCENC =        14.33843919
  Ewald energy   TEWEN  =     14553.22206064
  -Hartree energ DENC   =    -26443.77086953
  -exchange      EXHF   =         0.00000000
  -V(xc)+E(xc)   XCENC  =      -133.75379666
  PAW double counting   =     12040.46613684   -11487.17530655
  entropy T*S    EENTRO =         0.00000000
  eigenvalues    EBANDS =     -1009.72637014
  atomic energy  EATOM  =     12446.38356104
  ---------------------------------------------------
  free energy    TOTEN  =       -20.01614518 eV

  energy without entropy =      -20.01614518  energy(sigma->0) =      -20.01614518


--------------------------------------------------------------------------------------------------------




----------------------------------------- Iteration    1(   5)  ---------------------------------------


     EDDAV:  cpu time    0.96: real time    0.96
       DOS:  cpu time    0.00: real time    0.00
    CHARGE:  cpu time    0.06: real time    0.06
    MIXING:  cpu time    0.01: real time    0.01
    --------------------------------------------
      LOOP:  cpu time    1.02: real time    1.03

 eigenvalue-minimisations  :   384
 total energy-change (2. order) :-0.1607224E+01  (-0.1600396E+01)
 number of electron     131.9999683 magnetization      10.3426819
 augmentation part       62.4432639 magnetization      10.5757588

 Broyden mixing:
  rms(total) = 0.19378E+01    rms(broyden)= 0.19374E+01
  rms(prec ) = 0.19728E+01
  weight for this iteration     100.00

 Free energy of the ion-electron system (eV)
  ---------------------------------------------------
  alpha Z        PSCENC =        14.33843919
  Ewald energy   TEWEN  =     14553.22206064
  -Hartree energ DENC   =    -26443.77086953
  -exchange      EXHF   =         0.00000000
  -V(xc)+E(xc)   XCENC  =      -133.75379666
  PAW double counting   =     12040.46613684   -11487.17530655
  entropy T*S    EENTRO =         0.00000000
  eigenvalues    EBANDS =     -1011.33359419
  atomic energy  EATOM  =     12446.38356104
  ---------------------------------------------------
  free energy    TOTEN  =       -21.62336924 eV

  energy without entropy =      -21.62336924  energy(sigma->0) =      -21.62336924


--------------------------------------------------------------------------------------------------------




----------------------------------------- Iteration    1(   6)  ---------------------------------------


    POTLOK:  cpu time    0.22: real time    0.22
    SETDIJ:  cpu time    0.00: real time    0.01
     EDDAV:  cpu time    0.92: real time    0.93
       DOS:  cpu time    0.00: real time    0.00
    CHARGE:  cpu time    0.05: real time    0.05
    MIXING:  cpu time    0.01: real time    0.01
    --------------------------------------------
      LOOP:  cpu time    1.21: real time    1.23

 eigenvalue-minimisations  :   368
 total energy-change (2. order) : 0.1983465E+02  (-0.5591310E+01)
 number of electron     131.9999678 magnetization       9.2682980
 augmentation part       63.5546132 magnetization       6.4189937

 Broyden mixing:
  rms(total) = 0.94912E+00    rms(broyden)= 0.94902E+00
  rms(prec ) = 0.96510E+00
  weight for this iteration     100.00

 eigenvalues of (default mixing * dielectric matrix)
  average eigenvalue GAMMA=   0.8491
  0.8491

 Free energy of the ion-electron system (eV)
  ---------------------------------------------------
  alpha Z        PSCENC =        14.33843919
  Ewald energy   TEWEN  =     14553.22206064
  -Hartree energ DENC   =    -26408.98544269
  -exchange      EXHF   =         0.00000000
  -V(xc)+E(xc)   XCENC  =      -122.62453641
  PAW double counting   =     12432.45262852   -11887.01979303
  entropy T*S    EENTRO =         0.00000000
  eigenvalues    EBANDS =     -1029.55563554
  atomic energy  EATOM  =     12446.38356104
  ---------------------------------------------------
  free energy    TOTEN  =        -1.78871828 eV

  energy without entropy =       -1.78871828  energy(sigma->0) =       -1.78871828


--------------------------------------------------------------------------------------------------------




----------------------------------------- Iteration    1(   7)  ---------------------------------------


    POTLOK:  cpu time    0.22: real time    0.22
    SETDIJ:  cpu time    0.01: real time    0.01
     EDDAV:  cpu time    0.95: real time    0.95
       DOS:  cpu time    0.00: real time    0.00
    CHARGE:  cpu time    0.06: real time    0.05
    MIXING:  cpu time    0.01: real time    0.01
    --------------------------------------------
      LOOP:  cpu time    1.25: real time    1.26

 eigenvalue-minimisations  :   384
 total energy-change (2. order) : 0.1223007E+01  (-0.3340848E+00)
 number of electron     131.9999679 magnetization       7.7421723
 augmentation part       63.5179276 magnetization       5.0532408

 Broyden mixing:
  rms(total) = 0.55418E+00    rms(broyden)= 0.55416E+00
  rms(prec ) = 0.56417E+00
  weight for this iteration     100.00

 eigenvalues of (default mixing * dielectric matrix)
  average eigenvalue GAMMA=   0.9670
  0.7516  1.1823

 Free energy of the ion-electron system (eV)
  ---------------------------------------------------
  alpha Z        PSCENC =        14.33843919
  Ewald energy   TEWEN  =     14553.22206064
  -Hartree energ DENC   =    -26433.10903388
  -exchange      EXHF   =         0.00000000
  -V(xc)+E(xc)   XCENC  =      -121.05435544
  PAW double counting   =     12667.44837088   -12127.36406219
  entropy T*S    EENTRO =         0.00000000
  eigenvalues    EBANDS =     -1000.43069177
  atomic energy  EATOM  =     12446.38356104
  ---------------------------------------------------
  free energy    TOTEN  =        -0.56571154 eV

  energy without entropy =       -0.56571154  energy(sigma->0) =       -0.56571154


--------------------------------------------------------------------------------------------------------




----------------------------------------- Iteration    1(   8)  ---------------------------------------


    POTLOK:  cpu time    0.22: real time    0.22
    SETDIJ:  cpu time    0.01: real time    0.01
     EDDAV:  cpu time    1.00: real time    1.00
       DOS:  cpu time    0.00: real time    0.00
    CHARGE:  cpu time    0.06: real time    0.06
    MIXING:  cpu time    0.01: real time    0.01
    --------------------------------------------
      LOOP:  cpu time    1.29: real time    1.30

 eigenvalue-minimisations  :   408
 total energy-change (2. order) :-0.3830562E+01  (-0.2045498E+00)
 number of electron     131.9999679 magnetization       6.6800295
 augmentation part       63.3966719 magnetization       4.1334379

 Broyden mixing:
  rms(total) = 0.27479E+00    rms(broyden)= 0.27478E+00
  rms(prec ) = 0.27880E+00
  weight for this iteration     100.00

 eigenvalues of (default mixing * dielectric matrix)
  average eigenvalue GAMMA=   1.1911
  2.0410  0.9113  0.6208

 Free energy of the ion-electron system (eV)
  ---------------------------------------------------
  alpha Z        PSCENC =        14.33843919
  Ewald energy   TEWEN  =     14553.22206064
  -Hartree energ DENC   =    -26460.28566300
  -exchange      EXHF   =         0.00000000
  -V(xc)+E(xc)   XCENC  =      -123.59431907
  PAW double counting   =     12919.78775570   -12384.90726185
  entropy T*S    EENTRO =         0.00000000
  eigenvalues    EBANDS =      -969.34084657
  atomic energy  EATOM  =     12446.38356104
  ---------------------------------------------------
  free energy    TOTEN  =        -4.39627393 eV

  energy without entropy =       -4.39627393  energy(sigma->0) =       -4.39627393


--------------------------------------------------------------------------------------------------------




----------------------------------------- Iteration    1(   9)  ---------------------------------------


    POTLOK:  cpu time    0.22: real time    0.22
    SETDIJ:  cpu time    0.01: real time    0.01
     EDDAV:  cpu time    0.92: real time    0.92
       DOS:  cpu time    0.00: real time    0.00
    CHARGE:  cpu time    0.05: real time    0.06
    MIXING:  cpu time    0.01: real time    0.01
    --------------------------------------------
      LOOP:  cpu time    1.22: real time    1.48

 eigenvalue-minimisations  :   368
 total energy-change (2. order) :-0.3500643E+01  (-0.9619695E-01)
 number of electron     131.9999679 magnetization       5.7555295
 augmentation part       63.3790627 magnetization       3.3154529

 Broyden mixing:
  rms(total) = 0.15572E+00    rms(broyden)= 0.15572E+00
  rms(prec ) = 0.15988E+00
  weight for this iteration     100.00

 eigenvalues of (default mixing * dielectric matrix)
  average eigenvalue GAMMA=   1.2001
  2.0163  0.6215  0.8056  1.3568

 Free energy of the ion-electron system (eV)
  ---------------------------------------------------
  alpha Z        PSCENC =        14.33843919
  Ewald energy   TEWEN  =     14553.22206064
  -Hartree energ DENC   =    -26466.76505822
  -exchange      EXHF   =         0.00000000
  -V(xc)+E(xc)   XCENC  =      -126.26468889
  PAW double counting   =     13012.72716398   -12479.70726811
  entropy T*S    EENTRO =         0.00000000
  eigenvalues    EBANDS =      -961.83112622
  atomic energy  EATOM  =     12446.38356104
  ---------------------------------------------------
  free energy    TOTEN  =        -7.89691660 eV

  energy without entropy =       -7.89691660  energy(sigma->0) =       -7.89691660


--------------------------------------------------------------------------------------------------------




----------------------------------------- Iteration    1(  10)  ---------------------------------------


    POTLOK:  cpu time    0.22: real time    0.22
    SETDIJ:  cpu time    0.01: real time    0.01
     EDDAV:  cpu time    0.95: real time    0.95
       DOS:  cpu time    0.00: real time    0.00
    CHARGE:  cpu time    0.06: real time    0.05
    MIXING:  cpu time    0.01: real time    0.01
    --------------------------------------------
      LOOP:  cpu time    1.25: real time    1.25

 eigenvalue-minimisations  :   384
 total energy-change (2. order) :-0.4334158E+01  (-0.1358024E+00)
 number of electron     131.9999679 magnetization       5.7284324
 augmentation part       63.4361869 magnetization       5.3857700

 Broyden mixing:
  rms(total) = 0.25264E+00    rms(broyden)= 0.25246E+00
  rms(prec ) = 0.27269E+00
  weight for this iteration     100.00

 eigenvalues of (default mixing * dielectric matrix)
  average eigenvalue GAMMA=   0.9784
  2.0418  1.3540  0.6226  0.8094  0.0640

 Free energy of the ion-electron system (eV)
  ---------------------------------------------------
  alpha Z        PSCENC =        14.33843919
  Ewald energy   TEWEN  =     14553.22206064
  -Hartree energ DENC   =    -26463.04052377
  -exchange      EXHF   =         0.00000000
  -V(xc)+E(xc)   XCENC  =      -129.63825984
  PAW double counting   =     13008.63922421   -12475.72393682
  entropy T*S    EENTRO =         0.00000000
  eigenvalues    EBANDS =      -966.41163958
  atomic energy  EATOM  =     12446.38356104
  ---------------------------------------------------
  free energy    TOTEN  =       -12.23107494 eV

  energy without entropy =      -12.23107494  energy(sigma->0) =      -12.23107494


--------------------------------------------------------------------------------------------------------




----------------------------------------- Iteration    1(  11)  ---------------------------------------


    POTLOK:  cpu time    0.22: real time    0.22
    SETDIJ:  cpu time    0.01: real time    0.01
     EDDAV:  cpu time    1.03: real time    1.03
       DOS:  cpu time    0.00: real time    0.00
    CHARGE:  cpu time    0.06: real time    0.06
    MIXING:  cpu time    0.01: real time    0.01
    --------------------------------------------
      LOOP:  cpu time    1.32: real time    1.33

 eigenvalue-minimisations  :   424
 total energy-change (2. order) : 0.5717533E-01  (-0.3036482E-02)
 number of electron     131.9999679 magnetization       5.8256487
 augmentation part       63.4253575 magnetization       5.4962172

 Broyden mixing:
  rms(total) = 0.24792E+00    rms(broyden)= 0.24791E+00
  rms(prec ) = 0.26791E+00
  weight for this iteration     100.00

 eigenvalues of (default mixing * dielectric matrix)
  average eigenvalue GAMMA=   0.8902
  2.1272  1.2996  0.6209  0.8145  0.2845  0.1943

 Free energy of the ion-electron system (eV)
  ---------------------------------------------------
  alpha Z        PSCENC =        14.33843919
  Ewald energy   TEWEN  =     14553.22206064
  -Hartree energ DENC   =    -26463.23025097
  -exchange      EXHF   =         0.00000000
  -V(xc)+E(xc)   XCENC  =      -129.55820383
  PAW double counting   =     13009.31881244   -12476.42033232
  entropy T*S    EENTRO =         0.00000000
  eigenvalues    EBANDS =      -966.22798578
  atomic energy  EATOM  =     12446.38356104
  ---------------------------------------------------
  free energy    TOTEN  =       -12.17389961 eV

  energy without entropy =      -12.17389961  energy(sigma->0) =      -12.17389961


--------------------------------------------------------------------------------------------------------




----------------------------------------- Iteration    1(  12)  ---------------------------------------


    POTLOK:  cpu time    0.22: real time    0.22
    SETDIJ:  cpu time    0.01: real time    0.01
     EDDAV:  cpu time    0.96: real time    0.96
       DOS:  cpu time    0.00: real time    0.00
    CHARGE:  cpu time    0.06: real time    0.06
    MIXING:  cpu time    0.01: real time    0.01
    --------------------------------------------
      LOOP:  cpu time    1.25: real time    1.25

 eigenvalue-minimisations  :   384
 total energy-change (2. order) : 0.9683389E-01  (-0.4233407E-02)
 number of electron     131.9999679 magnetization       5.4256999
 augmentation part       63.4086302 magnetization       5.0802379

 Broyden mixing:
  rms(total) = 0.26048E+00    rms(broyden)= 0.26048E+00
  rms(prec ) = 0.28200E+00
  weight for this iteration     100.00

 eigenvalues of (default mixing * dielectric matrix)
  average eigenvalue GAMMA=   0.8796
  2.0621  1.2877  0.8006  0.6151  0.5531  0.5531  0.2858

 Free energy of the ion-electron system (eV)
  ---------------------------------------------------
  alpha Z        PSCENC =        14.33843919
  Ewald energy   TEWEN  =     14553.22206064
  -Hartree energ DENC   =    -26464.93260487
  -exchange      EXHF   =         0.00000000
  -V(xc)+E(xc)   XCENC  =      -129.45824351
  PAW double counting   =     13031.39254876   -12498.60955803
  entropy T*S    EENTRO =         0.00000000
  eigenvalues    EBANDS =      -964.41326893
  atomic energy  EATOM  =     12446.38356104
  ---------------------------------------------------
  free energy    TOTEN  =       -12.07706571 eV

  energy without entropy =      -12.07706571  energy(sigma->0) =      -12.07706571


--------------------------------------------------------------------------------------------------------




----------------------------------------- Iteration    1(  13)  ---------------------------------------


    POTLOK:  cpu time    0.22: real time    0.22
    SETDIJ:  cpu time    0.01: real time    0.01
     EDDAV:  cpu time    0.97: real time    0.97
       DOS:  cpu time    0.00: real time    0.00
    CHARGE:  cpu time    0.06: real time    0.06
    MIXING:  cpu time    0.01: real time    0.01
    --------------------------------------------
      LOOP:  cpu time    1.26: real time    1.27

 eigenvalue-minimisations  :   392
 total energy-change (2. order) :-0.8092456E+00  (-0.2802699E-01)
 number of electron     131.9999679 magnetization       3.4077192
 augmentation part       63.4262010 magnetization       3.1095661

 Broyden mixing:
  rms(total) = 0.22599E+00    rms(broyden)= 0.22599E+00
  rms(prec ) = 0.24333E+00
  weight for this iteration     100.00

 eigenvalues of (default mixing * dielectric matrix)
  average eigenvalue GAMMA=   1.1313
  2.3599  1.5979  1.5979  1.1346  0.8143  0.6492  0.4481  0.4481

 Free energy of the ion-electron system (eV)
  ---------------------------------------------------
  alpha Z        PSCENC =        14.33843919
  Ewald energy   TEWEN  =     14553.22206064
  -Hartree energ DENC   =    -26463.17861922
  -exchange      EXHF   =         0.00000000
  -V(xc)+E(xc)   XCENC  =      -130.04014567
  PAW double counting   =     12991.42148901   -12458.63032001
  entropy T*S    EENTRO =         0.00000000
  eigenvalues    EBANDS =      -966.40277628
  atomic energy  EATOM  =     12446.38356104
  ---------------------------------------------------
  free energy    TOTEN  =       -12.88631132 eV

  energy without entropy =      -12.88631132  energy(sigma->0) =      -12.88631132


--------------------------------------------------------------------------------------------------------




----------------------------------------- Iteration    1(  14)  ---------------------------------------


    POTLOK:  cpu time    0.22: real time    0.22
    SETDIJ:  cpu time    0.01: real time    0.01
     EDDAV:  cpu time    0.95: real time    0.95
       DOS:  cpu time    0.00: real time    0.00
    CHARGE:  cpu time    0.06: real time    0.06
    MIXING:  cpu time    0.01: real time    0.01
    --------------------------------------------
      LOOP:  cpu time    1.25: real time    1.25

 eigenvalue-minimisations  :   384
 total energy-change (2. order) :-0.3491696E+01  (-0.2155815E+00)
 number of electron     131.9999679 magnetization       1.9885673
 augmentation part       63.4707619 magnetization       1.8597218

 Broyden mixing:
  rms(total) = 0.13979E+00    rms(broyden)= 0.13978E+00
  rms(prec ) = 0.14376E+00
  weight for this iteration     100.00

 eigenvalues of (default mixing * dielectric matrix)
  average eigenvalue GAMMA=   1.2110
  3.2800  1.6510  1.6510  1.0789  0.8162  0.8162  0.6641  0.4707  0.4707

 Free energy of the ion-electron system (eV)
  ---------------------------------------------------
  alpha Z        PSCENC =        14.33843919
  Ewald energy   TEWEN  =     14553.22206064
  -Hartree energ DENC   =    -26461.78745092
  -exchange      EXHF   =         0.00000000
  -V(xc)+E(xc)   XCENC  =      -132.73661032
  PAW double counting   =     12904.33186973   -12371.88834231
  entropy T*S    EENTRO =         0.00000000
  eigenvalues    EBANDS =      -968.24153480
  atomic energy  EATOM  =     12446.38356104
  ---------------------------------------------------
  free energy    TOTEN  =       -16.37800775 eV

  energy without entropy =      -16.37800775  energy(sigma->0) =      -16.37800775


--------------------------------------------------------------------------------------------------------




----------------------------------------- Iteration    1(  15)  ---------------------------------------


    POTLOK:  cpu time    0.22: real time    0.22
    SETDIJ:  cpu time    0.00: real time    0.01
     EDDAV:  cpu time    0.94: real time    0.94
       DOS:  cpu time    0.00: real time    0.00
    CHARGE:  cpu time    0.06: real time    0.06
    MIXING:  cpu time    0.01: real time    0.01
    --------------------------------------------
      LOOP:  cpu time    1.23: real time    1.24

 eigenvalue-minimisations  :   376
 total energy-change (2. order) :-0.2044709E+01  (-0.8395873E-01)
 number of electron     131.9999679 magnetization       1.7531525
 augmentation part       63.4816647 magnetization       1.7220914

 Broyden mixing:
  rms(total) = 0.11807E+00    rms(broyden)= 0.11806E+00
  rms(prec ) = 0.12147E+00
  weight for this iteration     100.00

 eigenvalues of (default mixing * dielectric matrix)
  average eigenvalue GAMMA=   1.2993
  3.8543  1.7463  1.7463  1.6165  0.8053  0.8053  0.8468  0.6252  0.4733  0.4733

 Free energy of the ion-electron system (eV)
  ---------------------------------------------------
  alpha Z        PSCENC =        14.33843919
  Ewald energy   TEWEN  =     14553.22206064
  -Hartree energ DENC   =    -26461.93982734
  -exchange      EXHF   =         0.00000000
  -V(xc)+E(xc)   XCENC  =      -134.38641559
  PAW double counting   =     12884.14494739   -12351.67789492
  entropy T*S    EENTRO =         0.00000000
  eigenvalues    EBANDS =      -968.50758676
  atomic energy  EATOM  =     12446.38356104
  ---------------------------------------------------
  free energy    TOTEN  =       -18.42271636 eV

  energy without entropy =      -18.42271636  energy(sigma->0) =      -18.42271636


--------------------------------------------------------------------------------------------------------




----------------------------------------- Iteration    1(  16)  ---------------------------------------


    POTLOK:  cpu time    0.22: real time    0.22
    SETDIJ:  cpu time    0.00: real time    0.01
     EDDAV:  cpu time    0.91: real time    0.91
       DOS:  cpu time    0.00: real time    0.00
    CHARGE:  cpu time    0.06: real time    0.06
    MIXING:  cpu time    0.01: real time    0.01
    --------------------------------------------
      LOOP:  cpu time    1.21: real time    1.21

 eigenvalue-minimisations  :   360
 total energy-change (2. order) :-0.1166437E+01  (-0.2977308E-01)
 number of electron     131.9999679 magnetization       1.1154448
 augmentation part       63.4293057 magnetization       1.0722135

 Broyden mixing:
  rms(total) = 0.56980E-01    rms(broyden)= 0.56973E-01
  rms(prec ) = 0.60325E-01
  weight for this iteration     100.00

 eigenvalues of (default mixing * dielectric matrix)
  average eigenvalue GAMMA=   1.3796
  4.4444  1.8449  1.8449  2.0925  0.9053  0.9053  0.8059  0.7326  0.6488  0.4757
  0.4757

 Free energy of the ion-electron system (eV)
  ---------------------------------------------------
  alpha Z        PSCENC =        14.33843919
  Ewald energy   TEWEN  =     14553.22206064
  -Hartree energ DENC   =    -26463.33071909
  -exchange      EXHF   =         0.00000000
  -V(xc)+E(xc)   XCENC  =      -135.33458853
  PAW double counting   =     12942.53756081   -12409.70645838
  entropy T*S    EENTRO =         0.00000000
  eigenvalues    EBANDS =      -967.69900940
  atomic energy  EATOM  =     12446.38356104
  ---------------------------------------------------
  free energy    TOTEN  =       -19.58915374 eV

  energy without entropy =      -19.58915374  energy(sigma->0) =      -19.58915374


--------------------------------------------------------------------------------------------------------




----------------------------------------- Iteration    1(  17)  ---------------------------------------


    POTLOK:  cpu time    0.22: real time    0.22
    SETDIJ:  cpu time    0.01: real time    0.01
     EDDAV:  cpu time    0.92: real time    0.92
       DOS:  cpu time    0.00: real time    0.00
    CHARGE:  cpu time    0.06: real time    0.06
    MIXING:  cpu time    0.01: real time    0.01
    --------------------------------------------
      LOOP:  cpu time    1.22: real time    1.23

 eigenvalue-minimisations  :   368
 total energy-change (2. order) :-0.7895501E+00  (-0.1356613E-01)
 number of electron     131.9999679 magnetization       0.6279968
 augmentation part       63.4350213 magnetization       0.5980722

 Broyden mixing:
  rms(total) = 0.33829E-01    rms(broyden)= 0.33819E-01
  rms(prec ) = 0.37114E-01
  weight for this iteration     100.00

 eigenvalues of (default mixing * dielectric matrix)
  average eigenvalue GAMMA=   1.4602
  5.3755  2.5250  1.8060  1.8060  1.2146  0.8020  0.8020  0.9081  0.4719  0.4719
  0.7074  0.6327

 Free energy of the ion-electron system (eV)
  ---------------------------------------------------
  alpha Z        PSCENC =        14.33843919
  Ewald energy   TEWEN  =     14553.22206064
  -Hartree energ DENC   =    -26459.01896784
  -exchange      EXHF   =         0.00000000
  -V(xc)+E(xc)   XCENC  =      -136.10541207
  PAW double counting   =     12946.97848190   -12413.55902274
  entropy T*S    EENTRO =         0.00000000
  eigenvalues    EBANDS =      -972.61784396
  atomic energy  EATOM  =     12446.38356104
  ---------------------------------------------------
  free energy    TOTEN  =       -20.37870385 eV

  energy without entropy =      -20.37870385  energy(sigma->0) =      -20.37870385


--------------------------------------------------------------------------------------------------------




----------------------------------------- Iteration    1(  18)  ---------------------------------------


    POTLOK:  cpu time    0.22: real time    0.22
    SETDIJ:  cpu time    0.01: real time    0.01
     EDDAV:  cpu time    0.94: real time    0.94
       DOS:  cpu time    0.00: real time    0.00
    CHARGE:  cpu time    0.06: real time    0.06
    MIXING:  cpu time    0.01: real time    0.01
    --------------------------------------------
      LOOP:  cpu time    1.24: real time    1.24

 eigenvalue-minimisations  :   376
 total energy-change (2. order) :-0.5944880E+00  (-0.7148836E-02)
 number of electron     131.9999679 magnetization       0.2960405
 augmentation part       63.4348621 magnetization       0.2798506

 Broyden mixing:
  rms(total) = 0.24439E-01    rms(broyden)= 0.24430E-01
  rms(prec ) = 0.27076E-01
  weight for this iteration     100.00

 eigenvalues of (default mixing * dielectric matrix)
  average eigenvalue GAMMA=   1.4967
  6.0453  2.6029  1.7427  1.7427  1.5100  1.0305  0.8803  0.8803  0.4726  0.4726
  0.7186  0.7186  0.6401

 Free energy of the ion-electron system (eV)
  ---------------------------------------------------
  alpha Z        PSCENC =        14.33843919
  Ewald energy   TEWEN  =     14553.22206064
  -Hartree energ DENC   =    -26455.58038838
  -exchange      EXHF   =         0.00000000
  -V(xc)+E(xc)   XCENC  =      -136.70665471
  PAW double counting   =     12950.15739854   -12416.48245301
  entropy T*S    EENTRO =         0.00000000
  eigenvalues    EBANDS =      -976.30515514
  atomic energy  EATOM  =     12446.38356104
  ---------------------------------------------------
  free energy    TOTEN  =       -20.97319185 eV

  energy without entropy =      -20.97319185  energy(sigma->0) =      -20.97319185


--------------------------------------------------------------------------------------------------------




----------------------------------------- Iteration    1(  19)  ---------------------------------------


    POTLOK:  cpu time    0.22: real time    0.22
    SETDIJ:  cpu time    0.00: real time    0.01
     EDDAV:  cpu time    0.97: real time    0.97
       DOS:  cpu time    0.00: real time    0.00
    CHARGE:  cpu time    0.06: real time    0.06
    MIXING:  cpu time    0.01: real time    0.01
    --------------------------------------------
      LOOP:  cpu time    1.27: real time    1.27

 eigenvalue-minimisations  :   392
 total energy-change (2. order) :-0.3201421E+00  (-0.1785972E-02)
 number of electron     131.9999679 magnetization       0.0427695
 augmentation part       63.4405893 magnetization       0.0390180

 Broyden mixing:
  rms(total) = 0.13152E-01    rms(broyden)= 0.13145E-01
  rms(prec ) = 0.15316E-01
  weight for this iteration     100.00

 eigenvalues of (default mixing * dielectric matrix)
  average eigenvalue GAMMA=   1.5814
  6.8434  2.8793  1.7783  1.7783  2.1577  1.1142  0.8260  0.8260  0.9592  0.4729
  0.4729  0.7515  0.6397  0.6397

 Free energy of the ion-electron system (eV)
  ---------------------------------------------------
  alpha Z        PSCENC =        14.33843919
  Ewald energy   TEWEN  =     14553.22206064
  -Hartree energ DENC   =    -26452.40738026
  -exchange      EXHF   =         0.00000000
  -V(xc)+E(xc)   XCENC  =      -137.06461014
  PAW double counting   =     12945.07217974   -12411.38779087
  entropy T*S    EENTRO =         0.00000000
  eigenvalues    EBANDS =      -979.44979323
  atomic energy  EATOM  =     12446.38356104
  ---------------------------------------------------
  free energy    TOTEN  =       -21.29333391 eV

  energy without entropy =      -21.29333391  energy(sigma->0) =      -21.29333391


--------------------------------------------------------------------------------------------------------




----------------------------------------- Iteration    1(  20)  ---------------------------------------


    POTLOK:  cpu time    0.22: real time    0.22
    SETDIJ:  cpu time    0.00: real time    0.01
     EDDAV:  cpu time    0.94: real time    0.94
       DOS:  cpu time    0.00: real time    0.00
    CHARGE:  cpu time    0.06: real time    0.06
    MIXING:  cpu time    0.01: real time    0.01
    --------------------------------------------
      LOOP:  cpu time    1.24: real time    1.24

 eigenvalue-minimisations  :   376
 total energy-change (2. order) :-0.2338032E+00  (-0.1009373E-02)
 number of electron     131.9999679 magnetization       0.0297030
 augmentation part       63.4472488 magnetization       0.0334512

 Broyden mixing:
  rms(total) = 0.11128E-01    rms(broyden)= 0.11124E-01
  rms(prec ) = 0.13000E-01
  weight for this iteration     100.00

 eigenvalues of (default mixing * dielectric matrix)
  average eigenvalue GAMMA=   1.6008
  7.1222  3.3758  2.2362  1.7662  1.7662  1.3422  1.0084  0.8595  0.8595  0.4726
  0.4726  0.7311  0.7311  0.6343  0.6343

 Free energy of the ion-electron system (eV)
  ---------------------------------------------------
  alpha Z        PSCENC =        14.33843919
  Ewald energy   TEWEN  =     14553.22206064
  -Hartree energ DENC   =    -26448.72622091
  -exchange      EXHF   =         0.00000000
  -V(xc)+E(xc)   XCENC  =      -137.34116396
  PAW double counting   =     12943.51494923   -12409.83277054
  entropy T*S    EENTRO =         0.00000000
  eigenvalues    EBANDS =      -983.08599179
  atomic energy  EATOM  =     12446.38356104
  ---------------------------------------------------
  free energy    TOTEN  =       -21.52713711 eV

  energy without entropy =      -21.52713711  energy(sigma->0) =      -21.52713711


--------------------------------------------------------------------------------------------------------




----------------------------------------- Iteration    1(  21)  ---------------------------------------


    POTLOK:  cpu time    0.22: real time    0.22
    SETDIJ:  cpu time    0.01: real time    0.01
     EDDAV:  cpu time    0.95: real time    0.95
       DOS:  cpu time    0.00: real time    0.00
    CHARGE:  cpu time    0.06: real time    0.06
    MIXING:  cpu time    0.01: real time    0.01
    --------------------------------------------
      LOOP:  cpu time    1.25: real time    1.26

 eigenvalue-minimisations  :   384
 total energy-change (2. order) :-0.4262638E-01  (-0.1708384E-03)
 number of electron     131.9999679 magnetization       0.0630180
 augmentation part       63.4476677 magnetization       0.0645176

 Broyden mixing:
  rms(total) = 0.67386E-02    rms(broyden)= 0.67379E-02
  rms(prec ) = 0.79934E-02
  weight for this iteration     100.00

 eigenvalues of (default mixing * dielectric matrix)
  average eigenvalue GAMMA=   1.5974
  6.9875  3.7543  1.7372  1.7372  2.1032  1.8535  0.9960  0.9960  0.8061  0.8061
  0.8867  0.4727  0.4727  0.6559  0.6559  0.6374

 Free energy of the ion-electron system (eV)
  ---------------------------------------------------
  alpha Z        PSCENC =        14.33843919
  Ewald energy   TEWEN  =     14553.22206064
  -Hartree energ DENC   =    -26447.07648067
  -exchange      EXHF   =         0.00000000
  -V(xc)+E(xc)   XCENC  =      -137.39567305
  PAW double counting   =     12946.71914787   -12413.05580875
  entropy T*S    EENTRO =         0.00000000
  eigenvalues    EBANDS =      -984.70500975
  atomic energy  EATOM  =     12446.38356104
  ---------------------------------------------------
  free energy    TOTEN  =       -21.56976349 eV

  energy without entropy =      -21.56976349  energy(sigma->0) =      -21.56976349


--------------------------------------------------------------------------------------------------------




----------------------------------------- Iteration    1(  22)  ---------------------------------------


    POTLOK:  cpu time    0.22: real time    0.22
    SETDIJ:  cpu time    0.00: real time    0.01
     EDDAV:  cpu time    0.95: real time    0.95
       DOS:  cpu time    0.00: real time    0.00
    CHARGE:  cpu time    0.06: real time    0.06
    MIXING:  cpu time    0.01: real time    0.01
    --------------------------------------------
      LOOP:  cpu time    1.26: real time    1.26

 eigenvalue-minimisations  :   384
 total energy-change (2. order) :-0.1680703E-01  (-0.1609249E-03)
 number of electron     131.9999679 magnetization       0.0387442
 augmentation part       63.4475069 magnetization       0.0362429

 Broyden mixing:
  rms(total) = 0.47089E-02    rms(broyden)= 0.47079E-02
  rms(prec ) = 0.55746E-02
  weight for this iteration     100.00

 eigenvalues of (default mixing * dielectric matrix)
  average eigenvalue GAMMA=   1.6273
  7.1262  4.1882  1.7403  1.7403  2.1457  2.1457  1.1800  1.1800  0.8434  0.8434
  0.4727  0.4727  0.7949  0.7949  0.7468  0.6243  0.6243

 Free energy of the ion-electron system (eV)
  ---------------------------------------------------
  alpha Z        PSCENC =        14.33843919
  Ewald energy   TEWEN  =     14553.22206064
  -Hartree energ DENC   =    -26445.67789422
  -exchange      EXHF   =         0.00000000
  -V(xc)+E(xc)   XCENC  =      -137.41885050
  PAW double counting   =     12949.75527942   -12416.10171398
  entropy T*S    EENTRO =         0.00000000
  eigenvalues    EBANDS =      -986.08745211
  atomic energy  EATOM  =     12446.38356104
  ---------------------------------------------------
  free energy    TOTEN  =       -21.58657052 eV

  energy without entropy =      -21.58657052  energy(sigma->0) =      -21.58657052


--------------------------------------------------------------------------------------------------------




----------------------------------------- Iteration    1(  23)  ---------------------------------------


    POTLOK:  cpu time    0.22: real time    0.22
    SETDIJ:  cpu time    0.00: real time    0.01
     EDDAV:  cpu time    0.77: real time    0.77
       DOS:  cpu time    0.00: real time    0.00
    CHARGE:  cpu time    0.06: real time    0.06
    MIXING:  cpu time    0.02: real time    0.01
    --------------------------------------------
      LOOP:  cpu time    1.07: real time    1.07

 eigenvalue-minimisations  :   280
 total energy-change (2. order) :-0.4493811E-02  (-0.5616292E-04)
 number of electron     131.9999679 magnetization       0.0204098
 augmentation part       63.4491685 magnetization       0.0183231

 Broyden mixing:
  rms(total) = 0.35697E-02    rms(broyden)= 0.35693E-02
  rms(prec ) = 0.42522E-02
  weight for this iteration     100.00

 eigenvalues of (default mixing * dielectric matrix)
  average eigenvalue GAMMA=   1.6258
  7.1808  4.5067  2.5495  1.7395  1.7395  1.7849  1.5304  0.9787  0.9787  0.8471
  0.8471  0.9178  0.4727  0.4727  0.7916  0.6283  0.6283  0.6707

 Free energy of the ion-electron system (eV)
  ---------------------------------------------------
  alpha Z        PSCENC =        14.33843919
  Ewald energy   TEWEN  =     14553.22206064
  -Hartree energ DENC   =    -26444.47437372
  -exchange      EXHF   =         0.00000000
  -V(xc)+E(xc)   XCENC  =      -137.43384999
  PAW double counting   =     12947.44113324   -12413.79591588
  entropy T*S    EENTRO =         0.00000000
  eigenvalues    EBANDS =      -987.27211884
  atomic energy  EATOM  =     12446.38356104
  ---------------------------------------------------
  free energy    TOTEN  =       -21.59106433 eV

  energy without entropy =      -21.59106433  energy(sigma->0) =      -21.59106433


--------------------------------------------------------------------------------------------------------




----------------------------------------- Iteration    1(  24)  ---------------------------------------


    POTLOK:  cpu time    0.22: real time    0.22
    SETDIJ:  cpu time    0.00: real time    0.01
     EDDAV:  cpu time    0.77: real time    0.77
       DOS:  cpu time    0.00: real time    0.00
    CHARGE:  cpu time    0.06: real time    0.06
    MIXING:  cpu time    0.02: real time    0.02
    --------------------------------------------
      LOOP:  cpu time    1.07: real time    1.07

 eigenvalue-minimisations  :   280
 total energy-change (2. order) :-0.3120888E-03  (-0.2279164E-04)
 number of electron     131.9999679 magnetization       0.0083556
 augmentation part       63.4497698 magnetization       0.0073379

 Broyden mixing:
  rms(total) = 0.22381E-02    rms(broyden)= 0.22380E-02
  rms(prec ) = 0.27160E-02
  weight for this iteration     100.00

 eigenvalues of (default mixing * dielectric matrix)
  average eigenvalue GAMMA=   1.6312
  7.3075  4.5962  2.8404  1.7341  1.7341  1.6956  1.5032  1.2654  1.2654  0.9943
  0.8288  0.8288  0.4727  0.4727  0.7677  0.7677  0.6284  0.6284  0.6606

 Free energy of the ion-electron system (eV)
  ---------------------------------------------------
  alpha Z        PSCENC =        14.33843919
  Ewald energy   TEWEN  =     14553.22206064
  -Hartree energ DENC   =    -26443.80443870
  -exchange      EXHF   =         0.00000000
  -V(xc)+E(xc)   XCENC  =      -137.43869036
  PAW double counting   =     12945.39605424   -12411.76848116
  entropy T*S    EENTRO =         0.00000000
  eigenvalues    EBANDS =      -987.91988131
  atomic energy  EATOM  =     12446.38356104
  ---------------------------------------------------
  free energy    TOTEN  =       -21.59137642 eV

  energy without entropy =      -21.59137642  energy(sigma->0) =      -21.59137642


--------------------------------------------------------------------------------------------------------




----------------------------------------- Iteration    1(  25)  ---------------------------------------


    POTLOK:  cpu time    0.22: real time    0.22
    SETDIJ:  cpu time    0.00: real time    0.01
     EDDAV:  cpu time    0.77: real time    0.77
       DOS:  cpu time    0.00: real time    0.00
    CHARGE:  cpu time    0.06: real time    0.06
    MIXING:  cpu time    0.02: real time    0.02
    --------------------------------------------
      LOOP:  cpu time    1.07: real time    1.08

 eigenvalue-minimisations  :   280
 total energy-change (2. order) :-0.9517191E-03  (-0.9079151E-05)
 number of electron     131.9999679 magnetization       0.0031888
 augmentation part       63.4497559 magnetization       0.0027220

 Broyden mixing:
  rms(total) = 0.15243E-02    rms(broyden)= 0.15242E-02
  rms(prec ) = 0.18152E-02
  weight for this iteration     100.00

 eigenvalues of (default mixing * dielectric matrix)
  average eigenvalue GAMMA=   1.6409
  7.3145  4.7814  2.9061  1.7312  1.7312  2.1081  1.5981  1.5981  1.0807  1.0807
  0.8381  0.8381  0.4727  0.4727  0.8252  0.8252  0.7035  0.6225  0.6225  0.6670

 Free energy of the ion-electron system (eV)
  ---------------------------------------------------
  alpha Z        PSCENC =        14.33843919
  Ewald energy   TEWEN  =     14553.22206064
  -Hartree energ DENC   =    -26443.42342963
  -exchange      EXHF   =         0.00000000
  -V(xc)+E(xc)   XCENC  =      -137.44182277
  PAW double counting   =     12944.73182559   -12411.10885755
  entropy T*S    EENTRO =         0.00000000
  eigenvalues    EBANDS =      -988.29410464
  atomic energy  EATOM  =     12446.38356104
  ---------------------------------------------------
  free energy    TOTEN  =       -21.59232814 eV

  energy without entropy =      -21.59232814  energy(sigma->0) =      -21.59232814


--------------------------------------------------------------------------------------------------------




----------------------------------------- Iteration    1(  26)  ---------------------------------------


    POTLOK:  cpu time    0.22: real time    0.22
    SETDIJ:  cpu time    0.01: real time    0.01
     EDDAV:  cpu time    0.72: real time    0.72
       DOS:  cpu time    0.00: real time    0.00
    CHARGE:  cpu time    0.06: real time    0.06
    MIXING:  cpu time    0.02: real time    0.02
    --------------------------------------------
      LOOP:  cpu time    1.03: real time    1.03

 eigenvalue-minimisations  :   256
 total energy-change (2. order) :-0.1595248E-02  (-0.5893050E-05)
 number of electron     131.9999679 magnetization      -0.0032046
 augmentation part       63.4494602 magnetization      -0.0035290

 Broyden mixing:
  rms(total) = 0.66381E-03    rms(broyden)= 0.66368E-03
  rms(prec ) = 0.86874E-03
  weight for this iteration     100.00

 eigenvalues of (default mixing * dielectric matrix)
  average eigenvalue GAMMA=   1.6853
  7.4322  4.7355  3.4389  2.4550  1.7316  1.7316  1.9282  1.9282  1.1300  1.1300
  0.8334  0.8334  0.9040  0.9040  0.4727  0.4727  0.7382  0.6803  0.6803  0.6155
  0.6155

 Free energy of the ion-electron system (eV)
  ---------------------------------------------------
  alpha Z        PSCENC =        14.33843919
  Ewald energy   TEWEN  =     14553.22206064
  -Hartree energ DENC   =    -26443.04868915
  -exchange      EXHF   =         0.00000000
  -V(xc)+E(xc)   XCENC  =      -137.44492176
  PAW double counting   =     12945.25004366   -12411.62168328
  entropy T*S    EENTRO =         0.00000000
  eigenvalues    EBANDS =      -988.67273372
  atomic energy  EATOM  =     12446.38356104
  ---------------------------------------------------
  free energy    TOTEN  =       -21.59392339 eV

  energy without entropy =      -21.59392339  energy(sigma->0) =      -21.59392339


--------------------------------------------------------------------------------------------------------




----------------------------------------- Iteration    1(  27)  ---------------------------------------


    POTLOK:  cpu time    0.22: real time    0.22
    SETDIJ:  cpu time    0.00: real time    0.01
     EDDAV:  cpu time    0.69: real time    0.70
       DOS:  cpu time    0.00: real time    0.00
    CHARGE:  cpu time    0.06: real time    0.06
    MIXING:  cpu time    0.02: real time    0.02
    --------------------------------------------
      LOOP:  cpu time    1.00: real time    1.00

 eigenvalue-minimisations  :   240
 total energy-change (2. order) :-0.9354197E-03  (-0.3544548E-05)
 number of electron     131.9999679 magnetization      -0.0001869
 augmentation part       63.4495628 magnetization      -0.0001330

 Broyden mixing:
  rms(total) = 0.48685E-03    rms(broyden)= 0.48668E-03
  rms(prec ) = 0.59816E-03
  weight for this iteration     100.00

 eigenvalues of (default mixing * dielectric matrix)
  average eigenvalue GAMMA=   1.7204
  7.3818  5.5703  3.9013  2.5046  1.7315  1.7315  1.8210  1.8210  1.5803  1.1771
  0.8340  0.8340  0.9386  0.9386  0.8536  0.4727  0.4727  0.7046  0.7046  0.6321
  0.6211  0.6211

 Free energy of the ion-electron system (eV)
  ---------------------------------------------------
  alpha Z        PSCENC =        14.33843919
  Ewald energy   TEWEN  =     14553.22206064
  -Hartree energ DENC   =    -26442.77502361
  -exchange      EXHF   =         0.00000000
  -V(xc)+E(xc)   XCENC  =      -137.44749323
  PAW double counting   =     12945.63878680   -12412.00607154
  entropy T*S    EENTRO =         0.00000000
  eigenvalues    EBANDS =      -988.94911809
  atomic energy  EATOM  =     12446.38356104
  ---------------------------------------------------
  free energy    TOTEN  =       -21.59485881 eV

  energy without entropy =      -21.59485881  energy(sigma->0) =      -21.59485881


--------------------------------------------------------------------------------------------------------




----------------------------------------- Iteration    1(  28)  ---------------------------------------


    POTLOK:  cpu time    0.22: real time    0.22
    SETDIJ:  cpu time    0.00: real time    0.01
     EDDAV:  cpu time    0.71: real time    0.71
       DOS:  cpu time    0.00: real time    0.00
    CHARGE:  cpu time    0.06: real time    0.06
    MIXING:  cpu time    0.02: real time    0.02
    --------------------------------------------
      LOOP:  cpu time    1.02: real time    1.02

 eigenvalue-minimisations  :   248
 total energy-change (2. order) :-0.1605132E-03  (-0.8696897E-06)
 number of electron     131.9999679 magnetization      -0.0000499
 augmentation part       63.4494757 magnetization      -0.0001073

 Broyden mixing:
  rms(total) = 0.39944E-03    rms(broyden)= 0.39939E-03
  rms(prec ) = 0.46651E-03
  weight for this iteration     100.00

 eigenvalues of (default mixing * dielectric matrix)
  average eigenvalue GAMMA=   1.7330
  7.3093  6.1181  3.8768  2.6645  1.7315  1.7315  2.1131  1.8217  1.8217  1.2092
  0.9821  0.9821  0.8317  0.8317  0.8561  0.4727  0.4727  0.7479  0.7479  0.6495
  0.6381  0.6381  0.6101

 Free energy of the ion-electron system (eV)
  ---------------------------------------------------
  alpha Z        PSCENC =        14.33843919
  Ewald energy   TEWEN  =     14553.22206064
  -Hartree energ DENC   =    -26442.67687023
  -exchange      EXHF   =         0.00000000
  -V(xc)+E(xc)   XCENC  =      -137.44801056
  PAW double counting   =     12946.01303209   -12412.38018571
  entropy T*S    EENTRO =         0.00000000
  eigenvalues    EBANDS =      -989.04704577
  atomic energy  EATOM  =     12446.38356104
  ---------------------------------------------------
  free energy    TOTEN  =       -21.59501932 eV

  energy without entropy =      -21.59501932  energy(sigma->0) =      -21.59501932


--------------------------------------------------------------------------------------------------------




----------------------------------------- Iteration    1(  29)  ---------------------------------------


    POTLOK:  cpu time    0.22: real time    0.22
    SETDIJ:  cpu time    0.01: real time    0.01
     EDDAV:  cpu time    0.71: real time    0.71
       DOS:  cpu time    0.00: real time    0.00
    --------------------------------------------
      LOOP:  cpu time    0.94: real time    0.95

 eigenvalue-minimisations  :   248
 total energy-change (2. order) :-0.4906379E-04  (-0.2906157E-06)
 number of electron     131.9999679 magnetization      -0.0000499
 augmentation part       63.4494757 magnetization      -0.0001073

 Free energy of the ion-electron system (eV)
  ---------------------------------------------------
  alpha Z        PSCENC =        14.33843919
  Ewald energy   TEWEN  =     14553.22206064
  -Hartree energ DENC   =    -26442.57480992
  -exchange      EXHF   =         0.00000000
  -V(xc)+E(xc)   XCENC  =      -137.44902941
  PAW double counting   =     12945.93874875   -12412.30529866
  entropy T*S    EENTRO =         0.00000000
  eigenvalues    EBANDS =      -989.14874002
  atomic energy  EATOM  =     12446.38356104
  ---------------------------------------------------
  free energy    TOTEN  =       -21.59506839 eV

  energy without entropy =      -21.59506839  energy(sigma->0) =      -21.59506839


--------------------------------------------------------------------------------------------------------




 average (electrostatic) potential at core
  the test charge radii are     1.1249
  (the norm of the test charge is              1.0000)
       1 -82.4268       2 -82.4391       3 -82.4047       4 -82.5667       5 -82.3172
       6 -82.4385       7 -82.4125       8 -82.4333       9 -82.3194      10 -82.5635
      11 -82.4266      12 -82.4372
 
 
 
 E-fermi :  -4.1141     XC(G=0):  -0.6490     alpha+bet : -0.3224


 spin component 1

 k-point     1 :       0.0000    0.0000    0.0000
  band No.  band energies     occupation 
      1      -9.2637      1.00000
      2      -9.1590      1.00000
      3      -9.1005      1.00000
      4      -9.0860      1.00000
      5      -9.0713      1.00000
      6      -8.9572      1.00000
      7      -8.8976      1.00000
      8      -8.8078      1.00000
      9      -8.7115      1.00000
     10      -8.7026      1.00000
     11      -8.6589      1.00000
     12      -8.6228      1.00000
     13      -8.6087      1.00000
     14      -8.5707      1.00000
     15      -8.4854      1.00000
     16      -8.3597      1.00000
     17      -8.3154      1.00000
     18      -8.3026      1.00000
     19      -8.2586      1.00000
     20      -8.2308      1.00000
     21      -8.1066      1.00000
     22      -8.0823      1.00000
     23      -8.0427      1.00000
     24      -7.9896      1.00000
     25      -7.9330      1.00000
     26      -7.7664      1.00000
     27      -7.7264      1.00000
     28      -7.6401      1.00000
     29      -7.5977      1.00000
     30      -7.5603      1.00000
     31      -7.4179      1.00000
     32      -7.3731      1.00000
     33      -7.3499      1.00000
     34      -7.3423      1.00000
     35      -7.2908      1.00000
     36      -7.2801      1.00000
     37      -7.2276      1.00000
     38      -7.2225      1.00000
     39      -7.2003      1.00000
     40      -7.1966      1.00000
     41      -7.1737      1.00000
     42      -7.1383      1.00000
     43      -7.1263      1.00000
     44      -7.0688      1.00000
     45      -7.0622      1.00000
     46      -7.0343      1.00000
     47      -6.9437      1.00000
     48      -6.9342      1.00000
     49      -6.9081      1.00000
     50      -6.8845      1.00000
     51      -6.8525      1.00000
     52      -6.8170      1.00000
     53      -6.8044      1.00000
     54      -6.7916      1.00000
     55      -6.7802      1.00000
     56      -6.6796      1.00000
     57      -6.6634      1.00000
     58      -6.6201      1.00000
     59      -6.6032      1.00000
     60      -6.4741      1.00000
     61      -6.3985      1.00000
     62      -6.3576      1.00000
     63      -5.4974      1.00000
     64      -4.7567      1.00000
     65      -4.5607      1.00000
     66      -4.1265      1.00000
     67      -3.2982      0.00000
     68      -2.9307      0.00000
     69      -2.8083      0.00000
     70      -2.4305      0.00000
     71      -2.1996      0.00000
     72      -1.7175      0.00000
     73      -1.5514      0.00000
     74      -1.3102      0.00000
     75      -1.1309      0.00000
     76      -1.0591      0.00000
     77      -0.8241      0.00000
     78      -0.6197      0.00000
     79      -0.1012      0.00000
     80      -0.0868      0.00000
     81      -0.0126      0.00000
     82       0.2323      0.00000
     83       0.4346      0.00000
     84       0.4513      0.00000
     85       0.4776      0.00000
     86       0.5195      0.00000
     87       0.5361      0.00000
     88       0.5668      0.00000

 spin component 2

 k-point     1 :       0.0000    0.0000    0.0000
  band No.  band energies     occupation 
      1      -9.2637      1.00000
      2      -9.1590      1.00000
      3      -9.1005      1.00000
      4      -9.0860      1.00000
      5      -9.0712      1.00000
      6      -8.9572      1.00000
      7      -8.8976      1.00000
      8      -8.8078      1.00000
      9      -8.7115      1.00000
     10      -8.7026      1.00000
     11      -8.6589      1.00000
     12      -8.6228      1.00000
     13      -8.6087      1.00000
     14      -8.5707      1.00000
     15      -8.4854      1.00000
     16      -8.3597      1.00000
     17      -8.3153      1.00000
     18      -8.3026      1.00000
     19      -8.2586      1.00000
     20      -8.2308      1.00000
     21      -8.1066      1.00000
     22      -8.0823      1.00000
     23      -8.0427      1.00000
     24      -7.9896      1.00000
     25      -7.9330      1.00000
     26      -7.7664      1.00000
     27      -7.7264      1.00000
     28      -7.6401      1.00000
     29      -7.5977      1.00000
     30      -7.5603      1.00000
     31      -7.4179      1.00000
     32      -7.3731      1.00000
     33      -7.3499      1.00000
     34      -7.3423      1.00000
     35      -7.2908      1.00000
     36      -7.2801      1.00000
     37      -7.2276      1.00000
     38      -7.2225      1.00000
     39      -7.2003      1.00000
     40      -7.1966      1.00000
     41      -7.1737      1.00000
     42      -7.1383      1.00000
     43      -7.1263      1.00000
     44      -7.0687      1.00000
     45      -7.0622      1.00000
     46      -7.0343      1.00000
     47      -6.9437      1.00000
     48      -6.9341      1.00000
     49      -6.9081      1.00000
     50      -6.8845      1.00000
     51      -6.8525      1.00000
     52      -6.8170      1.00000
     53      -6.8044      1.00000
     54      -6.7916      1.00000
     55      -6.7802      1.00000
     56      -6.6796      1.00000
     57      -6.6634      1.00000
     58      -6.6201      1.00000
     59      -6.6032      1.00000
     60      -6.4741      1.00000
     61      -6.3985      1.00000
     62      -6.3576      1.00000
     63      -5.4974      1.00000
     64      -4.7567      1.00000
     65      -4.5606      1.00000
     66      -4.1264      1.00000
     67      -3.2981      0.00000
     68      -2.9306      0.00000
     69      -2.8083      0.00000
     70      -2.4305      0.00000
     71      -2.1995      0.00000
     72      -1.7174      0.00000
     73      -1.5512      0.00000
     74      -1.3101      0.00000
     75      -1.1308      0.00000
     76      -1.0592      0.00000
     77      -0.8240      0.00000
     78      -0.6197      0.00000
     79      -0.1013      0.00000
     80      -0.0869      0.00000
     81      -0.0116      0.00000
     82       0.2174      0.00000
     83       0.4321      0.00000
     84       0.4498      0.00000
     85       0.4735      0.00000
     86       0.5093      0.00000
     87       0.5265      0.00000
     88       0.5546      0.00000


--------------------------------------------------------------------------------------------------------


 soft charge-density along one line, spin component           1
         0         1         2         3         4         5         6         7         8         9
 total charge-density along one line
 
 soft charge-density along one line, spin component           2
         0         1         2         3         4         5         6         7         8         9
 total charge-density along one line
 
 pseudopotential strength for first ion, spin component:           1
-10.432   0.004  -0.007  -0.015   0.003 -10.401   0.003  -0.007
  0.004 -10.427  -0.005   0.008   0.012   0.003 -10.397  -0.005
 -0.007  -0.005 -10.441   0.002   0.016  -0.007  -0.005 -10.410
 -0.015   0.008   0.002 -10.452   0.006  -0.014   0.008   0.002
  0.003   0.012   0.016   0.006 -10.437   0.003   0.012   0.015
-10.401   0.003  -0.007  -0.014   0.003 -10.347   0.003  -0.006
  0.003 -10.397  -0.005   0.008   0.012   0.003 -10.343  -0.005
 -0.007  -0.005 -10.410   0.002   0.015  -0.006  -0.005 -10.356
 -0.014   0.008   0.002 -10.420   0.005  -0.014   0.007   0.002
  0.003   0.012   0.015   0.005 -10.407   0.003   0.011   0.015
 -0.003   0.006   0.001  -0.002   0.007  -0.003   0.006   0.001
[...]
     48      -6.9197      1.00000
     49      -6.8716      1.00000
     50      -6.8589      1.00000
     51      -6.8273      1.00000
     52      -6.7838      1.00000
     53      -6.7680      1.00000
     54      -6.7410      1.00000
     55      -6.7215      1.00000
     56      -6.6698      1.00000
     57      -6.6283      1.00000
     58      -6.6121      1.00000
     59      -6.5743      1.00000
     60      -6.5205      1.00000
     61      -6.4420      1.00000
     62      -6.3637      1.00000
     63      -5.4013      1.00000
     64      -4.6508      1.00000
     65      -4.5064      1.00000
     66      -4.2614      1.00000
     67      -3.1602      0.00000
     68      -2.9266      0.00000
     69      -2.7027      0.00000
     70      -2.4918      0.00000
     71      -2.1240      0.00000
     72      -1.8615      0.00000
     73      -1.5788      0.00000
     74      -1.2923      0.00000
     75      -0.9868      0.00000
     76      -0.9632      0.00000
     77      -0.8036      0.00000
     78      -0.6153      0.00000
     79      -0.3492      0.00000
     80      -0.0983      0.00000
     81      -0.0656      0.00000
     82       0.2181      0.00000
     83       0.3411      0.00000
     84       0.4421      0.00000
     85       0.4482      0.00000
     86       0.4852      0.00000
     87       0.5185      0.00000
     88       0.5253      0.00000

 spin component 2

 k-point     1 :       0.0000    0.0000    0.0000
  band No.  band energies     occupation 
      1      -9.1258      1.00000
      2      -9.0145      1.00000
      3      -8.9849      1.00000
      4      -8.9555      1.00000
      5      -8.8571      1.00000
      6      -8.8185      1.00000
      7      -8.7154      1.00000
      8      -8.6321      1.00000
      9      -8.5722      1.00000
     10      -8.5564      1.00000
     11      -8.5373      1.00000
     12      -8.4057      1.00000
     13      -8.3830      1.00000
     14      -8.3300      1.00000
     15      -8.2844      1.00000
     16      -8.2778      1.00000
     17      -8.2422      1.00000
     18      -8.1512      1.00000
     19      -8.1228      1.00000
     20      -8.0688      1.00000
     21      -8.0486      1.00000
     22      -8.0083      1.00000
     23      -7.9061      1.00000
     24      -7.8657      1.00000
     25      -7.8213      1.00000
     26      -7.7500      1.00000
     27      -7.6812      1.00000
     28      -7.6033      1.00000
     29      -7.5566      1.00000
     30      -7.5390      1.00000
     31      -7.4962      1.00000
     32      -7.3764      1.00000
     33      -7.3682      1.00000
     34      -7.2449      1.00000
     35      -7.2324      1.00000
     36      -7.2124      1.00000
     37      -7.1821      1.00000
     38      -7.1583      1.00000
     39      -7.1499      1.00000
     40      -7.1295      1.00000
     41      -7.0983      1.00000
     42      -7.0900      1.00000
     43      -7.0738      1.00000
     44      -7.0522      1.00000
     45      -7.0212      1.00000
     46      -6.9807      1.00000
     47      -6.9492      1.00000
     48      -6.9197      1.00000
     49      -6.8716      1.00000
     50      -6.8589      1.00000
     51      -6.8273      1.00000
     52      -6.7838      1.00000
     53      -6.7680      1.00000
     54      -6.7410      1.00000
     55      -6.7215      1.00000
     56      -6.6698      1.00000
     57      -6.6283      1.00000
     58      -6.6121      1.00000
     59      -6.5743      1.00000
     60      -6.5205      1.00000
     61      -6.4420      1.00000
     62      -6.3637      1.00000
     63      -5.4013      1.00000
     64      -4.6508      1.00000
     65      -4.5064      1.00000
     66      -4.2614      1.00000
     67      -3.1602      0.00000
     68      -2.9266      0.00000
     69      -2.7027      0.00000
     70      -2.4918      0.00000
     71      -2.1240      0.00000
     72      -1.8615      0.00000
     73      -1.5788      0.00000
     74      -1.2923      0.00000
     75      -0.9868      0.00000
     76      -0.9632      0.00000
     77      -0.8036      0.00000
     78      -0.6153      0.00000
     79      -0.3492      0.00000
     80      -0.0983      0.00000
     81      -0.0656      0.00000
     82       0.2181      0.00000
     83       0.3411      0.00000
     84       0.4421      0.00000
     85       0.4482      0.00000
     86       0.4852      0.00000
     87       0.5185      0.00000
     88       0.5253      0.00000


--------------------------------------------------------------------------------------------------------


 soft charge-density along one line, spin component           1
         0         1         2         3         4         5         6         7         8         9
 total charge-density along one line
 
 soft charge-density along one line, spin component           2
         0         1         2         3         4         5         6         7         8         9
 total charge-density along one line
 
 pseudopotential strength for first ion, spin component:           1
-10.385   0.001   0.001  -0.012   0.002 -10.356   0.001   0.001
  0.001 -10.385  -0.003   0.003   0.010   0.001 -10.357  -0.003
  0.001  -0.003 -10.395  -0.002   0.008   0.001  -0.003 -10.366
 -0.012   0.003  -0.002 -10.395  -0.001  -0.011   0.003  -0.002
  0.002   0.010   0.008  -0.001 -10.387   0.002   0.010   0.007
-10.356   0.001   0.001  -0.011   0.002 -10.304   0.001   0.001
  0.001 -10.357  -0.003   0.003   0.010   0.001 -10.305  -0.003
  0.001  -0.003 -10.366  -0.002   0.007   0.001  -0.003 -10.314
 -0.011   0.003  -0.002 -10.367  -0.001  -0.011   0.003  -0.002
  0.002   0.010   0.007  -0.001 -10.359   0.002   0.010   0.007
 -0.001   0.005   0.001   0.000   0.003  -0.001   0.005   0.001
 -0.002   0.008   0.001   0.001   0.005  -0.002   0.008   0.001
 -0.012  -0.028   0.009  -0.000   0.015  -0.012  -0.027   0.009
 -0.000  -0.014  -0.032  -0.012  -0.000  -0.000  -0.014  -0.030
 -0.015  -0.000   0.007  -0.028  -0.011  -0.014  -0.000   0.006
 -0.015  -0.034   0.011  -0.000   0.018  -0.014  -0.032   0.011
 -0.000  -0.017  -0.039  -0.014   0.000  -0.000  -0.017  -0.037
 -0.018  -0.000   0.008  -0.034  -0.013  -0.017  -0.000   0.008
 pseudopotential strength for first ion, spin component:           2
-10.385   0.001   0.001  -0.012   0.002 -10.356   0.001   0.001
  0.001 -10.385  -0.003   0.003   0.010   0.001 -10.357  -0.003
  0.001  -0.003 -10.395  -0.002   0.008   0.001  -0.003 -10.366
 -0.012   0.003  -0.002 -10.395  -0.001  -0.011   0.003  -0.002
  0.002   0.010   0.008  -0.001 -10.387   0.002   0.010   0.007
-10.356   0.001   0.001  -0.011   0.002 -10.304   0.001   0.001
  0.001 -10.357  -0.003   0.003   0.010   0.001 -10.305  -0.003
  0.001  -0.003 -10.366  -0.002   0.007   0.001  -0.003 -10.314
 -0.011   0.003  -0.002 -10.367  -0.001  -0.011   0.003  -0.002
  0.002   0.010   0.007  -0.001 -10.359   0.002   0.010   0.007
 -0.001   0.005   0.001   0.000   0.003  -0.001   0.005   0.001
 -0.002   0.008   0.001   0.001   0.005  -0.002   0.008   0.001
 -0.012  -0.028   0.009  -0.000   0.015  -0.012  -0.027   0.009
 -0.000  -0.014  -0.032  -0.012  -0.000  -0.000  -0.014  -0.030
 -0.015  -0.000   0.007  -0.028  -0.011  -0.014  -0.000   0.006
 -0.015  -0.034   0.011  -0.000   0.018  -0.014  -0.032   0.011
 -0.000  -0.017  -0.039  -0.014   0.000  -0.000  -0.017  -0.037
 -0.018  -0.000   0.008  -0.034  -0.013  -0.017  -0.000   0.008
 total augmentation occupancy for first ion, spin component:           1
  2.466   0.051  -0.084   0.076   0.027  -0.469  -0.033   0.089  -0.130  -0.002   0.127   0.009  -0.035   0.020  -0.049  -0.006
  0.051   2.587   0.104  -0.074  -0.112  -0.034  -0.575  -0.090   0.111   0.147  -0.428   0.102  -0.105  -0.075   0.030  -0.009
 -0.084   0.104   2.606  -0.057  -0.047   0.089  -0.090  -0.633   0.034   0.090  -0.082   0.040   0.008  -0.089   0.055   0.006
  0.076  -0.074  -0.057   2.622   0.182  -0.130   0.111   0.034  -0.641  -0.181  -0.120   0.042   0.036  -0.017  -0.129  -0.001
  0.027  -0.112  -0.047   0.182   2.531  -0.002   0.147   0.090  -0.182  -0.547  -0.249   0.046   0.046  -0.005  -0.098   0.007
 -0.469  -0.034   0.089  -0.130  -0.002   0.449   0.018  -0.094   0.176  -0.019  -0.114  -0.005   0.043  -0.025   0.065  -0.002
 -0.033  -0.575  -0.090   0.111   0.147   0.018   0.546   0.080  -0.143  -0.176   0.368  -0.083   0.130   0.085  -0.034  -0.008
  0.089  -0.090  -0.633   0.034   0.090  -0.094   0.080   0.630  -0.016  -0.129   0.067  -0.030  -0.020   0.121  -0.067   0.001
 -0.130   0.111   0.034  -0.641  -0.182   0.176  -0.143  -0.016   0.638   0.182   0.101  -0.037  -0.038   0.029   0.151   0.001
 -0.002   0.147   0.090  -0.181  -0.547  -0.019  -0.176  -0.129   0.182   0.534   0.221  -0.036  -0.063   0.003   0.117   0.003
  0.127  -0.428  -0.082  -0.120  -0.249  -0.114   0.368   0.067   0.101   0.221   1.809  -0.210   0.114   0.204   0.103  -0.010
  0.009   0.102   0.040   0.042   0.046  -0.005  -0.083  -0.030  -0.037  -0.036  -0.210   0.042  -0.022  -0.038  -0.022   0.002
 -0.035  -0.105   0.008   0.036   0.046   0.043   0.130  -0.020  -0.038  -0.063   0.114  -0.022   0.047   0.015  -0.008  -0.003
  0.020  -0.075  -0.089  -0.017  -0.005  -0.025   0.085   0.121   0.029   0.003   0.204  -0.038   0.015   0.054   0.003  -0.001
 -0.049   0.030   0.055  -0.129  -0.098   0.065  -0.034  -0.067   0.151   0.117   0.103  -0.022  -0.008   0.003   0.068   0.000
 -0.006  -0.009   0.006  -0.001   0.007  -0.002  -0.008   0.001   0.001   0.003  -0.010   0.002  -0.003  -0.001   0.000   0.000
 -0.001  -0.003  -0.013  -0.005   0.001   0.001  -0.007  -0.008  -0.003  -0.001  -0.019   0.003  -0.001  -0.005  -0.001   0.000
 -0.006  -0.000   0.002  -0.008  -0.002  -0.004   0.001   0.004  -0.009  -0.007  -0.010   0.002   0.000  -0.001  -0.004   0.000
 total augmentation occupancy for first ion, spin component:           2
 -0.000  -0.000   0.000   0.000   0.000   0.000   0.000  -0.000  -0.000  -0.000  -0.000   0.000   0.000  -0.000  -0.000   0.000
 -0.000  -0.000   0.000   0.000   0.000   0.000   0.000  -0.000  -0.000  -0.000  -0.000   0.000   0.000   0.000  -0.000  -0.000
  0.000   0.000  -0.000   0.000   0.000  -0.000  -0.000   0.000  -0.000  -0.000  -0.000   0.000  -0.000  -0.000   0.000  -0.000
  0.000   0.000   0.000   0.000   0.000  -0.000  -0.000  -0.000  -0.000  -0.000   0.000  -0.000  -0.000  -0.000   0.000  -0.000
  0.000   0.000   0.000   0.000   0.000  -0.000  -0.000  -0.000  -0.000  -0.000  -0.000   0.000  -0.000  -0.000  -0.000   0.000
  0.000   0.000  -0.000  -0.000  -0.000  -0.000  -0.000   0.000   0.000   0.000   0.000   0.000  -0.000   0.000   0.000  -0.000
  0.000   0.000  -0.000  -0.000  -0.000  -0.000  -0.000   0.000   0.000   0.000   0.000  -0.000  -0.000   0.000   0.000  -0.000
 -0.000  -0.000   0.000  -0.000  -0.000   0.000   0.000  -0.000   0.000   0.000   0.000  -0.000   0.000   0.000   0.000   0.000
 -0.000  -0.000  -0.000  -0.000  -0.000   0.000   0.000   0.000   0.000   0.000  -0.000   0.000   0.000   0.000  -0.000   0.000
 -0.000  -0.000  -0.000  -0.000  -0.000   0.000   0.000   0.000   0.000   0.000   0.000  -0.000   0.000  -0.000  -0.000  -0.000
 -0.000  -0.000  -0.000   0.000  -0.000   0.000   0.000   0.000  -0.000   0.000   0.000  -0.000   0.000  -0.000   0.000  -0.000
  0.000   0.000   0.000  -0.000   0.000   0.000  -0.000  -0.000   0.000  -0.000  -0.000   0.000  -0.000   0.000  -0.000   0.000
  0.000   0.000  -0.000  -0.000  -0.000  -0.000  -0.000   0.000   0.000   0.000   0.000  -0.000  -0.000   0.000   0.000  -0.000
 -0.000   0.000  -0.000  -0.000  -0.000   0.000   0.000   0.000   0.000  -0.000  -0.000   0.000   0.000  -0.000   0.000  -0.000
 -0.000  -0.000   0.000   0.000  -0.000   0.000   0.000   0.000  -0.000  -0.000   0.000  -0.000   0.000   0.000  -0.000  -0.000
  0.000  -0.000  -0.000  -0.000   0.000  -0.000  -0.000   0.000   0.000  -0.000  -0.000   0.000  -0.000  -0.000  -0.000   0.000
  0.000  -0.000   0.000   0.000  -0.000  -0.000   0.000  -0.000   0.000   0.000   0.000  -0.000  -0.000   0.000  -0.000   0.000
  0.000   0.000  -0.000  -0.000   0.000  -0.000  -0.000   0.000   0.000   0.000  -0.000   0.000  -0.000  -0.000   0.000   0.000


------------------------ aborting loop because EDIFF is reached ----------------------------------------


    CHARGE:  cpu time    0.05: real time    0.05
    FORLOC:  cpu time    0.01: real time    0.01
    FORNL :  cpu time    0.40: real time    0.40
    STRESS:  cpu time    0.47: real time    0.47
    FORCOR:  cpu time    0.22: real time    0.22
    FORHAR:  cpu time    0.03: real time    0.03
    MIXING:  cpu time    0.01: real time    0.01
    OFIELD:  cpu time    0.00: real time    0.00

  FORCE on cell =-STRESS in cart. coord.  units (eV):
  Direction    XX          YY          ZZ          XY          YZ          ZX
  --------------------------------------------------------------------------------------
  Alpha Z    14.33844    14.33844    14.33844
  Ewald    9851.63102   210.78452  4205.10662  -447.94382  1745.12715   498.50950
  Hartree 13265.09212  4754.08875  8148.90984  -371.58421  1449.98695   441.37615
  E(xc)    -694.09904  -696.96202  -695.30014    -0.23456     0.86075     0.13598
  Local  -25042.74920 -6912.30847-14286.45618   817.30336 -3187.01218  -939.34950
  n-local  -134.29363  -134.41446  -135.62358     0.36752    -0.91908     0.02146
  augment  1098.19870  1105.42790  1101.09266     0.56652    -2.30768    -0.21894
  Kinetic  1637.73596  1655.38457  1644.19236     1.55940    -5.80566    -0.61711
  Fock        0.00000     0.00000     0.00000     0.00000     0.00000     0.00000
  -------------------------------------------------------------------------------------
  Total      -4.14562    -3.66078    -3.73999     0.03421    -0.06975    -0.14245
  in kB      -0.77755    -0.68661    -0.70146     0.00642    -0.01308    -0.02672
  external pressure =       -0.72 kB  Pullay stress =        0.00 kB


 VOLUME and BASIS-vectors are now :
 -----------------------------------------------------------------------------
  energy-cutoff  :      249.84
  volume of cell :     8542.30
      direct lattice vectors                 reciprocal lattice vectors
    20.442072838  0.000000000  0.000000000     0.048918718  0.000000000  0.000000000
     0.000000000 20.442072838  0.000000000     0.000000000  0.048918718  0.000000000
     0.000000000  0.000000000 20.442072838     0.000000000  0.000000000  0.048918718

  length of vectors
    20.442072838 20.442072838 20.442072838     0.048918718  0.048918718  0.048918718


 FORCES acting on ions
    electron-ion (+dipol)            ewald-force                    non-local-force                 convergence-correction
 -----------------------------------------------------------------------------------------------
   0.521E+03 0.370E+03 0.720E+03   -.519E+03 -.367E+03 -.715E+03   -.226E+01 -.276E+01 -.493E+01   0.379E-02 -.515E-02 0.697E-02
   0.887E+03 -.243E+03 0.111E+03   -.883E+03 0.240E+03 -.110E+03   -.459E+01 0.207E+01 -.770E+00   -.107E-01 -.112E-01 -.279E-02
   0.223E+03 -.750E+03 0.512E+03   -.221E+03 0.748E+03 -.511E+03   -.252E+01 0.194E+01 -.171E+01   -.543E-02 -.725E-02 0.614E-02
   -.846E+02 0.467E+03 0.733E+03   0.844E+02 -.466E+03 -.729E+03   0.204E+00 -.961E+00 -.390E+01   -.164E-01 0.563E-02 -.214E-02
   0.570E+03 -.109E+03 -.713E+03   -.567E+03 0.109E+03 0.707E+03   -.284E+01 0.636E+00 0.586E+01   0.372E-02 0.849E-02 0.252E-02
   0.384E+03 0.722E+03 -.290E+03   -.381E+03 -.721E+03 0.290E+03   -.219E+01 -.154E+01 0.412E+00   0.471E-02 -.897E-04 -.750E-02
   -.423E+03 -.726E+03 0.339E+03   0.420E+03 0.724E+03 -.338E+03   0.329E+01 0.174E+01 -.343E+00   -.479E-02 0.389E-02 -.172E-03
   -.249E+03 0.740E+03 -.434E+03   0.247E+03 -.737E+03 0.433E+03   0.227E+01 -.211E+01 0.124E+01   -.293E-02 -.601E-03 0.152E-02
   -.630E+03 0.389E+03 0.591E+03   0.627E+03 -.386E+03 -.587E+03   0.301E+01 -.289E+01 -.398E+01   0.372E-02 -.320E-02 0.456E-02
   0.114E+03 -.540E+03 -.619E+03   -.113E+03 0.538E+03 0.616E+03   -.887E+00 0.216E+01 0.234E+01   0.176E-01 0.446E-02 0.141E-02
   -.398E+03 -.299E+03 -.805E+03   0.397E+03 0.296E+03 0.799E+03   0.843E+00 0.245E+01 0.527E+01   0.350E-02 -.639E-02 0.333E-02
   -.914E+03 -.216E+02 -.146E+03   0.908E+03 0.215E+02 0.145E+03   0.546E+01 0.131E+00 0.676E+00   0.266E-02 0.916E-02 -.327E-02
 -----------------------------------------------------------------------------------------------
   0.135E+00 -.856E+00 -.256E+00   0.227E-12 0.114E-12 0.171E-12   -.212E+00 0.853E+00 0.175E+00   -.521E-03 -.231E-02 0.106E-01
 
 
 POSITION                                       TOTAL-FORCE (eV/Angst)
 -----------------------------------------------------------------------------------
      7.93872      9.45651      8.16248         0.015655      0.013663      0.002741
      6.75015     10.99465     10.05200         0.031117      0.020045      0.001191
      9.31614     11.79974      9.22866         0.028019      0.002318     -0.016372
     10.64705      9.39943      8.67872        -0.015714     -0.005646      0.007265
      7.51665     10.91489     12.63294        -0.025477     -0.019177      0.020784
      8.88423      9.25089     10.82458         0.002251     -0.007543     -0.005927
     12.03568     11.66023      9.90421         0.004895     -0.005439      0.011931
     11.72068      9.19962     11.25179        -0.001235      0.001239      0.008993
     13.34315      9.30410      8.80643         0.019874      0.007076     -0.019917
     10.08301     11.53391     11.91076        -0.024273     -0.001202     -0.005422
     12.64272     11.29195     12.86569        -0.028432      0.014268     -0.013024
     14.38277     10.46093     11.00410        -0.006680     -0.019601      0.007757
 -----------------------------------------------------------------------------------
    total drift:                               -0.077864     -0.005175     -0.070754


--------------------------------------------------------------------------------------------------------



  FREE ENERGIE OF THE ION-ELECTRON SYSTEM (eV)
  ---------------------------------------------------
  free  energy   TOTEN  =       -22.05287692 eV

  energy  without entropy=      -22.05287692  energy(sigma->0) =      -22.05287692
 
 d Force =-0.1491493E-04[-0.396E-04, 0.980E-05]  d Energy =-0.3444224E-04 0.195E-04
 d Force =-0.8898176E-01[-0.891E-01,-0.889E-01]  d Ewald  =-0.8898176E-01 0.102E-08


--------------------------------------------------------------------------------------------------------


    POTLOK:  cpu time    0.23: real time    0.23


--------------------------------------------------------------------------------------------------------




--------------------------------------------------------------------------------------------------------


  
 reached required accuracy - stopping structural energy minimisation
     LOOP+:  cpu time    3.55: real time    3.59
    4ORBIT:  cpu time    0.00: real time    0.00

 total amount of memory used by VASP on root node    55257. kBytes
========================================================================

   base      :      30000. kBytes
   nonl-proj :       1611. kBytes
   fftplans  :       5775. kBytes
   grid      :      14451. kBytes
   one-center:         31. kBytes
   wavefun   :       3389. kBytes
 
  
  
 General timing and accounting informations for this job:
 ========================================================
  
                  Total CPU time used (sec):      292.558
                            User time (sec):      288.094
                          System time (sec):        4.464
                         Elapsed time (sec):      304.449
  
                   Maximum memory used (kb):       63224.
                   Average memory used (kb):           0.
  
                          Minor page faults:       748940
                          Major page faults:            0
                 Voluntary context switches:         7718
