 running on   64 total cores
 distrk:  each k-point on   64 cores,    1 groups
 distr:  one band on   16 cores,    4 groups
 using from now: INCAR     
 vasp.5.3.5 31Mar14 (build Feb 01 2018 12:10:03) gamma-only                     
  
 POSCAR found type information on POSCAR  Ag
 POSCAR found :  1 types and      51 ions
 scaLAPACK will be used

 ----------------------------------------------------------------------------- 
|                                                                             |
|  ADVICE TO THIS USER RUNNING 'VASP/VAMP'   (HEAR YOUR MASTER'S VOICE ...):  |
|                                                                             |
|      You have a (more or less) 'large supercell' and for larger cells       |
|      it might be more efficient to use real space projection opertators     |
|      So try LREAL= Auto  in the INCAR   file.                               |
|      Mind: At the moment your POTCAR file does not contain real space       |
|       projectors, and has to be modified,  BUT if you                       |
|      want to do an extremely  accurate calculation you might also keep the  |
|      reciprocal projection scheme          (i.e. LREAL=.FALSE.)             |
|                                                                             |
 ----------------------------------------------------------------------------- 

 LDA part: xc-table for Pade appr. of Perdew
 POSCAR, INCAR and KPOINTS ok, starting setup
 WARNING: small aliasing (wrap around) errors must be expected
 FFT: planning ...
 WAVECAR not read
 entering main loop
       N       E                     dE             d eps       ncg     rms          rms(c)
DAV:   1     0.475127375066E+04    0.47513E+04   -0.11703E+05  1488   0.620E+02
DAV:   2     0.738173133212E+03   -0.40131E+04   -0.36168E+04  2360   0.170E+02
DAV:   3    -0.770805190374E+02   -0.81525E+03   -0.75346E+03  1824   0.826E+01
DAV:   4    -0.107950264404E+03   -0.30870E+02   -0.30625E+02  1584   0.173E+01
DAV:   5    -0.108407246958E+03   -0.45698E+00   -0.45652E+00  1608   0.242E+00    0.481E+01
DAV:   6    -0.470348376436E+02    0.61372E+02   -0.18345E+02  1468   0.166E+01    0.272E+01
DAV:   7    -0.349260496174E+02    0.12109E+02   -0.12777E+01  1520   0.550E+00    0.157E+01
DAV:   8    -0.288078643613E+02    0.61182E+01   -0.34509E+00  1572   0.294E+00    0.799E+00
DAV:   9    -0.324312180282E+02   -0.36234E+01   -0.65463E-01  1608   0.108E+00    0.526E+00
DAV:  10    -0.461118376967E+02   -0.13681E+02   -0.36322E+00  1492   0.225E+00    0.446E+00
DAV:  11    -0.591164097376E+02   -0.13005E+02   -0.49662E+00  1528   0.327E+00    0.417E+00
DAV:  12    -0.663026439642E+02   -0.71862E+01   -0.24066E+00  1552   0.202E+00    0.307E+00
DAV:  13    -0.803368537069E+02   -0.14034E+02   -0.68479E+00  1504   0.249E+00    0.249E+00
DAV:  14    -0.856306473439E+02   -0.52938E+01   -0.13852E+00  1536   0.154E+00    0.190E+00
DAV:  15    -0.923807284713E+02   -0.67501E+01   -0.16174E+00  1508   0.120E+00    0.137E+00
DAV:  16    -0.985036417086E+02   -0.61229E+01   -0.12209E+00  1504   0.916E-01    0.156E+00
DAV:  17    -0.994095279370E+02   -0.90589E+00   -0.76702E-02  1632   0.527E-01    0.119E+00
DAV:  18    -0.101101908658E+03   -0.16924E+01   -0.16922E-01  1496   0.687E-01    0.104E+00
DAV:  19    -0.101705995622E+03   -0.60409E+00   -0.30889E-02  1576   0.361E-01    0.816E-01
DAV:  20    -0.103129759670E+03   -0.14238E+01   -0.10102E-01  1492   0.419E-01    0.585E-01
DAV:  21    -0.104502460151E+03   -0.13727E+01   -0.88709E-02  1496   0.329E-01    0.355E-01
DAV:  22    -0.104889474848E+03   -0.38701E+00   -0.86354E-03  1584   0.165E-01    0.236E-01
DAV:  23    -0.105310817633E+03   -0.42134E+00   -0.12892E-02  1512   0.157E-01    0.103E-01
DAV:  24    -0.105417393776E+03   -0.10658E+00   -0.19850E-03  1528   0.683E-02    0.668E-02
DAV:  25    -0.105463180362E+03   -0.45787E-01   -0.73291E-04  1040   0.437E-02    0.412E-02
DAV:  26    -0.105487243549E+03   -0.24063E-01   -0.62189E-04  1052   0.356E-02    0.415E-02
DAV:  27    -0.105493965790E+03   -0.67222E-02   -0.13602E-04  1040   0.222E-02    0.315E-02
DAV:  28    -0.105502517072E+03   -0.85513E-02   -0.14474E-04  1000   0.185E-02    0.209E-02
DAV:  29    -0.105507468218E+03   -0.49511E-02   -0.89313E-05   992   0.198E-02    0.136E-02
DAV:  30    -0.105511848572E+03   -0.43804E-02   -0.43157E-05   976   0.102E-02    0.100E-02
DAV:  31    -0.105515251003E+03   -0.34024E-02   -0.38001E-05  1000   0.723E-03    0.788E-03
DAV:  32    -0.105517150993E+03   -0.19000E-02   -0.18655E-05   960   0.559E-03    0.557E-03
DAV:  33    -0.105517801006E+03   -0.65001E-03   -0.56893E-06   968   0.347E-03    0.383E-03
DAV:  34    -0.105518093421E+03   -0.29242E-03   -0.24385E-06   928   0.294E-03    0.202E-03
DAV:  35    -0.105518317692E+03   -0.22427E-03   -0.20530E-06   936   0.246E-03    0.130E-03
DAV:  36    -0.105518439752E+03   -0.12206E-03   -0.13140E-06   936   0.166E-03    0.130E-03
DAV:  37    -0.105518495698E+03   -0.55946E-04   -0.38472E-07   936   0.942E-04
   1 F= -.10551850E+03 E0= -.10551850E+03  d E =-.105518E+03  mag=     1.0011
 curvature:   0.00 expect dE= 0.000E+00 dE for cont linesearch  0.000E+00
 trial: gam= 0.00000 g(F)=  0.107E+01 g(S)=  0.000E+00 ort = 0.000E+00 (trialstep = 0.100E+01)
 search vector abs. value=  0.107E+01
 bond charge predicted
       N       E                     dE             d eps       ncg     rms          rms(c)
DAV:   1    -0.106433787492E+03   -0.91535E+00   -0.72605E+01  1456   0.121E+01    0.132E+00
DAV:   2    -0.106465901473E+03   -0.32114E-01   -0.34532E-01  1492   0.117E+00    0.929E-01
DAV:   3    -0.106463552306E+03    0.23492E-02   -0.13223E-02  1568   0.259E-01    0.351E-01
DAV:   4    -0.106463568761E+03   -0.16456E-04   -0.15835E-03  1520   0.129E-01    0.710E-02
DAV:   5    -0.106463782687E+03   -0.21393E-03   -0.28438E-04  1104   0.323E-02    0.388E-02
DAV:   6    -0.106464012095E+03   -0.22941E-03   -0.16184E-04   984   0.194E-02    0.179E-02
DAV:   7    -0.106464158659E+03   -0.14656E-03   -0.31654E-05   960   0.100E-02    0.793E-03
DAV:   8    -0.106464289236E+03   -0.13058E-03   -0.65743E-06   936   0.501E-03    0.396E-03
DAV:   9    -0.106464376303E+03   -0.87066E-04   -0.20485E-06   928   0.244E-03
   2 F= -.10646438E+03 E0= -.10646438E+03  d E =-.945881E+00  mag=     1.0003
 ZBRENT: can't locate minimum, use default step
 trial-energy change:   -0.945881  1 .order   -0.949539   -1.070616   -0.828463
 step:   4.0000(harm=  4.4212)  dis= 0.11911  next Energy=  -107.885218 (dE=-0.237E+01)
 bond charge predicted
       N       E                     dE             d eps       ncg     rms          rms(c)
DAV:   1    -0.107794125296E+03   -0.13298E+01   -0.66237E+02  1456   0.369E+01    0.284E+00
DAV:   2    -0.108089421941E+03   -0.29530E+00   -0.31002E+00  1480   0.353E+00    0.225E+00
DAV:   3    -0.108078940367E+03    0.10482E-01   -0.73526E-02  1532   0.582E-01    0.123E+00
DAV:   4    -0.108075962426E+03    0.29779E-02   -0.24745E-02  1504   0.339E-01    0.165E-01
DAV:   5    -0.108075663838E+03    0.29859E-03   -0.21711E-03  1492   0.123E-01    0.916E-02
DAV:   6    -0.108075913425E+03   -0.24959E-03   -0.10280E-03  1544   0.507E-02    0.406E-02
DAV:   7    -0.108076223057E+03   -0.30963E-03   -0.81279E-05  1000   0.178E-02    0.173E-02
DAV:   8    -0.108076526638E+03   -0.30358E-03   -0.16546E-05   992   0.719E-03    0.757E-03
DAV:   9    -0.108076761119E+03   -0.23448E-03   -0.61591E-06   952   0.431E-03    0.391E-03
DAV:  10    -0.108076915547E+03   -0.15443E-03   -0.24456E-06   960   0.230E-03    0.255E-03
DAV:  11    -0.108077214427E+03   -0.29888E-03   -0.63810E-06   968   0.200E-03    0.181E-03
DAV:  12    -0.108077416650E+03   -0.20222E-03   -0.39358E-06   992   0.173E-03    0.140E-03
DAV:  13    -0.108077502496E+03   -0.85847E-04   -0.11842E-06   952   0.862E-04
   3 F= -.10807750E+03 E0= -.10807750E+03  d E =-.255901E+01  mag=     1.0000
 curvature:  -2.18 expect dE=-0.444E+00 dE for cont linesearch -0.166E+00
 ZBRENT: increasing intervall
 opt :  10.0000  next Energy=  -106.534685 (dE=-0.102E+01)
 bond charge predicted
       N       E                     dE             d eps       ncg     rms          rms(c)
DAV:   1    -0.106317745398E+03    0.17597E+01   -0.27665E+03  1456   0.771E+01    0.406E+00
DAV:   2    -0.107660014268E+03   -0.13423E+01   -0.13961E+01  1480   0.771E+00    0.366E+00
DAV:   3    -0.107650868255E+03    0.91460E-02   -0.23823E-01  1528   0.100E+00    0.260E+00
DAV:   4    -0.107622458786E+03    0.28409E-01   -0.78802E-02  1504   0.527E-01    0.116E+00
DAV:   5    -0.107622603871E+03   -0.14508E-03   -0.15131E-02  1528   0.289E-01    0.246E-01
DAV:   6    -0.107622082396E+03    0.52147E-03   -0.17738E-03  1504   0.104E-01    0.147E-01
DAV:   7    -0.107622236162E+03   -0.15377E-03   -0.78079E-04  1544   0.716E-02    0.596E-02
DAV:   8    -0.107622465729E+03   -0.22957E-03   -0.66825E-05   976   0.251E-02    0.246E-02
DAV:   9    -0.107622697823E+03   -0.23209E-03   -0.16816E-05   944   0.686E-03    0.916E-03
DAV:  10    -0.107622867327E+03   -0.16950E-03   -0.38791E-06   944   0.466E-03    0.496E-03
DAV:  11    -0.107623127049E+03   -0.25972E-03   -0.51607E-06   948   0.257E-03    0.264E-03
DAV:  12    -0.107623393813E+03   -0.26676E-03   -0.54996E-06   960   0.190E-03    0.272E-03
DAV:  13    -0.107623553095E+03   -0.15928E-03   -0.22511E-06   960   0.127E-03    0.205E-03
DAV:  14    -0.107623720051E+03   -0.16696E-03   -0.21263E-06   952   0.114E-03    0.785E-04
DAV:  15    -0.107623781807E+03   -0.61756E-04   -0.56484E-07   968   0.626E-04
   4 F= -.10762378E+03 E0= -.10762378E+03  d E =-.210529E+01  mag=     1.0000
 curvature:  20.24 expect dE= 0.138E+02 dE for cont linesearch  0.274E+01
 ZBRENT: bracketing found
 ZBRENT: interpolating
 opt :   6.5712  next Energy=  -108.444751 (dE=-0.293E+01)
 bond charge predicted
       N       E                     dE             d eps       ncg     rms          rms(c)
DAV:   1    -0.107965977151E+03   -0.34226E+00   -0.86796E+02  1456   0.421E+01    0.277E+00
DAV:   2    -0.108383619922E+03   -0.41764E+00   -0.44260E+00  1488   0.415E+00    0.162E+00
DAV:   3    -0.108373765444E+03    0.98545E-02   -0.90850E-02  1520   0.618E-01    0.963E-01
DAV:   4    -0.108370062318E+03    0.37031E-02   -0.24877E-02  1512   0.327E-01    0.202E-01
DAV:   5    -0.108369773765E+03    0.28855E-03   -0.16121E-03  1520   0.136E-01    0.816E-02
DAV:   6    -0.108369698144E+03    0.75621E-04   -0.93231E-04  1536   0.630E-02
   5 F= -.10836970E+03 E0= -.10836970E+03  d E =-.285120E+01  mag=     1.0000
 curvature:  -2.71 expect dE=-0.716E+00 dE for cont linesearch -0.440E-02
 trial: gam= 0.28584 g(F)=  0.264E+00 g(S)=  0.000E+00 ort =-0.417E-01 (trialstep = 0.211E+01)
 search vector abs. value=  0.328E+00
 bond charge predicted
       N       E                     dE             d eps       ncg     rms          rms(c)
DAV:   1    -0.108804586239E+03   -0.43481E+00   -0.98504E+01  1456   0.142E+01    0.961E-01
DAV:   2    -0.108847305702E+03   -0.42719E-01   -0.43395E-01  1504   0.133E+00    0.679E-01
DAV:   3    -0.108845272007E+03    0.20337E-02   -0.95769E-03  1536   0.230E-01    0.393E-01
DAV:   4    -0.108844905106E+03    0.36690E-03   -0.48706E-03  1496   0.136E-01    0.782E-02
DAV:   5    -0.108844795620E+03    0.10949E-03   -0.42900E-04  1320   0.373E-02    0.315E-02
DAV:   6    -0.108844870300E+03   -0.74680E-04   -0.13209E-04   952   0.174E-02
   6 F= -.10884487E+03 E0= -.10884487E+03  d E =-.475172E+00  mag=     1.0000
 ZBRENT: can't locate minimum, use default step
 trial-energy change:   -0.475172  1 .order   -0.475692   -0.533668   -0.417716
 step:   8.4570(harm=  9.7308)  dis= 0.12123  next Energy=  -109.597798 (dE=-0.123E+01)
 bond charge predicted
       N       E                     dE             d eps       ncg     rms          rms(c)
DAV:   1    -0.109283372018E+03   -0.43858E+00   -0.89843E+02  1456   0.432E+01    0.236E+00
DAV:   2    -0.109676321972E+03   -0.39295E+00   -0.39757E+00  1496   0.408E+00    0.187E+00
DAV:   3    -0.109665106023E+03    0.11216E-01   -0.69105E-02  1492   0.612E-01    0.132E+00
DAV:   4    -0.109656883647E+03    0.82224E-02   -0.56211E-02  1504   0.381E-01    0.210E-01
DAV:   5    -0.109656074032E+03    0.80962E-03   -0.24099E-03  1496   0.100E-01    0.100E-01
DAV:   6    -0.109656024367E+03    0.49665E-04   -0.98092E-04  1528   0.450E-02
   7 F= -.10965602E+03 E0= -.10965602E+03  d E =-.128633E+01  mag=     1.0000
 curvature:  -6.14 expect dE=-0.297E+00 dE for cont linesearch -0.753E-01
 ZBRENT: extrapolating
 opt :  11.4543  next Energy=  -109.751045 (dE=-0.138E+01)
 bond charge predicted
       N       E                     dE             d eps       ncg     rms          rms(c)
DAV:   1    -0.109689288996E+03   -0.33215E-01   -0.19834E+02  1456   0.201E+01    0.972E-01
DAV:   2    -0.109776104236E+03   -0.86815E-01   -0.87963E-01  1504   0.190E+00    0.738E-01
DAV:   3    -0.109773555277E+03    0.25490E-02   -0.15491E-02  1524   0.280E-01    0.515E-01
DAV:   4    -0.109771947073E+03    0.16082E-02   -0.11605E-02  1472   0.173E-01    0.910E-02
DAV:   5    -0.109771860948E+03    0.86125E-04   -0.38930E-04  1176   0.425E-02
   8 F= -.10977186E+03 E0= -.10977186E+03  d E =-.140216E+01  mag=     1.0000
 curvature:  -7.75 expect dE=-0.379E+00 dE for cont linesearch -0.470E-02
 ZBRENT: extrapolating
 opt :  12.3770  next Energy=  -109.777865 (dE=-0.141E+01)
 bond charge predicted
       N       E                     dE             d eps       ncg     rms          rms(c)
DAV:   1    -0.109769675526E+03    0.22715E-02   -0.18701E+01  1456   0.617E+00    0.291E-01
DAV:   2    -0.109778037718E+03   -0.83622E-02   -0.84533E-02  1520   0.583E-01    0.205E-01
DAV:   3    -0.109777850429E+03    0.18729E-03   -0.15071E-03  1536   0.872E-02    0.141E-01
DAV:   4    -0.109777822426E+03    0.28003E-04   -0.91209E-04  1524   0.498E-02
   9 F= -.10977782E+03 E0= -.10977782E+03  d E =-.140812E+01  mag=     1.0000
 curvature:  -9.91 expect dE=-0.531E+00 dE for cont linesearch -0.485E-05
 trial: gam= 0.18328 g(F)=  0.536E-01 g(S)=  0.000E+00 ort =-0.401E-03 (trialstep = 0.417E+01)
 search vector abs. value=  0.644E-01
 bond charge predicted
       N       E                     dE             d eps       ncg     rms          rms(c)
DAV:   1    -0.109931986966E+03   -0.15414E+00   -0.75099E+01  1456   0.124E+01    0.588E-01
DAV:   2    -0.109964610862E+03   -0.32624E-01   -0.33055E-01  1504   0.114E+00    0.428E-01
DAV:   3    -0.109963579785E+03    0.10311E-02   -0.60082E-03  1552   0.164E-01    0.282E-01
DAV:   4    -0.109963102639E+03    0.47715E-03   -0.38419E-03  1500   0.987E-02    0.465E-02
DAV:   5    -0.109963094619E+03    0.80193E-05   -0.11716E-04   968   0.253E-02
  10 F= -.10996309E+03 E0= -.10996309E+03  d E =-.185272E+00  mag=     1.0000
 ZBRENT: can't locate minimum, use default step
 trial-energy change:   -0.185272  1 .order   -0.186455   -0.222923   -0.149986
 step:  16.6672(harm= 12.7352)  dis= 0.08246  next Energy=  -110.187654 (dE=-0.410E+00)
 bond charge predicted
       N       E                     dE             d eps       ncg     rms          rms(c)
DAV:   1    -0.109827342688E+03    0.13576E+00   -0.68295E+02  1456   0.376E+01    0.155E+00
DAV:   2    -0.110129329948E+03   -0.30199E+00   -0.30525E+00  1500   0.351E+00    0.118E+00
DAV:   3    -0.110122168919E+03    0.71610E-02   -0.50460E-02  1524   0.482E-01    0.857E-01
DAV:   4    -0.110114724450E+03    0.74445E-02   -0.29185E-02  1500   0.265E-01    0.202E-01
DAV:   5    -0.110114875955E+03   -0.15151E-03   -0.10998E-03  1560   0.730E-02    0.826E-02
DAV:   6    -0.110114822220E+03    0.53735E-04   -0.35126E-04  1104   0.297E-02
  11 F= -.11011482E+03 E0= -.11011482E+03  d E =-.337000E+00  mag=     1.0000
 curvature:  -6.05 expect dE=-0.150E+00 dE for cont linesearch -0.935E-02
 ZBRENT: interpolating
 opt :  13.9541  next Energy=  -110.128358 (dE=-0.351E+00)
 bond charge predicted
       N       E                     dE             d eps       ncg     rms          rms(c)
DAV:   1    -0.110115839345E+03   -0.96339E-03   -0.31829E+01  1456   0.805E+00    0.325E-01
DAV:   2    -0.110129926777E+03   -0.14087E-01   -0.14172E-01  1520   0.748E-01    0.234E-01
DAV:   3    -0.110129621245E+03    0.30553E-03   -0.24674E-03  1540   0.999E-02    0.158E-01
DAV:   4    -0.110129511458E+03    0.10979E-03   -0.14964E-03  1504   0.596E-02    0.304E-02
DAV:   5    -0.110129563292E+03   -0.51833E-04   -0.31324E-05   936   0.140E-02
  12 F= -.11012956E+03 E0= -.11012956E+03  d E =-.351741E+00  mag=     1.0000
 curvature:  -8.76 expect dE=-0.143E+00 dE for cont linesearch -0.938E-04
 trial: gam= 0.33287 g(F)=  0.163E-01 g(S)=  0.000E+00 ort =-0.831E-03 (trialstep = 0.612E+01)
 search vector abs. value=  0.229E-01
 bond charge predicted
       N       E                     dE             d eps       ncg     rms          rms(c)
DAV:   1    -0.110190596729E+03   -0.61085E-01   -0.57549E+01  1456   0.108E+01    0.340E-01
DAV:   2    -0.110216317453E+03   -0.25721E-01   -0.25946E-01  1496   0.102E+00    0.310E-01
DAV:   3    -0.110215899049E+03    0.41840E-03   -0.40198E-03  1532   0.128E-01    0.223E-01
DAV:   4    -0.110215084807E+03    0.81424E-03   -0.18781E-03  1504   0.695E-02    0.101E-01
DAV:   5    -0.110215103971E+03   -0.19164E-04   -0.58076E-04  1536   0.427E-02
  13 F= -.11021510E+03 E0= -.11021510E+03  d E =-.855407E-01  mag=     1.0000
 trial-energy change:   -0.085541  1 .order   -0.085722   -0.098205   -0.073239
 step:  24.0908(harm= 24.0908)  dis= 0.07839  next Energy=  -110.322715 (dE=-0.193E+00)
 bond charge predicted
       N       E                     dE             d eps       ncg     rms          rms(c)
DAV:   1    -0.110101678595E+03    0.11341E+00   -0.49866E+02  1456   0.320E+01    0.998E-01
DAV:   2    -0.110327456781E+03   -0.22578E+00   -0.22733E+00  1508   0.304E+00    0.905E-01
DAV:   3    -0.110324480929E+03    0.29759E-02   -0.34767E-02  1524   0.370E-01    0.650E-01
DAV:   4    -0.110317903421E+03    0.65775E-02   -0.13381E-02  1516   0.186E-01    0.321E-01
DAV:   5    -0.110317777928E+03    0.12549E-03   -0.53277E-03  1536   0.120E-01    0.108E-01
DAV:   6    -0.110317675861E+03    0.10207E-03   -0.27042E-04  1016   0.278E-02    0.607E-02
DAV:   7    -0.110317693954E+03   -0.18094E-04   -0.20417E-04   968   0.245E-02
  14 F= -.11031769E+03 E0= -.11031769E+03  d E =-.188131E+00  mag=     1.0000
 curvature: -17.20 expect dE=-0.265E+00 dE for cont linesearch -0.167E-03
 trial: gam= 0.96303 g(F)=  0.154E-01 g(S)=  0.000E+00 ort =-0.471E-03 (trialstep = 0.623E+01)
 search vector abs. value=  0.357E-01
 bond charge predicted
       N       E                     dE             d eps       ncg     rms          rms(c)
DAV:   1    -0.110362934331E+03   -0.45258E-01   -0.92575E+01  1456   0.137E+01    0.315E-01
DAV:   2    -0.110404497498E+03   -0.41563E-01   -0.41280E-01  1504   0.129E+00    0.323E-01
DAV:   3    -0.110403980834E+03    0.51666E-03   -0.61025E-03  1552   0.153E-01    0.248E-01
DAV:   4    -0.110402628215E+03    0.13526E-02   -0.16239E-03  1524   0.625E-02    0.149E-01
DAV:   5    -0.110402340603E+03    0.28761E-03   -0.23723E-03  1516   0.723E-02    0.526E-02
DAV:   6    -0.110402363680E+03   -0.23077E-04   -0.33204E-05   912   0.988E-03
  15 F= -.11040236E+03 E0= -.11040236E+03  d E =-.846697E-01  mag=     1.0000
 ZBRENT: can't locate minimum, use default step
 trial-energy change:   -0.084670  1 .order   -0.084690   -0.093099   -0.076280
 step:  24.9088(harm= 34.4711)  dis= 0.12244  next Energy=  -110.575371 (dE=-0.258E+00)
 bond charge predicted
       N       E                     dE             d eps       ncg     rms          rms(c)
DAV:   1    -0.110167499884E+03    0.23484E+00   -0.84441E+02  1456   0.418E+01    0.117E+00
DAV:   2    -0.110554132909E+03   -0.38663E+00   -0.38577E+00  1496   0.396E+00    0.999E-01
DAV:   3    -0.110548250156E+03    0.58828E-02   -0.59321E-02  1568   0.480E-01    0.713E-01
DAV:   4    -0.110537324344E+03    0.10926E-01   -0.15619E-02  1500   0.194E-01    0.399E-01
DAV:   5    -0.110535534372E+03    0.17900E-02   -0.12083E-02  1536   0.165E-01    0.124E-01
DAV:   6    -0.110535643099E+03   -0.10873E-03   -0.21917E-04  1016   0.254E-02    0.740E-02
DAV:   7    -0.110535801946E+03   -0.15885E-03   -0.12589E-04   972   0.181E-02    0.255E-02
DAV:   8    -0.110535911179E+03   -0.10923E-03   -0.28468E-05   968   0.937E-03    0.886E-03
DAV:   9    -0.110536029696E+03   -0.11852E-03   -0.73996E-06   952   0.458E-03    0.347E-03
DAV:  10    -0.110536111876E+03   -0.82180E-04   -0.23839E-06   984   0.202E-03
  16 F= -.11053611E+03 E0= -.11053611E+03  d E =-.218418E+00  mag=     1.0000
 curvature: -36.47 expect dE=-0.481E+00 dE for cont linesearch -0.405E-02
 trial: gam= 0.63561 g(F)=  0.132E-01 g(S)=  0.000E+00 ort = 0.199E-02 (trialstep = 0.996E+01)
 search vector abs. value=  0.302E-01
 bond charge predicted
       N       E                     dE             d eps       ncg     rms          rms(c)
DAV:   1    -0.110564725650E+03   -0.28696E-01   -0.20050E+02  1456   0.202E+01    0.580E-01
DAV:   2    -0.110654775289E+03   -0.90050E-01   -0.90186E-01  1508   0.189E+00    0.450E-01
DAV:   3    -0.110652983751E+03    0.17915E-02   -0.13435E-02  1560   0.228E-01    0.330E-01
DAV:   4    -0.110650380455E+03    0.26033E-02   -0.55432E-03  1528   0.113E-01    0.126E-01
DAV:   5    -0.110650346103E+03    0.34353E-04   -0.16128E-03  1536   0.625E-02    0.478E-02
DAV:   6    -0.110650374057E+03   -0.27954E-04   -0.84957E-05   952   0.145E-02
  17 F= -.11065037E+03 E0= -.11065037E+03  d E =-.114262E+00  mag=     1.0000
 trial-energy change:   -0.114262  1 .order   -0.114361   -0.143970   -0.084753
 step:  24.2235(harm= 24.2235)  dis= 0.09904  next Energy=  -110.711122 (dE=-0.175E+00)
 bond charge predicted
       N       E                     dE             d eps       ncg     rms          rms(c)
DAV:   1    -0.110529139231E+03    0.12121E+00   -0.41203E+02  1456   0.291E+01    0.927E-01
DAV:   2    -0.110715856412E+03   -0.18672E+00   -0.18710E+00  1512   0.273E+00    0.651E-01
DAV:   3    -0.110711746045E+03    0.41104E-02   -0.28190E-02  1544   0.331E-01    0.463E-01
DAV:   4    -0.110706770275E+03    0.49758E-02   -0.12380E-02  1520   0.169E-01    0.157E-01
DAV:   5    -0.110706835012E+03   -0.64737E-04   -0.20121E-03  1560   0.727E-02    0.603E-02
DAV:   6    -0.110706882065E+03   -0.47053E-04   -0.16093E-04   956   0.201E-02
  18 F= -.11070688E+03 E0= -.11070688E+03  d E =-.170770E+00  mag=     1.0000
 curvature: -25.27 expect dE=-0.271E+00 dE for cont linesearch -0.236E-03
 trial: gam= 0.94715 g(F)=  0.107E-01 g(S)=  0.000E+00 ort =-0.531E-03 (trialstep = 0.105E+02)
 search vector abs. value=  0.368E-01
 bond charge predicted
       N       E                     dE             d eps       ncg     rms          rms(c)
DAV:   1    -0.110666548942E+03    0.40286E-01   -0.27208E+02  1456   0.236E+01    0.706E-01
DAV:   2    -0.110789292782E+03   -0.12274E+00   -0.12253E+00  1504   0.222E+00    0.535E-01
DAV:   3    -0.110786717826E+03    0.25750E-02   -0.19041E-02  1544   0.274E-01    0.388E-01
DAV:   4    -0.110783115277E+03    0.36025E-02   -0.77788E-03  1480   0.135E-01    0.146E-01
DAV:   5    -0.110783129248E+03   -0.13970E-04   -0.20534E-03  1544   0.708E-02    0.540E-02
DAV:   6    -0.110783205290E+03   -0.76043E-04   -0.94506E-05   948   0.156E-02
  19 F= -.11078321E+03 E0= -.11078321E+03  d E =-.763232E-01  mag=     1.0000
 trial-energy change:   -0.076323  1 .order   -0.076497   -0.107368   -0.045627
 step:  18.2802(harm= 18.2802)  dis= 0.06367  next Energy=  -110.800239 (dE=-0.934E-01)
 bond charge predicted
       N       E                     dE             d eps       ncg     rms          rms(c)
DAV:   1    -0.110734233839E+03    0.48895E-01   -0.14826E+02  1456   0.174E+01    0.525E-01
DAV:   2    -0.110800639726E+03   -0.66406E-01   -0.66320E-01  1504   0.163E+00    0.404E-01
DAV:   3    -0.110799229422E+03    0.14103E-02   -0.10293E-02  1536   0.201E-01    0.293E-01
DAV:   4    -0.110797280767E+03    0.19487E-02   -0.47597E-03  1492   0.105E-01    0.101E-01
DAV:   5    -0.110797376417E+03   -0.95650E-04   -0.95100E-04  1508   0.494E-02
  20 F= -.11079738E+03 E0= -.11079738E+03  d E =-.904944E-01  mag=     1.0000
 curvature: -32.90 expect dE=-0.282E+00 dE for cont linesearch -0.232E-03
 trial: gam= 0.55236 g(F)=  0.856E-02 g(S)=  0.000E+00 ort =-0.509E-03 (trialstep = 0.121E+02)
 search vector abs. value=  0.192E-01
 bond charge predicted
       N       E                     dE             d eps       ncg     rms          rms(c)
DAV:   1    -0.110788970288E+03    0.83105E-02   -0.18714E+02  1456   0.196E+01    0.533E-01
DAV:   2    -0.110872571747E+03   -0.83601E-01   -0.83340E-01  1516   0.182E+00    0.449E-01
DAV:   3    -0.110871028973E+03    0.15428E-02   -0.12092E-02  1536   0.213E-01    0.332E-01
DAV:   4    -0.110868473552E+03    0.25554E-02   -0.51359E-03  1520   0.108E-01    0.137E-01
DAV:   5    -0.110868464070E+03    0.94817E-05   -0.18781E-03  1508   0.670E-02    0.523E-02
DAV:   6    -0.110868507300E+03   -0.43230E-04   -0.79849E-05   976   0.147E-02
  21 F= -.11086851E+03 E0= -.11086851E+03  d E =-.711309E-01  mag=     1.0000
 trial-energy change:   -0.071131  1 .order   -0.072203   -0.099916   -0.044489
 step:  24.7786(harm= 21.7500)  dis= 0.06684  next Energy=  -110.890692 (dE=-0.933E-01)
 bond charge predicted
       N       E                     dE             d eps       ncg     rms          rms(c)
DAV:   1    -0.110796045185E+03    0.72419E-01   -0.20784E+02  1456   0.206E+01    0.569E-01
DAV:   2    -0.110888520060E+03   -0.92475E-01   -0.92369E-01  1484   0.192E+00    0.474E-01
DAV:   3    -0.110886721476E+03    0.17986E-02   -0.13872E-02  1544   0.228E-01    0.349E-01
DAV:   4    -0.110883771380E+03    0.29501E-02   -0.59165E-03  1500   0.116E-01    0.141E-01
DAV:   5    -0.110883734231E+03    0.37149E-04   -0.19970E-03  1508   0.692E-02    0.540E-02
DAV:   6    -0.110883767572E+03   -0.33342E-04   -0.82114E-05   940   0.150E-02
  22 F= -.11088377E+03 E0= -.11088377E+03  d E =-.863912E-01  mag=     1.0000
 curvature: -22.77 expect dE=-0.186E+00 dE for cont linesearch -0.155E-02
 trial: gam= 0.95945 g(F)=  0.816E-02 g(S)=  0.000E+00 ort =-0.114E-02 (trialstep = 0.119E+02)
 search vector abs. value=  0.237E-01
 bond charge predicted
       N       E                     dE             d eps       ncg     rms          rms(c)
DAV:   1    -0.110852950991E+03    0.30783E-01   -0.22314E+02  1456   0.213E+01    0.493E-01
DAV:   2    -0.110953575855E+03   -0.10062E+00   -0.99866E-01  1500   0.199E+00    0.481E-01
DAV:   3    -0.110952177293E+03    0.13986E-02   -0.14199E-02  1576   0.230E-01    0.370E-01
DAV:   4    -0.110948983019E+03    0.31943E-02   -0.40479E-03  1500   0.975E-02    0.208E-01
DAV:   5    -0.110948379930E+03    0.60309E-03   -0.46826E-03  1508   0.101E-01    0.697E-02
DAV:   6    -0.110948437172E+03   -0.57242E-04   -0.61102E-05   940   0.140E-02
  23 F= -.11094844E+03 E0= -.11094844E+03  d E =-.646696E-01  mag=     1.0000
 trial-energy change:   -0.064670  1 .order   -0.066266   -0.083852   -0.048679
 step:  28.2841(harm= 28.2841)  dis= 0.07411  next Energy=  -110.983718 (dE=-0.100E+00)
 bond charge predicted
       N       E                     dE             d eps       ncg     rms          rms(c)
DAV:   1    -0.110787705080E+03    0.16067E+00   -0.42936E+02  1456   0.296E+01    0.742E-01
DAV:   2    -0.110984056463E+03   -0.19635E+00   -0.19421E+00  1520   0.279E+00    0.670E-01
DAV:   3    -0.110981240891E+03    0.28156E-02   -0.27857E-02  1560   0.323E-01    0.502E-01
DAV:   4    -0.110975364195E+03    0.58767E-02   -0.80729E-03  1504   0.138E-01    0.271E-01
DAV:   5    -0.110974375705E+03    0.98849E-03   -0.70662E-03  1500   0.125E-01    0.861E-02
DAV:   6    -0.110974455067E+03   -0.79362E-04   -0.10431E-04   968   0.184E-02
  24 F= -.11097446E+03 E0= -.11097446E+03  d E =-.906875E-01  mag=     1.0000
 curvature: -47.34 expect dE=-0.377E+00 dE for cont linesearch -0.373E-03
 trial: gam= 0.75225 g(F)=  0.797E-02 g(S)=  0.000E+00 ort =-0.432E-03 (trialstep = 0.151E+02)
 search vector abs. value=  0.207E-01
 bond charge predicted
       N       E                     dE             d eps       ncg     rms          rms(c)
DAV:   1    -0.110912149209E+03    0.62226E-01   -0.31965E+02  1456   0.256E+01    0.655E-01
DAV:   2    -0.111056419985E+03   -0.14427E+00   -0.14343E+00  1496   0.240E+00    0.626E-01
DAV:   3    -0.111054398112E+03    0.20219E-02   -0.21205E-02  1568   0.281E-01    0.481E-01
DAV:   4    -0.111049594213E+03    0.48039E-02   -0.73356E-03  1496   0.131E-01    0.250E-01
DAV:   5    -0.111049076640E+03    0.51757E-03   -0.53397E-03  1528   0.113E-01    0.871E-02
DAV:   6    -0.111049088762E+03   -0.12122E-04   -0.10891E-04   992   0.183E-02
  25 F= -.11104909E+03 E0= -.11104909E+03  d E =-.746337E-01  mag=     1.0000
 trial-energy change:   -0.074634  1 .order   -0.077575   -0.115747   -0.039403
 step:  29.2822(harm= 22.9666)  dis= 0.08001  next Energy=  -111.065082 (dE=-0.906E-01)
 bond charge predicted
       N       E                     dE             d eps       ncg     rms          rms(c)
DAV:   1    -0.110929378776E+03    0.11970E+00   -0.27799E+02  1456   0.238E+01    0.599E-01
DAV:   2    -0.111054038261E+03   -0.12466E+00   -0.12459E+00  1504   0.223E+00    0.567E-01
DAV:   3    -0.111052227088E+03    0.18112E-02   -0.18383E-02  1552   0.262E-01    0.435E-01
DAV:   4    -0.111048129379E+03    0.40977E-02   -0.61207E-03  1504   0.120E-01    0.227E-01
DAV:   5    -0.111047652286E+03    0.47709E-03   -0.46890E-03  1516   0.105E-01    0.790E-02
DAV:   6    -0.111047662844E+03   -0.10558E-04   -0.95934E-05   936   0.172E-02
  26 F= -.11104766E+03 E0= -.11104766E+03  d E =-.732078E-01  mag=     1.0000
 curvature: -10.81 expect dE=-0.110E+00 dE for cont linesearch -0.294E-02
 ZBRENT: interpolating
 opt :  22.5404  next Energy=  -111.055660 (dE=-0.812E-01)
 bond charge predicted
       N       E                     dE             d eps       ncg     rms          rms(c)
DAV:   1    -0.111030641530E+03    0.17011E-01   -0.62986E+01  1456   0.113E+01    0.284E-01
DAV:   2    -0.111058705423E+03   -0.28064E-01   -0.27960E-01  1496   0.105E+00    0.258E-01
DAV:   3    -0.111058256246E+03    0.44918E-03   -0.41464E-03  1592   0.123E-01    0.199E-01
DAV:   4    -0.111057389839E+03    0.86641E-03   -0.17064E-03  1504   0.624E-02    0.889E-02
DAV:   5    -0.111057447385E+03   -0.57546E-04   -0.89186E-04  1536   0.462E-02
  27 F= -.11105745E+03 E0= -.11105745E+03  d E =-.829923E-01  mag=     1.0000
 curvature: -29.42 expect dE=-0.181E+00 dE for cont linesearch -0.217E-03
 trial: gam= 0.66394 g(F)=  0.615E-02 g(S)=  0.000E+00 ort =-0.391E-03 (trialstep = 0.166E+02)
 search vector abs. value=  0.148E-01
 bond charge predicted
       N       E                     dE             d eps       ncg     rms          rms(c)
DAV:   1    -0.111001018846E+03    0.56371E-01   -0.27403E+02  1456   0.237E+01    0.607E-01
DAV:   2    -0.111123378387E+03   -0.12236E+00   -0.12207E+00  1496   0.221E+00    0.559E-01
DAV:   3    -0.111121283212E+03    0.20952E-02   -0.18015E-02  1584   0.259E-01    0.429E-01
DAV:   4    -0.111117107001E+03    0.41762E-02   -0.68738E-03  1496   0.126E-01    0.207E-01
DAV:   5    -0.111116760262E+03    0.34674E-03   -0.40336E-03  1528   0.987E-02    0.740E-02
DAV:   6    -0.111116738137E+03    0.22125E-04   -0.11046E-04   952   0.180E-02
  28 F= -.11111674E+03 E0= -.11111674E+03  d E =-.592908E-01  mag=     1.0000
 trial-energy change:   -0.059291  1 .order   -0.059739   -0.097968   -0.021510
 step:  21.5273(harm= 21.3043)  dis= 0.05178  next Energy=  -111.119897 (dE=-0.624E-01)
 bond charge predicted
       N       E                     dE             d eps       ncg     rms          rms(c)
DAV:   1    -0.111108907759E+03    0.78525E-02   -0.23650E+01  1456   0.694E+00    0.174E-01
DAV:   2    -0.111119440347E+03   -0.10533E-01   -0.10468E-01  1512   0.645E-01    0.158E-01
DAV:   3    -0.111119278600E+03    0.16175E-03   -0.15210E-03  1576   0.745E-02    0.122E-01
DAV:   4    -0.111118943441E+03    0.33516E-03   -0.64172E-04  1508   0.383E-02    0.551E-02
DAV:   5    -0.111118944603E+03   -0.11617E-05   -0.30673E-04  1108   0.282E-02
  29 F= -.11111894E+03 E0= -.11111894E+03  d E =-.614972E-01  mag=     1.0000
 curvature: -26.62 expect dE=-0.177E+00 dE for cont linesearch -0.116E-04
 trial: gam= 1.07981 g(F)=  0.665E-02 g(S)=  0.000E+00 ort =-0.803E-04 (trialstep = 0.110E+02)
 search vector abs. value=  0.237E-01
 bond charge predicted
       N       E                     dE             d eps       ncg     rms          rms(c)
DAV:   1    -0.111089505318E+03    0.29438E-01   -0.19105E+02  1456   0.197E+01    0.487E-01
DAV:   2    -0.111176227829E+03   -0.86723E-01   -0.86031E-01  1500   0.185E+00    0.444E-01
DAV:   3    -0.111174996642E+03    0.12312E-02   -0.12689E-02  1556   0.216E-01    0.337E-01
DAV:   4    -0.111172276518E+03    0.27201E-02   -0.41406E-03  1508   0.983E-02    0.171E-01
DAV:   5    -0.111171957075E+03    0.31944E-03   -0.30909E-03  1536   0.845E-02    0.610E-02
DAV:   6    -0.111171952376E+03    0.46983E-05   -0.75581E-05   920   0.146E-02
  30 F= -.11117195E+03 E0= -.11117195E+03  d E =-.530078E-01  mag=     1.0000
 trial-energy change:   -0.053008  1 .order   -0.055255   -0.071974   -0.038537
 step:  23.6206(harm= 23.6206)  dis= 0.07343  next Energy=  -111.196407 (dE=-0.775E-01)
 bond charge predicted
       N       E                     dE             d eps       ncg     rms          rms(c)
DAV:   1    -0.111081897197E+03    0.90060E-01   -0.25408E+02  1456   0.227E+01    0.577E-01
DAV:   2    -0.111197566393E+03   -0.11567E+00   -0.11469E+00  1488   0.214E+00    0.513E-01
DAV:   3    -0.111195827403E+03    0.17390E-02   -0.16985E-02  1564   0.251E-01    0.386E-01
DAV:   4    -0.111192219515E+03    0.36079E-02   -0.56303E-03  1496   0.114E-01    0.192E-01
DAV:   5    -0.111191833079E+03    0.38644E-03   -0.37781E-03  1520   0.937E-02    0.671E-02
DAV:   6    -0.111191849288E+03   -0.16209E-04   -0.93387E-05   944   0.163E-02
  31 F= -.11119185E+03 E0= -.11119185E+03  d E =-.729047E-01  mag=     1.0000
 curvature: -42.64 expect dE=-0.264E+00 dE for cont linesearch -0.764E-05
 trial: gam= 0.91196 g(F)=  0.620E-02 g(S)=  0.000E+00 ort =-0.651E-04 (trialstep = 0.124E+02)
 search vector abs. value=  0.258E-01
 bond charge predicted
       N       E                     dE             d eps       ncg     rms          rms(c)
DAV:   1    -0.111134880463E+03    0.56953E-01   -0.26600E+02  1456   0.233E+01    0.586E-01
DAV:   2    -0.111256328190E+03   -0.12145E+00   -0.12040E+00  1484   0.219E+00    0.484E-01
DAV:   3    -0.111254310801E+03    0.20174E-02   -0.17849E-02  1576   0.261E-01    0.363E-01
DAV:   4    -0.111250808596E+03    0.35022E-02   -0.49008E-03  1484   0.106E-01    0.183E-01
DAV:   5    -0.111250228050E+03    0.58055E-03   -0.40232E-03  1516   0.955E-02    0.543E-02
DAV:   6    -0.111250310604E+03   -0.82554E-04   -0.63085E-05   936   0.144E-02
  32 F= -.11125031E+03 E0= -.11125031E+03  d E =-.584613E-01  mag=     1.0000
 trial-energy change:   -0.058461  1 .order   -0.060999   -0.076181   -0.045818
 step:  31.1247(harm= 31.1247)  dis= 0.09048  next Energy=  -111.287418 (dE=-0.956E-01)
 bond charge predicted
       N       E                     dE             d eps       ncg     rms          rms(c)
DAV:   1    -0.111004176705E+03    0.24605E+00   -0.61022E+02  1456   0.354E+01    0.103E+00
DAV:   2    -0.111286945046E+03   -0.28277E+00   -0.28129E+00  1504   0.336E+00    0.745E-01
DAV:   3    -0.111281588838E+03    0.53562E-02   -0.42732E-02  1560   0.411E-01    0.534E-01
DAV:   4    -0.111274050999E+03    0.75378E-02   -0.11370E-02  1496   0.162E-01    0.260E-01
DAV:   5    -0.111272960862E+03    0.10901E-02   -0.67969E-03  1500   0.126E-01    0.706E-02
DAV:   6    -0.111273138421E+03   -0.17756E-03   -0.12958E-04  1000   0.209E-02    0.431E-02
DAV:   7    -0.111273397355E+03   -0.25893E-03   -0.59985E-05   968   0.118E-02    0.158E-02
DAV:   8    -0.111273628514E+03   -0.23116E-03   -0.16804E-05   968   0.651E-03    0.534E-03
DAV:   9    -0.111273883032E+03   -0.25452E-03   -0.58643E-06   968   0.334E-03    0.313E-03
DAV:  10    -0.111274093318E+03   -0.21029E-03   -0.31200E-06   968   0.168E-03    0.217E-03
DAV:  11    -0.111274309472E+03   -0.21615E-03   -0.29182E-06   968   0.134E-03    0.165E-03
DAV:  12    -0.111274602029E+03   -0.29256E-03   -0.54676E-06   968   0.153E-03    0.946E-04
DAV:  13    -0.111274722280E+03   -0.12025E-03   -0.17562E-06   984   0.847E-04    0.653E-04
DAV:  14    -0.111274817426E+03   -0.95147E-04   -0.79157E-07   928   0.657E-04
  33 F= -.11127482E+03 E0= -.11127482E+03  d E =-.829681E-01  mag=     1.0000
 curvature: -65.32 expect dE=-0.457E+00 dE for cont linesearch -0.316E-02
 trial: gam= 1.02806 g(F)=  0.699E-02 g(S)=  0.000E+00 ort =-0.112E-02 (trialstep = 0.130E+02)
 search vector abs. value=  0.319E-01
 bond charge predicted
       N       E                     dE             d eps       ncg     rms          rms(c)
DAV:   1    -0.111171985247E+03    0.10274E+00   -0.36437E+02  1456   0.273E+01    0.679E-01
DAV:   2    -0.111336436503E+03   -0.16445E+00   -0.16341E+00  1496   0.257E+00    0.618E-01
DAV:   3    -0.111333692999E+03    0.27435E-02   -0.24539E-02  1560   0.310E-01    0.459E-01
DAV:   4    -0.111328414471E+03    0.52785E-02   -0.66256E-03  1492   0.124E-01    0.257E-01
DAV:   5    -0.111327182679E+03    0.12318E-02   -0.67615E-03  1524   0.124E-01    0.794E-02
DAV:   6    -0.111327218634E+03   -0.35956E-04   -0.88123E-05   952   0.171E-02
  34 F= -.11132722E+03 E0= -.11132722E+03  d E =-.524012E-01  mag=     1.0000
 trial-energy change:   -0.052401  1 .order   -0.055082   -0.076189   -0.033974
 step:  23.5212(harm= 23.5212)  dis= 0.08490  next Energy=  -111.343570 (dE=-0.688E-01)
 bond charge predicted
       N       E                     dE             d eps       ncg     rms          rms(c)
DAV:   1    -0.111233172882E+03    0.94010E-01   -0.23525E+02  1456   0.219E+01    0.537E-01
DAV:   2    -0.111338581065E+03   -0.10541E+00   -0.10496E+00  1488   0.206E+00    0.498E-01
DAV:   3    -0.111336849259E+03    0.17318E-02   -0.15744E-02  1560   0.249E-01    0.371E-01
DAV:   4    -0.111333391258E+03    0.34580E-02   -0.44434E-03  1484   0.101E-01    0.206E-01
DAV:   5    -0.111332715909E+03    0.67535E-03   -0.45320E-03  1508   0.102E-01    0.669E-02
DAV:   6    -0.111332791498E+03   -0.75589E-04   -0.64390E-05   960   0.142E-02
  35 F= -.11133279E+03 E0= -.11133279E+03  d E =-.579741E-01  mag=     1.0000
 curvature: -64.26 expect dE=-0.402E+00 dE for cont linesearch -0.157E-02
 trial: gam= 0.55735 g(F)=  0.625E-02 g(S)=  0.000E+00 ort =-0.883E-03 (trialstep = 0.151E+02)
 search vector abs. value=  0.152E-01
 bond charge predicted
       N       E                     dE             d eps       ncg     rms          rms(c)
DAV:   1    -0.111300411647E+03    0.32304E-01   -0.23242E+02  1456   0.218E+01    0.505E-01
DAV:   2    -0.111403923205E+03   -0.10351E+00   -0.10205E+00  1528   0.202E+00    0.485E-01
DAV:   3    -0.111402305963E+03    0.16172E-02   -0.14828E-02  1552   0.234E-01    0.378E-01
DAV:   4    -0.111398688155E+03    0.36178E-02   -0.47796E-03  1504   0.105E-01    0.203E-01
DAV:   5    -0.111398080934E+03    0.60722E-03   -0.47052E-03  1508   0.103E-01    0.691E-02
DAV:   6    -0.111398187829E+03   -0.10690E-03   -0.59028E-05   960   0.140E-02    0.450E-02
DAV:   7    -0.111398330320E+03   -0.14249E-03   -0.73966E-05   960   0.130E-02    0.141E-02
DAV:   8    -0.111398445418E+03   -0.11510E-03   -0.19820E-05   960   0.775E-03    0.394E-03
DAV:   9    -0.111398593093E+03   -0.14767E-03   -0.55785E-06   952   0.369E-03    0.264E-03
DAV:  10    -0.111398688171E+03   -0.95078E-04   -0.16495E-06   952   0.155E-03
  36 F= -.11139869E+03 E0= -.11139869E+03  d E =-.658967E-01  mag=     1.0000
 trial-energy change:   -0.065897  1 .order   -0.066457   -0.087108   -0.045807
 step:  35.9363(harm= 31.9117)  dis= 0.08957  next Energy=  -111.428725 (dE=-0.959E-01)
 bond charge predicted
       N       E                     dE             d eps       ncg     rms          rms(c)
DAV:   1    -0.111236098665E+03    0.16249E+00   -0.44136E+02  1456   0.301E+01    0.745E-01
DAV:   2    -0.111433718148E+03   -0.19762E+00   -0.19497E+00  1516   0.280E+00    0.670E-01
DAV:   3    -0.111430168336E+03    0.35498E-02   -0.28542E-02  1552   0.325E-01    0.510E-01
DAV:   4    -0.111423370888E+03    0.67974E-02   -0.94905E-03  1512   0.148E-01    0.263E-01
DAV:   5    -0.111422245281E+03    0.11256E-02   -0.70806E-03  1516   0.127E-01    0.853E-02
DAV:   6    -0.111422334045E+03   -0.88764E-04   -0.10180E-04   984   0.185E-02
  37 F= -.11142233E+03 E0= -.11142233E+03  d E =-.895425E-01  mag=     1.0000
 curvature: -39.67 expect dE=-0.256E+00 dE for cont linesearch -0.633E-03
 trial: gam= 0.94326 g(F)=  0.646E-02 g(S)=  0.000E+00 ort =-0.492E-03 (trialstep = 0.154E+02)
 search vector abs. value=  0.190E-01
 bond charge predicted
       N       E                     dE             d eps       ncg     rms          rms(c)
DAV:   1    -0.111351292230E+03    0.70953E-01   -0.30226E+02  1456   0.249E+01    0.620E-01
DAV:   2    -0.111486974461E+03   -0.13568E+00   -0.13462E+00  1484   0.233E+00    0.595E-01
DAV:   3    -0.111484903801E+03    0.20707E-02   -0.20172E-02  1576   0.276E-01    0.456E-01
DAV:   4    -0.111480180757E+03    0.47230E-02   -0.66122E-03  1504   0.124E-01    0.246E-01
DAV:   5    -0.111479504361E+03    0.67640E-03   -0.57204E-03  1536   0.114E-01    0.843E-02
DAV:   6    -0.111479599326E+03   -0.94965E-04   -0.87678E-05   952   0.164E-02
  38 F= -.11147960E+03 E0= -.11147960E+03  d E =-.572653E-01  mag=     1.0000
 trial-energy change:   -0.057265  1 .order   -0.061068   -0.092255   -0.029882
 step:  22.7532(harm= 22.7532)  dis= 0.07972  next Energy=  -111.490560 (dE=-0.682E-01)
 bond charge predicted
       N       E                     dE             d eps       ncg     rms          rms(c)
DAV:   1    -0.111455895694E+03    0.23609E-01   -0.69039E+01  1456   0.118E+01    0.286E-01
DAV:   2    -0.111486804259E+03   -0.30909E-01   -0.30665E-01  1504   0.111E+00    0.277E-01
DAV:   3    -0.111486373532E+03    0.43073E-03   -0.45706E-03  1568   0.131E-01    0.213E-01
DAV:   4    -0.111485334731E+03    0.10388E-02   -0.15414E-03  1480   0.598E-02    0.114E-01
DAV:   5    -0.111485272343E+03    0.62387E-04   -0.14016E-03  1512   0.564E-02    0.418E-02
DAV:   6    -0.111485334252E+03   -0.61909E-04   -0.23941E-05   960   0.830E-03
  39 F= -.11148533E+03 E0= -.11148533E+03  d E =-.630002E-01  mag=     1.0000
 curvature: -36.13 expect dE=-0.150E+00 dE for cont linesearch -0.328E-04
 trial: gam= 0.51840 g(F)=  0.415E-02 g(S)=  0.000E+00 ort =-0.131E-03 (trialstep = 0.169E+02)
 search vector abs. value=  0.913E-02
 bond charge predicted
       N       E                     dE             d eps       ncg     rms          rms(c)
DAV:   1    -0.111458248178E+03    0.27024E-01   -0.17351E+02  1456   0.188E+01    0.480E-01
DAV:   2    -0.111536140235E+03   -0.77892E-01   -0.77354E-01  1496   0.177E+00    0.443E-01
DAV:   3    -0.111534887620E+03    0.12526E-02   -0.11817E-02  1552   0.216E-01    0.333E-01
DAV:   4    -0.111532247197E+03    0.26404E-02   -0.39548E-03  1504   0.951E-02    0.171E-01
DAV:   5    -0.111531940575E+03    0.30662E-03   -0.30706E-03  1528   0.839E-02    0.603E-02
DAV:   6    -0.111531974402E+03   -0.33828E-04   -0.64171E-05   928   0.133E-02
  40 F= -.11153197E+03 E0= -.11153197E+03  d E =-.466402E-01  mag=     1.0000
 trial-energy change:   -0.046640  1 .order   -0.047732   -0.068762   -0.026702
 step:  32.0647(harm= 27.5593)  dis= 0.06175  next Energy=  -111.543217 (dE=-0.579E-01)
 bond charge predicted
       N       E                     dE             d eps       ncg     rms          rms(c)
DAV:   1    -0.111477293395E+03    0.54647E-01   -0.14109E+02  1456   0.170E+01    0.436E-01
DAV:   2    -0.111540636399E+03   -0.63343E-01   -0.62884E-01  1496   0.159E+00    0.401E-01
DAV:   3    -0.111539617791E+03    0.10186E-02   -0.96032E-03  1552   0.195E-01    0.300E-01
DAV:   4    -0.111537467840E+03    0.21500E-02   -0.33282E-03  1536   0.872E-02    0.152E-01
DAV:   5    -0.111537257656E+03    0.21018E-03   -0.24139E-03  1516   0.747E-02    0.545E-02
DAV:   6    -0.111537285802E+03   -0.28146E-04   -0.54662E-05   920   0.122E-02
  41 F= -.11153729E+03 E0= -.11153729E+03  d E =-.519515E-01  mag=     1.0000
 curvature: -25.37 expect dE=-0.161E+00 dE for cont linesearch -0.139E-02
 trial: gam= 1.70844 g(F)=  0.636E-02 g(S)=  0.000E+00 ort =-0.707E-03 (trialstep = 0.594E+01)
 search vector abs. value=  0.306E-01
 bond charge predicted
       N       E                     dE             d eps       ncg     rms          rms(c)
DAV:   1    -0.111530847605E+03    0.64101E-02   -0.71984E+01  1456   0.121E+01    0.284E-01
DAV:   2    -0.111563301471E+03   -0.32454E-01   -0.32164E-01  1516   0.114E+00    0.290E-01
DAV:   3    -0.111562884081E+03    0.41739E-03   -0.47488E-03  1528   0.138E-01    0.222E-01
DAV:   4    -0.111561793598E+03    0.10905E-02   -0.13167E-03  1516   0.556E-02    0.132E-01
DAV:   5    -0.111561571630E+03    0.22197E-03   -0.19057E-03  1516   0.653E-02    0.467E-02
DAV:   6    -0.111561600288E+03   -0.28658E-04   -0.25949E-05   912   0.871E-03
  42 F= -.11156160E+03 E0= -.11156160E+03  d E =-.243145E-01  mag=     1.0000
 trial-energy change:   -0.024314  1 .order   -0.025075   -0.030591   -0.019558
 step:  16.4667(harm= 16.4667)  dis= 0.06590  next Energy=  -111.579697 (dE=-0.424E-01)
 bond charge predicted
       N       E                     dE             d eps       ncg     rms          rms(c)
DAV:   1    -0.111479372746E+03    0.82199E-01   -0.22692E+02  1456   0.215E+01    0.527E-01
DAV:   2    -0.111582297302E+03   -0.10292E+00   -0.10197E+00  1520   0.204E+00    0.520E-01
DAV:   3    -0.111580869140E+03    0.14282E-02   -0.15195E-02  1536   0.250E-01    0.389E-01
DAV:   4    -0.111577460070E+03    0.34091E-02   -0.42098E-03  1520   0.994E-02    0.229E-01
DAV:   5    -0.111576710411E+03    0.74966E-03   -0.52752E-03  1516   0.109E-01    0.774E-02
DAV:   6    -0.111576736315E+03   -0.25905E-04   -0.74530E-05   936   0.148E-02
  43 F= -.11157674E+03 E0= -.11157674E+03  d E =-.394505E-01  mag=     1.0000
 curvature: -48.89 expect dE=-0.239E+00 dE for cont linesearch -0.548E-07
 trial: gam= 0.38784 g(F)=  0.488E-02 g(S)=  0.000E+00 ort =-0.585E-05 (trialstep = 0.804E+01)
 search vector abs. value=  0.948E-02
 bond charge predicted
       N       E                     dE             d eps       ncg     rms          rms(c)
DAV:   1    -0.111592507681E+03   -0.15797E-01   -0.40966E+01  1456   0.912E+00    0.225E-01
DAV:   2    -0.111610968871E+03   -0.18461E-01   -0.18366E-01  1508   0.859E-01    0.220E-01
DAV:   3    -0.111610731986E+03    0.23689E-03   -0.27011E-03  1544   0.103E-01    0.166E-01
DAV:   4    -0.111610153725E+03    0.57826E-03   -0.88990E-04  1512   0.460E-02    0.911E-02
DAV:   5    -0.111610129361E+03    0.24364E-04   -0.83707E-04  1512   0.440E-02
  44 F= -.11161013E+03 E0= -.11161013E+03  d E =-.333930E-01  mag=     1.0000
 trial-energy change:   -0.033393  1 .order   -0.034209   -0.039241   -0.029178
 step:  31.3699(harm= 31.3699)  dis= 0.07373  next Energy=  -111.653249 (dE=-0.765E-01)
 bond charge predicted
       N       E                     dE             d eps       ncg     rms          rms(c)
DAV:   1    -0.111496493545E+03    0.11366E+00   -0.34681E+02  1456   0.266E+01    0.717E-01
DAV:   2    -0.111654976673E+03   -0.15848E+00   -0.15819E+00  1512   0.253E+00    0.651E-01
DAV:   3    -0.111652636240E+03    0.23404E-02   -0.23797E-02  1544   0.309E-01    0.473E-01
DAV:   4    -0.111647730948E+03    0.49053E-02   -0.73796E-03  1524   0.133E-01    0.256E-01
DAV:   5    -0.111647104061E+03    0.62689E-03   -0.55790E-03  1520   0.114E-01    0.853E-02
DAV:   6    -0.111647122014E+03   -0.17953E-04   -0.14203E-04   992   0.193E-02
  45 F= -.11164712E+03 E0= -.11164712E+03  d E =-.703857E-01  mag=     1.0000
 curvature: -30.47 expect dE=-0.166E+00 dE for cont linesearch -0.168E-03
 trial: gam= 1.16496 g(F)=  0.543E-02 g(S)=  0.000E+00 ort =-0.229E-03 (trialstep = 0.678E+01)
 search vector abs. value=  0.178E-01
 bond charge predicted
       N       E                     dE             d eps       ncg     rms          rms(c)
DAV:   1    -0.111651911993E+03   -0.48079E-02   -0.54563E+01  1456   0.105E+01    0.262E-01
DAV:   2    -0.111676566329E+03   -0.24654E-01   -0.24582E-01  1520   0.996E-01    0.256E-01
DAV:   3    -0.111676236744E+03    0.32958E-03   -0.36828E-03  1544   0.121E-01    0.191E-01
DAV:   4    -0.111675450823E+03    0.78592E-03   -0.11337E-03  1528   0.515E-02    0.108E-01
DAV:   5    -0.111675382471E+03    0.68352E-04   -0.12015E-03  1512   0.522E-02    0.388E-02
DAV:   6    -0.111675412430E+03   -0.29959E-04   -0.23738E-05   928   0.799E-03
  46 F= -.11167541E+03 E0= -.11167541E+03  d E =-.282904E-01  mag=     1.0000
 trial-energy change:   -0.028290  1 .order   -0.028893   -0.035039   -0.022747
 step:  19.3304(harm= 19.3304)  dis= 0.08087  next Energy=  -111.697063 (dE=-0.499E-01)
 bond charge predicted
       N       E                     dE             d eps       ncg     rms          rms(c)
DAV:   1    -0.111614546541E+03    0.60836E-01   -0.18758E+02  1456   0.195E+01    0.527E-01
DAV:   2    -0.111700169471E+03   -0.85623E-01   -0.85551E-01  1512   0.186E+00    0.478E-01
DAV:   3    -0.111698791913E+03    0.13776E-02   -0.13087E-02  1552   0.233E-01    0.345E-01
DAV:   4    -0.111696052618E+03    0.27393E-02   -0.41774E-03  1512   0.984E-02    0.184E-01
DAV:   5    -0.111695724809E+03    0.32781E-03   -0.31951E-03  1520   0.860E-02    0.626E-02
DAV:   6    -0.111695739571E+03   -0.14762E-04   -0.83760E-05   928   0.148E-02
  47 F= -.11169574E+03 E0= -.11169574E+03  d E =-.486176E-01  mag=     1.0000
 curvature: -33.22 expect dE=-0.987E-01 dE for cont linesearch -0.342E-05
 trial: gam= 0.36429 g(F)=  0.297E-02 g(S)=  0.000E+00 ort = 0.427E-04 (trialstep = 0.929E+01)
 search vector abs. value=  0.536E-02
 bond charge predicted
       N       E                     dE             d eps       ncg     rms          rms(c)
DAV:   1    -0.111704695652E+03   -0.89708E-02   -0.30932E+01  1456   0.791E+00    0.218E-01
DAV:   2    -0.111718645359E+03   -0.13950E-01   -0.13986E-01  1520   0.748E-01    0.199E-01
DAV:   3    -0.111718456097E+03    0.18926E-03   -0.21041E-03  1544   0.906E-02    0.145E-01
DAV:   4    -0.111718036738E+03    0.41936E-03   -0.78181E-04  1520   0.431E-02    0.706E-02
DAV:   5    -0.111718046663E+03   -0.99244E-05   -0.42140E-04  1504   0.320E-02
  48 F= -.11171805E+03 E0= -.11171805E+03  d E =-.223071E-01  mag=     1.0000
 trial-energy change:   -0.022307  1 .order   -0.022758   -0.027731   -0.017785
 step:  25.9037(harm= 25.9037)  dis= 0.07213  next Energy=  -111.734398 (dE=-0.387E-01)
 bond charge predicted
       N       E                     dE             d eps       ncg     rms          rms(c)
DAV:   1    -0.111689610958E+03    0.28426E-01   -0.99109E+01  1456   0.142E+01    0.402E-01
DAV:   2    -0.111734881572E+03   -0.45271E-01   -0.45282E-01  1504   0.135E+00    0.356E-01
DAV:   3    -0.111734283136E+03    0.59844E-03   -0.69151E-03  1552   0.165E-01    0.255E-01
DAV:   4    -0.111732932054E+03    0.13511E-02   -0.23923E-03  1512   0.758E-02    0.124E-01
DAV:   5    -0.111732863307E+03    0.68747E-04   -0.12508E-03  1528   0.554E-02    0.436E-02
DAV:   6    -0.111732896490E+03   -0.33183E-04   -0.51179E-05   928   0.113E-02
  49 F= -.11173290E+03 E0= -.11173290E+03  d E =-.371569E-01  mag=     1.0000
 curvature: -23.25 expect dE=-0.720E-01 dE for cont linesearch -0.288E-05
 trial: gam= 1.05810 g(F)=  0.310E-02 g(S)=  0.000E+00 ort =-0.257E-04 (trialstep = 0.748E+01)
 search vector abs. value=  0.904E-02
 bond charge predicted
       N       E                     dE             d eps       ncg     rms          rms(c)
DAV:   1    -0.111737039771E+03   -0.41765E-02   -0.33780E+01  1456   0.825E+00    0.208E-01
DAV:   2    -0.111752422915E+03   -0.15383E-01   -0.15207E-01  1504   0.774E-01    0.184E-01
DAV:   3    -0.111752197405E+03    0.22551E-03   -0.21982E-03  1560   0.914E-02    0.140E-01
DAV:   4    -0.111751744672E+03    0.45273E-03   -0.74508E-04  1512   0.414E-02    0.670E-02
DAV:   5    -0.111751735496E+03    0.91761E-05   -0.51989E-04  1520   0.349E-02
  50 F= -.11175174E+03 E0= -.11175174E+03  d E =-.188390E-01  mag=     1.0000
 trial-energy change:   -0.018839  1 .order   -0.019146   -0.022936   -0.015355
 step:  22.6207(harm= 22.6207)  dis= 0.10074  next Energy=  -111.767594 (dE=-0.347E-01)
 bond charge predicted
       N       E                     dE             d eps       ncg     rms          rms(c)
DAV:   1    -0.111703689211E+03    0.48055E-01   -0.13921E+02  1456   0.168E+01    0.454E-01
DAV:   2    -0.111767426641E+03   -0.63737E-01   -0.63550E-01  1504   0.158E+00    0.375E-01
DAV:   3    -0.111766407414E+03    0.10192E-02   -0.96049E-03  1560   0.193E-01    0.277E-01
DAV:   4    -0.111764575595E+03    0.18318E-02   -0.29004E-03  1504   0.822E-02    0.133E-01
DAV:   5    -0.111764385116E+03    0.19048E-03   -0.18048E-03  1528   0.658E-02    0.426E-02
DAV:   6    -0.111764451242E+03   -0.66126E-04   -0.48317E-05   944   0.117E-02
  51 F= -.11176445E+03 E0= -.11176445E+03  d E =-.315548E-01  mag=     1.0000
 curvature: -33.32 expect dE=-0.133E+00 dE for cont linesearch -0.145E-03
 trial: gam= 1.28323 g(F)=  0.399E-02 g(S)=  0.000E+00 ort =-0.198E-03 (trialstep = 0.517E+01)
 search vector abs. value=  0.184E-01
 bond charge predicted
       N       E                     dE             d eps       ncg     rms          rms(c)
DAV:   1    -0.111767282306E+03   -0.28972E-02   -0.32794E+01  1456   0.810E+00    0.191E-01
DAV:   2    -0.111782179560E+03   -0.14897E-01   -0.14784E-01  1512   0.762E-01    0.181E-01
DAV:   3    -0.111781993161E+03    0.18640E-03   -0.21298E-03  1584   0.901E-02    0.138E-01
DAV:   4    -0.111781573237E+03    0.41992E-03   -0.56968E-04  1496   0.369E-02    0.773E-02
DAV:   5    -0.111781537271E+03    0.35966E-04   -0.69145E-04  1536   0.396E-02
  52 F= -.11178154E+03 E0= -.11178154E+03  d E =-.170860E-01  mag=     1.0000
 ZBRENT: can't locate minimum, use default step
 trial-energy change:   -0.017086  1 .order   -0.017654   -0.019300   -0.016008
 step:  20.6853(harm= 30.3137)  dis= 0.14043  next Energy=  -111.821020 (dE=-0.566E-01)
 bond charge predicted
       N       E                     dE             d eps       ncg     rms          rms(c)
DAV:   1    -0.111676293229E+03    0.10528E+00   -0.29900E+02  1456   0.245E+01    0.674E-01
DAV:   2    -0.111816439617E+03   -0.14015E+00   -0.13933E+00  1504   0.235E+00    0.556E-01
DAV:   3    -0.111814478840E+03    0.19608E-02   -0.20833E-02  1584   0.287E-01    0.401E-01
DAV:   4    -0.111810897484E+03    0.35814E-02   -0.48555E-03  1512   0.109E-01    0.224E-01
DAV:   5    -0.111810154670E+03    0.74281E-03   -0.43625E-03  1500   0.102E-01    0.627E-02
DAV:   6    -0.111810287468E+03   -0.13280E-03   -0.63776E-05   936   0.146E-02    0.395E-02
DAV:   7    -0.111810448699E+03   -0.16123E-03   -0.46557E-05   956   0.101E-02    0.149E-02
DAV:   8    -0.111810596126E+03   -0.14743E-03   -0.18204E-05   960   0.682E-03    0.439E-03
DAV:   9    -0.111810738144E+03   -0.14202E-03   -0.40252E-06   956   0.299E-03    0.250E-03
DAV:  10    -0.111810827015E+03   -0.88871E-04   -0.13697E-06   928   0.133E-03
  53 F= -.11181083E+03 E0= -.11181083E+03  d E =-.463758E-01  mag=     1.0000
 curvature: -63.63 expect dE=-0.205E+00 dE for cont linesearch -0.207E-02
 ZBRENT: extrapolating
 opt :  25.8558  next Energy=  -111.812827 (dE=-0.484E-01)
 bond charge predicted
       N       E                     dE             d eps       ncg     rms          rms(c)
DAV:   1    -0.111798608878E+03    0.12129E-01   -0.32815E+01  1456   0.811E+00    0.194E-01
DAV:   2    -0.111813585600E+03   -0.14977E-01   -0.14790E-01  1504   0.764E-01    0.184E-01
DAV:   3    -0.111813412557E+03    0.17304E-03   -0.21508E-03  1568   0.908E-02    0.139E-01
DAV:   4    -0.111812976141E+03    0.43642E-03   -0.58063E-04  1484   0.373E-02    0.778E-02
DAV:   5    -0.111812912390E+03    0.63751E-04   -0.66779E-04  1528   0.392E-02
  54 F= -.11181291E+03 E0= -.11181291E+03  d E =-.484611E-01  mag=     1.0000
 curvature: -61.35 expect dE=-0.258E+00 dE for cont linesearch -0.724E-04
 trial: gam= 0.75704 g(F)=  0.421E-02 g(S)=  0.000E+00 ort = 0.147E-03 (trialstep = 0.931E+01)
 search vector abs. value=  0.150E-01
 bond charge predicted
       N       E                     dE             d eps       ncg     rms          rms(c)
DAV:   1    -0.111805740493E+03    0.72356E-02   -0.86909E+01  1456   0.132E+01    0.342E-01
DAV:   2    -0.111845028604E+03   -0.39288E-01   -0.39443E-01  1476   0.124E+00    0.308E-01
DAV:   3    -0.111844527204E+03    0.50140E-03   -0.59026E-03  1592   0.147E-01    0.229E-01
DAV:   4    -0.111843377614E+03    0.11496E-02   -0.18222E-03  1492   0.673E-02    0.118E-01
DAV:   5    -0.111843275603E+03    0.10201E-03   -0.12222E-03  1512   0.548E-02    0.411E-02
DAV:   6    -0.111843321458E+03   -0.45855E-04   -0.30415E-05   888   0.916E-03
  55 F= -.11184332E+03 E0= -.11184332E+03  d E =-.304091E-01  mag=     1.0000
 trial-energy change:   -0.030409  1 .order   -0.031227   -0.040230   -0.022224
 step:  20.7975(harm= 20.7975)  dis= 0.12140  next Energy=  -111.857855 (dE=-0.449E-01)
 bond charge predicted
       N       E                     dE             d eps       ncg     rms          rms(c)
DAV:   1    -0.111797539174E+03    0.45736E-01   -0.13270E+02  1456   0.163E+01    0.429E-01
DAV:   2    -0.111857359992E+03   -0.59821E-01   -0.60297E-01  1492   0.154E+00    0.382E-01
DAV:   3    -0.111856506120E+03    0.85387E-03   -0.90188E-03  1568   0.182E-01    0.282E-01
DAV:   4    -0.111854765876E+03    0.17402E-02   -0.27768E-03  1480   0.829E-02    0.146E-01
DAV:   5    -0.111854621993E+03    0.14388E-03   -0.18011E-03  1512   0.668E-02    0.496E-02
DAV:   6    -0.111854682744E+03   -0.60752E-04   -0.43043E-05   912   0.110E-02
  56 F= -.11185468E+03 E0= -.11185468E+03  d E =-.417704E-01  mag=     1.0000
 curvature: -35.99 expect dE=-0.835E-01 dE for cont linesearch -0.138E-03
 trial: gam= 0.40957 g(F)=  0.232E-02 g(S)=  0.000E+00 ort =-0.239E-03 (trialstep = 0.116E+02)
 search vector abs. value=  0.463E-02
 bond charge predicted
       N       E                     dE             d eps       ncg     rms          rms(c)
DAV:   1    -0.111854675087E+03   -0.53094E-04   -0.41775E+01  1456   0.919E+00    0.254E-01
DAV:   2    -0.111873361489E+03   -0.18686E-01   -0.18731E-01  1468   0.855E-01    0.213E-01
DAV:   3    -0.111873097876E+03    0.26361E-03   -0.27758E-03  1560   0.979E-02    0.157E-01
DAV:   4    -0.111872618851E+03    0.47903E-03   -0.12164E-03  1500   0.537E-02    0.616E-02
DAV:   5    -0.111872676479E+03   -0.57628E-04   -0.28929E-04  1080   0.293E-02
  57 F= -.11187268E+03 E0= -.11187268E+03  d E =-.179937E-01  mag=     1.0000
 trial-energy change:   -0.017994  1 .order   -0.018585   -0.025780   -0.011390
 step:  20.7926(harm= 20.7926)  dis= 0.04939  next Energy=  -111.877776 (dE=-0.231E-01)
 bond charge predicted
       N       E                     dE             d eps       ncg     rms          rms(c)
DAV:   1    -0.111864726383E+03    0.78925E-02   -0.26154E+01  1456   0.727E+00    0.205E-01
DAV:   2    -0.111876476659E+03   -0.11750E-01   -0.11777E-01  1484   0.677E-01    0.165E-01
DAV:   3    -0.111876340384E+03    0.13628E-03   -0.17458E-03  1560   0.775E-02    0.120E-01
DAV:   4    -0.111876086979E+03    0.25340E-03   -0.71466E-04  1492   0.414E-02    0.462E-02
DAV:   5    -0.111876129302E+03   -0.42323E-04   -0.15733E-04   928   0.222E-02
  58 F= -.11187613E+03 E0= -.11187613E+03  d E =-.214466E-01  mag=     1.0000
 curvature: -21.68 expect dE=-0.462E-01 dE for cont linesearch -0.288E-04
 trial: gam= 0.83833 g(F)=  0.213E-02 g(S)=  0.000E+00 ort =-0.785E-04 (trialstep = 0.119E+02)
 search vector abs. value=  0.525E-02
 bond charge predicted
       N       E                     dE             d eps       ncg     rms          rms(c)
DAV:   1    -0.111870985923E+03    0.51011E-02   -0.49334E+01  1456   0.999E+00    0.256E-01
DAV:   2    -0.111892948902E+03   -0.21963E-01   -0.21885E-01  1472   0.927E-01    0.225E-01
DAV:   3    -0.111892653110E+03    0.29579E-03   -0.31991E-03  1560   0.106E-01    0.169E-01
DAV:   4    -0.111892021977E+03    0.63113E-03   -0.12707E-03  1496   0.545E-02    0.734E-02
DAV:   5    -0.111892028812E+03   -0.68345E-05   -0.55025E-04  1520   0.365E-02
  59 F= -.11189203E+03 E0= -.11189203E+03  d E =-.158995E-01  mag=     1.0000
 trial-energy change:   -0.015900  1 .order   -0.016638   -0.024460   -0.008815
 step:  18.5330(harm= 18.5330)  dis= 0.03229  next Energy=  -111.895250 (dE=-0.191E-01)
 bond charge predicted
       N       E                     dE             d eps       ncg     rms          rms(c)
DAV:   1    -0.111887215262E+03    0.48067E-02   -0.15640E+01  1456   0.562E+00    0.149E-01
DAV:   2    -0.111894219623E+03   -0.70044E-02   -0.69957E-02  1484   0.523E-01    0.124E-01
DAV:   3    -0.111894144714E+03    0.74909E-04   -0.10282E-03  1528   0.603E-02    0.913E-02
DAV:   4    -0.111893986576E+03    0.15814E-03   -0.37713E-04  1368   0.302E-02    0.385E-02
DAV:   5    -0.111894008808E+03   -0.22232E-04   -0.15045E-04   920   0.206E-02
  60 F= -.11189401E+03 E0= -.11189401E+03  d E =-.178795E-01  mag=     1.0000
 curvature: -23.59 expect dE=-0.396E-01 dE for cont linesearch -0.757E-06
 trial: gam= 0.71964 g(F)=  0.168E-02 g(S)=  0.000E+00 ort =-0.130E-04 (trialstep = 0.132E+02)
 search vector abs. value=  0.438E-02
 bond charge predicted
       N       E                     dE             d eps       ncg     rms          rms(c)
DAV:   1    -0.111887341688E+03    0.66449E-02   -0.50879E+01  1456   0.101E+01    0.248E-01
DAV:   2    -0.111909961987E+03   -0.22620E-01   -0.22522E-01  1480   0.944E-01    0.225E-01
DAV:   3    -0.111909637844E+03    0.32414E-03   -0.33126E-03  1560   0.110E-01    0.172E-01
DAV:   4    -0.111908945184E+03    0.69266E-03   -0.11488E-03  1484   0.515E-02    0.828E-02
DAV:   5    -0.111908906164E+03    0.39020E-04   -0.79125E-04  1528   0.424E-02
  61 F= -.11190891E+03 E0= -.11190891E+03  d E =-.148974E-01  mag=     1.0000
 trial-energy change:   -0.014897  1 .order   -0.015819   -0.022023   -0.009616
 step:  23.4123(harm= 23.4123)  dis= 0.03727  next Energy=  -111.913554 (dE=-0.195E-01)
 bond charge predicted
       N       E                     dE             d eps       ncg     rms          rms(c)
DAV:   1    -0.111898595896E+03    0.10349E-01   -0.30535E+01  1456   0.786E+00    0.195E-01
DAV:   2    -0.111912237092E+03   -0.13641E-01   -0.13590E-01  1480   0.733E-01    0.173E-01
DAV:   3    -0.111912064996E+03    0.17210E-03   -0.20056E-03  1544   0.860E-02    0.129E-01
DAV:   4    -0.111911694722E+03    0.37027E-03   -0.66539E-04  1488   0.395E-02    0.618E-02
DAV:   5    -0.111911691062E+03    0.36601E-05   -0.43092E-04  1528   0.315E-02
  62 F= -.11191169E+03 E0= -.11191169E+03  d E =-.176823E-01  mag=     1.0000
 curvature: -30.71 expect dE=-0.356E-01 dE for cont linesearch -0.129E-04
 trial: gam= 0.66171 g(F)=  0.116E-02 g(S)=  0.000E+00 ort =-0.429E-04 (trialstep = 0.152E+02)
 search vector abs. value=  0.302E-02
 bond charge predicted
       N       E                     dE             d eps       ncg     rms          rms(c)
DAV:   1    -0.111903216797E+03    0.84779E-02   -0.46830E+01  1456   0.971E+00    0.236E-01
DAV:   2    -0.111924387662E+03   -0.21171E-01   -0.21036E-01  1520   0.911E-01    0.216E-01
DAV:   3    -0.111924112932E+03    0.27473E-03   -0.29994E-03  1528   0.105E-01    0.163E-01
DAV:   4    -0.111923493725E+03    0.61921E-03   -0.10058E-03  1504   0.487E-02    0.825E-02
DAV:   5    -0.111923452665E+03    0.41060E-04   -0.75000E-04  1536   0.417E-02
  63 F= -.11192345E+03 E0= -.11192345E+03  d E =-.117616E-01  mag=     1.0000
 trial-energy change:   -0.011762  1 .order   -0.012507   -0.017208   -0.007807
 step:  27.8853(harm= 27.8853)  dis= 0.05116  next Energy=  -111.927440 (dE=-0.157E-01)
 bond charge predicted
       N       E                     dE             d eps       ncg     rms          rms(c)
DAV:   1    -0.111911519361E+03    0.11974E-01   -0.32270E+01  1456   0.805E+00    0.199E-01
DAV:   2    -0.111926101426E+03   -0.14582E-01   -0.14522E-01  1520   0.756E-01    0.179E-01
DAV:   3    -0.111925924972E+03    0.17645E-03   -0.20705E-03  1528   0.870E-02    0.134E-01
DAV:   4    -0.111925527455E+03    0.39752E-03   -0.70168E-04  1488   0.408E-02    0.661E-02
DAV:   5    -0.111925520679E+03    0.67756E-05   -0.46630E-04  1464   0.333E-02
  64 F= -.11192552E+03 E0= -.11192552E+03  d E =-.138296E-01  mag=     1.0000
 curvature: -37.27 expect dE=-0.446E-01 dE for cont linesearch -0.610E-04
 trial: gam= 1.00343 g(F)=  0.120E-02 g(S)=  0.000E+00 ort =-0.703E-04 (trialstep = 0.131E+02)
 search vector abs. value=  0.410E-02
 bond charge predicted
       N       E                     dE             d eps       ncg     rms          rms(c)
DAV:   1    -0.111915591161E+03    0.99363E-02   -0.46922E+01  1456   0.970E+00    0.221E-01
DAV:   2    -0.111936872599E+03   -0.21281E-01   -0.20986E-01  1512   0.908E-01    0.207E-01
DAV:   3    -0.111936634605E+03    0.23799E-03   -0.29287E-03  1528   0.103E-01    0.160E-01
DAV:   4    -0.111936026110E+03    0.60849E-03   -0.88162E-04  1504   0.452E-02    0.843E-02
DAV:   5    -0.111935956702E+03    0.69408E-04   -0.86488E-04  1528   0.442E-02
  65 F= -.11193596E+03 E0= -.11193596E+03  d E =-.104360E-01  mag=     1.0000
 trial-energy change:   -0.010436  1 .order   -0.011377   -0.014744   -0.008009
 step:  28.6732(harm= 28.6732)  dis= 0.07247  next Energy=  -111.941660 (dE=-0.161E-01)
 bond charge predicted
       N       E                     dE             d eps       ncg     rms          rms(c)
DAV:   1    -0.111910000753E+03    0.26025E-01   -0.66394E+01  1456   0.115E+01    0.270E-01
DAV:   2    -0.111940026110E+03   -0.30025E-01   -0.29743E-01  1504   0.108E+00    0.248E-01
DAV:   3    -0.111939647512E+03    0.37860E-03   -0.41660E-03  1520   0.124E-01    0.189E-01
DAV:   4    -0.111938790263E+03    0.85725E-03   -0.12717E-03  1512   0.542E-02    0.982E-02
DAV:   5    -0.111938693925E+03    0.96337E-04   -0.11364E-03  1520   0.509E-02    0.347E-02
DAV:   6    -0.111938707396E+03   -0.13471E-04   -0.21626E-05   872   0.808E-03
  66 F= -.11193871E+03 E0= -.11193871E+03  d E =-.131867E-01  mag=     1.0000
 curvature: -52.16 expect dE=-0.593E-01 dE for cont linesearch -0.241E-03
 trial: gam= 0.82255 g(F)=  0.114E-02 g(S)=  0.000E+00 ort =-0.137E-03 (trialstep = 0.162E+02)
 search vector abs. value=  0.368E-02
 bond charge predicted
       N       E                     dE             d eps       ncg     rms          rms(c)
DAV:   1    -0.111921140501E+03    0.17553E-01   -0.64603E+01  1456   0.114E+01    0.274E-01
DAV:   2    -0.111949989985E+03   -0.28849E-01   -0.28553E-01  1504   0.106E+00    0.246E-01
DAV:   3    -0.111949536241E+03    0.45374E-03   -0.39855E-03  1560   0.122E-01    0.191E-01
DAV:   4    -0.111948647726E+03    0.88852E-03   -0.14711E-03  1512   0.573E-02    0.899E-02
DAV:   5    -0.111948593876E+03    0.53849E-04   -0.99654E-04  1524   0.478E-02
  67 F= -.11194859E+03 E0= -.11194859E+03  d E =-.988648E-02  mag=     1.0000
 trial-energy change:   -0.009886  1 .order   -0.010739   -0.016588   -0.004891
 step:  22.9909(harm= 22.9909)  dis= 0.04772  next Energy=  -111.950469 (dE=-0.118E-01)
 bond charge predicted
       N       E                     dE             d eps       ncg     rms          rms(c)
DAV:   1    -0.111944033670E+03    0.46141E-02   -0.11265E+01  1456   0.476E+00    0.118E-01
DAV:   2    -0.111949091669E+03   -0.50580E-02   -0.50200E-02  1528   0.443E-01    0.995E-02
DAV:   3    -0.111949032649E+03    0.59019E-04   -0.70330E-04  1568   0.511E-02
  68 F= -.11194903E+03 E0= -.11194903E+03  d E =-.103253E-01  mag=     1.0000
 curvature: -41.36 expect dE=-0.376E-01 dE for cont linesearch -0.119E-03
 trial: gam= 0.67108 g(F)=  0.909E-03 g(S)=  0.000E+00 ort =-0.103E-03 (trialstep = 0.176E+02)
 search vector abs. value=  0.243E-02
 bond charge predicted
       N       E                     dE             d eps       ncg     rms          rms(c)
DAV:   1    -0.111937249994E+03    0.11842E-01   -0.50087E+01  1456   0.100E+01    0.234E-01
DAV:   2    -0.111959365215E+03   -0.22115E-01   -0.22097E-01  1508   0.939E-01    0.244E-01
DAV:   3    -0.111959067375E+03    0.29784E-03   -0.31832E-03  1584   0.109E-01    0.192E-01
DAV:   4    -0.111958268248E+03    0.79913E-03   -0.11085E-03  1504   0.509E-02    0.109E-01
DAV:   5    -0.111958166252E+03    0.10200E-03   -0.12850E-03  1496   0.532E-02    0.414E-02
DAV:   6    -0.111958170772E+03   -0.45192E-05   -0.22627E-05   904   0.793E-03
  69 F= -.11195817E+03 E0= -.11195817E+03  d E =-.913812E-02  mag=     1.0000
 trial-energy change:   -0.009138  1 .order   -0.009725   -0.014754   -0.004696
 step:  25.7715(harm= 25.7715)  dis= 0.03214  next Energy=  -111.959854 (dE=-0.108E-01)
 bond charge predicted
       N       E                     dE             d eps       ncg     rms          rms(c)
DAV:   1    -0.111954345897E+03    0.38204E-02   -0.10895E+01  1456   0.468E+00    0.109E-01
DAV:   2    -0.111959234066E+03   -0.48882E-02   -0.48653E-02  1520   0.440E-01    0.109E-01
DAV:   3    -0.111959179626E+03    0.54439E-04   -0.70110E-04  1552   0.515E-02
  70 F= -.11195918E+03 E0= -.11195918E+03  d E =-.101470E-01  mag=     1.0000
 curvature: -37.26 expect dE=-0.301E-01 dE for cont linesearch -0.855E-07
 trial: gam= 0.81709 g(F)=  0.809E-03 g(S)=  0.000E+00 ort =-0.236E-05 (trialstep = 0.192E+02)
 search vector abs. value=  0.243E-02
 bond charge predicted
       N       E                     dE             d eps       ncg     rms          rms(c)
DAV:   1    -0.111943208952E+03    0.16025E-01   -0.59796E+01  1456   0.110E+01    0.252E-01
DAV:   2    -0.111969577286E+03   -0.26368E-01   -0.26272E-01  1508   0.103E+00    0.269E-01
DAV:   3    -0.111969222862E+03    0.35442E-03   -0.37999E-03  1576   0.120E-01    0.213E-01
DAV:   4    -0.111968228112E+03    0.99475E-03   -0.12904E-03  1512   0.547E-02    0.124E-01
DAV:   5    -0.111968057781E+03    0.17033E-03   -0.17038E-03  1520   0.613E-02    0.468E-02
DAV:   6    -0.111968066350E+03   -0.85693E-05   -0.26163E-05   896   0.860E-03
  71 F= -.11196807E+03 E0= -.11196807E+03  d E =-.888672E-02  mag=     1.0000
 trial-energy change:   -0.008887  1 .order   -0.009737   -0.015500   -0.003974
 step:  25.8313(harm= 25.8313)  dis= 0.02776  next Energy=  -111.969601 (dE=-0.104E-01)
 bond charge predicted
       N       E                     dE             d eps       ncg     rms          rms(c)
DAV:   1    -0.111965450931E+03    0.26068E-02   -0.70868E+00  1456   0.378E+00    0.872E-02
DAV:   2    -0.111968630270E+03   -0.31793E-02   -0.31579E-02  1536   0.355E-01    0.866E-02
DAV:   3    -0.111968597681E+03    0.32589E-04   -0.45391E-04  1416   0.422E-02
  72 F= -.11196860E+03 E0= -.11196860E+03  d E =-.941805E-02  mag=     1.0000
 curvature: -38.83 expect dE=-0.269E-01 dE for cont linesearch -0.168E-04
 trial: gam= 0.90780 g(F)=  0.692E-03 g(S)=  0.000E+00 ort =-0.324E-04 (trialstep = 0.189E+02)
 search vector abs. value=  0.263E-02
 bond charge predicted
       N       E                     dE             d eps       ncg     rms          rms(c)
DAV:   1    -0.111949287344E+03    0.19343E-01   -0.62920E+01  1456   0.113E+01    0.256E-01
DAV:   2    -0.111976969766E+03   -0.27682E-01   -0.27486E-01  1488   0.105E+00    0.267E-01
DAV:   3    -0.111976584062E+03    0.38570E-03   -0.40921E-03  1568   0.125E-01    0.211E-01
DAV:   4    -0.111975566871E+03    0.10172E-02   -0.12532E-03  1484   0.541E-02    0.123E-01
DAV:   5    -0.111975372775E+03    0.19410E-03   -0.17996E-03  1520   0.627E-02    0.447E-02
DAV:   6    -0.111975382945E+03   -0.10170E-04   -0.26125E-05   904   0.864E-03
  73 F= -.11197538E+03 E0= -.11197538E+03  d E =-.678526E-02  mag=     1.0000
 trial-energy change:   -0.006785  1 .order   -0.007398   -0.012536   -0.002261
 step:  27.6591(harm= 23.0888)  dis= 0.02740  next Energy=  -111.975844 (dE=-0.725E-02)
 bond charge predicted
       N       E                     dE             d eps       ncg     rms          rms(c)
DAV:   1    -0.111969194531E+03    0.61782E-02   -0.13370E+01  1456   0.520E+00    0.118E-01
DAV:   2    -0.111975176722E+03   -0.59822E-02   -0.59080E-02  1496   0.487E-01    0.117E-01
DAV:   3    -0.111975117984E+03    0.58739E-04   -0.88433E-04  1552   0.588E-02
  74 F= -.11197512E+03 E0= -.11197512E+03  d E =-.652030E-02  mag=     1.0000
 curvature:   9.39 expect dE= 0.706E-02 dE for cont linesearch  0.912E-04
 trial: gam= 0.00000 g(F)=  0.752E-03 g(S)=  0.000E+00 ort =-0.160E-03 (trialstep = 0.207E+02)
 search vector abs. value=  0.752E-03
 bond charge predicted
       N       E                     dE             d eps       ncg     rms          rms(c)
DAV:   1    -0.111967817471E+03    0.73593E-02   -0.21628E+01  1456   0.658E+00    0.267E-01
DAV:   2    -0.111976913753E+03   -0.90963E-02   -0.93990E-02  1480   0.597E-01    0.193E-01
DAV:   3    -0.111976659464E+03    0.25429E-03   -0.16596E-03  1548   0.749E-02    0.126E-01
DAV:   4    -0.111976493132E+03    0.16633E-03   -0.88243E-04  1496   0.467E-02    0.271E-02
DAV:   5    -0.111976500580E+03   -0.74487E-05   -0.20147E-05   912   0.134E-02
  75 F= -.11197650E+03 E0= -.11197650E+03  d E =-.138260E-02  mag=     1.0000
 trial-energy change:   -0.001383  1 .order   -0.001754   -0.015555    0.012048
 step:  11.6492(harm= 11.6492)  dis= 0.01438  next Energy=  -111.979501 (dE=-0.438E-02)
 bond charge predicted
       N       E                     dE             d eps       ncg     rms          rms(c)
DAV:   1    -0.111977610475E+03   -0.11173E-02   -0.41239E+00  1456   0.287E+00    0.122E-01
DAV:   2    -0.111979348542E+03   -0.17381E-02   -0.17711E-02  1488   0.260E-01    0.884E-02
DAV:   3    -0.111979296365E+03    0.52177E-04   -0.30629E-04  1144   0.338E-02
  76 F= -.11197930E+03 E0= -.11197930E+03  d E =-.417838E-02  mag=     1.0000
 curvature:  -5.82 expect dE=-0.222E-02 dE for cont linesearch -0.500E-04
 trial: gam= 0.40003 g(F)=  0.381E-03 g(S)=  0.000E+00 ort = 0.804E-04 (trialstep = 0.189E+02)
 search vector abs. value=  0.566E-03
 bond charge predicted
       N       E                     dE             d eps       ncg     rms          rms(c)
DAV:   1    -0.111977901353E+03    0.14472E-02   -0.13463E+01  1456   0.521E+00    0.149E-01
DAV:   2    -0.111983958976E+03   -0.60576E-02   -0.60771E-02  1500   0.490E-01    0.129E-01
DAV:   3    -0.111983857662E+03    0.10131E-03   -0.90144E-04  1536   0.584E-02    0.944E-02
DAV:   4    -0.111983681603E+03    0.17606E-03   -0.42038E-04  1428   0.314E-02    0.392E-02
DAV:   5    -0.111983687456E+03   -0.58530E-05   -0.12294E-04   888   0.190E-02
  77 F= -.11198369E+03 E0= -.11198369E+03  d E =-.439109E-02  mag=     1.0000
 trial-energy change:   -0.004391  1 .order   -0.005082   -0.007803   -0.002362
 step:  27.0580(harm= 27.0580)  dis= 0.01287  next Energy=  -111.984891 (dE=-0.560E-02)
 bond charge predicted
       N       E                     dE             d eps       ncg     rms          rms(c)
DAV:   1    -0.111982924257E+03    0.75735E-03   -0.25360E+00  1456   0.226E+00    0.681E-02
DAV:   2    -0.111984068108E+03   -0.11439E-02   -0.11551E-02  1496   0.213E-01    0.547E-02
DAV:   3    -0.111984055291E+03    0.12817E-04   -0.15307E-04   856   0.255E-02
  78 F= -.11198406E+03 E0= -.11198406E+03  d E =-.475893E-02  mag=     1.0000
 curvature: -18.52 expect dE=-0.563E-02 dE for cont linesearch -0.329E-03
 trial: gam= 0.00000 g(F)=  0.304E-03 g(S)=  0.000E+00 ort =-0.100E-03 (trialstep = 0.205E+02)
 search vector abs. value=  0.304E-03
 bond charge predicted
       N       E                     dE             d eps       ncg     rms          rms(c)
DAV:   1    -0.111981088682E+03    0.29794E-02   -0.86143E+00  1456   0.418E+00    0.176E-01
DAV:   2    -0.111984866154E+03   -0.37775E-02   -0.39229E-02  1496   0.392E-01    0.136E-01
DAV:   3    -0.111984792251E+03    0.73904E-04   -0.67663E-04  1544   0.495E-02
  79 F= -.11198479E+03 E0= -.11198479E+03  d E =-.736960E-03  mag=     1.0000
 trial-energy change:   -0.000737  1 .order   -0.000761   -0.006232    0.004710
 step:  11.6788(harm= 11.6788)  dis= 0.00418  next Energy=  -111.985830 (dE=-0.177E-02)
 bond charge predicted
       N       E                     dE             d eps       ncg     rms          rms(c)
DAV:   1    -0.111985015259E+03   -0.14910E-03   -0.15886E+00  1488   0.179E+00    0.615E-02
DAV:   2    -0.111985722509E+03   -0.70725E-03   -0.71762E-03  1480   0.170E-01    0.518E-02
DAV:   3    -0.111985713853E+03    0.86567E-05   -0.11575E-04   904   0.222E-02
  80 F= -.11198571E+03 E0= -.11198571E+03  d E =-.165856E-02  mag=     1.0000
 curvature:  -5.84 expect dE=-0.622E-03 dE for cont linesearch -0.510E-04
 trial: gam= 0.18086 g(F)=  0.107E-03 g(S)=  0.000E+00 ort = 0.515E-04 (trialstep = 0.187E+02)
 search vector abs. value=  0.135E-03
 bond charge predicted
       N       E                     dE             d eps       ncg     rms          rms(c)
DAV:   1    -0.111985477868E+03    0.24464E-03   -0.31709E+00  1460   0.253E+00    0.704E-02
DAV:   2    -0.111986900943E+03   -0.14231E-02   -0.14362E-02  1516   0.240E-01    0.631E-02
DAV:   3    -0.111986876905E+03    0.24038E-04   -0.19799E-04   888   0.296E-02
  81 F= -.11198688E+03 E0= -.11198688E+03  d E =-.116305E-02  mag=     1.0000
 trial-energy change:   -0.001163  1 .order   -0.000853   -0.002171    0.000465
 step:  15.4365(harm= 15.4365)  dis= 0.00395  next Energy=  -111.986608 (dE=-0.894E-03)
 bond charge predicted
       N       E                     dE             d eps       ncg     rms          rms(c)
DAV:   1    -0.111986690959E+03    0.20998E-03   -0.95990E-02  1480   0.439E-01    0.157E-02
DAV:   2    -0.111986741473E+03   -0.50515E-04   -0.48951E-04  1424   0.443E-02
  82 F= -.11198674E+03 E0= -.11198674E+03  d E =-.102762E-02  mag=     1.0000
 curvature:  -9.00 expect dE=-0.909E-03 dE for cont linesearch -0.257E-03
 trial: gam= 0.00000 g(F)=  0.101E-03 g(S)=  0.000E+00 ort = 0.621E-04 (trialstep = 0.181E+02)
 search vector abs. value=  0.101E-03
 bond charge predicted
       N       E                     dE             d eps       ncg     rms          rms(c)
DAV:   1    -0.111986945717E+03   -0.25476E-03   -0.22026E+00  1456   0.211E+00    0.649E-02
DAV:   2    -0.111987913537E+03   -0.96782E-03   -0.97413E-03  1508   0.197E-01    0.547E-02
DAV:   3    -0.111987894514E+03    0.19023E-04   -0.13201E-04   856   0.243E-02
  83 F= -.11198789E+03 E0= -.11198789E+03  d E =-.115304E-02  mag=     1.0000
 trial-energy change:   -0.001153  1 .order   -0.000941   -0.001825   -0.000057
 step:  18.6584(harm= 18.6584)  dis= 0.00472  next Energy=  -111.987683 (dE=-0.942E-03)
 bond charge predicted
       N       E                     dE             d eps       ncg     rms          rms(c)
DAV:   1    -0.111987888107E+03    0.25429E-04   -0.27312E-03  1496   0.762E-02    0.131E-02
DAV:   2    -0.111987889410E+03   -0.13027E-05   -0.99009E-06   888   0.677E-03
  84 F= -.11198789E+03 E0= -.11198789E+03  d E =-.114794E-02  mag=     1.0000
 curvature:  -9.33 expect dE=-0.524E-03 dE for cont linesearch -0.843E-04
 trial: gam= 0.25680 g(F)=  0.561E-04 g(S)=  0.000E+00 ort = 0.302E-04 (trialstep = 0.182E+02)
 search vector abs. value=  0.783E-04
 bond charge predicted
       N       E                     dE             d eps       ncg     rms          rms(c)
DAV:   1    -0.111988063017E+03   -0.17491E-03   -0.17323E+00  1456   0.187E+00    0.507E-02
DAV:   2    -0.111988831448E+03   -0.76843E-03   -0.76899E-03  1504   0.175E-01    0.459E-02
DAV:   3    -0.111988817352E+03    0.14096E-04   -0.10339E-04   836   0.215E-02
  85 F= -.11198882E+03 E0= -.11198882E+03  d E =-.927942E-03  mag=     1.0000
 trial-energy change:   -0.000928  1 .order   -0.000658   -0.001162   -0.000154
 step:  20.9828(harm= 20.9828)  dis= 0.00370  next Energy=  -111.988560 (dE=-0.670E-03)
 bond charge predicted
       N       E                     dE             d eps       ncg     rms          rms(c)
DAV:   1    -0.111988866508E+03   -0.35059E-04   -0.42084E-02  1488   0.293E-01    0.171E-02
DAV:   2    -0.111988879800E+03   -0.13292E-04   -0.14521E-04   896   0.260E-02
  86 F= -.11198888E+03 E0= -.11198888E+03  d E =-.990390E-03  mag=     1.0000
 curvature: -12.86 expect dE=-0.666E-03 dE for cont linesearch -0.542E-04
 trial: gam= 0.00000 g(F)=  0.518E-04 g(S)=  0.000E+00 ort = 0.182E-04 (trialstep = 0.188E+02)
 search vector abs. value=  0.518E-04
 reached required accuracy - stopping structural energy minimisation
Application 91140852 resources: utime ~324608s, stime ~1545s, Rss ~79344, inblocks ~2913400, outblocks ~2429217
