       N       E                     dE             d eps       ncg     rms          rms(c)
DAV:   1     0.172858524837E+04    0.17286E+04   -0.35799E+04   512   0.590E+02
DAV:   2     0.422354588292E+03   -0.13062E+04   -0.11715E+04   880   0.140E+02
DAV:   3    -0.992050554761E+01   -0.43228E+03   -0.39633E+03   688   0.891E+01
DAV:   4    -0.341103083208E+02   -0.24190E+02   -0.23906E+02   560   0.236E+01
DAV:   5    -0.344804596764E+02   -0.37015E+00   -0.36987E+00   576   0.340E+00    0.250E+01
DAV:   6    -0.867694705305E+01    0.25804E+02   -0.78165E+01   520   0.159E+01    0.127E+01
DAV:   7    -0.787892504449E+01    0.79802E+00   -0.40252E+00   552   0.429E+00    0.729E+00
DAV:   8    -0.108889122199E+02   -0.30100E+01   -0.17904E+00   544   0.276E+00    0.351E+00
DAV:   9    -0.142100132988E+02   -0.33211E+01   -0.74371E-01   568   0.151E+00    0.306E+00
DAV:  10    -0.142845510176E+02   -0.74538E-01   -0.28923E-02   608   0.448E-01    0.288E+00
DAV:  11    -0.170467559376E+02   -0.27622E+01   -0.69331E-01   520   0.167E+00    0.236E+00
DAV:  12    -0.246378518769E+02   -0.75911E+01   -0.43939E+00   520   0.330E+00    0.119E+00
DAV:  13    -0.286838769921E+02   -0.40460E+01   -0.16055E+00   544   0.173E+00    0.856E-01
DAV:  14    -0.317134352609E+02   -0.30296E+01   -0.88427E-01   528   0.133E+00    0.178E+00
DAV:  15    -0.318113696637E+02   -0.97934E-01   -0.22508E-02   560   0.317E-01    0.165E+00
DAV:  16    -0.322968908686E+02   -0.48552E+00   -0.53482E-02   528   0.548E-01    0.147E+00
DAV:  17    -0.329865173352E+02   -0.68963E+00   -0.14712E-01   536   0.792E-01    0.945E-01
DAV:  18    -0.334550345393E+02   -0.46852E+00   -0.68164E-02   520   0.562E-01    0.442E-01
DAV:  19    -0.338625332006E+02   -0.40750E+00   -0.40113E-02   536   0.468E-01    0.218E-01
DAV:  20    -0.340082409839E+02   -0.14571E+00   -0.11737E-02   568   0.170E-01    0.187E-01
DAV:  21    -0.340346351138E+02   -0.26394E-01   -0.20654E-03   552   0.118E-01    0.101E-01
DAV:  22    -0.340499292505E+02   -0.15294E-01   -0.49664E-04   376   0.544E-02    0.585E-02
DAV:  23    -0.340624712588E+02   -0.12542E-01   -0.82727E-04   400   0.393E-02    0.306E-02
DAV:  24    -0.340665818106E+02   -0.41106E-02   -0.38611E-04   384   0.396E-02    0.173E-02
DAV:  25    -0.340683116288E+02   -0.17298E-02   -0.30668E-04   400   0.253E-02    0.189E-02
DAV:  26    -0.340690623264E+02   -0.75070E-03   -0.10220E-04   384   0.209E-02    0.745E-03
DAV:  27    -0.340693610203E+02   -0.29869E-03   -0.21148E-05   368   0.997E-03    0.574E-03
DAV:  28    -0.340694438598E+02   -0.82839E-04   -0.80762E-06   384   0.761E-03
   1 F= -.34069444E+02 E0= -.34069444E+02  d E =-.340694E+02  mag=     0.0001
       N       E                     dE             d eps       ncg     rms          rms(c)
DAV:   1    -0.341473992211E+02   -0.78038E-01   -0.56607E+00   536   0.571E+00    0.232E-01
DAV:   2    -0.341499694549E+02   -0.25702E-02   -0.26766E-02   568   0.546E-01    0.167E-01
DAV:   3    -0.341498985337E+02    0.70921E-04   -0.60931E-04   592   0.835E-02
   2 F= -.34149899E+02 E0= -.34149899E+02  d E =-.804547E-01  mag=     0.0001
       N       E                     dE             d eps       ncg     rms          rms(c)
DAV:   1    -0.343294197757E+02   -0.17945E+00   -0.51087E+01   512   0.172E+01    0.639E-01
DAV:   2    -0.343522918595E+02   -0.22872E-01   -0.23994E-01   552   0.164E+00    0.477E-01
DAV:   3    -0.343516944628E+02    0.59740E-03   -0.48533E-03   568   0.234E-01    0.274E-01
DAV:   4    -0.343515229975E+02    0.17147E-03   -0.18894E-03   576   0.121E-01    0.372E-02
DAV:   5    -0.343514844542E+02    0.38543E-04   -0.87016E-05   352   0.322E-02
   3 F= -.34351484E+02 E0= -.34351484E+02  d E =-.282041E+00  mag=     0.0000
       N       E                     dE             d eps       ncg     rms          rms(c)
DAV:   1    -0.345132274623E+02   -0.16170E+00   -0.20547E+02   512   0.346E+01    0.105E+00
DAV:   2    -0.346051015374E+02   -0.91874E-01   -0.95400E-01   528   0.331E+00    0.865E-01
DAV:   3    -0.346035090665E+02    0.15925E-02   -0.16694E-02   600   0.425E-01    0.582E-01
DAV:   4    -0.346020832619E+02    0.14258E-02   -0.95402E-03   552   0.250E-01    0.114E-01
DAV:   5    -0.346020435436E+02    0.39718E-04   -0.24582E-04   400   0.617E-02
   4 F= -.34602044E+02 E0= -.34602044E+02  d E =-.532600E+00  mag=     0.0000
       N       E                     dE             d eps       ncg     rms          rms(c)
DAV:   1    -0.342650377140E+02    0.33705E+00   -0.84270E+02   512   0.715E+01    0.161E+00
DAV:   2    -0.346555221695E+02   -0.39048E+00   -0.40297E+00   528   0.701E+00    0.157E+00
DAV:   3    -0.346544280106E+02    0.10942E-02   -0.63973E-02   592   0.825E-01    0.117E+00
DAV:   4    -0.346458810855E+02    0.85469E-02   -0.21661E-02   544   0.383E-01    0.589E-01
DAV:   5    -0.346461455517E+02   -0.26447E-03   -0.65458E-03   576   0.217E-01    0.165E-01
DAV:   6    -0.346459395229E+02    0.20603E-03   -0.82101E-04   528   0.674E-02    0.747E-02
DAV:   7    -0.346459923996E+02   -0.52877E-04   -0.14526E-04   368   0.371E-02
   5 F= -.34645992E+02 E0= -.34645992E+02  d E =-.576549E+00  mag=     0.0000
       N       E                     dE             d eps       ncg     rms          rms(c)
DAV:   1    -0.346367732168E+02    0.91663E-02   -0.11252E+02   512   0.255E+01    0.686E-01
DAV:   2    -0.346896372925E+02   -0.52864E-01   -0.55502E-01   544   0.249E+00    0.398E-01
DAV:   3    -0.346888071931E+02    0.83010E-03   -0.99893E-03   576   0.334E-01    0.265E-01
DAV:   4    -0.346883740169E+02    0.43318E-03   -0.34064E-03   576   0.154E-01    0.648E-02
DAV:   5    -0.346884175172E+02   -0.43500E-04   -0.11065E-04   368   0.426E-02
   6 F= -.34688418E+02 E0= -.34688418E+02  d E =-.618974E+00  mag=     0.0000
       N       E                     dE             d eps       ncg     rms          rms(c)
DAV:   1    -0.347393636505E+02   -0.50990E-01   -0.23774E+01   512   0.117E+01    0.222E-01
DAV:   2    -0.347501835181E+02   -0.10820E-01   -0.11203E-01   560   0.114E+00    0.207E-01
DAV:   3    -0.347500731410E+02    0.11038E-03   -0.19268E-03   592   0.155E-01    0.142E-01
DAV:   4    -0.347497965325E+02    0.27661E-03   -0.68105E-04   544   0.680E-02    0.748E-02
DAV:   5    -0.347498069428E+02   -0.10410E-04   -0.27134E-04   384   0.470E-02
   7 F= -.34749807E+02 E0= -.34749807E+02  d E =-.613894E-01  mag=     0.0000
       N       E                     dE             d eps       ncg     rms          rms(c)
DAV:   1    -0.347748352765E+02   -0.25039E-01   -0.21539E+02   512   0.355E+01    0.713E-01
DAV:   2    -0.348744116599E+02   -0.99576E-01   -0.10282E+00   560   0.347E+00    0.614E-01
DAV:   3    -0.348734280520E+02    0.98361E-03   -0.17531E-02   592   0.464E-01    0.410E-01
DAV:   4    -0.348711172236E+02    0.23108E-02   -0.55693E-03   560   0.197E-01    0.214E-01
DAV:   5    -0.348711654019E+02   -0.48178E-04   -0.21643E-03   576   0.126E-01    0.693E-02
DAV:   6    -0.348711423660E+02    0.23036E-04   -0.18113E-04   368   0.337E-02
   8 F= -.34871142E+02 E0= -.34871142E+02  d E =-.182725E+00  mag=     0.0000
       N       E                     dE             d eps       ncg     rms          rms(c)
DAV:   1    -0.343996504715E+02    0.47151E+00   -0.88339E+02   512   0.733E+01    0.193E+00
DAV:   2    -0.348295940714E+02   -0.42994E+00   -0.44102E+00   544   0.731E+00    0.128E+00
DAV:   3    -0.348252237628E+02    0.43703E-02   -0.75298E-02   592   0.955E-01    0.798E-01
DAV:   4    -0.348174371977E+02    0.77866E-02   -0.20500E-02   560   0.382E-01    0.392E-01
DAV:   5    -0.348177177739E+02   -0.28058E-03   -0.53215E-03   560   0.199E-01    0.109E-01
DAV:   6    -0.348177562982E+02   -0.38524E-04   -0.60049E-04   544   0.636E-02
   9 F= -.34817756E+02 E0= -.34817756E+02  d E =-.129339E+00  mag=     0.0000
       N       E                     dE             d eps       ncg     rms          rms(c)
DAV:   1    -0.347342047859E+02    0.83513E-01   -0.36237E+02   512   0.462E+01    0.948E-01
DAV:   2    -0.349046202015E+02   -0.17042E+00   -0.17551E+00   544   0.456E+00    0.870E-01
DAV:   3    -0.349035602111E+02    0.10600E-02   -0.30284E-02   592   0.615E-01    0.591E-01
DAV:   4    -0.348996659539E+02    0.38943E-02   -0.91296E-03   544   0.253E-01    0.328E-01
DAV:   5    -0.348997362499E+02   -0.70296E-04   -0.41637E-03   576   0.176E-01    0.104E-01
DAV:   6    -0.348996331109E+02    0.10314E-03   -0.30735E-04   400   0.435E-02    0.524E-02
DAV:   7    -0.348996396184E+02   -0.65075E-05   -0.12297E-04   368   0.319E-02
  10 F= -.34899640E+02 E0= -.34899640E+02  d E =-.211222E+00  mag=     0.0000
       N       E                     dE             d eps       ncg     rms          rms(c)
DAV:   1    -0.349402455880E+02   -0.40612E-01   -0.76051E+01   512   0.210E+01    0.437E-01
DAV:   2    -0.349756947750E+02   -0.35449E-01   -0.36370E-01   544   0.204E+00    0.306E-01
DAV:   3    -0.349752439431E+02    0.45083E-03   -0.61384E-03   576   0.276E-01    0.208E-01
DAV:   4    -0.349746036529E+02    0.64029E-03   -0.21493E-03   560   0.120E-01    0.815E-02
DAV:   5    -0.349746577036E+02   -0.54051E-04   -0.41608E-04   560   0.578E-02
  11 F= -.34974658E+02 E0= -.34974658E+02  d E =-.750181E-01  mag=     0.0000
       N       E                     dE             d eps       ncg     rms          rms(c)
DAV:   1    -0.347077753719E+02    0.26683E+00   -0.70033E+02   512   0.648E+01    0.195E+00
DAV:   2    -0.350550369151E+02   -0.34726E+00   -0.35615E+00   560   0.645E+00    0.937E-01
DAV:   3    -0.350497113351E+02    0.53256E-02   -0.62361E-02   592   0.893E-01    0.593E-01
DAV:   4    -0.350449192541E+02    0.47921E-02   -0.16260E-02   560   0.343E-01    0.230E-01
DAV:   5    -0.350452301260E+02   -0.31087E-03   -0.21873E-03   560   0.136E-01    0.665E-02
DAV:   6    -0.350452305794E+02   -0.45331E-06   -0.54183E-04   560   0.598E-02
  12 F= -.35045231E+02 E0= -.35045231E+02  d E =-.145591E+00  mag=     0.0000
       N       E                     dE             d eps       ncg     rms          rms(c)
DAV:   1    -0.350308048767E+02    0.14425E-01   -0.49875E+01   512   0.170E+01    0.345E-01
DAV:   2    -0.350534217797E+02   -0.22617E-01   -0.23109E-01   560   0.164E+00    0.324E-01
DAV:   3    -0.350532464835E+02    0.17530E-03   -0.38413E-03   592   0.215E-01    0.235E-01
DAV:   4    -0.350526943882E+02    0.55210E-03   -0.17432E-03   544   0.108E-01    0.107E-01
DAV:   5    -0.350527662891E+02   -0.71901E-04   -0.45161E-04   560   0.618E-02
  13 F= -.35052766E+02 E0= -.35052766E+02  d E =-.153127E+00  mag=     0.0000
       N       E                     dE             d eps       ncg     rms          rms(c)
DAV:   1    -0.350695414417E+02   -0.16847E-01   -0.88235E+01   512   0.226E+01    0.371E-01
DAV:   2    -0.351101718158E+02   -0.40630E-01   -0.41568E-01   560   0.219E+00    0.330E-01
DAV:   3    -0.351097441783E+02    0.42764E-03   -0.68433E-03   592   0.291E-01    0.238E-01
DAV:   4    -0.351087170327E+02    0.10271E-02   -0.17495E-03   560   0.108E-01    0.131E-01
DAV:   5    -0.351086242731E+02    0.92760E-04   -0.15603E-03   576   0.102E-01    0.423E-02
DAV:   6    -0.351086080130E+02    0.16260E-04   -0.65725E-05   352   0.207E-02
  14 F= -.35108608E+02 E0= -.35108608E+02  d E =-.558417E-01  mag=     0.0000
       N       E                     dE             d eps       ncg     rms          rms(c)
DAV:   1    -0.347926960304E+02    0.31593E+00   -0.81353E+02   512   0.701E+01    0.155E+00
DAV:   2    -0.351848611140E+02   -0.39217E+00   -0.39884E+00   528   0.692E+00    0.107E+00
DAV:   3    -0.351812426183E+02    0.36185E-02   -0.65883E-02   576   0.904E-01    0.690E-01
DAV:   4    -0.351736488884E+02    0.75937E-02   -0.13221E-02   544   0.305E-01    0.400E-01
DAV:   5    -0.351727593133E+02    0.88958E-03   -0.86695E-03   560   0.240E-01    0.110E-01
DAV:   6    -0.351728083454E+02   -0.49032E-04   -0.30184E-04   400   0.492E-02
  15 F= -.35172808E+02 E0= -.35172808E+02  d E =-.120042E+00  mag=     0.0000
       N       E                     dE             d eps       ncg     rms          rms(c)
DAV:   1    -0.351887516333E+02   -0.15992E-01   -0.37514E+01   512   0.147E+01    0.208E-01
DAV:   2    -0.352060214528E+02   -0.17270E-01   -0.17550E-01   560   0.142E+00    0.215E-01
DAV:   3    -0.352059204517E+02    0.10100E-03   -0.28591E-03   576   0.185E-01    0.157E-01
DAV:   4    -0.352055192186E+02    0.40123E-03   -0.54386E-04   560   0.612E-02    0.104E-01
DAV:   5    -0.352054757565E+02    0.43462E-04   -0.10144E-03   560   0.797E-02    0.357E-02
DAV:   6    -0.352055143134E+02   -0.38557E-04   -0.19228E-05   368   0.119E-02
  16 F= -.35205514E+02 E0= -.35205514E+02  d E =-.327060E-01  mag=     0.0000
       N       E                     dE             d eps       ncg     rms          rms(c)
DAV:   1    -0.351256568491E+02    0.79819E-01   -0.34224E+02   512   0.448E+01    0.742E-01
DAV:   2    -0.352859324161E+02   -0.16028E+00   -0.16282E+00   544   0.437E+00    0.672E-01
DAV:   3    -0.352846485318E+02    0.12839E-02   -0.26690E-02   576   0.567E-01    0.464E-01
DAV:   4    -0.352810329030E+02    0.36156E-02   -0.48320E-03   544   0.184E-01    0.304E-01
DAV:   5    -0.352801673731E+02    0.86553E-03   -0.62394E-03   544   0.198E-01    0.967E-02
DAV:   6    -0.352802382445E+02   -0.70871E-04   -0.95498E-05   352   0.287E-02
  17 F= -.35280238E+02 E0= -.35280238E+02  d E =-.107430E+00  mag=     0.0000
       N       E                     dE             d eps       ncg     rms          rms(c)
DAV:   1    -0.345992612549E+02    0.68091E+00   -0.14275E+03   512   0.942E+01    0.238E+00
DAV:   2    -0.353134404666E+02   -0.71418E+00   -0.72333E+00   544   0.952E+00    0.162E+00
DAV:   3    -0.353089744632E+02    0.44660E-02   -0.12135E-01   576   0.123E+00    0.983E-01
DAV:   4    -0.352977729385E+02    0.11202E-01   -0.16963E-02   544   0.354E-01    0.669E-01
DAV:   5    -0.352951893339E+02    0.25836E-02   -0.16745E-02   528   0.331E-01    0.192E-01
DAV:   6    -0.352954775168E+02   -0.28818E-03   -0.27688E-04   368   0.599E-02    0.108E-01
DAV:   7    -0.352957188925E+02   -0.24138E-03   -0.11148E-04   352   0.350E-02    0.288E-02
DAV:   8    -0.352958587170E+02   -0.13982E-03   -0.29398E-05   352   0.158E-02    0.908E-03
DAV:   9    -0.352960032194E+02   -0.14450E-03   -0.14853E-05   352   0.695E-03    0.337E-03
DAV:  10    -0.352960820198E+02   -0.78800E-04   -0.52306E-06   368   0.358E-03
  18 F= -.35296082E+02 E0= -.35296082E+02  d E =-.123274E+00  mag=    -0.0000
       N       E                     dE             d eps       ncg     rms          rms(c)
DAV:   1    -0.351878374383E+02    0.10817E+00   -0.27834E+02   512   0.403E+01    0.679E-01
DAV:   2    -0.353195241071E+02   -0.13169E+00   -0.13285E+00   544   0.393E+00    0.572E-01
DAV:   3    -0.353185773827E+02    0.94672E-03   -0.21601E-02   592   0.501E-01    0.400E-01
DAV:   4    -0.353158607993E+02    0.27166E-02   -0.42794E-03   544   0.173E-01    0.243E-01
DAV:   5    -0.353154863798E+02    0.37442E-03   -0.46974E-03   576   0.172E-01    0.723E-02
DAV:   6    -0.353154892294E+02   -0.28496E-05   -0.12718E-04   352   0.303E-02
  19 F= -.35315489E+02 E0= -.35315489E+02  d E =-.142681E+00  mag=    -0.0000
       N       E                     dE             d eps       ncg     rms          rms(c)
DAV:   1    -0.353567991350E+02   -0.41313E-01   -0.80615E+01   512   0.215E+01    0.354E-01
DAV:   2    -0.353948331245E+02   -0.38034E-01   -0.38607E-01   544   0.210E+00    0.332E-01
DAV:   3    -0.353946414663E+02    0.19166E-03   -0.63059E-03   576   0.267E-01    0.237E-01
DAV:   4    -0.353938231640E+02    0.81830E-03   -0.15713E-03   544   0.105E-01    0.137E-01
DAV:   5    -0.353938025453E+02    0.20619E-04   -0.12922E-03   528   0.930E-02    0.460E-02
DAV:   6    -0.353937891500E+02    0.13395E-04   -0.55881E-05   352   0.189E-02
  20 F= -.35393789E+02 E0= -.35393789E+02  d E =-.782999E-01  mag=    -0.0000
       N       E                     dE             d eps       ncg     rms          rms(c)
DAV:   1    -0.353035137268E+02    0.90289E-01   -0.36775E+02   512   0.463E+01    0.918E-01
DAV:   2    -0.354809947754E+02   -0.17748E+00   -0.18065E+00   528   0.457E+00    0.728E-01
DAV:   3    -0.354795848451E+02    0.14099E-02   -0.29766E-02   592   0.584E-01    0.487E-01
DAV:   4    -0.354760822965E+02    0.35025E-02   -0.73508E-03   544   0.227E-01    0.265E-01
DAV:   5    -0.354759906153E+02    0.91681E-04   -0.37286E-03   560   0.161E-01    0.810E-02
DAV:   6    -0.354759860094E+02    0.46059E-05   -0.22908E-04   368   0.393E-02
  21 F= -.35475986E+02 E0= -.35475986E+02  d E =-.160497E+00  mag=    -0.0000
       N       E                     dE             d eps       ncg     rms          rms(c)
DAV:   1    -0.354712053593E+02    0.47853E-02   -0.13980E+01   512   0.893E+00    0.154E-01
DAV:   2    -0.354777137020E+02   -0.65083E-02   -0.66370E-02   544   0.867E-01    0.143E-01
DAV:   3    -0.354776723111E+02    0.41391E-04   -0.10754E-03   576   0.110E-01    0.101E-01
DAV:   4    -0.354775476791E+02    0.12463E-03   -0.32611E-04   400   0.485E-02    0.562E-02
DAV:   5    -0.354775875497E+02   -0.39871E-04   -0.22547E-04   336   0.430E-02
  22 F= -.35477588E+02 E0= -.35477588E+02  d E =-.162098E+00  mag=    -0.0000
       N       E                     dE             d eps       ncg     rms          rms(c)
DAV:   1    -0.354835739037E+02   -0.60262E-02   -0.12423E+02   512   0.265E+01    0.438E-01
DAV:   2    -0.355427317330E+02   -0.59158E-01   -0.60086E-01   528   0.258E+00    0.359E-01
DAV:   3    -0.355422936090E+02    0.43812E-03   -0.94915E-03   576   0.323E-01    0.255E-01
DAV:   4    -0.355411849173E+02    0.11087E-02   -0.20279E-03   544   0.120E-01    0.142E-01
DAV:   5    -0.355411345833E+02    0.50334E-04   -0.17500E-03   544   0.106E-01    0.439E-02
DAV:   6    -0.355411436673E+02   -0.90840E-05   -0.71182E-05   320   0.222E-02
  23 F= -.35541144E+02 E0= -.35541144E+02  d E =-.635561E-01  mag=    -0.0000
       N       E                     dE             d eps       ncg     rms          rms(c)
DAV:   1    -0.354493309642E+02    0.91804E-01   -0.25416E+02   512   0.381E+01    0.732E-01
DAV:   2    -0.355730948622E+02   -0.12376E+00   -0.12529E+00   544   0.375E+00    0.524E-01
DAV:   3    -0.355720451018E+02    0.10498E-02   -0.20124E-02   560   0.473E-01    0.360E-01
DAV:   4    -0.355698686535E+02    0.21764E-02   -0.46057E-03   544   0.181E-01    0.184E-01
DAV:   5    -0.355698444516E+02    0.24202E-04   -0.24643E-03   528   0.129E-01    0.534E-02
DAV:   6    -0.355698637444E+02   -0.19293E-04   -0.14147E-04   368   0.315E-02
  24 F= -.35569864E+02 E0= -.35569864E+02  d E =-.922762E-01  mag=    -0.0000
       N       E                     dE             d eps       ncg     rms          rms(c)
DAV:   1    -0.355647983862E+02    0.50461E-02   -0.60324E+01   512   0.186E+01    0.347E-01
DAV:   2    -0.355925341264E+02   -0.27736E-01   -0.28319E-01   528   0.178E+00    0.281E-01
DAV:   3    -0.355922470231E+02    0.28710E-03   -0.44623E-03   560   0.220E-01    0.199E-01
DAV:   4    -0.355917287861E+02    0.51824E-03   -0.17170E-03   528   0.108E-01    0.817E-02
DAV:   5    -0.355917996246E+02   -0.70838E-04   -0.40382E-04   528   0.579E-02
  25 F= -.35591800E+02 E0= -.35591800E+02  d E =-.219359E-01  mag=     0.0000
       N       E                     dE             d eps       ncg     rms          rms(c)
DAV:   1    -0.355896938330E+02    0.20350E-02   -0.66189E+00   512   0.616E+00    0.116E-01
DAV:   2    -0.355927479319E+02   -0.30541E-02   -0.31419E-02   528   0.589E-01    0.894E-02
DAV:   3    -0.355927375655E+02    0.10366E-04   -0.49436E-04   560   0.735E-02
  26 F= -.35592738E+02 E0= -.35592738E+02  d E =-.228738E-01  mag=     0.0000
       N       E                     dE             d eps       ncg     rms          rms(c)
DAV:   1    -0.355935444892E+02   -0.79656E-03   -0.36656E+01   512   0.146E+01    0.231E-01
DAV:   2    -0.356097142392E+02   -0.16170E-01   -0.16485E-01   528   0.137E+00    0.228E-01
DAV:   3    -0.356095680668E+02    0.14617E-03   -0.26499E-03   592   0.173E-01    0.166E-01
DAV:   4    -0.356091485009E+02    0.41957E-03   -0.80900E-04   544   0.754E-02    0.976E-02
DAV:   5    -0.356091443274E+02    0.41736E-05   -0.67771E-04   560   0.674E-02
  27 F= -.35609144E+02 E0= -.35609144E+02  d E =-.164068E-01  mag=     0.0000
       N       E                     dE             d eps       ncg     rms          rms(c)
DAV:   1    -0.355666353194E+02    0.42513E-01   -0.92512E+01   512   0.232E+01    0.378E-01
DAV:   2    -0.356079566989E+02   -0.41321E-01   -0.41974E-01   528   0.220E+00    0.355E-01
DAV:   3    -0.356076487582E+02    0.30794E-03   -0.67631E-03   576   0.276E-01    0.252E-01
DAV:   4    -0.356066827209E+02    0.96604E-03   -0.18500E-03   512   0.115E-01    0.148E-01
DAV:   5    -0.356066484592E+02    0.34262E-04   -0.14325E-03   576   0.979E-02    0.508E-02
DAV:   6    -0.356066577366E+02   -0.92774E-05   -0.45838E-05   336   0.175E-02
  28 F= -.35606658E+02 E0= -.35606658E+02  d E =-.139202E-01  mag=    -0.0000
       N       E                     dE             d eps       ncg     rms          rms(c)
DAV:   1    -0.355943134092E+02    0.12335E-01   -0.52308E+01   512   0.172E+01    0.454E-01
DAV:   2    -0.356180472019E+02   -0.23734E-01   -0.24906E-01   528   0.161E+00    0.305E-01
DAV:   3    -0.356177804844E+02    0.26672E-03   -0.42872E-03   560   0.196E-01    0.195E-01
DAV:   4    -0.356176559889E+02    0.12450E-03   -0.14548E-03   528   0.105E-01    0.403E-02
DAV:   5    -0.356176639062E+02   -0.79173E-05   -0.45441E-05   352   0.328E-02
  29 F= -.35617664E+02 E0= -.35617664E+02  d E =-.110062E-01  mag=    -0.0000
       N       E                     dE             d eps       ncg     rms          rms(c)
DAV:   1    -0.356191045249E+02   -0.14485E-02   -0.61640E+00   512   0.588E+00    0.148E-01
DAV:   2    -0.356218779322E+02   -0.27734E-02   -0.28979E-02   544   0.552E-01    0.108E-01
DAV:   3    -0.356218511556E+02    0.26777E-04   -0.49750E-04   560   0.675E-02
  30 F= -.35621851E+02 E0= -.35621851E+02  d E =-.151934E-01  mag=    -0.0000
       N       E                     dE             d eps       ncg     rms          rms(c)
DAV:   1    -0.356230692569E+02   -0.11913E-02   -0.84223E+00   512   0.695E+00    0.133E-01
DAV:   2    -0.356269386834E+02   -0.38694E-02   -0.39689E-02   544   0.669E-01    0.109E-01
DAV:   3    -0.356268982222E+02    0.40461E-04   -0.65118E-04   544   0.851E-02
  31 F= -.35626898E+02 E0= -.35626898E+02  d E =-.504707E-02  mag=    -0.0000
       N       E                     dE             d eps       ncg     rms          rms(c)
DAV:   1    -0.356260447564E+02    0.89393E-03   -0.43455E+00   512   0.500E+00    0.117E-01
DAV:   2    -0.356279980851E+02   -0.19533E-02   -0.20176E-02   528   0.475E-01    0.941E-02
DAV:   3    -0.356279682847E+02    0.29800E-04   -0.31178E-04   400   0.588E-02
  32 F= -.35627968E+02 E0= -.35627968E+02  d E =-.611713E-02  mag=    -0.0000
       N       E                     dE             d eps       ncg     rms          rms(c)
DAV:   1    -0.356283474710E+02   -0.34939E-03   -0.81893E+00   512   0.684E+00    0.968E-02
DAV:   2    -0.356321064655E+02   -0.37590E-02   -0.37825E-02   528   0.651E-01    0.898E-02
DAV:   3    -0.356320806201E+02    0.25845E-04   -0.58679E-04   544   0.801E-02
  33 F= -.35632081E+02 E0= -.35632081E+02  d E =-.411234E-02  mag=     0.0000
       N       E                     dE             d eps       ncg     rms          rms(c)
DAV:   1    -0.356034078656E+02    0.28699E-01   -0.73829E+01   512   0.206E+01    0.315E-01
DAV:   2    -0.356371062753E+02   -0.33698E-01   -0.34019E-01   528   0.196E+00    0.288E-01
DAV:   3    -0.356366407593E+02    0.46552E-03   -0.52942E-03   576   0.241E-01    0.218E-01
DAV:   4    -0.356356843357E+02    0.95642E-03   -0.17624E-03   528   0.107E-01    0.111E-01
DAV:   5    -0.356356371809E+02    0.47155E-04   -0.13198E-03   544   0.918E-02    0.376E-02
DAV:   6    -0.356356333327E+02    0.38482E-05   -0.40880E-05   336   0.170E-02
  34 F= -.35635633E+02 E0= -.35635633E+02  d E =-.766505E-02  mag=     0.0000
       N       E                     dE             d eps       ncg     rms          rms(c)
DAV:   1    -0.356363645292E+02   -0.72735E-03   -0.30720E+00   512   0.418E+00    0.499E-02
DAV:   2    -0.356377632000E+02   -0.13987E-02   -0.14059E-02   544   0.398E-01    0.544E-02
DAV:   3    -0.356377518541E+02    0.11346E-04   -0.19396E-04   352   0.489E-02
  35 F= -.35637752E+02 E0= -.35637752E+02  d E =-.211852E-02  mag=     0.0000
       N       E                     dE             d eps       ncg     rms          rms(c)
DAV:   1    -0.356380283617E+02   -0.26516E-03   -0.51844E+00   512   0.544E+00    0.680E-02
DAV:   2    -0.356402692720E+02   -0.22409E-02   -0.22933E-02   528   0.510E-01    0.821E-02
DAV:   3    -0.356402468921E+02    0.22380E-04   -0.33524E-04   480   0.602E-02
  36 F= -.35640247E+02 E0= -.35640247E+02  d E =-.461356E-02  mag=     0.0000
       N       E                     dE             d eps       ncg     rms          rms(c)
DAV:   1    -0.356355641328E+02    0.47051E-02   -0.20711E+01   512   0.109E+01    0.136E-01
DAV:   2    -0.356446386995E+02   -0.90746E-02   -0.92408E-02   528   0.102E+00    0.162E-01
DAV:   3    -0.356445491331E+02    0.89566E-04   -0.14127E-03   560   0.121E-01    0.135E-01
DAV:   4    -0.356442195375E+02    0.32960E-03   -0.34071E-04   528   0.482E-02    0.934E-02
DAV:   5    -0.356441210904E+02    0.98447E-04   -0.10898E-03   528   0.815E-02    0.370E-02
DAV:   6    -0.356441343348E+02   -0.13244E-04   -0.11064E-05   320   0.979E-03
  37 F= -.35644134E+02 E0= -.35644134E+02  d E =-.850100E-02  mag=     0.0000
       N       E                     dE             d eps       ncg     rms          rms(c)
DAV:   1    -0.356120443389E+02    0.32077E-01   -0.83006E+01   512   0.218E+01    0.276E-01
DAV:   2    -0.356499840488E+02   -0.37940E-01   -0.38090E-01   544   0.208E+00    0.289E-01
DAV:   3    -0.356496537339E+02    0.33031E-03   -0.59264E-03   560   0.256E-01    0.220E-01
DAV:   4    -0.356487450681E+02    0.90867E-03   -0.89035E-04   560   0.788E-02    0.152E-01
DAV:   5    -0.356483621247E+02    0.38294E-03   -0.25271E-03   544   0.123E-01    0.472E-02
DAV:   6    -0.356483945068E+02   -0.32382E-04   -0.25411E-05   320   0.154E-02
  38 F= -.35648395E+02 E0= -.35648395E+02  d E =-.127612E-01  mag=    -0.0000
       N       E                     dE             d eps       ncg     rms          rms(c)
DAV:   1    -0.356496038184E+02   -0.12417E-02   -0.21320E+01   512   0.110E+01    0.150E-01
DAV:   2    -0.356592939565E+02   -0.96901E-02   -0.97827E-02   544   0.105E+00    0.155E-01
DAV:   3    -0.356592083092E+02    0.85647E-04   -0.15252E-03   592   0.130E-01    0.116E-01
DAV:   4    -0.356589492810E+02    0.25903E-03   -0.34267E-04   528   0.477E-02    0.737E-02
DAV:   5    -0.356589051276E+02    0.44153E-04   -0.58129E-04   560   0.604E-02
  39 F= -.35658905E+02 E0= -.35658905E+02  d E =-.105106E-01  mag=    -0.0000
       N       E                     dE             d eps       ncg     rms          rms(c)
DAV:   1    -0.355904967501E+02    0.68453E-01   -0.19396E+02   512   0.333E+01    0.522E-01
DAV:   2    -0.356808133140E+02   -0.90317E-01   -0.91079E-01   544   0.322E+00    0.479E-01
DAV:   3    -0.356798050698E+02    0.10082E-02   -0.14509E-02   592   0.406E-01    0.340E-01
DAV:   4    -0.356775099327E+02    0.22951E-02   -0.31694E-03   560   0.144E-01    0.209E-01
DAV:   5    -0.356770716873E+02    0.43825E-03   -0.36611E-03   560   0.151E-01    0.667E-02
DAV:   6    -0.356771194101E+02   -0.47723E-04   -0.48379E-05   336   0.206E-02
  40 F= -.35677119E+02 E0= -.35677119E+02  d E =-.287249E-01  mag=    -0.0000
       N       E                     dE             d eps       ncg     rms          rms(c)
DAV:   1    -0.352576643870E+02    0.41941E+00   -0.80272E+02   512   0.693E+01    0.153E+00
DAV:   2    -0.356534106711E+02   -0.39575E+00   -0.40161E+00   544   0.692E+00    0.107E+00
DAV:   3    -0.356486779085E+02    0.47328E-02   -0.66666E-02   592   0.893E-01    0.690E-01
DAV:   4    -0.356409178097E+02    0.77601E-02   -0.11256E-02   560   0.277E-01    0.435E-01
DAV:   5    -0.356392929831E+02    0.16248E-02   -0.99220E-03   544   0.248E-01    0.123E-01
DAV:   6    -0.356394922096E+02   -0.19923E-03   -0.13939E-04   384   0.411E-02    0.660E-02
DAV:   7    -0.356396339523E+02   -0.14174E-03   -0.59053E-05   352   0.251E-02    0.171E-02
DAV:   8    -0.356397166640E+02   -0.82712E-04   -0.18580E-05   384   0.113E-02
  41 F= -.35639717E+02 E0= -.35639717E+02  d E =0.867784E-02  mag=    -0.0000
       N       E                     dE             d eps       ncg     rms          rms(c)
DAV:   1    -0.354418213658E+02    0.19781E+00   -0.51679E+02   512   0.551E+01    0.105E+00
DAV:   2    -0.356876045449E+02   -0.24578E+00   -0.24852E+00   528   0.536E+00    0.800E-01
DAV:   3    -0.356844791721E+02    0.31254E-02   -0.39929E-02   592   0.677E-01    0.547E-01
DAV:   4    -0.356791721542E+02    0.53070E-02   -0.77794E-03   544   0.231E-01    0.332E-01
DAV:   5    -0.356781012455E+02    0.10709E-02   -0.71835E-03   560   0.212E-01    0.924E-02
DAV:   6    -0.356781860571E+02   -0.84812E-04   -0.92222E-05   384   0.326E-02
  42 F= -.35678186E+02 E0= -.35678186E+02  d E =-.297916E-01  mag=    -0.0000
       N       E                     dE             d eps       ncg     rms          rms(c)
DAV:   1    -0.356767276202E+02    0.13736E-02   -0.62896E+01   512   0.190E+01    0.440E-01
DAV:   2    -0.357057258309E+02   -0.28998E-01   -0.30208E-01   560   0.181E+00    0.320E-01
DAV:   3    -0.357053972883E+02    0.32854E-03   -0.50030E-03   544   0.218E-01    0.213E-01
DAV:   4    -0.357050520070E+02    0.34528E-03   -0.20339E-03   528   0.121E-01    0.603E-02
DAV:   5    -0.357050842805E+02   -0.32274E-04   -0.81712E-05   352   0.429E-02
  43 F= -.35705084E+02 E0= -.35705084E+02  d E =-.268982E-01  mag=    -0.0000
       N       E                     dE             d eps       ncg     rms          rms(c)
DAV:   1    -0.357051137252E+02   -0.61718E-04   -0.13685E-01   544   0.885E-01    0.191E-02
DAV:   2    -0.357051813192E+02   -0.67594E-04   -0.62257E-04   544   0.830E-02
  44 F= -.35705181E+02 E0= -.35705181E+02  d E =-.269953E-01  mag=     0.0000
       N       E                     dE             d eps       ncg     rms          rms(c)
DAV:   1    -0.357090649060E+02   -0.39512E-02   -0.39699E+01   512   0.150E+01    0.233E-01
DAV:   2    -0.357274666035E+02   -0.18402E-01   -0.18652E-01   528   0.144E+00    0.192E-01
DAV:   3    -0.357272657734E+02    0.20083E-03   -0.29157E-03   560   0.181E-01    0.141E-01
DAV:   4    -0.357268777381E+02    0.38804E-03   -0.68521E-04   528   0.674E-02    0.757E-02
DAV:   5    -0.357268479323E+02    0.29806E-04   -0.63269E-04   560   0.640E-02
  45 F= -.35726848E+02 E0= -.35726848E+02  d E =-.216666E-01  mag=    -0.0000
       N       E                     dE             d eps       ncg     rms          rms(c)
DAV:   1    -0.356255663497E+02    0.10131E+00   -0.26312E+02   512   0.389E+01    0.768E-01
DAV:   2    -0.357520774176E+02   -0.12651E+00   -0.12792E+00   544   0.381E+00    0.508E-01
DAV:   3    -0.357504768559E+02    0.16006E-02   -0.20629E-02   544   0.490E-01    0.348E-01
DAV:   4    -0.357480995435E+02    0.23773E-02   -0.47126E-03   544   0.179E-01    0.177E-01
DAV:   5    -0.357479481736E+02    0.15137E-03   -0.25425E-03   544   0.131E-01    0.474E-02
DAV:   6    -0.357479886094E+02   -0.40436E-04   -0.89212E-05   352   0.271E-02
  46 F= -.35747989E+02 E0= -.35747989E+02  d E =-.428073E-01  mag=    -0.0000
       N       E                     dE             d eps       ncg     rms          rms(c)
DAV:   1    -0.357541489046E+02   -0.62007E-02   -0.10364E+01   512   0.764E+00    0.103E-01
DAV:   2    -0.357589102768E+02   -0.47614E-02   -0.47808E-02   560   0.733E-01    0.100E-01
DAV:   3    -0.357588663062E+02    0.43971E-04   -0.74218E-04   544   0.921E-02
  47 F= -.35758866E+02 E0= -.35758866E+02  d E =-.108777E-01  mag=    -0.0000
       N       E                     dE             d eps       ncg     rms          rms(c)
DAV:   1    -0.357451962316E+02    0.13714E-01   -0.94064E+01   512   0.231E+01    0.345E-01
DAV:   2    -0.357880533947E+02   -0.42857E-01   -0.43450E-01   560   0.222E+00    0.329E-01
DAV:   3    -0.357874007318E+02    0.65266E-03   -0.68047E-03   560   0.277E-01    0.248E-01
DAV:   4    -0.357861342079E+02    0.12665E-02   -0.18059E-03   544   0.108E-01    0.145E-01
DAV:   5    -0.357859211903E+02    0.21302E-03   -0.21165E-03   544   0.116E-01    0.448E-02
DAV:   6    -0.357859633744E+02   -0.42184E-04   -0.30987E-05   336   0.160E-02
  48 F= -.35785963E+02 E0= -.35785963E+02  d E =-.379748E-01  mag=    -0.0000
       N       E                     dE             d eps       ncg     rms          rms(c)
DAV:   1    -0.356326885364E+02    0.15323E+00   -0.38470E+02   512   0.472E+01    0.892E-01
DAV:   2    -0.358184775170E+02   -0.18579E+00   -0.18773E+00   560   0.466E+00    0.656E-01
DAV:   3    -0.358162408512E+02    0.22367E-02   -0.30639E-02   560   0.601E-01    0.445E-01
DAV:   4    -0.358126147126E+02    0.36261E-02   -0.48014E-03   528   0.184E-01    0.283E-01
DAV:   5    -0.358115820012E+02    0.10327E-02   -0.54847E-03   528   0.186E-01    0.766E-02
DAV:   6    -0.358116913505E+02   -0.10935E-03   -0.78506E-05   352   0.293E-02    0.427E-02
DAV:   7    -0.358117681660E+02   -0.76815E-04   -0.31891E-05   352   0.174E-02
  49 F= -.35811768E+02 E0= -.35811768E+02  d E =-.637796E-01  mag=    -0.0000
       N       E                     dE             d eps       ncg     rms          rms(c)
DAV:   1    -0.358244049402E+02   -0.12714E-01   -0.34634E+01   512   0.141E+01    0.209E-01
DAV:   2    -0.358400890628E+02   -0.15684E-01   -0.15926E-01   528   0.135E+00    0.223E-01
DAV:   3    -0.358399814716E+02    0.10759E-03   -0.25911E-03   592   0.171E-01    0.167E-01
DAV:   4    -0.358395249309E+02    0.45654E-03   -0.64820E-04   528   0.671E-02    0.108E-01
DAV:   5    -0.358394671381E+02    0.57793E-04   -0.89562E-04   528   0.752E-02
  50 F= -.35839467E+02 E0= -.35839467E+02  d E =-.276990E-01  mag=    -0.0000
       N       E                     dE             d eps       ncg     rms          rms(c)
DAV:   1    -0.357289822584E+02    0.11054E+00   -0.31776E+02   512   0.430E+01    0.724E-01
DAV:   2    -0.358761612233E+02   -0.14718E+00   -0.14973E+00   544   0.417E+00    0.703E-01
DAV:   3    -0.358750993132E+02    0.10619E-02   -0.24589E-02   592   0.523E-01    0.496E-01
DAV:   4    -0.358714885258E+02    0.36108E-02   -0.51842E-03   544   0.194E-01    0.325E-01
DAV:   5    -0.358708349412E+02    0.65358E-03   -0.54181E-03   560   0.185E-01    0.111E-01
DAV:   6    -0.358709023476E+02   -0.67406E-04   -0.82127E-05   352   0.259E-02
  51 F= -.35870902E+02 E0= -.35870902E+02  d E =-.591342E-01  mag=    -0.0000
       N       E                     dE             d eps       ncg     rms          rms(c)
DAV:   1    -0.358633633297E+02    0.74716E-02   -0.82152E+01   512   0.218E+01    0.330E-01
DAV:   2    -0.359005749183E+02   -0.37212E-01   -0.37712E-01   528   0.207E+00    0.294E-01
DAV:   3    -0.359002294165E+02    0.34550E-03   -0.60676E-03   576   0.264E-01    0.211E-01
DAV:   4    -0.358994030585E+02    0.82636E-03   -0.13037E-03   560   0.934E-02    0.124E-01
DAV:   5    -0.358993172842E+02    0.85774E-04   -0.15130E-03   544   0.967E-02    0.386E-02
DAV:   6    -0.358993309337E+02   -0.13649E-04   -0.36673E-05   336   0.161E-02
  52 F= -.35899331E+02 E0= -.35899331E+02  d E =-.284286E-01  mag=    -0.0000
       N       E                     dE             d eps       ncg     rms          rms(c)
DAV:   1    -0.358846691218E+02    0.14648E-01   -0.47892E+01   512   0.166E+01    0.249E-01
DAV:   2    -0.359064031140E+02   -0.21734E-01   -0.21938E-01   544   0.158E+00    0.224E-01
DAV:   3    -0.359062196927E+02    0.18342E-03   -0.35195E-03   576   0.201E-01    0.163E-01
DAV:   4    -0.359057283529E+02    0.49134E-03   -0.80527E-04   544   0.731E-02    0.935E-02
DAV:   5    -0.359056864340E+02    0.41919E-04   -0.89300E-04   560   0.745E-02
  53 F= -.35905686E+02 E0= -.35905686E+02  d E =-.347841E-01  mag=    -0.0000
       N       E                     dE             d eps       ncg     rms          rms(c)
DAV:   1    -0.359106559383E+02   -0.49276E-02   -0.30122E+01   512   0.132E+01    0.243E-01
DAV:   2    -0.359245559726E+02   -0.13900E-01   -0.14227E-01   544   0.127E+00    0.191E-01
DAV:   3    -0.359244320307E+02    0.12394E-03   -0.23139E-03   592   0.162E-01    0.134E-01
DAV:   4    -0.359241917456E+02    0.24029E-03   -0.75554E-04   528   0.713E-02    0.580E-02
DAV:   5    -0.359242262426E+02   -0.34497E-04   -0.21146E-04   352   0.418E-02
  54 F= -.35924226E+02 E0= -.35924226E+02  d E =-.185398E-01  mag=    -0.0000
       N       E                     dE             d eps       ncg     rms          rms(c)
DAV:   1    -0.359184143544E+02    0.57774E-02   -0.21884E+01   512   0.112E+01    0.212E-01
DAV:   2    -0.359284964644E+02   -0.10082E-01   -0.10325E-01   528   0.108E+00    0.165E-01
DAV:   3    -0.359284123521E+02    0.84112E-04   -0.16735E-03   544   0.138E-01    0.115E-01
DAV:   4    -0.359282517092E+02    0.16064E-03   -0.56757E-04   576   0.620E-02    0.482E-02
DAV:   5    -0.359282798444E+02   -0.28135E-04   -0.13576E-04   336   0.342E-02
  55 F= -.35928280E+02 E0= -.35928280E+02  d E =-.225934E-01  mag=    -0.0000
       N       E                     dE             d eps       ncg     rms          rms(c)
DAV:   1    -0.359246505475E+02    0.36012E-02   -0.26590E+01   512   0.124E+01    0.196E-01
DAV:   2    -0.359368013168E+02   -0.12151E-01   -0.12423E-01   544   0.119E+00    0.189E-01
DAV:   3    -0.359367263256E+02    0.74991E-04   -0.20641E-03   576   0.156E-01    0.134E-01
DAV:   4    -0.359364471480E+02    0.27918E-03   -0.49590E-04   528   0.587E-02    0.800E-02
DAV:   5    -0.359364343164E+02    0.12832E-04   -0.49990E-04   560   0.570E-02
  56 F= -.35936434E+02 E0= -.35936434E+02  d E =-.815447E-02  mag=    -0.0000
       N       E                     dE             d eps       ncg     rms          rms(c)
DAV:   1    -0.359344248126E+02    0.20223E-02   -0.43986E+00   512   0.503E+00    0.830E-02
DAV:   2    -0.359364423522E+02   -0.20175E-02   -0.20784E-02   528   0.487E-01    0.769E-02
DAV:   3    -0.359364358519E+02    0.65002E-05   -0.33091E-04   432   0.640E-02
  57 F= -.35936436E+02 E0= -.35936436E+02  d E =-.815601E-02  mag=    -0.0000
       N       E                     dE             d eps       ncg     rms          rms(c)
DAV:   1    -0.359349912404E+02    0.14511E-02   -0.96264E+00   512   0.743E+00    0.160E-01
DAV:   2    -0.359393898988E+02   -0.43987E-02   -0.46051E-02   544   0.710E-01    0.127E-01
DAV:   3    -0.359393575804E+02    0.32318E-04   -0.76963E-04   576   0.888E-02
  58 F= -.35939358E+02 E0= -.35939358E+02  d E =-.292173E-02  mag=    -0.0000
       N       E                     dE             d eps       ncg     rms          rms(c)
DAV:   1    -0.359392894185E+02    0.10048E-03   -0.37395E-01   512   0.146E+00    0.261E-02
DAV:   2    -0.359394726845E+02   -0.18327E-03   -0.18278E-03   560   0.145E-01    0.145E-02
DAV:   3    -0.359394734901E+02   -0.80559E-06   -0.30199E-05   336   0.205E-02
  59 F= -.35939473E+02 E0= -.35939473E+02  d E =-.303764E-02  mag=    -0.0000
       N       E                     dE             d eps       ncg     rms          rms(c)
DAV:   1    -0.359394779566E+02   -0.52721E-05   -0.41035E+00   512   0.486E+00    0.822E-02
DAV:   2    -0.359413439172E+02   -0.18660E-02   -0.19322E-02   544   0.472E-01    0.760E-02
DAV:   3    -0.359413314132E+02    0.12504E-04   -0.31492E-04   448   0.633E-02
  60 F= -.35941331E+02 E0= -.35941331E+02  d E =-.185792E-02  mag=    -0.0000
       N       E                     dE             d eps       ncg     rms          rms(c)
DAV:   1    -0.359413958126E+02   -0.51895E-04   -0.10420E-01   528   0.777E-01    0.346E-02
DAV:   2    -0.359414330045E+02   -0.37192E-04   -0.42911E-04   528   0.707E-02
  61 F= -.35941433E+02 E0= -.35941433E+02  d E =-.195951E-02  mag=    -0.0000
       N       E                     dE             d eps       ncg     rms          rms(c)
DAV:   1    -0.359417387237E+02   -0.34291E-03   -0.18380E+00   512   0.325E+00    0.514E-02
DAV:   2    -0.359425686413E+02   -0.82992E-03   -0.85077E-03   544   0.313E-01    0.473E-02
DAV:   3    -0.359425601816E+02    0.84597E-05   -0.12602E-04   320   0.414E-02
  62 F= -.35942560E+02 E0= -.35942560E+02  d E =-.112718E-02  mag=    -0.0000
       N       E                     dE             d eps       ncg     rms          rms(c)
DAV:   1    -0.359427352276E+02   -0.16659E-03   -0.32208E-01   528   0.136E+00    0.298E-02
DAV:   2    -0.359428686268E+02   -0.13340E-03   -0.14004E-03   544   0.127E-01    0.270E-02
DAV:   3    -0.359428655777E+02    0.30491E-05   -0.20299E-05   304   0.159E-02
  63 F= -.35942866E+02 E0= -.35942866E+02  d E =-.143257E-02  mag=    -0.0000
       N       E                     dE             d eps       ncg     rms          rms(c)
DAV:   1    -0.359430309590E+02   -0.16233E-03   -0.79664E-01   512   0.214E+00    0.395E-02
DAV:   2    -0.359433902192E+02   -0.35926E-03   -0.37314E-03   528   0.207E-01    0.358E-02
DAV:   3    -0.359433874153E+02    0.28039E-05   -0.57077E-05   320   0.275E-02
  64 F= -.35943387E+02 E0= -.35943387E+02  d E =-.521838E-03  mag=    -0.0000
       N       E                     dE             d eps       ncg     rms          rms(c)
DAV:   1    -0.359434476657E+02   -0.57446E-04   -0.66491E-02   544   0.620E-01    0.193E-02
DAV:   2    -0.359434722992E+02   -0.24634E-04   -0.26224E-04   352   0.579E-02
  65 F= -.35943472E+02 E0= -.35943472E+02  d E =-.606722E-03  mag=    -0.0000
