  37  37   0   0
  0.2669697E+03  0.2145629E-08  0.2145629E-08  0.2145629E-08  0.1000000E-15
  1.000000000000000E-004
  CAR 
 unknown system                          
      2.04056778    -10.15794100  301     -3.22512184      1.00000000
    -10.158  0.0000E+00  0.0000E+00  0.0000E+00  0.0000E+00
    -10.117  0.0000E+00  0.0000E+00  0.0000E+00  0.0000E+00
    -10.077  0.0000E+00  0.0000E+00  0.0000E+00  0.0000E+00
    -10.036  0.0000E+00  0.0000E+00  0.0000E+00  0.0000E+00
     -9.995  0.0000E+00  0.0000E+00  0.0000E+00  0.0000E+00
     -9.955  0.0000E+00  0.0000E+00  0.0000E+00  0.0000E+00
     -9.914  0.0000E+00  0.0000E+00  0.0000E+00  0.0000E+00
     -9.873  0.0000E+00  0.0000E+00  0.0000E+00  0.0000E+00
     -9.833  0.0000E+00  0.0000E+00  0.0000E+00  0.0000E+00
     -9.792  0.0000E+00  0.0000E+00  0.0000E+00  0.0000E+00
     -9.751  0.0000E+00  0.0000E+00  0.0000E+00  0.0000E+00
     -9.711  0.0000E+00  0.0000E+00  0.0000E+00  0.0000E+00
     -9.670  0.0000E+00  0.0000E+00  0.0000E+00  0.0000E+00
     -9.629  0.0000E+00  0.0000E+00  0.0000E+00  0.0000E+00
     -9.589  0.0000E+00  0.1726E-02  0.1000E-02  0.7020E-04
     -9.548  0.0000E+00  0.0000E+00  0.1000E-02  0.1000E-02
     -9.507  0.0000E+00  0.0000E+00  0.1000E-02  0.1000E-02
     -9.467  0.0000E+00  0.0000E+00  0.1000E-02  0.1000E-02
     -9.426  0.0000E+00  0.0000E+00  0.1000E-02  0.1000E-02
     -9.385  0.0000E+00  0.0000E+00  0.1000E-02  0.1000E-02
     -9.345  0.0000E+00  0.0000E+00  0.1000E-02  0.1000E-02
     -9.304  0.0000E+00  0.0000E+00  0.1000E-02  0.1000E-02
     -9.263  0.0000E+00  0.0000E+00  0.1000E-02  0.1000E-02
     -9.223  0.0000E+00  0.0000E+00  0.1000E-02  0.1000E-02
     -9.182  0.0000E+00  0.0000E+00  0.1000E-02  0.1000E-02
     -9.141  0.0000E+00  0.0000E+00  0.1000E-02  0.1000E-02
     -9.101  0.0000E+00  0.0000E+00  0.1000E-02  0.1000E-02
     -9.060  0.0000E+00  0.0000E+00  0.1000E-02  0.1000E-02
     -9.019  0.0000E+00  0.0000E+00  0.3000E-02  0.3000E-02
     -8.979  0.0000E+00  0.0000E+00  0.3000E-02  0.3000E-02
     -8.938  0.0000E+00  0.0000E+00  0.4000E-02  0.4000E-02
     -8.897  0.0000E+00  0.0000E+00  0.6000E-02  0.6000E-02
     -8.857  0.0000E+00  0.0000E+00  0.8000E-02  0.8000E-02
     -8.816  0.0000E+00  0.0000E+00  0.1000E-01  0.1000E-01
     -8.775  0.0000E+00  0.0000E+00  0.1200E-01  0.1100E-01
     -8.735  0.0000E+00  0.0000E+00  0.1300E-01  0.1200E-01
     -8.694  0.0000E+00  0.0000E+00  0.1400E-01  0.1400E-01
     -8.653  0.0000E+00  0.0000E+00  0.1500E-01  0.1500E-01
     -8.613  0.0000E+00  0.0000E+00  0.1900E-01  0.1900E-01
     -8.572  0.0000E+00  0.0000E+00  0.2100E-01  0.2000E-01
     -8.531  0.0000E+00  0.0000E+00  0.2200E-01  0.2200E-01
     -8.491  0.0000E+00  0.0000E+00  0.2400E-01  0.2400E-01
     -8.450  0.0000E+00  0.0000E+00  0.2800E-01  0.2700E-01
     -8.409  0.9669E-03  0.0000E+00  0.2904E-01  0.2900E-01
     -8.369  0.0000E+00  0.0000E+00  0.3200E-01  0.3100E-01
     -8.328  0.0000E+00  0.0000E+00  0.3500E-01  0.3500E-01
     -8.288  0.0000E+00  0.0000E+00  0.3600E-01  0.3600E-01
     -8.247  0.0000E+00  0.0000E+00  0.3900E-01  0.3800E-01
     -8.206  0.0000E+00  0.0000E+00  0.4000E-01  0.4000E-01
     -8.166  0.2459E-01  0.0000E+00  0.4300E-01  0.4200E-01
     -8.125  0.0000E+00  0.0000E+00  0.4400E-01  0.4400E-01
     -8.084  0.0000E+00  0.0000E+00  0.4600E-01  0.4600E-01
     -8.044  0.0000E+00  0.0000E+00  0.5000E-01  0.4800E-01
     -8.003  0.0000E+00  0.0000E+00  0.5200E-01  0.5200E-01
     -7.962  0.0000E+00  0.0000E+00  0.5400E-01  0.5400E-01
     -7.922  0.0000E+00  0.0000E+00  0.5600E-01  0.5600E-01
     -7.881  0.0000E+00  0.0000E+00  0.6000E-01  0.5900E-01
     -7.840  0.0000E+00  0.0000E+00  0.6100E-01  0.6100E-01
     -7.800  0.0000E+00  0.7557E-02  0.6500E-01  0.6431E-01
     -7.759  0.0000E+00  0.0000E+00  0.6700E-01  0.6600E-01
     -7.718  0.0000E+00  0.1899E-07  0.6900E-01  0.6800E-01
     -7.678  0.0000E+00  0.0000E+00  0.7100E-01  0.7100E-01
     -7.637  0.0000E+00  0.0000E+00  0.7200E-01  0.7200E-01
     -7.596  0.0000E+00  0.0000E+00  0.7500E-01  0.7400E-01
     -7.556  0.2459E-01  0.0000E+00  0.7900E-01  0.7700E-01
     -7.515  0.0000E+00  0.0000E+00  0.8000E-01  0.7900E-01
     -7.474  0.0000E+00  0.0000E+00  0.8300E-01  0.8200E-01
     -7.434  0.2459E-01  0.0000E+00  0.8500E-01  0.8400E-01
     -7.393  0.0000E+00  0.0000E+00  0.8800E-01  0.8700E-01
     -7.352  0.0000E+00  0.0000E+00  0.8900E-01  0.8900E-01
     -7.312  0.0000E+00  0.0000E+00  0.9200E-01  0.9200E-01
     -7.271  0.0000E+00  0.0000E+00  0.9400E-01  0.9400E-01
     -7.230  0.0000E+00  0.0000E+00  0.9600E-01  0.9500E-01
     -7.190  0.0000E+00  0.0000E+00  0.9900E-01  0.9900E-01
     -7.149  0.0000E+00  0.0000E+00  0.1000E+00  0.1000E+00
     -7.108  0.0000E+00  0.0000E+00  0.1010E+00  0.1010E+00
     -7.068  0.0000E+00  0.0000E+00  0.1050E+00  0.1040E+00
     -7.027  0.0000E+00  0.0000E+00  0.1080E+00  0.1070E+00
     -6.986  0.0000E+00  0.0000E+00  0.1110E+00  0.1100E+00
     -6.946  0.0000E+00  0.0000E+00  0.1130E+00  0.1130E+00
     -6.905  0.0000E+00  0.0000E+00  0.1170E+00  0.1170E+00
     -6.864  0.0000E+00  0.0000E+00  0.1210E+00  0.1210E+00
     -6.824  0.0000E+00  0.0000E+00  0.1250E+00  0.1250E+00
     -6.783  0.9684E-07  0.0000E+00  0.1280E+00  0.1280E+00
     -6.742  0.0000E+00  0.0000E+00  0.1320E+00  0.1320E+00
     -6.702  0.0000E+00  0.0000E+00  0.1370E+00  0.1350E+00
     -6.661  0.0000E+00  0.0000E+00  0.1400E+00  0.1400E+00
     -6.620  0.0000E+00  0.0000E+00  0.1450E+00  0.1440E+00
     -6.580  0.2459E-01  0.0000E+00  0.1490E+00  0.1470E+00
     -6.539  0.0000E+00  0.2459E-01  0.1520E+00  0.1520E+00
     -6.498  0.0000E+00  0.6475E-02  0.1550E+00  0.1543E+00
     -6.458  0.1833E-01  0.0000E+00  0.1587E+00  0.1580E+00
     -6.417  0.0000E+00  0.0000E+00  0.1620E+00  0.1610E+00
     -6.376  0.0000E+00  0.0000E+00  0.1660E+00  0.1650E+00
     -6.336  0.0000E+00  0.1999E-01  0.1690E+00  0.1688E+00
     -6.295  0.0000E+00  0.0000E+00  0.1730E+00  0.1720E+00
     -6.254  0.0000E+00  0.0000E+00  0.1760E+00  0.1750E+00
     -6.214  0.0000E+00  0.0000E+00  0.1780E+00  0.1780E+00
     -6.173  0.0000E+00  0.0000E+00  0.1820E+00  0.1820E+00
     -6.132  0.0000E+00  0.0000E+00  0.1840E+00  0.1840E+00
     -6.092  0.0000E+00  0.0000E+00  0.1860E+00  0.1860E+00
     -6.051  0.0000E+00  0.0000E+00  0.1880E+00  0.1870E+00
     -6.010  0.0000E+00  0.0000E+00  0.1890E+00  0.1890E+00
     -5.970  0.0000E+00  0.0000E+00  0.1900E+00  0.1900E+00
     -5.929  0.0000E+00  0.0000E+00  0.1900E+00  0.1900E+00
     -5.888  0.0000E+00  0.0000E+00  0.1900E+00  0.1900E+00
     -5.848  0.0000E+00  0.0000E+00  0.1900E+00  0.1900E+00
     -5.807  0.0000E+00  0.0000E+00  0.1900E+00  0.1900E+00
     -5.766  0.0000E+00  0.0000E+00  0.1910E+00  0.1900E+00
     -5.726  0.0000E+00  0.0000E+00  0.1910E+00  0.1910E+00
     -5.685  0.0000E+00  0.0000E+00  0.1910E+00  0.1910E+00
     -5.644  0.0000E+00  0.0000E+00  0.1910E+00  0.1910E+00
     -5.604  0.0000E+00  0.0000E+00  0.1920E+00  0.1910E+00
     -5.563  0.0000E+00  0.0000E+00  0.1920E+00  0.1920E+00
     -5.523  0.0000E+00  0.0000E+00  0.1920E+00  0.1920E+00
     -5.482  0.0000E+00  0.0000E+00  0.1920E+00  0.1920E+00
     -5.441  0.0000E+00  0.0000E+00  0.1920E+00  0.1920E+00
     -5.401  0.0000E+00  0.0000E+00  0.1930E+00  0.1930E+00
     -5.360  0.0000E+00  0.0000E+00  0.1940E+00  0.1930E+00
     -5.319  0.0000E+00  0.0000E+00  0.1940E+00  0.1940E+00
     -5.279  0.0000E+00  0.0000E+00  0.1940E+00  0.1940E+00
     -5.238  0.0000E+00  0.0000E+00  0.1940E+00  0.1940E+00
     -5.197  0.0000E+00  0.0000E+00  0.1940E+00  0.1940E+00
     -5.157  0.0000E+00  0.0000E+00  0.1940E+00  0.1940E+00
     -5.116  0.0000E+00  0.0000E+00  0.1940E+00  0.1940E+00
     -5.075  0.0000E+00  0.0000E+00  0.1950E+00  0.1950E+00
     -5.035  0.0000E+00  0.0000E+00  0.1950E+00  0.1950E+00
     -4.994  0.0000E+00  0.0000E+00  0.1950E+00  0.1950E+00
     -4.953  0.0000E+00  0.0000E+00  0.1950E+00  0.1950E+00
     -4.913  0.0000E+00  0.0000E+00  0.1950E+00  0.1950E+00
     -4.872  0.0000E+00  0.0000E+00  0.1950E+00  0.1950E+00
     -4.831  0.0000E+00  0.0000E+00  0.1950E+00  0.1950E+00
     -4.791  0.0000E+00  0.0000E+00  0.1950E+00  0.1950E+00
     -4.750  0.0000E+00  0.0000E+00  0.1960E+00  0.1960E+00
     -4.709  0.0000E+00  0.0000E+00  0.1960E+00  0.1960E+00
     -4.669  0.0000E+00  0.0000E+00  0.1960E+00  0.1960E+00
     -4.628  0.0000E+00  0.0000E+00  0.1960E+00  0.1960E+00
     -4.587  0.0000E+00  0.0000E+00  0.1960E+00  0.1960E+00
     -4.547  0.0000E+00  0.0000E+00  0.1960E+00  0.1960E+00
     -4.506  0.0000E+00  0.0000E+00  0.1960E+00  0.1960E+00
     -4.465  0.0000E+00  0.0000E+00  0.1960E+00  0.1960E+00
     -4.425  0.0000E+00  0.0000E+00  0.1960E+00  0.1960E+00
     -4.384  0.0000E+00  0.0000E+00  0.1960E+00  0.1960E+00
     -4.343  0.0000E+00  0.0000E+00  0.1970E+00  0.1970E+00
     -4.303  0.0000E+00  0.0000E+00  0.1970E+00  0.1970E+00
     -4.262  0.0000E+00  0.0000E+00  0.1970E+00  0.1970E+00
     -4.221  0.0000E+00  0.0000E+00  0.1970E+00  0.1970E+00
     -4.181  0.0000E+00  0.0000E+00  0.1980E+00  0.1980E+00
     -4.140  0.0000E+00  0.0000E+00  0.1980E+00  0.1980E+00
     -4.099  0.0000E+00  0.0000E+00  0.1980E+00  0.1980E+00
     -4.059  0.0000E+00  0.0000E+00  0.1990E+00  0.1980E+00
     -4.018  0.0000E+00  0.0000E+00  0.1990E+00  0.1990E+00
     -3.977  0.0000E+00  0.0000E+00  0.1990E+00  0.1990E+00
     -3.937  0.0000E+00  0.0000E+00  0.2000E+00  0.1990E+00
     -3.896  0.0000E+00  0.0000E+00  0.2000E+00  0.2000E+00
     -3.855  0.0000E+00  0.0000E+00  0.2000E+00  0.2000E+00
     -3.815  0.0000E+00  0.0000E+00  0.2000E+00  0.2000E+00
     -3.774  0.0000E+00  0.0000E+00  0.2010E+00  0.2010E+00
     -3.733  0.0000E+00  0.0000E+00  0.2020E+00  0.2010E+00
     -3.693  0.0000E+00  0.0000E+00  0.2020E+00  0.2020E+00
     -3.652  0.0000E+00  0.0000E+00  0.2020E+00  0.2020E+00
     -3.611  0.0000E+00  0.0000E+00  0.2020E+00  0.2020E+00
     -3.571  0.0000E+00  0.0000E+00  0.2030E+00  0.2020E+00
     -3.530  0.0000E+00  0.0000E+00  0.2030E+00  0.2030E+00
     -3.489  0.0000E+00  0.0000E+00  0.2030E+00  0.2030E+00
     -3.449  0.0000E+00  0.0000E+00  0.2030E+00  0.2030E+00
     -3.408  0.0000E+00  0.0000E+00  0.2030E+00  0.2030E+00
     -3.367  0.0000E+00  0.0000E+00  0.2030E+00  0.2030E+00
     -3.327  0.0000E+00  0.0000E+00  0.2030E+00  0.2030E+00
     -3.286  0.0000E+00  0.0000E+00  0.2030E+00  0.2030E+00
     -3.245  0.0000E+00  0.0000E+00  0.2030E+00  0.2030E+00
     -3.205  0.0000E+00  0.0000E+00  0.2040E+00  0.2030E+00
     -3.164  0.0000E+00  0.0000E+00  0.2040E+00  0.2030E+00
     -3.123  0.0000E+00  0.0000E+00  0.2050E+00  0.2040E+00
     -3.083  0.0000E+00  0.0000E+00  0.2050E+00  0.2050E+00
     -3.042  0.0000E+00  0.0000E+00  0.2050E+00  0.2050E+00
     -3.001  0.0000E+00  0.0000E+00  0.2050E+00  0.2050E+00
     -2.961  0.0000E+00  0.0000E+00  0.2050E+00  0.2050E+00
     -2.920  0.0000E+00  0.0000E+00  0.2050E+00  0.2050E+00
     -2.879  0.0000E+00  0.0000E+00  0.2050E+00  0.2050E+00
     -2.839  0.0000E+00  0.0000E+00  0.2050E+00  0.2050E+00
     -2.798  0.0000E+00  0.0000E+00  0.2060E+00  0.2060E+00
     -2.758  0.0000E+00  0.0000E+00  0.2060E+00  0.2060E+00
     -2.717  0.0000E+00  0.0000E+00  0.2070E+00  0.2060E+00
     -2.676  0.0000E+00  0.0000E+00  0.2070E+00  0.2070E+00
     -2.636  0.0000E+00  0.0000E+00  0.2070E+00  0.2070E+00
     -2.595  0.0000E+00  0.0000E+00  0.2070E+00  0.2070E+00
     -2.554  0.0000E+00  0.0000E+00  0.2070E+00  0.2070E+00
     -2.514  0.0000E+00  0.0000E+00  0.2080E+00  0.2080E+00
     -2.473  0.0000E+00  0.0000E+00  0.2080E+00  0.2080E+00
     -2.432  0.0000E+00  0.0000E+00  0.2080E+00  0.2080E+00
     -2.392  0.0000E+00  0.0000E+00  0.2090E+00  0.2080E+00
     -2.351  0.0000E+00  0.0000E+00  0.2100E+00  0.2090E+00
     -2.310  0.0000E+00  0.0000E+00  0.2100E+00  0.2100E+00
     -2.270  0.0000E+00  0.0000E+00  0.2100E+00  0.2100E+00
     -2.229  0.0000E+00  0.0000E+00  0.2100E+00  0.2100E+00
     -2.188  0.0000E+00  0.0000E+00  0.2110E+00  0.2100E+00
     -2.148  0.0000E+00  0.0000E+00  0.2110E+00  0.2110E+00
     -2.107  0.0000E+00  0.0000E+00  0.2110E+00  0.2110E+00
     -2.066  0.0000E+00  0.0000E+00  0.2110E+00  0.2110E+00
     -2.026  0.0000E+00  0.0000E+00  0.2120E+00  0.2110E+00
     -1.985  0.0000E+00  0.0000E+00  0.2120E+00  0.2120E+00
     -1.944  0.0000E+00  0.0000E+00  0.2130E+00  0.2130E+00
     -1.904  0.0000E+00  0.2459E-01  0.2140E+00  0.2140E+00
     -1.863  0.0000E+00  0.0000E+00  0.2150E+00  0.2140E+00
     -1.822  0.0000E+00  0.0000E+00  0.2150E+00  0.2150E+00
     -1.782  0.0000E+00  0.0000E+00  0.2150E+00  0.2150E+00
     -1.741  0.0000E+00  0.0000E+00  0.2150E+00  0.2150E+00
     -1.700  0.0000E+00  0.0000E+00  0.2160E+00  0.2150E+00
     -1.660  0.0000E+00  0.0000E+00  0.2170E+00  0.2160E+00
     -1.619  0.0000E+00  0.0000E+00  0.2170E+00  0.2170E+00
     -1.578  0.0000E+00  0.0000E+00  0.2170E+00  0.2170E+00
     -1.538  0.0000E+00  0.0000E+00  0.2170E+00  0.2170E+00
     -1.497  0.0000E+00  0.0000E+00  0.2180E+00  0.2170E+00
     -1.456  0.0000E+00  0.0000E+00  0.2180E+00  0.2180E+00
     -1.416  0.0000E+00  0.0000E+00  0.2190E+00  0.2180E+00
     -1.375  0.0000E+00  0.0000E+00  0.2200E+00  0.2190E+00
     -1.334  0.0000E+00  0.0000E+00  0.2200E+00  0.2190E+00
     -1.294  0.0000E+00  0.0000E+00  0.2200E+00  0.2200E+00
     -1.253  0.0000E+00  0.0000E+00  0.2200E+00  0.2200E+00
     -1.212  0.0000E+00  0.0000E+00  0.2200E+00  0.2200E+00
     -1.172  0.0000E+00  0.0000E+00  0.2200E+00  0.2200E+00
     -1.131  0.0000E+00  0.0000E+00  0.2210E+00  0.2200E+00
     -1.090  0.0000E+00  0.0000E+00  0.2220E+00  0.2220E+00
     -1.050  0.0000E+00  0.0000E+00  0.2220E+00  0.2220E+00
     -1.009  0.0000E+00  0.0000E+00  0.2220E+00  0.2220E+00
     -0.968  0.0000E+00  0.0000E+00  0.2220E+00  0.2220E+00
     -0.928  0.0000E+00  0.0000E+00  0.2230E+00  0.2230E+00
     -0.887  0.0000E+00  0.0000E+00  0.2230E+00  0.2230E+00
     -0.846  0.0000E+00  0.0000E+00  0.2230E+00  0.2230E+00
     -0.806  0.0000E+00  0.0000E+00  0.2230E+00  0.2230E+00
     -0.765  0.0000E+00  0.0000E+00  0.2240E+00  0.2230E+00
     -0.724  0.0000E+00  0.0000E+00  0.2250E+00  0.2250E+00
     -0.684  0.0000E+00  0.0000E+00  0.2250E+00  0.2250E+00
     -0.643  0.0000E+00  0.0000E+00  0.2250E+00  0.2250E+00
     -0.602  0.0000E+00  0.0000E+00  0.2260E+00  0.2260E+00
     -0.562  0.0000E+00  0.0000E+00  0.2270E+00  0.2260E+00
     -0.521  0.0000E+00  0.0000E+00  0.2270E+00  0.2270E+00
     -0.480  0.0000E+00  0.0000E+00  0.2270E+00  0.2270E+00
     -0.440  0.0000E+00  0.0000E+00  0.2270E+00  0.2270E+00
     -0.399  0.0000E+00  0.0000E+00  0.2280E+00  0.2270E+00
     -0.358  0.0000E+00  0.0000E+00  0.2280E+00  0.2280E+00
     -0.318  0.0000E+00  0.0000E+00  0.2280E+00  0.2280E+00
     -0.277  0.0000E+00  0.0000E+00  0.2290E+00  0.2290E+00
     -0.236  0.0000E+00  0.0000E+00  0.2290E+00  0.2290E+00
     -0.196  0.0000E+00  0.0000E+00  0.2290E+00  0.2290E+00
     -0.155  0.0000E+00  0.0000E+00  0.2310E+00  0.2300E+00
     -0.115  0.0000E+00  0.0000E+00  0.2310E+00  0.2310E+00
     -0.074  0.0000E+00  0.0000E+00  0.2310E+00  0.2310E+00
     -0.033  0.0000E+00  0.0000E+00  0.2320E+00  0.2320E+00
      0.007  0.0000E+00  0.0000E+00  0.2330E+00  0.2320E+00
      0.048  0.0000E+00  0.0000E+00  0.2330E+00  0.2330E+00
      0.089  0.0000E+00  0.0000E+00  0.2330E+00  0.2330E+00
      0.129  0.0000E+00  0.0000E+00  0.2340E+00  0.2330E+00
      0.170  0.0000E+00  0.0000E+00  0.2340E+00  0.2340E+00
      0.211  0.0000E+00  0.0000E+00  0.2350E+00  0.2340E+00
      0.251  0.0000E+00  0.0000E+00  0.2360E+00  0.2350E+00
      0.292  0.0000E+00  0.0000E+00  0.2360E+00  0.2360E+00
      0.333  0.0000E+00  0.0000E+00  0.2370E+00  0.2360E+00
      0.373  0.0000E+00  0.0000E+00  0.2370E+00  0.2360E+00
      0.414  0.0000E+00  0.0000E+00  0.2380E+00  0.2370E+00
      0.455  0.0000E+00  0.0000E+00  0.2380E+00  0.2380E+00
      0.495  0.0000E+00  0.0000E+00  0.2380E+00  0.2380E+00
      0.536  0.0000E+00  0.0000E+00  0.2380E+00  0.2380E+00
      0.577  0.0000E+00  0.0000E+00  0.2390E+00  0.2380E+00
      0.617  0.0000E+00  0.0000E+00  0.2400E+00  0.2390E+00
      0.658  0.0000E+00  0.0000E+00  0.2410E+00  0.2400E+00
      0.699  0.0000E+00  0.0000E+00  0.2410E+00  0.2410E+00
      0.739  0.0000E+00  0.0000E+00  0.2410E+00  0.2410E+00
      0.780  0.0000E+00  0.0000E+00  0.2420E+00  0.2420E+00
      0.821  0.0000E+00  0.0000E+00  0.2430E+00  0.2430E+00
      0.861  0.0000E+00  0.0000E+00  0.2440E+00  0.2440E+00
      0.902  0.0000E+00  0.0000E+00  0.2450E+00  0.2450E+00
      0.943  0.0000E+00  0.9796E-02  0.2470E+00  0.2464E+00
      0.983  0.0000E+00  0.0000E+00  0.2480E+00  0.2470E+00
      1.024  0.0000E+00  0.0000E+00  0.2480E+00  0.2480E+00
      1.065  0.0000E+00  0.0000E+00  0.2490E+00  0.2500E+00
      1.105  0.0000E+00  0.0000E+00  0.2510E+00  0.2510E+00
      1.146  0.2459E-01  0.0000E+00  0.2520E+00  0.2510E+00
      1.187  0.0000E+00  0.0000E+00  0.2540E+00  0.2530E+00
      1.227  0.0000E+00  0.0000E+00  0.2560E+00  0.2550E+00
      1.268  0.0000E+00  0.0000E+00  0.2570E+00  0.2580E+00
      1.309  0.0000E+00  0.0000E+00  0.2590E+00  0.2590E+00
      1.349  0.0000E+00  0.0000E+00  0.2610E+00  0.2610E+00
      1.390  0.0000E+00  0.4817E-08  0.2620E+00  0.2610E+00
      1.431  0.0000E+00  0.0000E+00  0.2620E+00  0.2620E+00
      1.471  0.2177E-08  0.0000E+00  0.2630E+00  0.2630E+00
      1.512  0.0000E+00  0.0000E+00  0.2640E+00  0.2640E+00
      1.553  0.0000E+00  0.0000E+00  0.2640E+00  0.2640E+00
      1.593  0.0000E+00  0.0000E+00  0.2640E+00  0.2640E+00
      1.634  0.0000E+00  0.0000E+00  0.2640E+00  0.2640E+00
      1.675  0.0000E+00  0.0000E+00  0.2640E+00  0.2640E+00
      1.715  0.0000E+00  0.0000E+00  0.2640E+00  0.2640E+00
      1.756  0.0000E+00  0.0000E+00  0.2640E+00  0.2640E+00
      1.797  0.0000E+00  0.0000E+00  0.2640E+00  0.2640E+00
      1.837  0.0000E+00  0.0000E+00  0.2640E+00  0.2640E+00
      1.878  0.0000E+00  0.0000E+00  0.2640E+00  0.2640E+00
      1.919  0.0000E+00  0.0000E+00  0.2640E+00  0.2640E+00
      1.959  0.0000E+00  0.0000E+00  0.2640E+00  0.2640E+00
      2.000  0.0000E+00  0.0000E+00  0.2640E+00  0.2640E+00
      2.041  0.0000E+00  0.0000E+00  0.2640E+00  0.2640E+00
