unknown system                          
           1
    21.456286    0.000000    0.000000
     0.000000   21.456286    0.000000
     0.000000    0.000000   21.456286
   Ag
  37
Direct configuration=     1
   0.51662773  0.70751247  0.48932802
   0.39642822  0.70888356  0.42962459
   0.62082663  0.65558127  0.55114466
   0.50042375  0.64572588  0.37077985
   0.71315960  0.58812170  0.60591606
   0.50070090  0.63744446  0.60752155
   0.60016303  0.60746763  0.43714393
   0.69741137  0.54217245  0.49099767
   0.60207178  0.59245681  0.66895562
   0.38041452  0.59272685  0.36464786
   0.58795376  0.56705431  0.31794194
   0.66612039  0.49195024  0.37876996
   0.46942228  0.58537947  0.48518916
   0.39444351  0.68371381  0.55485990
   0.68850212  0.46049817  0.59878780
   0.57936933  0.52857286  0.54946692
   0.71146093  0.52481908  0.71580593
   0.47416472  0.52015981  0.31405639
   0.54126670  0.48927133  0.42527299
   0.33571288  0.58586500  0.48616216
   0.64487611  0.41653886  0.48903301
   0.35845720  0.46488458  0.31127894
   0.39051690  0.56435852  0.60484503
   0.60009996  0.37776076  0.37404271
   0.49779692  0.51447995  0.65045272
   0.40466672  0.48582714  0.42982407
   0.60282183  0.46119651  0.70388656
   0.46543995  0.45620229  0.54020268
   0.47093583  0.39427292  0.36409281
   0.57035551  0.40221521  0.59226752
   0.53365468  0.34650990  0.48137343
   0.33346081  0.46419757  0.53443003
   0.38834762  0.44533328  0.65186200
   0.40257700  0.36316035  0.47360932
   0.49626091  0.39077322  0.70112088
   0.46586291  0.32771982  0.58739374
   0.33970034  0.34432969  0.58781918
Direct configuration=     2
   0.51659215  0.70744920  0.48931190
   0.39649209  0.70869027  0.42957876
   0.62080494  0.65565561  0.55121252
   0.50025501  0.64584815  0.37067513
   0.71328532  0.58818110  0.60600477
   0.50075274  0.63748222  0.60744766
   0.60023603  0.60752511  0.43713790
   0.69747269  0.54216415  0.49095835
   0.60218778  0.59233508  0.66903894
   0.38032563  0.59283337  0.36459363
   0.58802218  0.56715009  0.31774088
   0.66618125  0.49183932  0.37885758
   0.46940800  0.58543479  0.48530729
   0.39444891  0.68372126  0.55478352
   0.68846774  0.46060162  0.59899587
   0.57944143  0.52864996  0.54942564
   0.71154758  0.52484337  0.71584105
   0.47408738  0.52008496  0.31405924
   0.54132738  0.48914663  0.42524729
   0.33568706  0.58594022  0.48619345
   0.64490678  0.41659663  0.48885283
   0.35852643  0.46494301  0.31139273
   0.39043196  0.56439833  0.60475136
   0.60004093  0.37783135  0.37404689
   0.49782383  0.51447087  0.65080172
   0.40457019  0.48580650  0.42962353
   0.60291411  0.46123930  0.70387953
   0.46542682  0.45623895  0.54010372
   0.47091230  0.39425183  0.36411993
   0.57050145  0.40210381  0.59248737
   0.53360012  0.34653463  0.48115270
   0.33329344  0.46417878  0.53449086
   0.38835490  0.44517914  0.65188018
   0.40252071  0.36299079  0.47359697
   0.49622791  0.39074285  0.70103828
   0.46576300  0.32772446  0.58748303
   0.33963717  0.34432999  0.58779459
Direct configuration=     3
   0.51648541  0.70725938  0.48926356
   0.39668370  0.70811041  0.42944126
   0.62073987  0.65587862  0.55141608
   0.49974879  0.64621497  0.37036098
   0.71366249  0.58835929  0.60627091
   0.50090827  0.63759551  0.60722597
   0.60045505  0.60769757  0.43711980
   0.69765666  0.54213924  0.49084042
   0.60253580  0.59196989  0.66928887
   0.38005896  0.59315294  0.36443096
   0.58822746  0.56743744  0.31713769
   0.66636385  0.49150657  0.37912045
   0.46936516  0.58560077  0.48566169
   0.39446510  0.68374362  0.55455437
   0.68836459  0.46091197  0.59962008
   0.57965774  0.52888125  0.54930180
   0.71180752  0.52491623  0.71594641
   0.47385536  0.51986042  0.31406780
   0.54150943  0.48877251  0.42517020
   0.33560959  0.58616588  0.48628731
   0.64499881  0.41676993  0.48831228
   0.35873413  0.46511829  0.31173412
   0.39017712  0.56451779  0.60447035
   0.59986385  0.37804313  0.37405942
   0.49790455  0.51444361  0.65184873
   0.40428060  0.48574456  0.42902191
   0.60319095  0.46136765  0.70385845
   0.46538744  0.45634896  0.53980684
   0.47084171  0.39418858  0.36420128
   0.57093924  0.40176961  0.59314694
   0.53343642  0.34660881  0.48049049
   0.33279131  0.46412242  0.53467336
   0.38837674  0.44471673  0.65193473
   0.40235183  0.36248214  0.47355993
   0.49612892  0.39065173  0.70079049
   0.46546327  0.32773839  0.58775087
   0.33944768  0.34433089  0.58772082
Direct configuration=     4
   0.51627193  0.70687973  0.48916687
   0.39706690  0.70695069  0.42916627
   0.62060974  0.65632464  0.55182321
   0.49873637  0.64694861  0.36973269
   0.71441683  0.58871567  0.60680317
   0.50121932  0.63782210  0.60678259
   0.60089309  0.60804249  0.43708359
   0.69802460  0.54208941  0.49060454
   0.60323183  0.59123952  0.66978874
   0.37952562  0.59379206  0.36410562
   0.58863801  0.56801215  0.31593132
   0.66672906  0.49084108  0.37964620
   0.46927947  0.58593272  0.48637048
   0.39449748  0.68378835  0.55409607
   0.68815829  0.46153269  0.60086850
   0.58009035  0.52934383  0.54905411
   0.71232739  0.52506194  0.71615714
   0.47339133  0.51941132  0.31408491
   0.54187351  0.48802428  0.42501601
   0.33545466  0.58661720  0.48647504
   0.64518286  0.41711654  0.48723118
   0.35914952  0.46546884  0.31241688
   0.38966744  0.56475670  0.60390834
   0.59950967  0.37846668  0.37408449
   0.49806601  0.51438911  0.65394275
   0.40370141  0.48562070  0.42781867
   0.60374464  0.46162436  0.70381629
   0.46530867  0.45656897  0.53921308
   0.47070052  0.39406208  0.36436398
   0.57181483  0.40110122  0.59446606
   0.53310904  0.34675716  0.47916607
   0.33178705  0.46400970  0.53503835
   0.38842040  0.44379192  0.65204381
   0.40201407  0.36146482  0.47348586
   0.49593094  0.39046950  0.70029491
   0.46486380  0.32776625  0.58828657
   0.33906868  0.34433271  0.58757328
Direct configuration=     5
   0.51584497  0.70612043  0.48897349
   0.39783332  0.70463125  0.42861627
   0.62034947  0.65721667  0.55263747
   0.49671152  0.64841588  0.36847610
   0.71592552  0.58942843  0.60786770
   0.50184144  0.63827527  0.60589585
   0.60176916  0.60873232  0.43701118
   0.69876047  0.54198976  0.49013280
   0.60462390  0.58977877  0.67078848
   0.37845894  0.59507032  0.36345493
   0.58945910  0.56916156  0.31351857
   0.66745946  0.48951009  0.38069768
   0.46910809  0.58659663  0.48778805
   0.39456225  0.68387781  0.55317947
   0.68774570  0.46277411  0.60336533
   0.58095557  0.53026899  0.54855873
   0.71336715  0.52535337  0.71657859
   0.47246328  0.51851314  0.31411914
   0.54260168  0.48652783  0.42470763
   0.33514480  0.58751985  0.48685050
   0.64555096  0.41780975  0.48506897
   0.35998029  0.46616995  0.31378241
   0.38864808  0.56523452  0.60278432
   0.59880132  0.37931379  0.37413462
   0.49838892  0.51428009  0.65813079
   0.40254303  0.48537297  0.42541218
   0.60485200  0.46213777  0.70373197
   0.46515114  0.45700900  0.53802555
   0.47041815  0.39380906  0.36468938
   0.57356601  0.39976443  0.59710432
   0.53245427  0.34705386  0.47651723
   0.32977854  0.46378425  0.53576834
   0.38850773  0.44194229  0.65226197
   0.40133855  0.35943020  0.47333771
   0.49553498  0.39010503  0.69930374
   0.46366488  0.32782196  0.58935795
   0.33831070  0.34433633  0.58727820
Direct configuration=     6
   0.51605362  0.70649149  0.48906799
   0.39745879  0.70576472  0.42888504
   0.62047666  0.65678075  0.55223955
   0.49770103  0.64769885  0.36909017
   0.71518825  0.58908011  0.60734748
   0.50153742  0.63805381  0.60632918
   0.60134104  0.60839521  0.43704657
   0.69840086  0.54203846  0.49036333
   0.60394362  0.59049261  0.67029992
   0.37898021  0.59444566  0.36377291
   0.58905785  0.56859986  0.31469764
   0.66710252  0.49016052  0.38018384
   0.46919184  0.58627219  0.48709531
   0.39453060  0.68383409  0.55362740
   0.68794732  0.46216745  0.60214517
   0.58053275  0.52981688  0.54880081
   0.71285904  0.52521095  0.71637264
   0.47291680  0.51895207  0.31410241
   0.54224584  0.48725912  0.42485833
   0.33529622  0.58707874  0.48666702
   0.64537108  0.41747099  0.48612561
   0.35957431  0.46582733  0.31311510
   0.38914622  0.56500102  0.60333361
   0.59914748  0.37889982  0.37411012
   0.49823112  0.51433336  0.65608417
   0.40310911  0.48549403  0.42658819
   0.60431085  0.46188688  0.70377318
   0.46522812  0.45679397  0.53860587
   0.47055614  0.39393271  0.36453036
   0.57271024  0.40041770  0.59581505
   0.53277424  0.34690887  0.47781167
   0.33076007  0.46389442  0.53541161
   0.38846506  0.44284617  0.65215536
   0.40166867  0.36042448  0.47341010
   0.49572848  0.39028314  0.69978811
   0.46425077  0.32779474  0.58883438
   0.33868111  0.34433456  0.58742240
Direct configuration=     7
   0.51604316  0.70635894  0.48896086
   0.39753628  0.70504180  0.42871038
   0.62057823  0.65696162  0.55262265
   0.49767816  0.64783842  0.36865023
   0.71571115  0.58951779  0.60738314
   0.50189538  0.63788116  0.60634404
   0.60127414  0.60856785  0.43661941
   0.69875631  0.54215483  0.49066067
   0.60430250  0.59014587  0.67042364
   0.37848565  0.59466744  0.36340335
   0.58911227  0.56887055  0.31428160
   0.66720455  0.49010926  0.38001804
   0.46917500  0.58600597  0.48726678
   0.39456058  0.68398744  0.55340618
   0.68770734  0.46256959  0.60251889
   0.58058299  0.52997108  0.54884189
   0.71342987  0.52534892  0.71676199
   0.47334258  0.51903949  0.31419087
   0.54234242  0.48720001  0.42485056
   0.33513203  0.58720197  0.48660023
   0.64547145  0.41775499  0.48644717
   0.35926497  0.46584582  0.31299225
   0.38919585  0.56465941  0.60328218
   0.59896991  0.37898611  0.37360017
   0.49780948  0.51457979  0.65685168
   0.40278901  0.48553033  0.42701001
   0.60465073  0.46187890  0.70416016
   0.46533187  0.45699730  0.53842417
   0.47036135  0.39366891  0.36458586
   0.57307462  0.39986485  0.59572516
   0.53232640  0.34711701  0.47770616
   0.33034821  0.46391577  0.53541939
   0.38856438  0.44255880  0.65197101
   0.40144392  0.35995842  0.47344629
   0.49575606  0.39013038  0.69968807
   0.46413369  0.32805064  0.58881806
   0.33813288  0.34420029  0.58726441
Direct configuration=     8
   0.51601179  0.70596129  0.48863945
   0.39776878  0.70287306  0.42818640
   0.62088293  0.65750424  0.55377196
   0.49760954  0.64825713  0.36733038
   0.71727984  0.59083084  0.60749012
   0.50296927  0.63736318  0.60638860
   0.60107342  0.60908579  0.43533795
   0.69982265  0.54250394  0.49155270
   0.60537914  0.58910566  0.67079478
   0.37700197  0.59533277  0.36229468
   0.58927554  0.56968261  0.31303350
   0.66751061  0.48995548  0.37952064
   0.46912448  0.58520730  0.48778118
   0.39465054  0.68444749  0.55274251
   0.68698739  0.46377603  0.60364005
   0.58073369  0.53043369  0.54896513
   0.71514237  0.52576283  0.71793007
   0.47461990  0.51930175  0.31445625
   0.54263216  0.48702267  0.42482726
   0.33463943  0.58757164  0.48639985
   0.64577256  0.41860700  0.48741188
   0.35833694  0.46590130  0.31262372
   0.38934475  0.56363457  0.60312787
   0.59843719  0.37924498  0.37207030
   0.49654454  0.51531907  0.65915423
   0.40182874  0.48563924  0.42827546
   0.60567035  0.46185495  0.70532109
   0.46564313  0.45760729  0.53787905
   0.46977700  0.39287750  0.36475236
   0.57416777  0.39820632  0.59545547
   0.53098285  0.34774143  0.47738961
   0.32911265  0.46397981  0.53544275
   0.38886234  0.44169670  0.65141797
   0.40076968  0.35856021  0.47355486
   0.49583880  0.38967209  0.69938797
   0.46378243  0.32881834  0.58876908
   0.33648817  0.34379750  0.58679046
Direct configuration=     9
   0.51594903  0.70516600  0.48799664
   0.39823377  0.69853556  0.42713843
   0.62149234  0.65858948  0.55607057
   0.49747231  0.64909455  0.36469070
   0.72041723  0.59345692  0.60770407
   0.50511704  0.63632723  0.60647773
   0.60067199  0.61012167  0.43277502
   0.70195534  0.54320215  0.49333676
   0.60753243  0.58702522  0.67153707
   0.37403462  0.59666345  0.36007733
   0.58960209  0.57130675  0.31053729
   0.66812275  0.48964792  0.37852585
   0.46902345  0.58360997  0.48880999
   0.39483044  0.68536759  0.55141519
   0.68554748  0.46618891  0.60588238
   0.58103509  0.53135892  0.54921160
   0.71856736  0.52659064  0.72026622
   0.47717456  0.51982627  0.31498700
   0.54321166  0.48666799  0.42478065
   0.33365424  0.58831099  0.48599911
   0.64637477  0.42031102  0.48934129
   0.35648090  0.46601225  0.31188664
   0.38964254  0.56158489  0.60281926
   0.59737175  0.37976272  0.36901056
   0.49401468  0.51679762  0.66375933
   0.39990819  0.48585705  0.43080636
   0.60770958  0.46180707  0.70764297
   0.46626566  0.45882729  0.53678882
   0.46860828  0.39129469  0.36508535
   0.57635407  0.39488926  0.59491610
   0.52829576  0.34899028  0.47675651
   0.32664154  0.46410790  0.53548947
   0.38945826  0.43997251  0.65031188
   0.39942121  0.35576381  0.47377200
   0.49600428  0.38875551  0.69878777
   0.46307991  0.33035374  0.58867113
   0.33319876  0.34299192  0.58584254
Direct configuration=    10
   0.51598928  0.70567601  0.48840886
   0.39793558  0.70131711  0.42781047
   0.62110154  0.65789354  0.55459651
   0.49756031  0.64855753  0.36638348
   0.71840528  0.59177287  0.60756687
   0.50373971  0.63699157  0.60642057
   0.60092942  0.60945738  0.43441858
   0.70058769  0.54275440  0.49219268
   0.60615157  0.58835937  0.67106105
   0.37593752  0.59581011  0.36149927
   0.58939268  0.57026522  0.31213806
   0.66773020  0.48984515  0.37916379
   0.46908824  0.58463431  0.48815024
   0.39471507  0.68477755  0.55226638
   0.68647086  0.46464158  0.60444442
   0.58084181  0.53076559  0.54905354
   0.71637098  0.52605978  0.71876809
   0.47553631  0.51948990  0.31464664
   0.54284004  0.48689544  0.42481054
   0.33428602  0.58783686  0.48625610
   0.64598858  0.41921827  0.48810400
   0.35767114  0.46594110  0.31235931
   0.38945157  0.56289931  0.60301717
   0.59805499  0.37943071  0.37097271
   0.49563703  0.51584945  0.66080617
   0.40113980  0.48571737  0.42918334
   0.60640186  0.46183778  0.70615399
   0.46586644  0.45804493  0.53748796
   0.46935776  0.39230972  0.36487181
   0.57495204  0.39701643  0.59526199
   0.53001894  0.34818942  0.47716251
   0.32822622  0.46402576  0.53545951
   0.38907611  0.44107820  0.65102120
   0.40028596  0.35755709  0.47363276
   0.49589816  0.38934329  0.69917267
   0.46353042  0.32936912  0.58873395
   0.33530820  0.34350852  0.58645042
Direct configuration=    11
   0.51622386  0.70519706  0.48816697
   0.39788305  0.70036512  0.42763123
   0.62150452  0.65782403  0.55480025
   0.49792175  0.64834410  0.36550097
   0.71951036  0.59276847  0.60812067
   0.50393590  0.63635591  0.60655084
   0.60092430  0.60956384  0.43428499
   0.70057627  0.54315891  0.49230801
   0.60696464  0.58740958  0.67093342
   0.37516593  0.59465461  0.36014422
   0.59000815  0.57068820  0.31164477
   0.66764258  0.49039989  0.37910353
   0.46926228  0.58417397  0.48807947
   0.39527449  0.68457587  0.55240360
   0.68614948  0.46589930  0.60492865
   0.58069703  0.53098495  0.54928096
   0.71745920  0.52649746  0.71927579
   0.47519812  0.51940884  0.31532230
   0.54294073  0.48699945  0.42488491
   0.33402853  0.58795304  0.48609286
   0.64571968  0.41968901  0.48838423
   0.35785693  0.46653041  0.31256092
   0.38980720  0.56247549  0.60266923
   0.59778038  0.37979133  0.37064575
   0.49543892  0.51613486  0.66207864
   0.40046739  0.48574157  0.42903175
   0.60623308  0.46148663  0.70688468
   0.46633114  0.45818461  0.53786371
   0.46839571  0.39234466  0.36514162
   0.57524884  0.39603315  0.59501635
   0.52965809  0.34894355  0.47709938
   0.32761654  0.46393515  0.53548326
   0.38917239  0.44041216  0.65019243
   0.39967109  0.35731568  0.47384492
   0.49672924  0.38941749  0.69913795
   0.46290286  0.33024715  0.58835575
   0.33417469  0.34323221  0.58605864
Direct configuration=    12
   0.51685241  0.70391376  0.48751883
   0.39774230  0.69781433  0.42715097
   0.62258428  0.65763780  0.55534613
   0.49889017  0.64777223  0.36313636
   0.72247130  0.59543608  0.60960451
   0.50446156  0.63465274  0.60689989
   0.60091057  0.60984908  0.43392703
   0.70054566  0.54424273  0.49261704
   0.60914318  0.58486474  0.67059144
   0.37309851  0.59155855  0.35651348
   0.59165723  0.57182154  0.31032304
   0.66740780  0.49188626  0.37894207
   0.46972863  0.58294054  0.48788985
   0.39677341  0.68403550  0.55277129
   0.68528838  0.46926924  0.60622609
   0.58030912  0.53157270  0.54989029
   0.72037500  0.52767019  0.72063610
   0.47429199  0.51919165  0.31713266
   0.54321053  0.48727814  0.42508419
   0.33333861  0.58826435  0.48565550
   0.64499918  0.42095030  0.48913509
   0.35835471  0.46810943  0.31310111
   0.39076007  0.56133989  0.60173697
   0.59704460  0.38075758  0.36976969
   0.49490809  0.51689958  0.66548808
   0.39866573  0.48580642  0.42862558
   0.60578085  0.46054578  0.70884247
   0.46757624  0.45855886  0.53887049
   0.46581802  0.39243830  0.36586455
   0.57604408  0.39339854  0.59435819
   0.52869122  0.35096418  0.47693024
   0.32598296  0.46369235  0.53554687
   0.38943037  0.43862759  0.64797182
   0.39802362  0.35666886  0.47441339
   0.49895602  0.38961630  0.69904493
   0.46122138  0.33259975  0.58734243
   0.33113758  0.34249184  0.58500892
Direct configuration=    13
   0.51738016  0.70291184  0.48702263
   0.39790219  0.69580211  0.42657294
   0.62322214  0.65693523  0.55506655
   0.49869372  0.64696513  0.36235632
   0.72426727  0.59651119  0.61036601
   0.50489725  0.63339512  0.60716240
   0.60107812  0.60972234  0.43431524
   0.69978965  0.54532088  0.49314247
   0.61041127  0.58345476  0.66988290
   0.37194538  0.59094849  0.35538515
   0.59196412  0.57183245  0.31001641
   0.66698414  0.49302708  0.37939279
   0.46984521  0.58281920  0.48708049
   0.39796715  0.68295672  0.55314522
   0.68453324  0.47130305  0.60673126
   0.57995978  0.53164497  0.55005638
   0.72113992  0.52797321  0.72101721
   0.47530059  0.51947621  0.31823587
   0.54298181  0.48740789  0.42522951
   0.33359184  0.58821733  0.48518797
   0.64444762  0.42182051  0.48880280
   0.35779662  0.46803503  0.31208001
   0.39131237  0.56092665  0.60080661
   0.59644281  0.38180110  0.37030752
   0.49497930  0.51676062  0.66673991
   0.39814353  0.48553504  0.42995681
   0.60628387  0.46018512  0.70993308
   0.46771486  0.45887676  0.53925525
   0.46460221  0.39294534  0.36650157
   0.57676603  0.39302789  0.59473680
   0.52875531  0.35222980  0.47637484
   0.32559645  0.46372322  0.53524179
   0.39016919  0.43760885  0.64673229
   0.39682341  0.35747563  0.47446192
   0.49973202  0.38979039  0.69890662
   0.45963891  0.33382134  0.58715040
   0.32941589  0.34194921  0.58455368
Direct configuration=    14
   0.51793507  0.70185836  0.48650090
   0.39807030  0.69368634  0.42596515
   0.62389283  0.65619650  0.55477257
   0.49848716  0.64611649  0.36153613
   0.72615566  0.59764162  0.61116670
   0.50535536  0.63207278  0.60743842
   0.60125429  0.60958907  0.43472343
   0.69899474  0.54645450  0.49369494
   0.61174462  0.58197223  0.66913790
   0.37073291  0.59030703  0.35419875
   0.59228680  0.57184392  0.30969399
   0.66653867  0.49422661  0.37986670
   0.46996780  0.58269161  0.48622949
   0.39922233  0.68182243  0.55353839
   0.68373924  0.47344152  0.60726244
   0.57959246  0.53172097  0.55023101
   0.72194420  0.52829182  0.72141794
   0.47636110  0.51977542  0.31939586
   0.54274132  0.48754432  0.42538232
   0.33385811  0.58816789  0.48469638
   0.64386768  0.42273549  0.48845341
   0.35720981  0.46795679  0.31100637
   0.39189309  0.56049215  0.59982837
   0.59581005  0.38289833  0.37087302
   0.49505417  0.51661450  0.66805615
   0.39759445  0.48524971  0.43135655
   0.60681279  0.45980589  0.71107980
   0.46786062  0.45921102  0.53965981
   0.46332384  0.39347848  0.36717137
   0.57752513  0.39263816  0.59513490
   0.52882270  0.35356056  0.47579085
   0.32519006  0.46375569  0.53492101
   0.39094603  0.43653770  0.64542897
   0.39556143  0.35832392  0.47451296
   0.50054795  0.38997343  0.69876118
   0.45797500  0.33510579  0.58694848
   0.32760559  0.34137865  0.58407501
Direct configuration=    15
   0.51776194  0.70218705  0.48666368
   0.39801785  0.69434647  0.42615478
   0.62368357  0.65642699  0.55486429
   0.49855161  0.64638127  0.36179203
   0.72556647  0.59728892  0.61091688
   0.50521243  0.63248536  0.60735230
   0.60119932  0.60963065  0.43459607
   0.69924276  0.54610081  0.49352257
   0.61132861  0.58243479  0.66937034
   0.37111120  0.59050717  0.35456891
   0.59218612  0.57184034  0.30979459
   0.66667765  0.49385235  0.37971884
   0.46992955  0.58273142  0.48649501
   0.39883071  0.68217633  0.55341572
   0.68398697  0.47277431  0.60709671
   0.57970706  0.53169726  0.55017652
   0.72169326  0.52819241  0.72129291
   0.47603022  0.51968206  0.31903394
   0.54281636  0.48750176  0.42533464
   0.33377504  0.58818332  0.48484976
   0.64404862  0.42245001  0.48856242
   0.35739289  0.46798120  0.31134135
   0.39171190  0.56062771  0.60013359
   0.59600747  0.38255599  0.37069658
   0.49503081  0.51666009  0.66764548
   0.39776576  0.48533873  0.43091983
   0.60664776  0.45992421  0.71072202
   0.46781514  0.45910673  0.53953359
   0.46372270  0.39331214  0.36696238
   0.57728829  0.39275976  0.59501069
   0.52880168  0.35314535  0.47597306
   0.32531685  0.46374556  0.53502110
   0.39070365  0.43687190  0.64583561
   0.39595518  0.35805925  0.47449703
   0.50029337  0.38991632  0.69880656
   0.45849415  0.33470503  0.58701148
   0.32817041  0.34155667  0.58422436
Direct configuration=    16
   0.51824521  0.70184793  0.48646326
   0.39835688  0.69294087  0.42625979
   0.62413293  0.65574971  0.55462542
   0.49815597  0.64564229  0.36185447
   0.72636204  0.59744908  0.61097008
   0.50616798  0.63185265  0.60747910
   0.60111226  0.60939704  0.43427243
   0.69888884  0.54691187  0.49456491
   0.61174903  0.58222868  0.66878286
   0.37085620  0.59046771  0.35486565
   0.59205251  0.57168808  0.30989548
   0.66657981  0.49473236  0.38034610
   0.46988339  0.58316811  0.48559048
   0.39959156  0.68141000  0.55322023
   0.68344246  0.47370269  0.60687423
   0.57899914  0.53124433  0.54971293
   0.72144122  0.52796162  0.72143703
   0.47594050  0.51956385  0.31922424
   0.54221027  0.48773068  0.42591817
   0.33410732  0.58803624  0.48451661
   0.64407697  0.42321934  0.48864695
   0.35777528  0.46764387  0.31122664
   0.39191544  0.55994245  0.59969239
   0.59586519  0.38325819  0.37080052
   0.49532036  0.51605258  0.66742200
   0.39741217  0.48533725  0.43000511
   0.60774496  0.45983483  0.71146685
   0.46776463  0.45947560  0.53940201
   0.46340749  0.39394853  0.36702240
   0.57754971  0.39351244  0.59542604
   0.52853131  0.35369577  0.47657847
   0.32507799  0.46371913  0.53523636
   0.39102787  0.43673382  0.64565589
   0.39530145  0.35909726  0.47434806
   0.49993530  0.38963074  0.69878411
   0.45814222  0.33488622  0.58706792
   0.32735149  0.34142393  0.58425239
Direct configuration=    17
   0.51886082  0.70141594  0.48620794
   0.39878876  0.69115034  0.42639355
   0.62470534  0.65488695  0.55432113
   0.49765199  0.64470094  0.36193400
   0.72737549  0.59765309  0.61103784
   0.50738521  0.63104667  0.60764062
   0.60100135  0.60909945  0.43386017
   0.69843799  0.54794504  0.49589271
   0.61228459  0.58196614  0.66803449
   0.37053136  0.59041743  0.35524365
   0.59188231  0.57149411  0.31002401
   0.66645517  0.49585336  0.38114513
   0.46982459  0.58372438  0.48443824
   0.40056078  0.68043379  0.55297122
   0.68274884  0.47488532  0.60659084
   0.57809734  0.53066737  0.54912239
   0.72112015  0.52766763  0.72162061
   0.47582620  0.51941325  0.31946667
   0.54143820  0.48802228  0.42666149
   0.33453061  0.58784887  0.48409223
   0.64411308  0.42419935  0.48875464
   0.35826238  0.46721416  0.31108051
   0.39217471  0.55906952  0.59913036
   0.59568394  0.38415269  0.37093293
   0.49568922  0.51527870  0.66713733
   0.39696175  0.48533535  0.42883990
   0.60914264  0.45972098  0.71241567
   0.46770029  0.45994549  0.53923441
   0.46300596  0.39475921  0.36709885
   0.57788272  0.39447124  0.59595514
   0.52818689  0.35439692  0.47734967
   0.32477370  0.46368545  0.53551059
   0.39144089  0.43655793  0.64542695
   0.39446869  0.36041953  0.47415829
   0.49947917  0.38926695  0.69875553
   0.45769392  0.33511703  0.58713982
   0.32630831  0.34125484  0.58428810
Direct configuration=    18
   0.51992720  0.70160813  0.48623842
   0.39917824  0.69075998  0.42701556
   0.62540309  0.65423487  0.55379155
   0.49765327  0.64396399  0.36169330
   0.72847875  0.59788534  0.61159295
   0.50809946  0.63063483  0.60736623
   0.60104965  0.60895904  0.43324065
   0.69830399  0.54888196  0.49670872
   0.61274231  0.58177971  0.66765395
   0.37013379  0.58993852  0.35497430
   0.59157825  0.57124429  0.30978157
   0.66647447  0.49711366  0.38217055
   0.46947675  0.58399209  0.48369337
   0.40165843  0.67970669  0.55309167
   0.68241708  0.47539771  0.60647721
   0.57708446  0.53032783  0.54853676
   0.72093690  0.52746178  0.72185267
   0.47550117  0.51927525  0.31901926
   0.54068537  0.48792083  0.42697870
   0.33442057  0.58721954  0.48419336
   0.64419533  0.42504323  0.48896182
   0.35843036  0.46663982  0.31032251
   0.39255294  0.55855129  0.59878263
   0.59542204  0.38503065  0.37125317
   0.49669340  0.51431475  0.66648549
   0.39614797  0.48566062  0.42887319
   0.60942573  0.45921121  0.71305694
   0.46686720  0.46031552  0.53860845
   0.46343094  0.39469496  0.36687099
   0.57758627  0.39549758  0.59656900
   0.52787366  0.35503151  0.47803459
   0.32462009  0.46368139  0.53550289
   0.39106558  0.43637380  0.64555421
   0.39395010  0.36136324  0.47441028
   0.49965881  0.38895302  0.69909913
   0.45761266  0.33501659  0.58699815
   0.32573903  0.34145250  0.58445341
Direct configuration=    19
   0.52098744  0.70179922  0.48626873
   0.39956548  0.69037187  0.42763399
   0.62609683  0.65358655  0.55326501
   0.49765454  0.64323129  0.36145398
   0.72957566  0.59811625  0.61214486
   0.50880960  0.63022535  0.60709342
   0.60109767  0.60881944  0.43262471
   0.69817075  0.54981348  0.49752004
   0.61319740  0.58159435  0.66727561
   0.36973850  0.58946236  0.35470650
   0.59127594  0.57099590  0.30954052
   0.66649367  0.49836670  0.38319008
   0.46913092  0.58425826  0.48295278
   0.40274976  0.67898378  0.55321143
   0.68208723  0.47590716  0.60636423
   0.57607741  0.52999024  0.54795450
   0.72075471  0.52725711  0.72208340
   0.47517800  0.51913804  0.31857442
   0.53993688  0.48781996  0.42729409
   0.33431117  0.58659382  0.48429391
   0.64427712  0.42588226  0.48916781
   0.35859738  0.46606879  0.30956886
   0.39292899  0.55803605  0.59843689
   0.59516165  0.38590355  0.37157157
   0.49769181  0.51335635  0.66583741
   0.39533887  0.48598401  0.42890630
   0.60970720  0.45870438  0.71369451
   0.46603891  0.46068343  0.53798610
   0.46385348  0.39463108  0.36664443
   0.57729152  0.39651801  0.59717933
   0.52756223  0.35566245  0.47871558
   0.32446736  0.46367734  0.53549524
   0.39069243  0.43619073  0.64568074
   0.39343449  0.36230152  0.47466082
   0.49983743  0.38864090  0.69944076
   0.45753186  0.33491673  0.58685730
   0.32517303  0.34164901  0.58461777
Direct configuration=    20
   0.52191753  0.70199252  0.48635663
   0.40010922  0.69069575  0.42753030
   0.62696255  0.65333912  0.55273105
   0.49752652  0.64344337  0.36111741
   0.73032982  0.59830383  0.61329989
   0.50907325  0.63017903  0.60665435
   0.60139928  0.60904344  0.43236591
   0.69846781  0.55048596  0.49764677
   0.61380845  0.58121756  0.66725055
   0.36936612  0.58929190  0.35418224
   0.59114722  0.57049596  0.30858882
   0.66652419  0.49910827  0.38373267
   0.46888451  0.58465334  0.48274405
   0.40322022  0.67906703  0.55392142
   0.68223561  0.47597963  0.60689447
   0.57575444  0.53032785  0.54788579
   0.72082351  0.52718469  0.72242594
   0.47485004  0.51876342  0.31783767
   0.53933383  0.48768164  0.42648749
   0.33349432  0.58661578  0.48491247
   0.64409508  0.42603946  0.48959905
   0.35856033  0.46563697  0.30894217
   0.39350926  0.55799984  0.59888235
   0.59534002  0.38648500  0.37194171
   0.49844180  0.51276696  0.66478257
   0.39483774  0.48554189  0.42824695
   0.60923759  0.45816287  0.71382729
   0.46464432  0.46044513  0.53780581
   0.46397593  0.39425190  0.36675760
   0.57628582  0.39699860  0.59720632
   0.52772047  0.35611606  0.47862272
   0.32392570  0.46354688  0.53561598
   0.39044380  0.43600276  0.64617842
   0.39347741  0.36226655  0.47494421
   0.49992326  0.38808946  0.70001088
   0.45756629  0.33493058  0.58707182
   0.32526214  0.34198672  0.58490588
Direct configuration=    21
   0.52261681  0.70213786  0.48642272
   0.40051802  0.69093926  0.42745235
   0.62761342  0.65315309  0.55232960
   0.49743026  0.64360282  0.36086436
   0.73089683  0.59844487  0.61416829
   0.50927147  0.63014420  0.60632423
   0.60162603  0.60921185  0.43217134
   0.69869115  0.55099155  0.49774205
   0.61426786  0.58093428  0.66723171
   0.36908615  0.58916375  0.35378808
   0.59105044  0.57012008  0.30787329
   0.66654714  0.49966581  0.38414061
   0.46869924  0.58495037  0.48258711
   0.40357392  0.67912963  0.55445523
   0.68234717  0.47603411  0.60729312
   0.57551161  0.53058168  0.54783412
   0.72087523  0.52713025  0.72268348
   0.47460346  0.51848176  0.31728376
   0.53888043  0.48757765  0.42588106
   0.33288017  0.58663229  0.48537754
   0.64395821  0.42615765  0.48992327
   0.35853247  0.46531231  0.30847100
   0.39394553  0.55797261  0.59921727
   0.59547413  0.38692215  0.37222000
   0.49900567  0.51232383  0.66398950
   0.39446098  0.48520948  0.42775122
   0.60888452  0.45775574  0.71392712
   0.46359581  0.46026597  0.53767026
   0.46406799  0.39396683  0.36684268