  31  31   0   0
  0.4031651E+03  0.2320678E-08  0.2320678E-08  0.2320678E-08  0.1000000E-15
  1.000000000000000E-004
  CAR 
 unknown system                          
      1.43941714    -10.05659708  301     -3.67630919      1.00000000
    -10.057  0.0000E+00  0.0000E+00  0.0000E+00  0.0000E+00
    -10.018  0.0000E+00  0.0000E+00  0.0000E+00  0.0000E+00
     -9.980  0.0000E+00  0.0000E+00  0.0000E+00  0.0000E+00
     -9.942  0.0000E+00  0.0000E+00  0.0000E+00  0.0000E+00
     -9.903  0.0000E+00  0.0000E+00  0.0000E+00  0.0000E+00
     -9.865  0.0000E+00  0.0000E+00  0.0000E+00  0.0000E+00
     -9.827  0.0000E+00  0.0000E+00  0.0000E+00  0.0000E+00
     -9.788  0.0000E+00  0.0000E+00  0.0000E+00  0.0000E+00
     -9.750  0.0000E+00  0.0000E+00  0.0000E+00  0.0000E+00
     -9.712  0.0000E+00  0.0000E+00  0.0000E+00  0.0000E+00
     -9.673  0.0000E+00  0.0000E+00  0.0000E+00  0.0000E+00
     -9.635  0.0000E+00  0.0000E+00  0.0000E+00  0.0000E+00
     -9.597  0.0000E+00  0.0000E+00  0.0000E+00  0.0000E+00
     -9.558  0.0000E+00  0.0000E+00  0.0000E+00  0.0000E+00
     -9.520  0.0000E+00  0.0000E+00  0.1000E-02  0.0000E+00
     -9.482  0.0000E+00  0.0000E+00  0.1000E-02  0.1000E-02
     -9.443  0.0000E+00  0.0000E+00  0.1000E-02  0.1000E-02
     -9.405  0.0000E+00  0.0000E+00  0.1000E-02  0.1000E-02
     -9.367  0.0000E+00  0.0000E+00  0.1000E-02  0.1000E-02
     -9.329  0.0000E+00  0.0000E+00  0.2000E-02  0.1000E-02
     -9.290  0.0000E+00  0.0000E+00  0.2000E-02  0.2000E-02
     -9.252  0.0000E+00  0.0000E+00  0.2000E-02  0.2000E-02
     -9.214  0.0000E+00  0.0000E+00  0.3000E-02  0.2000E-02
     -9.175  0.0000E+00  0.0000E+00  0.3000E-02  0.3000E-02
     -9.137  0.2610E-01  0.0000E+00  0.4000E-02  0.3000E-02
     -9.099  0.0000E+00  0.0000E+00  0.5000E-02  0.5000E-02
     -9.060  0.0000E+00  0.0000E+00  0.6000E-02  0.5000E-02
     -9.022  0.0000E+00  0.0000E+00  0.6000E-02  0.6000E-02
     -8.984  0.0000E+00  0.0000E+00  0.7000E-02  0.7000E-02
     -8.945  0.0000E+00  0.0000E+00  0.9000E-02  0.8000E-02
     -8.907  0.0000E+00  0.0000E+00  0.1000E-01  0.9000E-02
     -8.869  0.0000E+00  0.0000E+00  0.1000E-01  0.1000E-01
     -8.830  0.0000E+00  0.0000E+00  0.1100E-01  0.1100E-01
     -8.792  0.0000E+00  0.0000E+00  0.1200E-01  0.1200E-01
     -8.754  0.0000E+00  0.0000E+00  0.1400E-01  0.1300E-01
     -8.715  0.0000E+00  0.0000E+00  0.1500E-01  0.1500E-01
     -8.677  0.0000E+00  0.0000E+00  0.1700E-01  0.1600E-01
     -8.639  0.0000E+00  0.8692E-17  0.1900E-01  0.1700E-01
     -8.600  0.0000E+00  0.0000E+00  0.2000E-01  0.2000E-01
     -8.562  0.0000E+00  0.9464E-13  0.2100E-01  0.2000E-01
     -8.524  0.0000E+00  0.0000E+00  0.2200E-01  0.2200E-01
     -8.485  0.0000E+00  0.0000E+00  0.2400E-01  0.2400E-01
     -8.447  0.0000E+00  0.0000E+00  0.2600E-01  0.2600E-01
     -8.409  0.0000E+00  0.0000E+00  0.2800E-01  0.2800E-01
     -8.371  0.0000E+00  0.0000E+00  0.3000E-01  0.2900E-01
     -8.332  0.0000E+00  0.0000E+00  0.3100E-01  0.3000E-01
     -8.294  0.0000E+00  0.0000E+00  0.3300E-01  0.3200E-01
     -8.256  0.0000E+00  0.0000E+00  0.3400E-01  0.3300E-01
     -8.217  0.0000E+00  0.0000E+00  0.3600E-01  0.3500E-01
     -8.179  0.0000E+00  0.0000E+00  0.3700E-01  0.3700E-01
     -8.141  0.0000E+00  0.0000E+00  0.3900E-01  0.3800E-01
     -8.102  0.0000E+00  0.3862E-08  0.4100E-01  0.4000E-01
     -8.064  0.0000E+00  0.0000E+00  0.4200E-01  0.4100E-01
     -8.026  0.0000E+00  0.0000E+00  0.4400E-01  0.4400E-01
     -7.987  0.0000E+00  0.0000E+00  0.4600E-01  0.4500E-01
     -7.949  0.0000E+00  0.0000E+00  0.4700E-01  0.4700E-01
     -7.911  0.0000E+00  0.0000E+00  0.4900E-01  0.4900E-01
     -7.872  0.0000E+00  0.0000E+00  0.5100E-01  0.5100E-01
     -7.834  0.0000E+00  0.0000E+00  0.5300E-01  0.5200E-01
     -7.796  0.0000E+00  0.0000E+00  0.5400E-01  0.5400E-01
     -7.757  0.0000E+00  0.0000E+00  0.5600E-01  0.5600E-01
     -7.719  0.0000E+00  0.0000E+00  0.5900E-01  0.5800E-01
     -7.681  0.0000E+00  0.0000E+00  0.6100E-01  0.6000E-01
     -7.642  0.0000E+00  0.0000E+00  0.6300E-01  0.6200E-01
     -7.604  0.0000E+00  0.0000E+00  0.6400E-01  0.6400E-01
     -7.566  0.0000E+00  0.0000E+00  0.6600E-01  0.6600E-01
     -7.527  0.0000E+00  0.0000E+00  0.6900E-01  0.6800E-01
     -7.489  0.0000E+00  0.0000E+00  0.7000E-01  0.7000E-01
     -7.451  0.0000E+00  0.0000E+00  0.7200E-01  0.7200E-01
     -7.413  0.0000E+00  0.0000E+00  0.7400E-01  0.7400E-01
     -7.374  0.0000E+00  0.0000E+00  0.7600E-01  0.7500E-01
     -7.336  0.0000E+00  0.0000E+00  0.7800E-01  0.7700E-01
     -7.298  0.0000E+00  0.0000E+00  0.8000E-01  0.7900E-01
     -7.259  0.0000E+00  0.0000E+00  0.8200E-01  0.8200E-01
     -7.221  0.0000E+00  0.0000E+00  0.8500E-01  0.8400E-01
     -7.183  0.0000E+00  0.0000E+00  0.8700E-01  0.8700E-01
     -7.144  0.0000E+00  0.0000E+00  0.9000E-01  0.9000E-01
     -7.106  0.0000E+00  0.0000E+00  0.9300E-01  0.9300E-01
     -7.068  0.2610E-01  0.2533E-01  0.9700E-01  0.9597E-01
     -7.029  0.0000E+00  0.0000E+00  0.1000E+00  0.9900E-01
     -6.991  0.0000E+00  0.0000E+00  0.1040E+00  0.1030E+00
     -6.953  0.2610E-01  0.0000E+00  0.1080E+00  0.1070E+00
     -6.914  0.0000E+00  0.0000E+00  0.1110E+00  0.1100E+00
     -6.876  0.1200E-09  0.0000E+00  0.1130E+00  0.1130E+00
     -6.838  0.0000E+00  0.0000E+00  0.1170E+00  0.1160E+00
     -6.799  0.0000E+00  0.0000E+00  0.1200E+00  0.1190E+00
     -6.761  0.0000E+00  0.0000E+00  0.1220E+00  0.1220E+00
     -6.723  0.0000E+00  0.0000E+00  0.1260E+00  0.1250E+00
     -6.684  0.0000E+00  0.0000E+00  0.1290E+00  0.1280E+00
     -6.646  0.0000E+00  0.2610E-01  0.1320E+00  0.1310E+00
     -6.608  0.0000E+00  0.0000E+00  0.1350E+00  0.1350E+00
     -6.569  0.0000E+00  0.0000E+00  0.1380E+00  0.1380E+00
     -6.531  0.0000E+00  0.0000E+00  0.1400E+00  0.1400E+00
     -6.493  0.0000E+00  0.0000E+00  0.1430E+00  0.1420E+00
     -6.455  0.0000E+00  0.0000E+00  0.1450E+00  0.1440E+00
     -6.416  0.0000E+00  0.1100E-05  0.1470E+00  0.1460E+00
     -6.378  0.0000E+00  0.0000E+00  0.1490E+00  0.1480E+00
     -6.340  0.0000E+00  0.0000E+00  0.1510E+00  0.1500E+00
     -6.301  0.0000E+00  0.0000E+00  0.1540E+00  0.1520E+00
     -6.263  0.0000E+00  0.0000E+00  0.1550E+00  0.1550E+00
     -6.225  0.0000E+00  0.0000E+00  0.1560E+00  0.1560E+00
     -6.186  0.0000E+00  0.2610E-01  0.1580E+00  0.1580E+00
     -6.148  0.0000E+00  0.2610E-01  0.1590E+00  0.1590E+00
     -6.110  0.0000E+00  0.0000E+00  0.1590E+00  0.1590E+00
     -6.071  0.0000E+00  0.0000E+00  0.1590E+00  0.1590E+00
     -6.033  0.0000E+00  0.0000E+00  0.1600E+00  0.1590E+00
     -5.995  0.0000E+00  0.0000E+00  0.1600E+00  0.1600E+00
     -5.956  0.0000E+00  0.0000E+00  0.1600E+00  0.1600E+00
     -5.918  0.0000E+00  0.0000E+00  0.1600E+00  0.1600E+00
     -5.880  0.0000E+00  0.0000E+00  0.1600E+00  0.1600E+00
     -5.841  0.0000E+00  0.0000E+00  0.1610E+00  0.1600E+00
     -5.803  0.0000E+00  0.0000E+00  0.1610E+00  0.1610E+00
     -5.765  0.0000E+00  0.0000E+00  0.1610E+00  0.1610E+00
     -5.726  0.1659E-03  0.0000E+00  0.1610E+00  0.1610E+00
     -5.688  0.0000E+00  0.0000E+00  0.1620E+00  0.1620E+00
     -5.650  0.0000E+00  0.0000E+00  0.1620E+00  0.1620E+00
     -5.611  0.0000E+00  0.0000E+00  0.1620E+00  0.1620E+00
     -5.573  0.0000E+00  0.0000E+00  0.1620E+00  0.1620E+00
     -5.535  0.0000E+00  0.0000E+00  0.1620E+00  0.1620E+00
     -5.497  0.0000E+00  0.0000E+00  0.1620E+00  0.1620E+00
     -5.458  0.0000E+00  0.0000E+00  0.1620E+00  0.1620E+00
     -5.420  0.0000E+00  0.0000E+00  0.1620E+00  0.1620E+00
     -5.382  0.0000E+00  0.0000E+00  0.1620E+00  0.1620E+00
     -5.343  0.0000E+00  0.0000E+00  0.1620E+00  0.1620E+00
     -5.305  0.0000E+00  0.0000E+00  0.1620E+00  0.1620E+00
     -5.267  0.0000E+00  0.0000E+00  0.1620E+00  0.1620E+00
     -5.228  0.0000E+00  0.0000E+00  0.1620E+00  0.1620E+00
     -5.190  0.0000E+00  0.0000E+00  0.1620E+00  0.1620E+00
     -5.152  0.0000E+00  0.0000E+00  0.1620E+00  0.1620E+00
     -5.113  0.0000E+00  0.0000E+00  0.1630E+00  0.1620E+00
     -5.075  0.0000E+00  0.0000E+00  0.1630E+00  0.1630E+00
     -5.037  0.0000E+00  0.0000E+00  0.1640E+00  0.1630E+00
     -4.998  0.0000E+00  0.0000E+00  0.1640E+00  0.1640E+00
     -4.960  0.0000E+00  0.0000E+00  0.1640E+00  0.1640E+00
     -4.922  0.0000E+00  0.0000E+00  0.1640E+00  0.1640E+00
     -4.883  0.0000E+00  0.0000E+00  0.1640E+00  0.1640E+00
     -4.845  0.0000E+00  0.0000E+00  0.1640E+00  0.1640E+00
     -4.807  0.0000E+00  0.0000E+00  0.1650E+00  0.1640E+00
     -4.768  0.0000E+00  0.0000E+00  0.1650E+00  0.1650E+00
     -4.730  0.0000E+00  0.0000E+00  0.1650E+00  0.1650E+00
     -4.692  0.0000E+00  0.0000E+00  0.1650E+00  0.1650E+00
     -4.653  0.0000E+00  0.0000E+00  0.1650E+00  0.1650E+00
     -4.615  0.0000E+00  0.0000E+00  0.1650E+00  0.1650E+00
     -4.577  0.0000E+00  0.0000E+00  0.1650E+00  0.1650E+00
     -4.539  0.0000E+00  0.0000E+00  0.1650E+00  0.1650E+00
     -4.500  0.0000E+00  0.0000E+00  0.1660E+00  0.1650E+00
     -4.462  0.0000E+00  0.0000E+00  0.1660E+00  0.1660E+00
     -4.424  0.0000E+00  0.0000E+00  0.1660E+00  0.1660E+00
     -4.385  0.0000E+00  0.0000E+00  0.1670E+00  0.1660E+00
     -4.347  0.0000E+00  0.0000E+00  0.1670E+00  0.1670E+00
     -4.309  0.0000E+00  0.0000E+00  0.1670E+00  0.1670E+00
     -4.270  0.0000E+00  0.0000E+00  0.1670E+00  0.1670E+00
     -4.232  0.0000E+00  0.0000E+00  0.1670E+00  0.1670E+00
     -4.194  0.0000E+00  0.0000E+00  0.1670E+00  0.1670E+00
     -4.155  0.0000E+00  0.0000E+00  0.1670E+00  0.1670E+00
     -4.117  0.0000E+00  0.0000E+00  0.1680E+00  0.1670E+00
     -4.079  0.0000E+00  0.0000E+00  0.1680E+00  0.1680E+00
     -4.040  0.0000E+00  0.0000E+00  0.1680E+00  0.1680E+00
     -4.002  0.0000E+00  0.0000E+00  0.1680E+00  0.1680E+00
     -3.964  0.0000E+00  0.0000E+00  0.1680E+00  0.1680E+00
     -3.925  0.0000E+00  0.0000E+00  0.1680E+00  0.1680E+00
     -3.887  0.0000E+00  0.5806E-14  0.1690E+00  0.1680E+00
     -3.849  0.0000E+00  0.0000E+00  0.1690E+00  0.1690E+00
     -3.810  0.0000E+00  0.0000E+00  0.1690E+00  0.1690E+00
     -3.772  0.0000E+00  0.0000E+00  0.1690E+00  0.1690E+00
     -3.734  0.0000E+00  0.0000E+00  0.1700E+00  0.1700E+00
     -3.695  0.0000E+00  0.0000E+00  0.1700E+00  0.1700E+00
     -3.657  0.0000E+00  0.0000E+00  0.1710E+00  0.1700E+00
     -3.619  0.0000E+00  0.0000E+00  0.1710E+00  0.1700E+00
     -3.581  0.0000E+00  0.0000E+00  0.1710E+00  0.1700E+00
     -3.542  0.0000E+00  0.0000E+00  0.1710E+00  0.1710E+00
     -3.504  0.0000E+00  0.0000E+00  0.1710E+00  0.1710E+00
     -3.466  0.0000E+00  0.0000E+00  0.1710E+00  0.1710E+00
     -3.427  0.0000E+00  0.0000E+00  0.1710E+00  0.1710E+00
     -3.389  0.0000E+00  0.0000E+00  0.1710E+00  0.1710E+00
     -3.351  0.0000E+00  0.0000E+00  0.1710E+00  0.1710E+00
     -3.312  0.0000E+00  0.0000E+00  0.1710E+00  0.1710E+00
     -3.274  0.0000E+00  0.0000E+00  0.1710E+00  0.1710E+00
     -3.236  0.0000E+00  0.0000E+00  0.1710E+00  0.1710E+00
     -3.197  0.0000E+00  0.0000E+00  0.1720E+00  0.1710E+00
     -3.159  0.0000E+00  0.0000E+00  0.1720E+00  0.1720E+00
     -3.121  0.0000E+00  0.0000E+00  0.1720E+00  0.1720E+00
     -3.082  0.0000E+00  0.0000E+00  0.1720E+00  0.1720E+00
     -3.044  0.0000E+00  0.0000E+00  0.1720E+00  0.1720E+00
     -3.006  0.0000E+00  0.0000E+00  0.1730E+00  0.1720E+00
     -2.967  0.0000E+00  0.0000E+00  0.1730E+00  0.1730E+00
     -2.929  0.0000E+00  0.0000E+00  0.1730E+00  0.1730E+00
     -2.891  0.0000E+00  0.0000E+00  0.1730E+00  0.1730E+00
     -2.852  0.0000E+00  0.0000E+00  0.1740E+00  0.1730E+00
     -2.814  0.0000E+00  0.0000E+00  0.1740E+00  0.1740E+00
     -2.776  0.0000E+00  0.0000E+00  0.1740E+00  0.1740E+00
     -2.737  0.0000E+00  0.0000E+00  0.1740E+00  0.1740E+00
     -2.699  0.0000E+00  0.0000E+00  0.1740E+00  0.1740E+00
     -2.661  0.0000E+00  0.0000E+00  0.1740E+00  0.1740E+00
     -2.623  0.0000E+00  0.0000E+00  0.1750E+00  0.1740E+00
     -2.584  0.0000E+00  0.0000E+00  0.1760E+00  0.1750E+00
     -2.546  0.0000E+00  0.0000E+00  0.1760E+00  0.1750E+00
     -2.508  0.0000E+00  0.0000E+00  0.1760E+00  0.1760E+00
     -2.469  0.0000E+00  0.0000E+00  0.1770E+00  0.1760E+00
     -2.431  0.0000E+00  0.0000E+00  0.1770E+00  0.1770E+00
     -2.393  0.0000E+00  0.0000E+00  0.1770E+00  0.1770E+00
     -2.354  0.0000E+00  0.0000E+00  0.1770E+00  0.1770E+00
     -2.316  0.0000E+00  0.0000E+00  0.1770E+00  0.1770E+00
     -2.278  0.0000E+00  0.0000E+00  0.1780E+00  0.1780E+00
     -2.239  0.0000E+00  0.0000E+00  0.1780E+00  0.1780E+00
     -2.201  0.0000E+00  0.0000E+00  0.1790E+00  0.1780E+00
     -2.163  0.0000E+00  0.0000E+00  0.1790E+00  0.1790E+00
     -2.124  0.0000E+00  0.0000E+00  0.1790E+00  0.1790E+00
     -2.086  0.0000E+00  0.0000E+00  0.1800E+00  0.1790E+00
     -2.048  0.0000E+00  0.0000E+00  0.1800E+00  0.1790E+00
     -2.009  0.0000E+00  0.0000E+00  0.1800E+00  0.1800E+00
     -1.971  0.0000E+00  0.0000E+00  0.1810E+00  0.1800E+00
     -1.933  0.0000E+00  0.0000E+00  0.1810E+00  0.1810E+00
     -1.894  0.0000E+00  0.0000E+00  0.1810E+00  0.1810E+00
     -1.856  0.0000E+00  0.0000E+00  0.1810E+00  0.1810E+00
     -1.818  0.0000E+00  0.0000E+00  0.1820E+00  0.1810E+00
     -1.779  0.0000E+00  0.0000E+00  0.1820E+00  0.1820E+00
     -1.741  0.0000E+00  0.0000E+00  0.1820E+00  0.1820E+00
     -1.703  0.0000E+00  0.0000E+00  0.1820E+00  0.1820E+00
     -1.665  0.0000E+00  0.0000E+00  0.1820E+00  0.1820E+00
     -1.626  0.0000E+00  0.0000E+00  0.1830E+00  0.1820E+00
     -1.588  0.0000E+00  0.0000E+00  0.1830E+00  0.1830E+00
     -1.550  0.0000E+00  0.0000E+00  0.1830E+00  0.1830E+00
     -1.511  0.0000E+00  0.0000E+00  0.1840E+00  0.1830E+00
     -1.473  0.0000E+00  0.0000E+00  0.1840E+00  0.1830E+00
     -1.435  0.0000E+00  0.0000E+00  0.1850E+00  0.1840E+00
     -1.396  0.0000E+00  0.0000E+00  0.1850E+00  0.1850E+00
     -1.358  0.0000E+00  0.0000E+00  0.1850E+00  0.1850E+00
     -1.320  0.0000E+00  0.0000E+00  0.1860E+00  0.1850E+00
     -1.281  0.0000E+00  0.0000E+00  0.1860E+00  0.1860E+00
     -1.243  0.0000E+00  0.0000E+00  0.1870E+00  0.1860E+00
     -1.205  0.0000E+00  0.0000E+00  0.1870E+00  0.1870E+00
     -1.166  0.0000E+00  0.0000E+00  0.1870E+00  0.1870E+00
     -1.128  0.0000E+00  0.0000E+00  0.1880E+00  0.1870E+00
     -1.090  0.0000E+00  0.0000E+00  0.1880E+00  0.1880E+00
     -1.051  0.0000E+00  0.0000E+00  0.1890E+00  0.1880E+00
     -1.013  0.0000E+00  0.0000E+00  0.1890E+00  0.1890E+00
     -0.975  0.0000E+00  0.0000E+00  0.1890E+00  0.1890E+00
     -0.936  0.0000E+00  0.0000E+00  0.1900E+00  0.1890E+00
     -0.898  0.0000E+00  0.0000E+00  0.1900E+00  0.1900E+00
     -0.860  0.0000E+00  0.0000E+00  0.1910E+00  0.1900E+00
     -0.821  0.0000E+00  0.0000E+00  0.1910E+00  0.1910E+00
     -0.783  0.0000E+00  0.0000E+00  0.1920E+00  0.1910E+00
     -0.745  0.0000E+00  0.0000E+00  0.1920E+00  0.1920E+00
     -0.707  0.0000E+00  0.0000E+00  0.1930E+00  0.1920E+00
     -0.668  0.0000E+00  0.0000E+00  0.1930E+00  0.1930E+00
     -0.630  0.0000E+00  0.0000E+00  0.1940E+00  0.1930E+00
     -0.592  0.0000E+00  0.0000E+00  0.1940E+00  0.1940E+00
     -0.553  0.0000E+00  0.0000E+00  0.1940E+00  0.1940E+00
     -0.515  0.0000E+00  0.9637E-06  0.1950E+00  0.1940E+00
     -0.477  0.0000E+00  0.0000E+00  0.1960E+00  0.1950E+00
     -0.438  0.0000E+00  0.0000E+00  0.1960E+00  0.1960E+00
     -0.400  0.0000E+00  0.0000E+00  0.1960E+00  0.1960E+00
     -0.362  0.0000E+00  0.0000E+00  0.1960E+00  0.1960E+00
     -0.323  0.0000E+00  0.0000E+00  0.1970E+00  0.1970E+00
     -0.285  0.0000E+00  0.0000E+00  0.1980E+00  0.1970E+00
     -0.247  0.0000E+00  0.0000E+00  0.1980E+00  0.1980E+00
     -0.208  0.0000E+00  0.0000E+00  0.1980E+00  0.1980E+00
     -0.170  0.0000E+00  0.0000E+00  0.1980E+00  0.1980E+00
     -0.132  0.0000E+00  0.0000E+00  0.1990E+00  0.1980E+00
     -0.093  0.0000E+00  0.0000E+00  0.1990E+00  0.1990E+00
     -0.055  0.0000E+00  0.0000E+00  0.1990E+00  0.1990E+00
     -0.017  0.0000E+00  0.0000E+00  0.2000E+00  0.1990E+00
      0.022  0.0000E+00  0.0000E+00  0.2010E+00  0.2000E+00
      0.060  0.0000E+00  0.0000E+00  0.2010E+00  0.2010E+00
      0.098  0.0000E+00  0.0000E+00  0.2010E+00  0.2010E+00
      0.137  0.0000E+00  0.0000E+00  0.2010E+00  0.2010E+00
      0.175  0.0000E+00  0.0000E+00  0.2020E+00  0.2010E+00
      0.213  0.0000E+00  0.0000E+00  0.2020E+00  0.2020E+00
      0.251  0.0000E+00  0.0000E+00  0.2030E+00  0.2020E+00
      0.290  0.0000E+00  0.0000E+00  0.2040E+00  0.2030E+00
      0.328  0.0000E+00  0.0000E+00  0.2040E+00  0.2040E+00
      0.366  0.0000E+00  0.0000E+00  0.2040E+00  0.2040E+00
      0.405  0.0000E+00  0.0000E+00  0.2050E+00  0.2050E+00
      0.443  0.0000E+00  0.0000E+00  0.2060E+00  0.2050E+00
      0.481  0.0000E+00  0.0000E+00  0.2060E+00  0.2060E+00
      0.520  0.0000E+00  0.2610E-01  0.2070E+00  0.2070E+00
      0.558  0.0000E+00  0.0000E+00  0.2070E+00  0.2070E+00
      0.596  0.0000E+00  0.0000E+00  0.2080E+00  0.2080E+00
      0.635  0.0000E+00  0.0000E+00  0.2090E+00  0.2090E+00
      0.673  0.0000E+00  0.0000E+00  0.2110E+00  0.2100E+00
      0.711  0.0000E+00  0.0000E+00  0.2120E+00  0.2110E+00
      0.750  0.0000E+00  0.2610E-01  0.2140E+00  0.2130E+00
      0.788  0.0000E+00  0.0000E+00  0.2140E+00  0.2140E+00
      0.826  0.0000E+00  0.0000E+00  0.2160E+00  0.2150E+00
      0.865  0.0000E+00  0.0000E+00  0.2170E+00  0.2170E+00
      0.903  0.0000E+00  0.0000E+00  0.2200E+00  0.2180E+00
      0.941  0.0000E+00  0.0000E+00  0.2200E+00  0.2200E+00
      0.980  0.0000E+00  0.0000E+00  0.2200E+00  0.2200E+00
      1.018  0.0000E+00  0.0000E+00  0.2200E+00  0.2200E+00
      1.056  0.0000E+00  0.0000E+00  0.2200E+00  0.2200E+00
      1.095  0.0000E+00  0.0000E+00  0.2200E+00  0.2200E+00
      1.133  0.0000E+00  0.0000E+00  0.2200E+00  0.2200E+00
      1.171  0.0000E+00  0.0000E+00  0.2200E+00  0.2200E+00
      1.209  0.0000E+00  0.0000E+00  0.2200E+00  0.2200E+00
      1.248  0.0000E+00  0.0000E+00  0.2200E+00  0.2200E+00
      1.286  0.0000E+00  0.0000E+00  0.2200E+00  0.2200E+00
      1.324  0.0000E+00  0.0000E+00  0.2200E+00  0.2200E+00
      1.363  0.0000E+00  0.0000E+00  0.2200E+00  0.2200E+00
      1.401  0.0000E+00  0.0000E+00  0.2200E+00  0.2200E+00
      1.439  0.0000E+00  0.0000E+00  0.2200E+00  0.2200E+00
