   6   6   0   0
  0.9651206E+03  0.1795743E-08  0.1795743E-08  0.1795743E-08  0.1000000E-15
  1.000000000000000E-004
  CAR 
 unknown system                          
      0.82742246     -9.74960996  301     -4.02919826      1.00000000
     -9.750  0.0000E+00  0.0000E+00  0.0000E+00  0.0000E+00
     -9.714  0.0000E+00  0.0000E+00  0.0000E+00  0.0000E+00
     -9.679  0.0000E+00  0.0000E+00  0.0000E+00  0.0000E+00
     -9.644  0.0000E+00  0.0000E+00  0.0000E+00  0.0000E+00
     -9.609  0.0000E+00  0.0000E+00  0.0000E+00  0.0000E+00
     -9.573  0.0000E+00  0.0000E+00  0.0000E+00  0.0000E+00
     -9.538  0.0000E+00  0.0000E+00  0.0000E+00  0.0000E+00
     -9.503  0.0000E+00  0.0000E+00  0.0000E+00  0.0000E+00
     -9.468  0.0000E+00  0.0000E+00  0.0000E+00  0.0000E+00
     -9.432  0.0000E+00  0.0000E+00  0.0000E+00  0.0000E+00
     -9.397  0.0000E+00  0.0000E+00  0.0000E+00  0.0000E+00
     -9.362  0.0000E+00  0.0000E+00  0.0000E+00  0.0000E+00
     -9.327  0.0000E+00  0.0000E+00  0.0000E+00  0.0000E+00
     -9.291  0.0000E+00  0.0000E+00  0.0000E+00  0.0000E+00
     -9.256  0.0000E+00  0.0000E+00  0.1000E-02  0.1000E-02
     -9.221  0.0000E+00  0.0000E+00  0.1000E-02  0.1000E-02
     -9.186  0.0000E+00  0.0000E+00  0.1000E-02  0.1000E-02
     -9.150  0.0000E+00  0.0000E+00  0.2000E-02  0.2000E-02
     -9.115  0.0000E+00  0.0000E+00  0.2000E-02  0.2000E-02
     -9.080  0.0000E+00  0.0000E+00  0.2000E-02  0.2000E-02
     -9.044  0.0000E+00  0.0000E+00  0.2000E-02  0.2000E-02
     -9.009  0.0000E+00  0.0000E+00  0.2000E-02  0.2000E-02
     -8.974  0.0000E+00  0.0000E+00  0.2000E-02  0.2000E-02
     -8.939  0.0000E+00  0.0000E+00  0.2000E-02  0.2000E-02
     -8.903  0.0000E+00  0.0000E+00  0.2000E-02  0.2000E-02
     -8.868  0.0000E+00  0.0000E+00  0.2000E-02  0.2000E-02
     -8.833  0.0000E+00  0.0000E+00  0.3000E-02  0.3000E-02
     -8.798  0.0000E+00  0.0000E+00  0.3000E-02  0.3000E-02
     -8.762  0.0000E+00  0.0000E+00  0.3000E-02  0.3000E-02
     -8.727  0.0000E+00  0.0000E+00  0.3000E-02  0.3000E-02
     -8.692  0.0000E+00  0.0000E+00  0.3000E-02  0.3000E-02
     -8.657  0.0000E+00  0.0000E+00  0.3000E-02  0.3000E-02
     -8.621  0.0000E+00  0.0000E+00  0.3000E-02  0.3000E-02
     -8.586  0.0000E+00  0.0000E+00  0.3000E-02  0.3000E-02
     -8.551  0.0000E+00  0.0000E+00  0.4000E-02  0.4000E-02
     -8.516  0.0000E+00  0.0000E+00  0.4000E-02  0.4000E-02
     -8.480  0.0000E+00  0.0000E+00  0.5000E-02  0.5000E-02
     -8.445  0.0000E+00  0.0000E+00  0.5000E-02  0.5000E-02
     -8.410  0.0000E+00  0.0000E+00  0.6000E-02  0.6000E-02
     -8.375  0.0000E+00  0.0000E+00  0.6000E-02  0.6000E-02
     -8.339  0.0000E+00  0.0000E+00  0.6000E-02  0.6000E-02
     -8.304  0.0000E+00  0.0000E+00  0.6000E-02  0.6000E-02
     -8.269  0.0000E+00  0.0000E+00  0.6000E-02  0.6000E-02
     -8.234  0.0000E+00  0.0000E+00  0.6000E-02  0.6000E-02
     -8.198  0.0000E+00  0.0000E+00  0.6000E-02  0.6000E-02
     -8.163  0.0000E+00  0.0000E+00  0.7000E-02  0.7000E-02
     -8.128  0.0000E+00  0.0000E+00  0.8000E-02  0.8000E-02
     -8.093  0.0000E+00  0.0000E+00  0.8000E-02  0.8000E-02
     -8.057  0.0000E+00  0.0000E+00  0.8000E-02  0.8000E-02
     -8.022  0.0000E+00  0.0000E+00  0.9000E-02  0.9000E-02
     -7.987  0.0000E+00  0.0000E+00  0.1000E-01  0.1000E-01
     -7.952  0.0000E+00  0.0000E+00  0.1000E-01  0.1000E-01
     -7.916  0.0000E+00  0.0000E+00  0.1100E-01  0.1100E-01
     -7.881  0.0000E+00  0.0000E+00  0.1100E-01  0.1100E-01
     -7.846  0.0000E+00  0.0000E+00  0.1100E-01  0.1100E-01
     -7.810  0.0000E+00  0.0000E+00  0.1100E-01  0.1100E-01
     -7.775  0.0000E+00  0.0000E+00  0.1100E-01  0.1100E-01
     -7.740  0.0000E+00  0.0000E+00  0.1100E-01  0.1100E-01
     -7.705  0.0000E+00  0.0000E+00  0.1100E-01  0.1100E-01
     -7.669  0.0000E+00  0.0000E+00  0.1200E-01  0.1200E-01
     -7.634  0.0000E+00  0.0000E+00  0.1200E-01  0.1200E-01
     -7.599  0.0000E+00  0.0000E+00  0.1200E-01  0.1200E-01
     -7.564  0.0000E+00  0.0000E+00  0.1400E-01  0.1400E-01
     -7.528  0.0000E+00  0.0000E+00  0.1400E-01  0.1400E-01
     -7.493  0.0000E+00  0.0000E+00  0.1400E-01  0.1400E-01
     -7.458  0.0000E+00  0.0000E+00  0.1400E-01  0.1400E-01
     -7.423  0.0000E+00  0.0000E+00  0.1400E-01  0.1400E-01
     -7.387  0.0000E+00  0.0000E+00  0.1500E-01  0.1500E-01
     -7.352  0.0000E+00  0.0000E+00  0.1500E-01  0.1500E-01
     -7.317  0.0000E+00  0.0000E+00  0.1500E-01  0.1500E-01
     -7.282  0.0000E+00  0.0000E+00  0.1500E-01  0.1500E-01
     -7.246  0.0000E+00  0.0000E+00  0.1700E-01  0.1700E-01
     -7.211  0.0000E+00  0.0000E+00  0.1700E-01  0.1700E-01
     -7.176  0.0000E+00  0.0000E+00  0.1800E-01  0.1800E-01
     -7.141  0.0000E+00  0.0000E+00  0.1900E-01  0.1900E-01
     -7.105  0.0000E+00  0.0000E+00  0.1900E-01  0.1900E-01
     -7.070  0.3957E-13  0.3827E-13  0.2000E-01  0.2000E-01
     -7.035  0.2878E-06  0.2813E-06  0.2100E-01  0.2100E-01
     -7.000  0.0000E+00  0.0000E+00  0.2200E-01  0.2200E-01
     -6.964  0.0000E+00  0.0000E+00  0.2300E-01  0.2300E-01
     -6.929  0.0000E+00  0.0000E+00  0.2400E-01  0.2400E-01
     -6.894  0.0000E+00  0.0000E+00  0.2400E-01  0.2400E-01
     -6.859  0.0000E+00  0.0000E+00  0.2500E-01  0.2500E-01
     -6.823  0.0000E+00  0.0000E+00  0.2500E-01  0.2500E-01
     -6.788  0.0000E+00  0.0000E+00  0.2700E-01  0.2700E-01
     -6.753  0.1763E-15  0.1700E-15  0.2700E-01  0.2700E-01
     -6.718  0.0000E+00  0.0000E+00  0.2900E-01  0.2900E-01
     -6.682  0.0000E+00  0.0000E+00  0.2900E-01  0.2900E-01
     -6.647  0.0000E+00  0.0000E+00  0.2900E-01  0.2900E-01
     -6.612  0.0000E+00  0.0000E+00  0.2900E-01  0.2900E-01
     -6.577  0.0000E+00  0.0000E+00  0.3000E-01  0.3000E-01
     -6.541  0.2836E-01  0.2836E-01  0.3100E-01  0.3100E-01
     -6.506  0.0000E+00  0.0000E+00  0.3100E-01  0.3100E-01
     -6.471  0.0000E+00  0.0000E+00  0.3100E-01  0.3100E-01
     -6.435  0.0000E+00  0.0000E+00  0.3100E-01  0.3100E-01
     -6.400  0.0000E+00  0.0000E+00  0.3100E-01  0.3100E-01
     -6.365  0.0000E+00  0.0000E+00  0.3100E-01  0.3100E-01
     -6.330  0.0000E+00  0.0000E+00  0.3100E-01  0.3100E-01
     -6.294  0.0000E+00  0.0000E+00  0.3100E-01  0.3100E-01
     -6.259  0.0000E+00  0.0000E+00  0.3100E-01  0.3100E-01
     -6.224  0.0000E+00  0.0000E+00  0.3100E-01  0.3100E-01
     -6.189  0.0000E+00  0.0000E+00  0.3100E-01  0.3100E-01
     -6.153  0.0000E+00  0.0000E+00  0.3100E-01  0.3100E-01
     -6.118  0.0000E+00  0.0000E+00  0.3100E-01  0.3100E-01
     -6.083  0.0000E+00  0.0000E+00  0.3100E-01  0.3100E-01
     -6.048  0.0000E+00  0.0000E+00  0.3100E-01  0.3100E-01
     -6.012  0.0000E+00  0.0000E+00  0.3100E-01  0.3100E-01
     -5.977  0.0000E+00  0.0000E+00  0.3100E-01  0.3100E-01
     -5.942  0.0000E+00  0.0000E+00  0.3100E-01  0.3100E-01
     -5.907  0.0000E+00  0.0000E+00  0.3100E-01  0.3100E-01
     -5.871  0.0000E+00  0.0000E+00  0.3100E-01  0.3100E-01
     -5.836  0.0000E+00  0.0000E+00  0.3100E-01  0.3100E-01
     -5.801  0.0000E+00  0.0000E+00  0.3100E-01  0.3100E-01
     -5.766  0.0000E+00  0.0000E+00  0.3100E-01  0.3100E-01
     -5.730  0.0000E+00  0.0000E+00  0.3100E-01  0.3100E-01
     -5.695  0.0000E+00  0.0000E+00  0.3100E-01  0.3100E-01
     -5.660  0.0000E+00  0.0000E+00  0.3100E-01  0.3100E-01
     -5.625  0.0000E+00  0.0000E+00  0.3100E-01  0.3100E-01
     -5.589  0.0000E+00  0.0000E+00  0.3100E-01  0.3100E-01
     -5.554  0.0000E+00  0.0000E+00  0.3100E-01  0.3100E-01
     -5.519  0.0000E+00  0.0000E+00  0.3100E-01  0.3100E-01
     -5.484  0.0000E+00  0.0000E+00  0.3100E-01  0.3100E-01
     -5.448  0.0000E+00  0.0000E+00  0.3100E-01  0.3100E-01
     -5.413  0.0000E+00  0.0000E+00  0.3100E-01  0.3100E-01
     -5.378  0.0000E+00  0.0000E+00  0.3100E-01  0.3100E-01
     -5.343  0.0000E+00  0.0000E+00  0.3100E-01  0.3100E-01
     -5.307  0.0000E+00  0.0000E+00  0.3100E-01  0.3100E-01
     -5.272  0.0000E+00  0.0000E+00  0.3100E-01  0.3100E-01
     -5.237  0.0000E+00  0.0000E+00  0.3100E-01  0.3100E-01
     -5.201  0.0000E+00  0.0000E+00  0.3100E-01  0.3100E-01
     -5.166  0.0000E+00  0.0000E+00  0.3100E-01  0.3100E-01
     -5.131  0.0000E+00  0.0000E+00  0.3100E-01  0.3100E-01
     -5.096  0.0000E+00  0.0000E+00  0.3100E-01  0.3100E-01
     -5.060  0.0000E+00  0.0000E+00  0.3100E-01  0.3100E-01
     -5.025  0.0000E+00  0.0000E+00  0.3100E-01  0.3100E-01
     -4.990  0.0000E+00  0.0000E+00  0.3100E-01  0.3100E-01
     -4.955  0.0000E+00  0.0000E+00  0.3100E-01  0.3100E-01
     -4.919  0.0000E+00  0.0000E+00  0.3100E-01  0.3100E-01
     -4.884  0.0000E+00  0.0000E+00  0.3100E-01  0.3100E-01
     -4.849  0.0000E+00  0.0000E+00  0.3200E-01  0.3200E-01
     -4.814  0.0000E+00  0.0000E+00  0.3200E-01  0.3200E-01
     -4.778  0.0000E+00  0.0000E+00  0.3200E-01  0.3200E-01
     -4.743  0.0000E+00  0.0000E+00  0.3200E-01  0.3200E-01
     -4.708  0.0000E+00  0.0000E+00  0.3200E-01  0.3200E-01
     -4.673  0.0000E+00  0.0000E+00  0.3200E-01  0.3200E-01
     -4.637  0.0000E+00  0.0000E+00  0.3200E-01  0.3200E-01
     -4.602  0.0000E+00  0.0000E+00  0.3200E-01  0.3200E-01
     -4.567  0.0000E+00  0.0000E+00  0.3200E-01  0.3200E-01
     -4.532  0.0000E+00  0.0000E+00  0.3200E-01  0.3200E-01
     -4.496  0.0000E+00  0.0000E+00  0.3200E-01  0.3200E-01
     -4.461  0.0000E+00  0.0000E+00  0.3200E-01  0.3200E-01
     -4.426  0.0000E+00  0.0000E+00  0.3200E-01  0.3200E-01
     -4.391  0.0000E+00  0.0000E+00  0.3200E-01  0.3200E-01
     -4.355  0.0000E+00  0.0000E+00  0.3200E-01  0.3200E-01
     -4.320  0.0000E+00  0.0000E+00  0.3200E-01  0.3200E-01
     -4.285  0.0000E+00  0.0000E+00  0.3200E-01  0.3200E-01
     -4.250  0.0000E+00  0.0000E+00  0.3200E-01  0.3200E-01
     -4.214  0.0000E+00  0.0000E+00  0.3200E-01  0.3200E-01
     -4.179  0.0000E+00  0.0000E+00  0.3200E-01  0.3200E-01
     -4.144  0.0000E+00  0.0000E+00  0.3200E-01  0.3200E-01
     -4.109  0.0000E+00  0.0000E+00  0.3200E-01  0.3200E-01
     -4.073  0.0000E+00  0.0000E+00  0.3200E-01  0.3200E-01
     -4.038  0.0000E+00  0.0000E+00  0.3300E-01  0.3300E-01
     -4.003  0.0000E+00  0.0000E+00  0.3300E-01  0.3300E-01
     -3.967  0.0000E+00  0.0000E+00  0.3300E-01  0.3300E-01
     -3.932  0.0000E+00  0.0000E+00  0.3300E-01  0.3300E-01
     -3.897  0.0000E+00  0.0000E+00  0.3300E-01  0.3300E-01
     -3.862  0.0000E+00  0.0000E+00  0.3300E-01  0.3300E-01
     -3.826  0.0000E+00  0.0000E+00  0.3300E-01  0.3300E-01
     -3.791  0.0000E+00  0.0000E+00  0.3300E-01  0.3300E-01
     -3.756  0.0000E+00  0.0000E+00  0.3300E-01  0.3300E-01
     -3.721  0.0000E+00  0.0000E+00  0.3300E-01  0.3300E-01
     -3.685  0.0000E+00  0.0000E+00  0.3300E-01  0.3300E-01
     -3.650  0.0000E+00  0.0000E+00  0.3300E-01  0.3300E-01
     -3.615  0.0000E+00  0.0000E+00  0.3400E-01  0.3400E-01
     -3.580  0.0000E+00  0.0000E+00  0.3400E-01  0.3400E-01
     -3.544  0.0000E+00  0.0000E+00  0.3400E-01  0.3400E-01
     -3.509  0.0000E+00  0.0000E+00  0.3400E-01  0.3400E-01
     -3.474  0.0000E+00  0.0000E+00  0.3400E-01  0.3400E-01
     -3.439  0.0000E+00  0.0000E+00  0.3400E-01  0.3400E-01
     -3.403  0.0000E+00  0.0000E+00  0.3400E-01  0.3400E-01
     -3.368  0.0000E+00  0.0000E+00  0.3400E-01  0.3400E-01
     -3.333  0.0000E+00  0.0000E+00  0.3400E-01  0.3400E-01
     -3.298  0.0000E+00  0.0000E+00  0.3400E-01  0.3400E-01
     -3.262  0.0000E+00  0.0000E+00  0.3400E-01  0.3400E-01
     -3.227  0.0000E+00  0.0000E+00  0.3400E-01  0.3400E-01
     -3.192  0.0000E+00  0.0000E+00  0.3400E-01  0.3400E-01
     -3.157  0.0000E+00  0.0000E+00  0.3400E-01  0.3400E-01
     -3.121  0.0000E+00  0.0000E+00  0.3400E-01  0.3400E-01
     -3.086  0.0000E+00  0.0000E+00  0.3400E-01  0.3400E-01
     -3.051  0.0000E+00  0.0000E+00  0.3400E-01  0.3400E-01
     -3.016  0.0000E+00  0.0000E+00  0.3400E-01  0.3400E-01
     -2.980  0.0000E+00  0.0000E+00  0.3400E-01  0.3400E-01
     -2.945  0.0000E+00  0.0000E+00  0.3400E-01  0.3400E-01
     -2.910  0.0000E+00  0.0000E+00  0.3400E-01  0.3400E-01
     -2.875  0.0000E+00  0.0000E+00  0.3400E-01  0.3400E-01
     -2.839  0.0000E+00  0.0000E+00  0.3400E-01  0.3400E-01
     -2.804  0.0000E+00  0.0000E+00  0.3400E-01  0.3400E-01
     -2.769  0.0000E+00  0.0000E+00  0.3400E-01  0.3400E-01
     -2.734  0.0000E+00  0.0000E+00  0.3400E-01  0.3400E-01
     -2.698  0.0000E+00  0.0000E+00  0.3400E-01  0.3400E-01
     -2.663  0.0000E+00  0.0000E+00  0.3400E-01  0.3400E-01
     -2.628  0.0000E+00  0.0000E+00  0.3400E-01  0.3400E-01
     -2.592  0.0000E+00  0.0000E+00  0.3400E-01  0.3400E-01
     -2.557  0.0000E+00  0.0000E+00  0.3400E-01  0.3400E-01
     -2.522  0.0000E+00  0.0000E+00  0.3500E-01  0.3500E-01
     -2.487  0.0000E+00  0.0000E+00  0.3500E-01  0.3500E-01
     -2.451  0.0000E+00  0.0000E+00  0.3500E-01  0.3500E-01
     -2.416  0.0000E+00  0.0000E+00  0.3500E-01  0.3500E-01
     -2.381  0.0000E+00  0.0000E+00  0.3500E-01  0.3500E-01
     -2.346  0.0000E+00  0.0000E+00  0.3500E-01  0.3500E-01
     -2.310  0.0000E+00  0.0000E+00  0.3500E-01  0.3500E-01
     -2.275  0.0000E+00  0.0000E+00  0.3500E-01  0.3500E-01
     -2.240  0.0000E+00  0.0000E+00  0.3600E-01  0.3600E-01
     -2.205  0.0000E+00  0.0000E+00  0.3600E-01  0.3600E-01
     -2.169  0.0000E+00  0.0000E+00  0.3600E-01  0.3600E-01
     -2.134  0.0000E+00  0.0000E+00  0.3600E-01  0.3600E-01
     -2.099  0.0000E+00  0.0000E+00  0.3600E-01  0.3600E-01
     -2.064  0.0000E+00  0.0000E+00  0.3600E-01  0.3600E-01
     -2.028  0.0000E+00  0.0000E+00  0.3600E-01  0.3600E-01
     -1.993  0.0000E+00  0.0000E+00  0.3600E-01  0.3600E-01
     -1.958  0.0000E+00  0.0000E+00  0.3600E-01  0.3600E-01
     -1.923  0.0000E+00  0.0000E+00  0.3600E-01  0.3600E-01
     -1.887  0.0000E+00  0.0000E+00  0.3600E-01  0.3600E-01
     -1.852  0.0000E+00  0.0000E+00  0.3600E-01  0.3600E-01
     -1.817  0.0000E+00  0.0000E+00  0.3600E-01  0.3600E-01
     -1.782  0.0000E+00  0.0000E+00  0.3600E-01  0.3600E-01
     -1.746  0.0000E+00  0.0000E+00  0.3600E-01  0.3600E-01
     -1.711  0.0000E+00  0.0000E+00  0.3600E-01  0.3600E-01
     -1.676  0.0000E+00  0.0000E+00  0.3600E-01  0.3600E-01
     -1.641  0.0000E+00  0.0000E+00  0.3600E-01  0.3600E-01
     -1.605  0.0000E+00  0.0000E+00  0.3600E-01  0.3600E-01
     -1.570  0.0000E+00  0.0000E+00  0.3600E-01  0.3600E-01
     -1.535  0.0000E+00  0.0000E+00  0.3600E-01  0.3600E-01
     -1.500  0.0000E+00  0.0000E+00  0.3600E-01  0.3600E-01
     -1.464  0.0000E+00  0.0000E+00  0.3600E-01  0.3600E-01
     -1.429  0.0000E+00  0.0000E+00  0.3600E-01  0.3600E-01
     -1.394  0.0000E+00  0.0000E+00  0.3600E-01  0.3600E-01
     -1.358  0.0000E+00  0.0000E+00  0.3600E-01  0.3600E-01
     -1.323  0.0000E+00  0.0000E+00  0.3600E-01  0.3600E-01
     -1.288  0.0000E+00  0.0000E+00  0.3600E-01  0.3600E-01
     -1.253  0.0000E+00  0.0000E+00  0.3700E-01  0.3700E-01
     -1.217  0.0000E+00  0.0000E+00  0.3800E-01  0.3800E-01
     -1.182  0.0000E+00  0.0000E+00  0.3800E-01  0.3800E-01
     -1.147  0.0000E+00  0.0000E+00  0.3800E-01  0.3800E-01
     -1.112  0.0000E+00  0.0000E+00  0.3800E-01  0.3800E-01
     -1.076  0.0000E+00  0.0000E+00  0.3800E-01  0.3800E-01
     -1.041  0.0000E+00  0.0000E+00  0.3800E-01  0.3800E-01
     -1.006  0.0000E+00  0.0000E+00  0.3800E-01  0.3800E-01
     -0.971  0.0000E+00  0.0000E+00  0.3800E-01  0.3800E-01
     -0.935  0.0000E+00  0.0000E+00  0.3900E-01  0.3900E-01
     -0.900  0.0000E+00  0.0000E+00  0.3900E-01  0.3900E-01
     -0.865  0.0000E+00  0.0000E+00  0.3900E-01  0.3900E-01
     -0.830  0.0000E+00  0.0000E+00  0.3900E-01  0.3900E-01
     -0.794  0.0000E+00  0.0000E+00  0.3900E-01  0.3900E-01
     -0.759  0.0000E+00  0.0000E+00  0.3900E-01  0.3900E-01
     -0.724  0.0000E+00  0.0000E+00  0.4000E-01  0.4000E-01
     -0.689  0.0000E+00  0.0000E+00  0.4000E-01  0.4000E-01
     -0.653  0.0000E+00  0.0000E+00  0.4000E-01  0.4000E-01
     -0.618  0.0000E+00  0.0000E+00  0.4000E-01  0.4000E-01
     -0.583  0.0000E+00  0.0000E+00  0.4100E-01  0.4100E-01
     -0.548  0.0000E+00  0.0000E+00  0.4100E-01  0.4100E-01
     -0.512  0.0000E+00  0.0000E+00  0.4100E-01  0.4100E-01
     -0.477  0.0000E+00  0.0000E+00  0.4100E-01  0.4100E-01
     -0.442  0.0000E+00  0.0000E+00  0.4100E-01  0.4100E-01
     -0.407  0.0000E+00  0.0000E+00  0.4100E-01  0.4100E-01
     -0.371  0.0000E+00  0.0000E+00  0.4100E-01  0.4100E-01
     -0.336  0.0000E+00  0.0000E+00  0.4100E-01  0.4100E-01
     -0.301  0.0000E+00  0.0000E+00  0.4100E-01  0.4100E-01
     -0.266  0.0000E+00  0.0000E+00  0.4100E-01  0.4100E-01
     -0.230  0.0000E+00  0.0000E+00  0.4200E-01  0.4200E-01
     -0.195  0.0000E+00  0.0000E+00  0.4200E-01  0.4200E-01
     -0.160  0.0000E+00  0.0000E+00  0.4200E-01  0.4200E-01
     -0.125  0.0000E+00  0.0000E+00  0.4200E-01  0.4200E-01
     -0.089  0.0000E+00  0.0000E+00  0.4200E-01  0.4200E-01
     -0.054  0.0000E+00  0.0000E+00  0.4200E-01  0.4200E-01
     -0.019  0.0000E+00  0.0000E+00  0.4200E-01  0.4200E-01
      0.017  0.0000E+00  0.0000E+00  0.4200E-01  0.4200E-01
      0.052  0.0000E+00  0.0000E+00  0.4200E-01  0.4200E-01
      0.087  0.0000E+00  0.0000E+00  0.4200E-01  0.4200E-01
      0.122  0.0000E+00  0.0000E+00  0.4200E-01  0.4200E-01
      0.158  0.0000E+00  0.0000E+00  0.4200E-01  0.4200E-01
      0.193  0.0000E+00  0.0000E+00  0.4300E-01  0.4300E-01
      0.228  0.0000E+00  0.0000E+00  0.4300E-01  0.4300E-01
      0.263  0.0000E+00  0.0000E+00  0.4300E-01  0.4300E-01
      0.299  0.0000E+00  0.0000E+00  0.4300E-01  0.4300E-01
      0.334  0.0000E+00  0.0000E+00  0.4300E-01  0.4300E-01
      0.369  0.0000E+00  0.0000E+00  0.4400E-01  0.4400E-01
      0.404  0.0000E+00  0.0000E+00  0.4400E-01  0.4400E-01
      0.440  0.0000E+00  0.0000E+00  0.4400E-01  0.4400E-01
      0.475  0.0000E+00  0.0000E+00  0.4400E-01  0.4400E-01
      0.510  0.0000E+00  0.0000E+00  0.4400E-01  0.4400E-01
      0.545  0.0000E+00  0.0000E+00  0.4400E-01  0.4400E-01
      0.581  0.0000E+00  0.0000E+00  0.4400E-01  0.4400E-01
      0.616  0.0000E+00  0.0000E+00  0.4400E-01  0.4400E-01
      0.651  0.0000E+00  0.0000E+00  0.4400E-01  0.4400E-01
      0.686  0.0000E+00  0.0000E+00  0.4400E-01  0.4400E-01
      0.722  0.0000E+00  0.0000E+00  0.4400E-01  0.4400E-01
      0.757  0.0000E+00  0.0000E+00  0.4400E-01  0.4400E-01
      0.792  0.0000E+00  0.0000E+00  0.4400E-01  0.4400E-01
      0.827  0.0000E+00  0.0000E+00  0.4400E-01  0.4400E-01
