<?xml version="1.0" encoding="ISO-8859-1"?>
<modeling>
 <generator>
  <i name="program" type="string">vasp </i>
  <i name="version" type="string">5.3.5  </i>
  <i name="subversion" type="string">31Mar14 (build Feb 01 2018 12:10:03) gamma-only                       parallel </i>
  <i name="platform" type="string">LinuxIFC </i>
  <i name="date" type="string">2019 03 24 </i>
  <i name="time" type="string">05:44:33 </i>
 </generator>
 <incar>
  <i type="string" name="PREC">normal</i>
  <i type="int" name="ISPIN">     2</i>
  <i type="int" name="IBRION">     2</i>
  <i type="int" name="NSW">  1000</i>
  <i type="int" name="ISIF">     2</i>
  <i name="POTIM">      0.10000000</i>
  <i type="logical" name="LPLANE"> T  </i>
  <i type="int" name="ISMEAR">     0</i>
  <i name="SIGMA">      0.00010000</i>
  <i type="logical" name="LWAVE"> F  </i>
  <i type="logical" name="LCHARG"> F  </i>
  <i type="logical" name="LVTOT"> F  </i>
  <i type="string" name="GGA"> PE</i>
 </incar>
 <kpoints>
  <varray name="kpointlist" >
   <v>       0.00000000       0.00000000       0.00000000 </v>
  </varray>
  <varray name="weights" >
   <v>       1.00000000 </v>
  </varray>
 </kpoints>
 <parameters>
  <separator name="general" >
   <i type="string" name="SYSTEM">unknown system</i>
   <i type="logical" name="LCOMPAT"> F  </i>
  </separator>
  <separator name="electronic" >
   <i type="string" name="PREC">normal</i>
   <i name="ENMAX">    249.84400000</i>
   <i name="ENAUG">    412.49600000</i>
   <i name="EDIFF">      0.00010000</i>
   <i type="int" name="IALGO">    38</i>
   <i type="int" name="IWAVPR">    11</i>
   <i type="int" name="NBANDS">   336</i>
   <i name="NELECT">    517.00000000</i>
   <i type="int" name="TURBO">     0</i>
   <i type="int" name="IRESTART">     0</i>
   <i type="int" name="NREBOOT">     0</i>
   <i type="int" name="NMIN">     0</i>
   <i name="EREF">      0.00000000</i>
   <separator name="electronic smearing" >
    <i type="int" name="ISMEAR">     0</i>
    <i name="SIGMA">      0.00010000</i>
    <i name="KSPACING">      0.50000000</i>
    <i type="logical" name="KGAMMA"> T  </i>
   </separator>
   <separator name="electronic projectors" >
    <i type="logical" name="LREAL"> F  </i>
    <v name="ROPT">      0.00000000</v>
    <i type="int" name="LMAXPAW">  -100</i>
    <i type="int" name="LMAXMIX">     2</i>
    <i type="logical" name="NLSPLINE"> F  </i>
   </separator>
   <separator name="electronic startup" >
    <i type="int" name="ISTART">     0</i>
    <i type="int" name="ICHARG">     2</i>
    <i type="int" name="INIWAV">     1</i>
   </separator>
   <separator name="electronic spin" >
    <i type="int" name="ISPIN">     2</i>
    <i type="logical" name="LNONCOLLINEAR"> F  </i>
    <v name="MAGMOM">      1.00000000      1.00000000      1.00000000      1.00000000      1.00000000      1.00000000      1.00000000      1.00000000      1.00000000      1.00000000      1.00000000      1.00000000      1.00000000      1.00000000      1.00000000      1.00000000      1.00000000      1.00000000      1.00000000      1.00000000
      1.00000000      1.00000000      1.00000000      1.00000000      1.00000000      1.00000000      1.00000000      1.00000000      1.00000000      1.00000000      1.00000000      1.00000000      1.00000000      1.00000000      1.00000000      1.00000000      1.00000000      1.00000000      1.00000000      1.00000000
      1.00000000      1.00000000      1.00000000      1.00000000      1.00000000      1.00000000      1.00000000</v>
    <i name="NUPDOWN">     -1.00000000</i>
    <i type="logical" name="LSORBIT"> F  </i>
    <v name="SAXIS">      0.00000000      0.00000000      1.00000000</v>
    <i type="logical" name="LSPIRAL"> F  </i>
    <v name="QSPIRAL">      0.00000000      0.00000000      0.00000000</v>
    <i type="logical" name="LZEROZ"> F  </i>
   </separator>
   <separator name="electronic exchange-correlation" >
    <i type="logical" name="LASPH"> F  </i>
    <i type="logical" name="LMETAGGA"> F  </i>
   </separator>
   <separator name="electronic convergence" >
    <i type="int" name="NELM">    60</i>
    <i type="int" name="NELMDL">    -5</i>
    <i type="int" name="NELMIN">     2</i>
    <i name="ENINI">    249.84400000</i>
    <separator name="electronic convergence detail" >
     <i type="logical" name="LDIAG"> T  </i>
     <i type="logical" name="LSUBROT"> F  </i>
     <i name="WEIMIN">      0.00100000</i>
     <i name="EBREAK">      0.00000007</i>
     <i name="DEPER">      0.30000000</i>
     <i type="int" name="NRMM">     4</i>
     <i name="TIME">      0.40000000</i>
    </separator>
   </separator>
   <separator name="electronic mixer" >
    <i name="AMIX">      0.40000000</i>
    <i name="BMIX">      1.00000000</i>
    <i name="AMIN">      0.10000000</i>
    <i name="AMIX_MAG">      1.60000000</i>
    <i name="BMIX_MAG">      1.00000000</i>
    <separator name="electronic mixer details" >
     <i type="int" name="IMIX">     4</i>
     <i type="int" name="MAXMIX">   -45</i>
     <i name="WC">    100.00000000</i>
     <i type="int" name="INIMIX">     1</i>
     <i type="int" name="MIXPRE">     1</i>
     <i type="int" name="MREMOVE">     5</i>
    </separator>
   </separator>
   <separator name="electronic dipolcorrection" >
    <i type="logical" name="LDIPOL"> F  </i>
    <i type="logical" name="LMONO"> F  </i>
    <i type="int" name="IDIPOL">     0</i>
    <i name="EPSILON">      1.00000000</i>
    <v name="DIPOL">   -100.00000000   -100.00000000   -100.00000000</v>
    <i name="EFIELD">      0.00000000</i>
   </separator>
  </separator>
  <separator name="grids" >
   <i type="int" name="NGX">    90</i>
   <i type="int" name="NGY">    90</i>
   <i type="int" name="NGZ">    90</i>
   <i type="int" name="NGXF">   180</i>
   <i type="int" name="NGYF">   180</i>
   <i type="int" name="NGZF">   180</i>
   <i type="logical" name="ADDGRID"> F  </i>
  </separator>
  <separator name="ionic" >
   <i type="int" name="NSW">  1000</i>
   <i type="int" name="IBRION">     2</i>
   <i type="int" name="ISIF">     2</i>
   <i name="PSTRESS">      0.00000000</i>
   <i name="EDIFFG">      0.00100000</i>
   <i type="int" name="NFREE">     1</i>
   <i name="POTIM">      0.10000000</i>
   <i name="SMASS">     -3.00000000</i>
   <i name="SCALEE">      1.00000000</i>
  </separator>
  <separator name="ionic md" >
   <i name="TEBEG">      0.00010000</i>
   <i name="TEEND">      0.00010000</i>
   <i type="int" name="NBLOCK">     1</i>
   <i type="int" name="KBLOCK">  1000</i>
   <i type="int" name="NPACO">   256</i>
   <i name="APACO">     16.00000000</i>
  </separator>
  <separator name="symmetry" >
   <i type="int" name="ISYM">     2</i>
   <i name="SYMPREC">      0.00001000</i>
  </separator>
  <separator name="dos" >
   <i type="logical" name="LORBIT"> F  </i>
   <v name="RWIGS">     -1.00000000</v>
   <i type="int" name="NEDOS">   301</i>
   <i name="EMIN">     10.00000000</i>
   <i name="EMAX">    -10.00000000</i>
   <i name="EFERMI">      0.00000000</i>
  </separator>
  <separator name="writing" >
   <i type="int" name="NWRITE">     2</i>
   <i type="logical" name="LWAVE"> F  </i>
   <i type="logical" name="LCHARG"> F  </i>
   <i type="logical" name="LPARD"> F  </i>
   <i type="logical" name="LVTOT"> F  </i>
   <i type="logical" name="LVHAR"> F  </i>
   <i type="logical" name="LELF"> F  </i>
   <i type="logical" name="LOPTICS"> F  </i>
   <v name="STM">      0.00000000      0.00000000      0.00000000      0.00000000      0.00000000      0.00000000      0.00000000</v>
  </separator>
  <separator name="performance" >
   <i type="int" name="NPAR">     4</i>
   <i type="int" name="NSIM">     4</i>
   <i type="int" name="NBLK">    -1</i>
   <i type="logical" name="LPLANE"> T  </i>
   <i type="logical" name="LSCALAPACK"> T  </i>
   <i type="logical" name="LSCAAWARE"> F  </i>
   <i type="logical" name="LSCALU"> F  </i>
   <i type="logical" name="LASYNC"> F  </i>
   <i type="logical" name="LORBITALREAL"> F  </i>
  </separator>
  <separator name="miscellaneous" >
   <i type="int" name="IDIOT">     3</i>
   <i type="logical" name="LMUSIC"> F  </i>
   <v name="POMASS">    107.86800000</v>
   <v name="DARWINR">      0.00000000</v>
   <v name="DARWINV">      1.00000000</v>
   <i type="logical" name="LCORR"> T  </i>
  </separator>
  <i type="logical" name="GGA_COMPAT"> T  </i>
  <i type="logical" name="LBERRY"> F  </i>
  <i type="int" name="ICORELEVEL">     0</i>
  <i type="logical" name="LDAU"> F  </i>
  <i type="int" name="I_CONSTRAINED_M">     0</i>
  <separator name="electronic exchange-correlation" >
   <i type="string" name="GGA">PE</i>
   <i type="int" name="VOSKOWN">     0</i>
   <i type="logical" name="LHFCALC"> F  </i>
   <i type="string" name="PRECFOCK"></i>
   <i type="logical" name="LSYMGRAD"> F  </i>
   <i type="logical" name="LHFONE"> F  </i>
   <i type="logical" name="LRHFCALC"> F  </i>
   <i type="logical" name="LTHOMAS"> F  </i>
   <i type="logical" name="LMODELHF"> F  </i>
   <i name="ENCUT4O">     -1.00000000</i>
   <i type="int" name="EXXOEP">     0</i>
   <i type="int" name="FOURORBIT">     0</i>
   <i name="AEXX">      0.00000000</i>
   <i name="HFALPHA">      0.00000000</i>
   <i name="MCALPHA">      0.00000000</i>
   <i name="ALDAX">      1.00000000</i>
   <i name="AGGAX">      1.00000000</i>
   <i name="ALDAC">      1.00000000</i>
   <i name="AGGAC">      1.00000000</i>
   <i type="int" name="NKREDX">     1</i>
   <i type="int" name="NKREDY">     1</i>
   <i type="int" name="NKREDZ">     1</i>
   <i type="logical" name="SHIFTRED"> F  </i>
   <i type="logical" name="ODDONLY"> F  </i>
   <i type="logical" name="EVENONLY"> F  </i>
   <i type="int" name="LMAXFOCK">     0</i>
   <i type="int" name="NMAXFOCKAE">     0</i>
   <i type="logical" name="LFOCKAEDFT"> F  </i>
   <i name="HFSCREEN">      0.00000000</i>
   <i name="HFSCREENC">      0.00000000</i>
   <i type="int" name="NBANDSGWLOW">     0</i>
  </separator>
  <separator name="vdW DFT" >
   <i type="logical" name="LUSE_VDW"> F  </i>
   <i name="Zab_VDW">     -0.84910000</i>
   <i name="PARAM1">      0.12340000</i>
   <i name="PARAM2">      1.00000000</i>
   <i name="PARAM3">      0.00000000</i>
  </separator>
  <separator name="model GW" >
   <i type="int" name="MODEL_GW">     0</i>
   <i name="MODEL_EPS0">    153.56961134</i>
   <i name="MODEL_ALPHA">      1.00000000</i>
  </separator>
  <separator name="linear response parameters" >
   <i type="logical" name="LEPSILON"> F  </i>
   <i type="logical" name="LRPA"> F  </i>
   <i type="logical" name="LNABLA"> F  </i>
   <i type="logical" name="LVEL"> F  </i>
   <i type="int" name="KINTER">     0</i>
   <i name="CSHIFT">      0.10000000</i>
   <i name="OMEGAMAX">     -1.00000000</i>
   <i name="DEG_THRESHOLD">      0.00200000</i>
  </separator>
  <separator name="orbital magnetization" >
   <i type="logical" name="NUCIND"> F  </i>
   <v name="MAGPOS">      0.00000000      0.00000000      0.00000000</v>
   <i type="logical" name="LNICSALL"> T  </i>
   <i type="logical" name="ORBITALMAG"> F  </i>
   <i type="logical" name="LMAGBLOCH"> F  </i>
   <i type="logical" name="LCHIMAG"> F  </i>
   <i type="logical" name="LGAUGE"> T  </i>
   <i type="int" name="MAGATOM">     0</i>
   <v name="MAGDIPOL">      0.00000000      0.00000000      0.00000000</v>
   <v name="AVECCONST">      0.00000000      0.00000000      0.00000000</v>
  </separator>
  <separator name="response functions" >
   <i type="logical" name="LADDER"> F  </i>
   <i type="logical" name="LFXC"> F  </i>
   <i type="logical" name="LHARTREE"> T  </i>
   <i type="int" name="IBSE">     0</i>
   <i type="logical" name="LTCTE"> F  </i>
   <i type="logical" name="LTETE"> F  </i>
   <i type="logical" name="LTRIPLET"> F  </i>
   <i type="logical" name="LFXCEPS"> F  </i>
   <i type="logical" name="LFXHEG"> F  </i>
   <i type="logical" name="L2ORDER"> F  </i>
   <i type="logical" name="LUSEW"> F  </i>
   <i name="ENCUTGW">     -2.00000000</i>
   <i name="ENCUTGWSOFT">     -2.00000000</i>
   <i name="ENCUTLF">     -1.00000000</i>
   <i type="int" name="LMAXMP2">    -1</i>
   <i name="SCISSOR">      0.00000000</i>
   <i type="int" name="NOMEGA">     0</i>
   <i type="int" name="NOMEGAR">     0</i>
   <i type="int" name="NBANDSGW">    -1</i>
   <i type="int" name="NBANDSO">    -1</i>
   <i type="int" name="NBANDSV">    -1</i>
   <i type="int" name="NELM">     1</i>
   <i type="int" name="DIM">     3</i>
   <i type="int" name="ANTIRES">     0</i>
   <i name="OMEGAMAX">    -30.00000000</i>
   <i name="OMEGAMIN">    -30.00000000</i>
   <i name="OMEGATL">   -200.00000000</i>
   <i type="int" name="OMEGAGRID">     0</i>
   <i name="CSHIFT">     -0.10000000</i>
   <i type="logical" name="SELFENERGY"> F  </i>
   <i type="logical" name="LSPECTRAL"> F  </i>
   <i type="logical" name="ODDONLYGW"> F  </i>
   <i type="logical" name="EVENONLYGW"> F  </i>
   <i type="int" name="NKREDLFX">     1</i>
   <i type="int" name="NKREDLFY">     1</i>
   <i type="int" name="NKREDLFZ">     1</i>
   <i type="int" name="MAXMEM">  1800</i>
   <i type="int" name="TELESCOPE">     0</i>
   <i type="int" name="TAUPAR">     1</i>
  </separator>
  <separator name="External order field" >
   <i name="OFIELD_KAPPA">      0.00000000</i>
   <v name="OFIELD_K">      0.00000000      0.00000000      0.00000000</v>
   <i name="OFIELD_Q6_NEAR">      0.00000000</i>
   <i name="OFIELD_Q6_FAR">      0.00000000</i>
   <i name="OFIELD_A">      0.00000000</i>
  </separator>
 </parameters>
 <atominfo>
  <atoms>      47 </atoms>
  <types>       1 </types>
  <array name="atoms" >
   <dimension dim="1">ion</dimension>
   <field type="string">element</field>
   <field type="int">atomtype</field>
   <set>
    <rc><c>Ag</c><c>   1</c></rc>
    <rc><c>Ag</c><c>   1</c></rc>
    <rc><c>Ag</c><c>   1</c></rc>
    <rc><c>Ag</c><c>   1</c></rc>
    <rc><c>Ag</c><c>   1</c></rc>
    <rc><c>Ag</c><c>   1</c></rc>
    <rc><c>Ag</c><c>   1</c></rc>
    <rc><c>Ag</c><c>   1</c></rc>
    <rc><c>Ag</c><c>   1</c></rc>
    <rc><c>Ag</c><c>   1</c></rc>
    <rc><c>Ag</c><c>   1</c></rc>
    <rc><c>Ag</c><c>   1</c></rc>
    <rc><c>Ag</c><c>   1</c></rc>
    <rc><c>Ag</c><c>   1</c></rc>
    <rc><c>Ag</c><c>   1</c></rc>
    <rc><c>Ag</c><c>   1</c></rc>
    <rc><c>Ag</c><c>   1</c></rc>
    <rc><c>Ag</c><c>   1</c></rc>
    <rc><c>Ag</c><c>   1</c></rc>
    <rc><c>Ag</c><c>   1</c></rc>
    <rc><c>Ag</c><c>   1</c></rc>
    <rc><c>Ag</c><c>   1</c></rc>
    <rc><c>Ag</c><c>   1</c></rc>
    <rc><c>Ag</c><c>   1</c></rc>
    <rc><c>Ag</c><c>   1</c></rc>
    <rc><c>Ag</c><c>   1</c></rc>
    <rc><c>Ag</c><c>   1</c></rc>
    <rc><c>Ag</c><c>   1</c></rc>
    <rc><c>Ag</c><c>   1</c></rc>
    <rc><c>Ag</c><c>   1</c></rc>
    <rc><c>Ag</c><c>   1</c></rc>
    <rc><c>Ag</c><c>   1</c></rc>
    <rc><c>Ag</c><c>   1</c></rc>
    <rc><c>Ag</c><c>   1</c></rc>
    <rc><c>Ag</c><c>   1</c></rc>
    <rc><c>Ag</c><c>   1</c></rc>
    <rc><c>Ag</c><c>   1</c></rc>
    <rc><c>Ag</c><c>   1</c></rc>
    <rc><c>Ag</c><c>   1</c></rc>
    <rc><c>Ag</c><c>   1</c></rc>
    <rc><c>Ag</c><c>   1</c></rc>
    <rc><c>Ag</c><c>   1</c></rc>
    <rc><c>Ag</c><c>   1</c></rc>
    <rc><c>Ag</c><c>   1</c></rc>
    <rc><c>Ag</c><c>   1</c></rc>
    <rc><c>Ag</c><c>   1</c></rc>
    <rc><c>Ag</c><c>   1</c></rc>
   </set>
  </array>
  <array name="atomtypes" >
   <dimension dim="1">type</dimension>
   <field type="int">atomspertype</field>
   <field type="string">element</field>
   <field>mass</field>
   <field>valence</field>
   <field type="string">pseudopotential</field>
   <set>
    <rc><c>  47</c><c>Ag</c><c>    107.86800000</c><c>     11.00000000</c><c>  PAW_PBE Ag 02Apr2005                  </c></rc>
   </set>
  </array>
 </atominfo>
 <structure name="initialpos" >
  <crystal>
   <varray name="basis" >
    <v>      22.91310600       0.00000000       0.00000000 </v>
    <v>       0.00000000      22.91310600       0.00000000 </v>
    <v>       0.00000000       0.00000000      22.91310600 </v>
   </varray>
   <i name="volume">  12029.61955504 </i>
   <varray name="rec_basis" >
    <v>       0.04364314       0.00000000       0.00000000 </v>
    <v>       0.00000000       0.04364314       0.00000000 </v>
    <v>       0.00000000       0.00000000       0.04364314 </v>
   </varray>
  </crystal>
  <varray name="positions" >
   <v>       0.64724522       0.43948910       0.46909466 </v>
   <v>       0.54390431       0.47473735       0.41162791 </v>
   <v>       0.55303359       0.44700737       0.66791821 </v>
   <v>       0.26846121       0.54358267       0.42402643 </v>
   <v>       0.61482695       0.54046299       0.62558118 </v>
   <v>       0.65556445       0.42738049       0.59176116 </v>
   <v>       0.49289937       0.56124955       0.48557316 </v>
   <v>       0.48755840       0.36088772       0.59359788 </v>
   <v>       0.43336506       0.64632613       0.56353454 </v>
   <v>       0.70636468       0.52981545       0.40919141 </v>
   <v>       0.32464246       0.43650313       0.60061803 </v>
   <v>       0.37581252       0.34547107       0.52771415 </v>
   <v>       0.36971037       0.56694566       0.48927482 </v>
   <v>       0.48074740       0.56950687       0.35406560 </v>
   <v>       0.66939434       0.64473100       0.39621305 </v>
   <v>       0.31587536       0.45249877       0.35469378 </v>
   <v>       0.47458563       0.38340819       0.34681503 </v>
   <v>       0.35887814       0.58497002       0.34887792 </v>
   <v>       0.54943052       0.46303876       0.54020326 </v>
   <v>       0.60386566       0.56555596       0.33306649 </v>
   <v>       0.41158134       0.49062005       0.29036079 </v>
   <v>       0.42238450       0.47776304       0.41451783 </v>
   <v>       0.36891556       0.55324367       0.62917435 </v>
   <v>       0.26915460       0.53468033       0.55136918 </v>
   <v>       0.58506432       0.35204711       0.40410892 </v>
   <v>       0.61571459       0.56855939       0.48186486 </v>
   <v>       0.71252788       0.51989687       0.53761132 </v>
   <v>       0.55586585       0.63347925       0.56829419 </v>
   <v>       0.32345021       0.44671701       0.47898937 </v>
   <v>       0.62953350       0.70970631       0.49316920 </v>
   <v>       0.31486942       0.64681535       0.56862765 </v>
   <v>       0.55007947       0.64667603       0.41251545 </v>
   <v>       0.67696682       0.63106743       0.57408828 </v>
   <v>       0.49066262       0.54455922       0.61679702 </v>
   <v>       0.30831757       0.65965140       0.43316847 </v>
   <v>       0.53542987       0.47976994       0.28312773 </v>
   <v>       0.42661507       0.45277512       0.67139889 </v>
   <v>       0.50627458       0.72373840       0.50014128 </v>
   <v>       0.59228704       0.34102875       0.52324146 </v>
   <v>       0.59719120       0.33355056       0.64593407 </v>
   <v>       0.36989717       0.35491700       0.40444157 </v>
   <v>       0.64372677       0.44718347       0.34462164 </v>
   <v>       0.42838021       0.65953071       0.42819142 </v>
   <v>       0.38197034       0.33888414       0.65019703 </v>
   <v>       0.42882521       0.46521364       0.54406166 </v>
   <v>       0.48213289       0.37641228       0.47010862 </v>
   <v>       0.57766337       0.36356266       0.28163527 </v>
  </varray>
 </structure>
 <calculation>
  <scstep>
   <time name="dav">    5.36    5.36</time>
   <time name="total">    5.59    5.61</time>
   <energy>
    <i name="alphaZ">    156.19171877 </i>
    <i name="ewald"> 132472.69518600 </i>
    <i name="hartreedc">-179397.25466824 </i>
    <i name="XCdc">   -513.69367695 </i>
    <i name="pawpsdc">  47158.49236927 </i>
    <i name="pawaedc"> -44991.43661731 </i>
    <i name="eentropy">      0.00000000 </i>
    <i name="bandstr">    638.49033931 </i>
    <i name="atom">  48748.33561406 </i>
    <i name="e_fr_energy">   4271.82026491 </i>
    <i name="e_wo_entrp">   4271.82026491 </i>
    <i name="e_0_energy">   4271.82026491 </i>
   </energy>
  </scstep>
  <scstep>
   <time name="dav">    7.77    7.77</time>
   <time name="total">    7.77    7.79</time>
   <energy>
    <i name="e_fr_energy">    664.37511265 </i>
    <i name="e_wo_entrp">    664.37511265 </i>
    <i name="e_0_energy">    664.37511265 </i>
   </energy>
  </scstep>
  <scstep>
   <time name="dav">    6.28    6.29</time>
   <time name="total">    6.28    6.30</time>
   <energy>
    <i name="e_fr_energy">    -74.10532376 </i>
    <i name="e_wo_entrp">    -74.10532376 </i>
    <i name="e_0_energy">    -74.10532376 </i>
   </energy>
  </scstep>
  <scstep>
   <time name="dav">    5.70    5.71</time>
   <time name="total">    5.70    7.37</time>
   <energy>
    <i name="e_fr_energy">   -102.18329066 </i>
    <i name="e_wo_entrp">   -102.18329066 </i>
    <i name="e_0_energy">   -102.18329066 </i>
   </energy>
  </scstep>
  <scstep>
   <time name="dav">    5.86    5.86</time>
   <time name="total">    6.00    6.01</time>
   <energy>
    <i name="e_fr_energy">   -102.59614822 </i>
    <i name="e_wo_entrp">   -102.59614822 </i>
    <i name="e_0_energy">   -102.59614822 </i>
   </energy>
  </scstep>
  <scstep>
   <time name="dav">    5.44    5.45</time>
   <time name="total">    5.81    5.84</time>
   <energy>
    <i name="e_fr_energy">    -52.91984465 </i>
    <i name="e_wo_entrp">    -52.91984465 </i>
    <i name="e_0_energy">    -52.91984465 </i>
   </energy>
  </scstep>
  <scstep>
   <time name="dav">    5.65    5.66</time>
   <time name="total">    6.02    6.17</time>
   <energy>
    <i name="e_fr_energy">    -40.56699890 </i>
    <i name="e_wo_entrp">    -40.56699890 </i>
    <i name="e_0_energy">    -40.56699890 </i>
   </energy>
  </scstep>
  <scstep>
   <time name="dav">    5.64    5.64</time>
   <time name="total">    6.01    6.03</time>
   <energy>
    <i name="e_fr_energy">    -37.87984305 </i>
    <i name="e_wo_entrp">    -37.87984305 </i>
    <i name="e_0_energy">    -37.87984305 </i>
   </energy>
  </scstep>
  <scstep>
   <time name="dav">    5.66    5.67</time>
   <time name="total">    6.03    6.07</time>
   <energy>
    <i name="e_fr_energy">    -41.31066249 </i>
    <i name="e_wo_entrp">    -41.31066249 </i>
    <i name="e_0_energy">    -41.31066249 </i>
   </energy>
  </scstep>
  <scstep>
   <time name="dav">    5.62    5.63</time>
   <time name="total">    5.99    6.02</time>
   <energy>
    <i name="e_fr_energy">    -46.45231233 </i>
    <i name="e_wo_entrp">    -46.45231233 </i>
    <i name="e_0_energy">    -46.45231233 </i>
   </energy>
  </scstep>
  <scstep>
   <time name="dav">    5.52    5.52</time>
   <time name="total">    5.88    5.91</time>
   <energy>
    <i name="e_fr_energy">    -61.59070956 </i>
    <i name="e_wo_entrp">    -61.59070956 </i>
    <i name="e_0_energy">    -61.59070956 </i>
   </energy>
  </scstep>
  <scstep>
   <time name="dav">    5.56    5.56</time>
   <time name="total">    5.93    5.95</time>
   <energy>
    <i name="e_fr_energy">    -72.73663387 </i>
    <i name="e_wo_entrp">    -72.73663387 </i>
    <i name="e_0_energy">    -72.73663387 </i>
   </energy>
  </scstep>
  <scstep>
   <time name="dav">    5.42    5.43</time>
   <time name="total">    5.79    5.80</time>
   <energy>
    <i name="e_fr_energy">    -82.39183662 </i>
    <i name="e_wo_entrp">    -82.39183662 </i>
    <i name="e_0_energy">    -82.39183662 </i>
   </energy>
  </scstep>
  <scstep>
   <time name="dav">    5.64    5.65</time>
   <time name="total">    6.01    7.60</time>
   <energy>
    <i name="e_fr_energy">    -85.54012596 </i>
    <i name="e_wo_entrp">    -85.54012596 </i>
    <i name="e_0_energy">    -85.54012596 </i>
   </energy>
  </scstep>
  <scstep>
   <time name="dav">    5.52    5.53</time>
   <time name="total">    5.89    5.90</time>
   <energy>
    <i name="e_fr_energy">    -91.57146895 </i>
    <i name="e_wo_entrp">    -91.57146895 </i>
    <i name="e_0_energy">    -91.57146895 </i>
   </energy>
  </scstep>
  <scstep>
   <time name="dav">    5.58    5.58</time>
   <time name="total">    5.95    5.96</time>
   <energy>
    <i name="e_fr_energy">    -93.08310767 </i>
    <i name="e_wo_entrp">    -93.08310767 </i>
    <i name="e_0_energy">    -93.08310767 </i>
   </energy>
  </scstep>
  <scstep>
   <time name="dav">    5.69    5.70</time>
   <time name="total">    6.06    6.08</time>
   <energy>
    <i name="e_fr_energy">    -93.49710498 </i>
    <i name="e_wo_entrp">    -93.49710498 </i>
    <i name="e_0_energy">    -93.49710498 </i>
   </energy>
  </scstep>
  <scstep>
   <time name="dav">    5.46    5.47</time>
   <time name="total">    5.84    5.87</time>
   <energy>
    <i name="e_fr_energy">    -95.32526659 </i>
    <i name="e_wo_entrp">    -95.32526659 </i>
    <i name="e_0_energy">    -95.32526659 </i>
   </energy>
  </scstep>
  <scstep>
   <time name="dav">    5.45    5.46</time>
   <time name="total">    5.82    5.83</time>
   <energy>
    <i name="e_fr_energy">    -97.77474096 </i>
    <i name="e_wo_entrp">    -97.77474096 </i>
    <i name="e_0_energy">    -97.77474096 </i>
   </energy>
  </scstep>
  <scstep>
   <time name="dav">    5.82    5.83</time>
   <time name="total">    6.19    6.21</time>
   <energy>
    <i name="e_fr_energy">    -98.05869909 </i>
    <i name="e_wo_entrp">    -98.05869909 </i>
    <i name="e_0_energy">    -98.05869909 </i>
   </energy>
  </scstep>
  <scstep>
   <time name="dav">    5.58    5.59</time>
   <time name="total">    5.95    9.04</time>
   <energy>
    <i name="e_fr_energy">    -98.85801308 </i>
    <i name="e_wo_entrp">    -98.85801308 </i>
    <i name="e_0_energy">    -98.85801308 </i>
   </energy>
  </scstep>
  <scstep>
   <time name="dav">    5.62    5.62</time>
   <time name="total">    5.99    6.15</time>
   <energy>
    <i name="e_fr_energy">    -99.26599729 </i>
    <i name="e_wo_entrp">    -99.26599729 </i>
    <i name="e_0_energy">    -99.26599729 </i>
   </energy>
  </scstep>
  <scstep>
   <time name="dav">    5.54    5.55</time>
   <time name="total">    5.91    5.92</time>
   <energy>
    <i name="e_fr_energy">   -100.31879184 </i>
    <i name="e_wo_entrp">   -100.31879184 </i>
    <i name="e_0_energy">   -100.31879184 </i>
   </energy>
  </scstep>
  <scstep>
   <time name="dav">    5.63    5.64</time>
   <time name="total">    6.01    6.10</time>
   <energy>
    <i name="e_fr_energy">   -100.79230965 </i>
    <i name="e_wo_entrp">   -100.79230965 </i>
    <i name="e_0_energy">   -100.79230965 </i>
   </energy>
  </scstep>
  <scstep>
   <time name="dav">    5.62    5.63</time>
   <time name="total">    6.00    6.04</time>
   <energy>
    <i name="e_fr_energy">   -100.97135176 </i>
    <i name="e_wo_entrp">   -100.97135176 </i>
    <i name="e_0_energy">   -100.97135176 </i>
   </energy>
  </scstep>
  <scstep>
   <time name="dav">    5.53    5.54</time>
   <time name="total">    5.90    5.91</time>
   <energy>
    <i name="e_fr_energy">   -101.07975350 </i>
    <i name="e_wo_entrp">   -101.07975350 </i>
    <i name="e_0_energy">   -101.07975350 </i>
   </energy>
  </scstep>
  <scstep>
   <time name="dav">    4.29    4.30</time>
   <time name="total">    4.67    4.69</time>
   <energy>
    <i name="e_fr_energy">   -101.10933826 </i>
    <i name="e_wo_entrp">   -101.10933826 </i>
    <i name="e_0_energy">   -101.10933826 </i>
   </energy>
  </scstep>
  <scstep>
   <time name="dav">    4.27    4.28</time>
   <time name="total">    4.65    4.66</time>
   <energy>
    <i name="e_fr_energy">   -101.11931743 </i>
    <i name="e_wo_entrp">   -101.11931743 </i>
    <i name="e_0_energy">   -101.11931743 </i>
   </energy>
  </scstep>
  <scstep>
   <time name="dav">    4.20    4.20</time>
   <time name="total">    4.58    4.60</time>
   <energy>
    <i name="e_fr_energy">   -101.13216589 </i>
    <i name="e_wo_entrp">   -101.13216589 </i>
    <i name="e_0_energy">   -101.13216589 </i>
   </energy>
  </scstep>
  <scstep>
   <time name="dav">    4.21    4.22</time>
   <time name="total">    4.59    4.62</time>
   <energy>
    <i name="e_fr_energy">   -101.13985704 </i>
    <i name="e_wo_entrp">   -101.13985704 </i>
    <i name="e_0_energy">   -101.13985704 </i>
   </energy>
  </scstep>
  <scstep>
   <time name="dav">    4.19    4.19</time>
   <time name="total">    4.57    4.64</time>
   <energy>
    <i name="e_fr_energy">   -101.14308023 </i>
    <i name="e_wo_entrp">   -101.14308023 </i>
    <i name="e_0_energy">   -101.14308023 </i>
   </energy>
  </scstep>
  <scstep>
   <time name="dav">    4.02    4.03</time>
   <time name="total">    4.40    4.48</time>
   <energy>
    <i name="e_fr_energy">   -101.14562160 </i>
    <i name="e_wo_entrp">   -101.14562160 </i>
    <i name="e_0_energy">   -101.14562160 </i>
   </energy>
  </scstep>
  <scstep>
   <time name="dav">    4.04    4.05</time>
   <time name="total">    4.42    4.46</time>
   <energy>
    <i name="e_fr_energy">   -101.14658156 </i>
    <i name="e_wo_entrp">   -101.14658156 </i>
    <i name="e_0_energy">   -101.14658156 </i>
   </energy>
  </scstep>
  <scstep>
   <time name="dav">    4.08    4.09</time>
   <time name="total">    4.46    6.64</time>
   <energy>
    <i name="e_fr_energy">   -101.14705472 </i>
    <i name="e_wo_entrp">   -101.14705472 </i>
    <i name="e_0_energy">   -101.14705472 </i>
   </energy>
  </scstep>
  <scstep>
   <time name="dav">    3.96    3.96</time>
   <time name="total">    4.33    4.36</time>
   <energy>
    <i name="e_fr_energy">   -101.14718030 </i>
    <i name="e_wo_entrp">   -101.14718030 </i>
    <i name="e_0_energy">   -101.14718030 </i>
   </energy>
  </scstep>
  <scstep>
   <time name="dav">    3.92    3.93</time>
   <time name="total">    4.15    4.79</time>
   <energy>
    <i name="alphaZ">    156.19171877 </i>
    <i name="ewald"> 132472.69518600 </i>
    <i name="hartreedc">-179321.40377575 </i>
    <i name="XCdc">   -532.24898969 </i>
    <i name="pawpsdc">  50775.93761935 </i>
    <i name="pawaedc"> -48694.29505155 </i>
    <i name="eentropy">     -0.00000000 </i>
    <i name="bandstr">  -3706.35959330 </i>
    <i name="atom">  48748.33561406 </i>
    <i name="e_fr_energy">   -101.14727211 </i>
    <i name="e_wo_entrp">   -101.14727211 </i>
    <i name="e_0_energy">   -101.14727211 </i>
   </energy>
  </scstep>
  <structure>
   <crystal>
    <varray name="basis" >
     <v>      22.91310600       0.00000000       0.00000000 </v>
     <v>       0.00000000      22.91310600       0.00000000 </v>
     <v>       0.00000000       0.00000000      22.91310600 </v>
    </varray>
    <i name="volume">  12029.61955504 </i>
    <varray name="rec_basis" >
     <v>       0.04364314       0.00000000       0.00000000 </v>
     <v>       0.00000000       0.04364314       0.00000000 </v>
     <v>       0.00000000       0.00000000       0.04364314 </v>
    </varray>
   </crystal>
   <varray name="positions" >
    <v>       0.64724522       0.43948910       0.46909466 </v>
    <v>       0.54390431       0.47473735       0.41162791 </v>
    <v>       0.55303359       0.44700737       0.66791821 </v>
    <v>       0.26846121       0.54358267       0.42402643 </v>
    <v>       0.61482695       0.54046299       0.62558118 </v>
    <v>       0.65556445       0.42738049       0.59176116 </v>
    <v>       0.49289937       0.56124955       0.48557316 </v>
    <v>       0.48755840       0.36088772       0.59359788 </v>
    <v>       0.43336506       0.64632613       0.56353454 </v>
    <v>       0.70636468       0.52981545       0.40919141 </v>
    <v>       0.32464246       0.43650313       0.60061803 </v>
    <v>       0.37581252       0.34547107       0.52771415 </v>
    <v>       0.36971037       0.56694566       0.48927482 </v>
    <v>       0.48074740       0.56950687       0.35406560 </v>
    <v>       0.66939434       0.64473100       0.39621305 </v>
    <v>       0.31587536       0.45249877       0.35469378 </v>
    <v>       0.47458563       0.38340819       0.34681503 </v>
    <v>       0.35887814       0.58497002       0.34887792 </v>
    <v>       0.54943052       0.46303876       0.54020326 </v>
    <v>       0.60386566       0.56555596       0.33306649 </v>
    <v>       0.41158134       0.49062005       0.29036079 </v>
    <v>       0.42238450       0.47776304       0.41451783 </v>
    <v>       0.36891556       0.55324367       0.62917435 </v>
    <v>       0.26915460       0.53468033       0.55136918 </v>
    <v>       0.58506432       0.35204711       0.40410892 </v>
    <v>       0.61571459       0.56855939       0.48186486 </v>
    <v>       0.71252788       0.51989687       0.53761132 </v>
    <v>       0.55586585       0.63347925       0.56829419 </v>
    <v>       0.32345021       0.44671701       0.47898937 </v>
    <v>       0.62953350       0.70970631       0.49316920 </v>
    <v>       0.31486942       0.64681535       0.56862765 </v>
    <v>       0.55007947       0.64667603       0.41251545 </v>
    <v>       0.67696682       0.63106743       0.57408828 </v>
    <v>       0.49066262       0.54455922       0.61679702 </v>
    <v>       0.30831757       0.65965140       0.43316847 </v>
    <v>       0.53542987       0.47976994       0.28312773 </v>
    <v>       0.42661507       0.45277512       0.67139889 </v>
    <v>       0.50627458       0.72373840       0.50014128 </v>
    <v>       0.59228704       0.34102875       0.52324146 </v>
    <v>       0.59719120       0.33355056       0.64593407 </v>
    <v>       0.36989717       0.35491700       0.40444157 </v>
    <v>       0.64372677       0.44718347       0.34462164 </v>
    <v>       0.42838021       0.65953071       0.42819142 </v>
    <v>       0.38197034       0.33888414       0.65019703 </v>
    <v>       0.42882521       0.46521364       0.54406166 </v>
    <v>       0.48213289       0.37641228       0.47010862 </v>
    <v>       0.57766337       0.36356266       0.28163527 </v>
   </varray>
  </structure>
  <varray name="forces" >
   <v>       0.34231710      -0.01405872      -0.09093774 </v>
   <v>       0.20124547       0.11954036      -0.09087823 </v>
   <v>      -0.15786932      -0.25212546      -0.17957033 </v>
   <v>      -0.10546545      -0.05266046       0.03365411 </v>
   <v>       0.11893807       0.02238277      -0.37420681 </v>
   <v>      -0.07812860      -0.22477302       0.21859695 </v>
   <v>      -0.21164621       0.02060508       0.03304947 </v>
   <v>       0.09315584       0.12941091       0.09684799 </v>
   <v>       0.24978476      -0.20709877       0.00336953 </v>
   <v>       0.07595509      -0.00434070       0.01993501 </v>
   <v>      -0.11813472      -0.13937318       0.22917911 </v>
   <v>       0.18896569       0.16671030       0.25479990 </v>
   <v>      -0.08915960      -0.00553141       0.08505553 </v>
   <v>       0.02829291      -0.03050818      -0.17873891 </v>
   <v>       0.13480611       0.16616592       0.14325578 </v>
   <v>      -0.09173026       0.22908707       0.07668111 </v>
   <v>       0.19377386       0.22919649      -0.21914021 </v>
   <v>       0.06884572      -0.14815198       0.36181619 </v>
   <v>       0.16734195       0.04838404       0.06402821 </v>
   <v>      -0.01254290      -0.09605477       0.35275301 </v>
   <v>       0.18732429      -0.09403096      -0.01645391 </v>
   <v>      -0.18432868      -0.10427149      -0.08985820 </v>
   <v>      -0.05133060       0.01692490      -0.45773681 </v>
   <v>      -0.06916323      -0.11771626       0.03536561 </v>
   <v>      -0.05333150       0.16245232      -0.34500113 </v>
   <v>       0.19845499      -0.22428427      -0.00625482 </v>
   <v>       0.02508248       0.06780866       0.00766744 </v>
   <v>      -0.00021272       0.41070507      -0.08683499 </v>
   <v>      -0.44918896      -0.05790556      -0.09076751 </v>
   <v>      -0.21590735      -0.30626916      -0.07541151 </v>
   <v>      -0.20890707      -0.01608048      -0.15159726 </v>
   <v>       0.04623320       0.47026748       0.09642938 </v>
   <v>       0.12294926       0.09504417      -0.01418750 </v>
   <v>       0.05193829      -0.06763294       0.20097247 </v>
   <v>      -0.14941577      -0.09584604       0.09702095 </v>
   <v>      -0.08279881      -0.25223611       0.10908681 </v>
   <v>       0.09427982      -0.13310782      -0.13143529 </v>
   <v>       0.03160373      -0.13644603      -0.05073278 </v>
   <v>      -0.17525576       0.16002003       0.35140361 </v>
   <v>      -0.07887976       0.11699534      -0.15216313 </v>
   <v>       0.19651618       0.27329145       0.15695464 </v>
   <v>      -0.09732428      -0.18678863      -0.14678836 </v>
   <v>       0.21324935      -0.21306210      -0.06592186 </v>
   <v>      -0.07012001       0.14620015      -0.05695903 </v>
   <v>      -0.13862301       0.01261901      -0.01468620 </v>
   <v>      -0.06158623      -0.02137805      -0.05353839 </v>
   <v>      -0.08000337       0.13792105       0.11187809 </v>
  </varray>
  <varray name="stress" >
   <v>      -1.62866519       0.09603922      -0.19135617 </v>
   <v>       0.09603922      -2.75862794      -0.12164506 </v>
   <v>      -0.19135616      -0.12164505      -2.83559753 </v>
  </varray>
  <energy>
   <i name="e_fr_energy">   -101.14727211 </i>
   <i name="e_wo_entrp">   -101.14727211 </i>
   <i name="e_0_energy">     -0.00000000 </i>
  </energy>
  <time name="totalsc">  211.74  222.04</time>
 </calculation>
 <calculation>
  <scstep>
   <time name="dav">    5.46    5.47</time>
   <time name="total">    5.84    5.91</time>
   <energy>
    <i name="alphaZ">    156.19171877 </i>
    <i name="ewald"> 132492.94247813 </i>
    <i name="hartreedc">-179341.61023230 </i>
    <i name="XCdc">   -532.22101098 </i>
    <i name="pawpsdc">  50775.95906419 </i>
    <i name="pawaedc"> -48694.31657846 </i>
    <i name="eentropy">     -0.00000000 </i>
    <i name="bandstr">  -3706.46441528 </i>
    <i name="atom">  48748.33561406 </i>
    <i name="e_fr_energy">   -101.18336186 </i>
    <i name="e_wo_entrp">   -101.18336186 </i>
    <i name="e_0_energy">   -101.18336186 </i>
   </energy>
  </scstep>
  <scstep>
   <time name="dav">    5.49    5.50</time>
   <time name="total">    5.86    5.87</time>
   <energy>
    <i name="e_fr_energy">   -101.18440841 </i>
    <i name="e_wo_entrp">   -101.18440841 </i>
    <i name="e_0_energy">   -101.18440841 </i>
   </energy>
  </scstep>
  <scstep>
   <time name="dav">    4.59    4.60</time>
   <time name="total">    4.82    4.84</time>
   <energy>
    <i name="alphaZ">    156.19171877 </i>
    <i name="ewald"> 132492.94247813 </i>
    <i name="hartreedc">-179341.56085751 </i>
    <i name="XCdc">   -532.22813722 </i>
    <i name="pawpsdc">  50777.63881152 </i>
    <i name="pawaedc"> -48696.02062464 </i>
    <i name="eentropy">     -0.00000000 </i>
    <i name="bandstr">  -3706.48339200 </i>
    <i name="atom">  48748.33561406 </i>
    <i name="e_fr_energy">   -101.18438890 </i>
    <i name="e_wo_entrp">   -101.18438890 </i>
    <i name="e_0_energy">   -101.18438890 </i>
   </energy>
  </scstep>
  <structure>
   <crystal>
    <varray name="basis" >
     <v>      22.91310600       0.00000000       0.00000000 </v>
     <v>       0.00000000      22.91310600       0.00000000 </v>
     <v>       0.00000000       0.00000000      22.91310600 </v>
    </varray>
    <i name="volume">  12029.61955504 </i>
    <varray name="rec_basis" >
     <v>       0.04364314       0.00000000       0.00000000 </v>
     <v>       0.00000000       0.04364314       0.00000000 </v>
     <v>       0.00000000       0.00000000       0.04364314 </v>
    </varray>
   </crystal>
   <varray name="positions" >
    <v>       0.64738937       0.43948318       0.46905637 </v>
    <v>       0.54398905       0.47478768       0.41158964 </v>
    <v>       0.55296711       0.44690121       0.66784259 </v>
    <v>       0.26841680       0.54356049       0.42404061 </v>
    <v>       0.61487704       0.54047241       0.62542361 </v>
    <v>       0.65553155       0.42728584       0.59185321 </v>
    <v>       0.49281024       0.56125823       0.48558707 </v>
    <v>       0.48759762       0.36094221       0.59363866 </v>
    <v>       0.43347024       0.64623893       0.56353596 </v>
    <v>       0.70639666       0.52981362       0.40919981 </v>
    <v>       0.32459271       0.43644445       0.60071454 </v>
    <v>       0.37589209       0.34554127       0.52782145 </v>
    <v>       0.36967283       0.56694333       0.48931064 </v>
    <v>       0.48075931       0.56949402       0.35399034 </v>
    <v>       0.66945110       0.64480097       0.39627338 </v>
    <v>       0.31583673       0.45259524       0.35472607 </v>
    <v>       0.47466723       0.38350470       0.34672275 </v>
    <v>       0.35890713       0.58490763       0.34903028 </v>
    <v>       0.54950098       0.46305913       0.54023022 </v>
    <v>       0.60386038       0.56551551       0.33321503 </v>
    <v>       0.41166022       0.49058046       0.29035387 </v>
    <v>       0.42230688       0.47771913       0.41447999 </v>
    <v>       0.36889394       0.55325079       0.62898160 </v>
    <v>       0.26912548       0.53463076       0.55138407 </v>
    <v>       0.58504187       0.35211552       0.40396364 </v>
    <v>       0.61579815       0.56846495       0.48186223 </v>
    <v>       0.71253844       0.51992542       0.53761455 </v>
    <v>       0.55586576       0.63365219       0.56825763 </v>
    <v>       0.32326106       0.44669262       0.47895114 </v>
    <v>       0.62944258       0.70957734       0.49313744 </v>
    <v>       0.31478145       0.64680858       0.56856382 </v>
    <v>       0.55009894       0.64687406       0.41255606 </v>
    <v>       0.67701859       0.63110746       0.57408230 </v>
    <v>       0.49068449       0.54453074       0.61688164 </v>
    <v>       0.30825465       0.65961104       0.43320933 </v>
    <v>       0.53539500       0.47966373       0.28317367 </v>
    <v>       0.42665477       0.45271907       0.67134355 </v>
    <v>       0.50628789       0.72368095       0.50011992 </v>
    <v>       0.59221324       0.34109613       0.52338943 </v>
    <v>       0.59715799       0.33359983       0.64587000 </v>
    <v>       0.36997992       0.35503208       0.40450766 </v>
    <v>       0.64368579       0.44710481       0.34455983 </v>
    <v>       0.42847001       0.65944100       0.42816366 </v>
    <v>       0.38194082       0.33894571       0.65017305 </v>
    <v>       0.42876684       0.46521896       0.54405548 </v>
    <v>       0.48210696       0.37640328       0.47008608 </v>
    <v>       0.57762968       0.36362074       0.28168238 </v>
   </varray>
  </structure>
  <varray name="forces" >
   <v>       0.32652237      -0.02184456      -0.08260145 </v>
   <v>       0.18591315       0.11924420      -0.07686799 </v>
   <v>      -0.15178166      -0.23551119      -0.17473661 </v>
   <v>      -0.11018812      -0.05012925       0.03392942 </v>
   <v>       0.10881537       0.01759551      -0.36925290 </v>
   <v>      -0.05927998      -0.20682600       0.20166429 </v>
   <v>      -0.18899455       0.01553111       0.02944731 </v>
   <v>       0.08210889       0.12897297       0.09284149 </v>
   <v>       0.22752705      -0.19877851       0.00761591 </v>
   <v>       0.07436760      -0.00687491       0.01182581 </v>
   <v>      -0.11914157      -0.12913438       0.21476807 </v>
   <v>       0.17922295       0.16392213       0.24056124 </v>
   <v>      -0.08877692      -0.00874216       0.08288830 </v>
   <v>       0.03578965      -0.01922152      -0.16637845 </v>
   <v>       0.12839829       0.15278988       0.13589999 </v>
   <v>      -0.09124661       0.22187631       0.06816662 </v>
   <v>       0.17713075       0.22500541      -0.20361507 </v>
   <v>       0.07054056      -0.14825540       0.34966908 </v>
   <v>       0.15606851       0.05099364       0.05150778 </v>
   <v>      -0.01360555      -0.09096808       0.34543021 </v>
   <v>       0.17423296      -0.09243315      -0.01826684 </v>
   <v>      -0.16950334      -0.09996682      -0.08142004 </v>
   <v>      -0.04930533       0.01378880      -0.44765681 </v>
   <v>      -0.06955409      -0.11541631       0.03727904 </v>
   <v>      -0.05095003       0.15566175      -0.30686273 </v>
   <v>       0.17326517      -0.20819342      -0.00510207 </v>
   <v>       0.02766720       0.05527703       0.01654490 </v>
   <v>       0.00299738       0.37973341      -0.07831321 </v>
   <v>      -0.42991862      -0.05908664      -0.07664420 </v>
   <v>      -0.20368091      -0.28898094      -0.07054086 </v>
   <v>      -0.19578372      -0.01656427      -0.14816283 </v>
   <v>       0.04671402       0.43438873       0.08353089 </v>
   <v>       0.11900602       0.09117788      -0.01401768 </v>
   <v>       0.05687741      -0.05651055       0.18708092 </v>
   <v>      -0.13849086      -0.09471762       0.09938607 </v>
   <v>      -0.07673309      -0.23228331       0.10512501 </v>
   <v>       0.09111439      -0.12857678      -0.12574324 </v>
   <v>       0.02304587      -0.12120481      -0.04567937 </v>
   <v>      -0.17160123       0.15829134       0.30961298 </v>
   <v>      -0.07629844       0.10334678      -0.13178728 </v>
   <v>       0.19310621       0.26791685       0.15152146 </v>
   <v>      -0.07911659      -0.17347208      -0.13875136 </v>
   <v>       0.19779987      -0.20845379      -0.06623176 </v>
   <v>      -0.06792885       0.13948956      -0.04620533 </v>
   <v>      -0.13186635       0.01250605      -0.01995492 </v>
   <v>      -0.05274335      -0.01679979      -0.05384829 </v>
   <v>      -0.07174192       0.12143693       0.09234451 </v>
  </varray>
  <varray name="stress" >
   <v>      -1.63043649       0.08595190      -0.19617645 </v>
   <v>       0.08595190      -2.75640290      -0.11633980 </v>
   <v>      -0.19617645      -0.11633980      -2.83167363 </v>
  </varray>
  <energy>
   <i name="e_fr_energy">   -101.18438890 </i>
   <i name="e_wo_entrp">   -101.18438890 </i>
   <i name="e_0_energy">     -0.00000000 </i>
  </energy>
  <time name="totalsc">   27.09   28.37</time>
 </calculation>
 <calculation>
  <scstep>
   <time name="dav">    5.46    5.46</time>
   <time name="total">    5.83    5.84</time>
   <energy>
    <i name="alphaZ">    156.19171877 </i>
    <i name="ewald"> 132553.99111864 </i>
    <i name="hartreedc">-179402.40278227 </i>
    <i name="XCdc">   -532.13931758 </i>
    <i name="pawpsdc">  50777.73290007 </i>
    <i name="pawaedc"> -48696.12470655 </i>
    <i name="eentropy">     -0.00000000 </i>
    <i name="bandstr">  -3706.86139168 </i>
    <i name="atom">  48748.33561406 </i>
    <i name="e_fr_energy">   -101.27684656 </i>
    <i name="e_wo_entrp">   -101.27684656 </i>
    <i name="e_0_energy">   -101.27684656 </i>
   </energy>
  </scstep>
  <scstep>
   <time name="dav">    5.58    5.58</time>
   <time name="total">    5.94    6.75</time>
   <energy>
    <i name="e_fr_energy">   -101.28677817 </i>
    <i name="e_wo_entrp">   -101.28677817 </i>
    <i name="e_0_energy">   -101.28677817 </i>
   </energy>
  </scstep>
  <scstep>
   <time name="dav">    5.78    5.79</time>
   <time name="total">    6.15    6.16</time>
   <energy>
    <i name="e_fr_energy">   -101.28646196 </i>
    <i name="e_wo_entrp">   -101.28646196 </i>
    <i name="e_0_energy">   -101.28646196 </i>
   </energy>
  </scstep>
  <scstep>
   <time name="dav">    5.52    5.53</time>
   <time name="total">    5.90    5.91</time>
   <energy>
    <i name="e_fr_energy">   -101.28609205 </i>
    <i name="e_wo_entrp">   -101.28609205 </i>
    <i name="e_0_energy">   -101.28609205 </i>
   </energy>
  </scstep>
  <scstep>
   <time name="dav">    4.15    4.16</time>
   <time name="total">    4.52    4.53</time>
   <energy>
    <i name="e_fr_energy">   -101.28619577 </i>
    <i name="e_wo_entrp">   -101.28619577 </i>
    <i name="e_0_energy">   -101.28619577 </i>
   </energy>
  </scstep>
  <scstep>
   <time name="dav">    4.12    4.13</time>
   <time name="total">    4.49    4.50</time>
   <energy>
    <i name="e_fr_energy">   -101.28634335 </i>
    <i name="e_wo_entrp">   -101.28634335 </i>
    <i name="e_0_energy">   -101.28634335 </i>
   </energy>
  </scstep>
  <scstep>
   <time name="dav">    4.03    4.03</time>
   <time name="total">    4.40    4.44</time>
   <energy>
    <i name="e_fr_energy">   -101.28652548 </i>
    <i name="e_wo_entrp">   -101.28652548 </i>
    <i name="e_0_energy">   -101.28652548 </i>
   </energy>
  </scstep>
  <scstep>
   <time name="dav">    4.07    4.07</time>
   <time name="total">    4.29    4.30</time>
   <energy>
    <i name="alphaZ">    156.19171877 </i>
    <i name="ewald"> 132553.99111864 </i>
    <i name="hartreedc">-179402.03150339 </i>
    <i name="XCdc">   -532.16507230 </i>
    <i name="pawpsdc">  50784.32678842 </i>
    <i name="pawaedc"> -48702.88330212 </i>
    <i name="eentropy">      0.00000000 </i>
    <i name="bandstr">  -3707.05198207 </i>
    <i name="atom">  48748.33561406 </i>
    <i name="e_fr_energy">   -101.28661999 </i>
    <i name="e_wo_entrp">   -101.28661999 </i>
    <i name="e_0_energy">   -101.28661999 </i>
   </energy>
  </scstep>
  <structure>
   <crystal>
    <varray name="basis" >
     <v>      22.91310600       0.00000000       0.00000000 </v>
     <v>       0.00000000      22.91310600       0.00000000 </v>
     <v>       0.00000000       0.00000000      22.91310600 </v>
    </varray>
    <i name="volume">  12029.61955504 </i>
    <varray name="rec_basis" >
     <v>       0.04364314       0.00000000       0.00000000 </v>
     <v>       0.00000000       0.04364314       0.00000000 </v>
     <v>       0.00000000       0.00000000       0.04364314 </v>
    </varray>
   </crystal>
   <varray name="positions" >
    <v>       0.64782181       0.43946542       0.46894149 </v>
    <v>       0.54424328       0.47493870       0.41147484 </v>
    <v>       0.55276768       0.44658270       0.66761574 </v>
    <v>       0.26828357       0.54349397       0.42408312 </v>
    <v>       0.61502729       0.54050069       0.62495088 </v>
    <v>       0.65543285       0.42700189       0.59212936 </v>
    <v>       0.49254288       0.56128426       0.48562882 </v>
    <v>       0.48771530       0.36110569       0.59376101 </v>
    <v>       0.43378579       0.64597730       0.56354021 </v>
    <v>       0.70649261       0.52980814       0.40922499 </v>
    <v>       0.32444347       0.43626838       0.60100405 </v>
    <v>       0.37613081       0.34575187       0.52814333 </v>
    <v>       0.36956019       0.56693635       0.48941809 </v>
    <v>       0.48079506       0.56945548       0.35376454 </v>
    <v>       0.66962140       0.64501088       0.39645435 </v>
    <v>       0.31572085       0.45288464       0.35482294 </v>
    <v>       0.47491202       0.38379424       0.34644591 </v>
    <v>       0.35899410       0.58472047       0.34948736 </v>
    <v>       0.54971238       0.46312025       0.54031110 </v>
    <v>       0.60384454       0.56539417       0.33366065 </v>
    <v>       0.41189686       0.49046167       0.29033308 </v>
    <v>       0.42207402       0.47758741       0.41436647 </v>
    <v>       0.36882910       0.55327218       0.62840335 </v>
    <v>       0.26903811       0.53448205       0.55142874 </v>
    <v>       0.58497449       0.35232074       0.40352781 </v>
    <v>       0.61604886       0.56818161       0.48185433 </v>
    <v>       0.71257013       0.52001109       0.53762423 </v>
    <v>       0.55586549       0.63417103       0.56814793 </v>
    <v>       0.32269361       0.44661947       0.47883648 </v>
    <v>       0.62916983       0.70919044       0.49304218 </v>
    <v>       0.31451754       0.64678826       0.56837231 </v>
    <v>       0.55015735       0.64746814       0.41267787 </v>
    <v>       0.67717391       0.63122752       0.57406438 </v>
    <v>       0.49075010       0.54444530       0.61713553 </v>
    <v>       0.30806590       0.65948996       0.43333189 </v>
    <v>       0.53529040       0.47934508       0.28331147 </v>
    <v>       0.42677388       0.45255091       0.67117751 </v>
    <v>       0.50632781       0.72350858       0.50005583 </v>
    <v>       0.59199184       0.34129828       0.52383335 </v>
    <v>       0.59705834       0.33374762       0.64567777 </v>
    <v>       0.37022818       0.35537733       0.40470594 </v>
    <v>       0.64356284       0.44686885       0.34437439 </v>
    <v>       0.42873940       0.65917184       0.42808039 </v>
    <v>       0.38185224       0.33913040       0.65010109 </v>
    <v>       0.42859172       0.46523490       0.54403692 </v>
    <v>       0.48202916       0.37637627       0.47001844 </v>
    <v>       0.57752861       0.36379497       0.28182371 </v>
   </varray>
  </structure>
  <varray name="forces" >
   <v>       0.30201781      -0.04208788      -0.06698923 </v>
   <v>       0.15691160       0.12963281      -0.04250013 </v>
   <v>      -0.14310077      -0.20291471      -0.17041740 </v>
   <v>      -0.12765881      -0.04788355       0.03770409 </v>
   <v>       0.09048336       0.00659124      -0.37540126 </v>
   <v>      -0.01378674      -0.16991771       0.17028494 </v>
   <v>      -0.13833522       0.00131378       0.02027424 </v>
   <v>       0.05564663       0.13283720       0.08867447 </v>
   <v>       0.18233699      -0.18877798       0.01897738 </v>
   <v>       0.07451059      -0.01199180      -0.00756613 </v>
   <v>      -0.12887644      -0.10878402       0.18790322 </v>
   <v>       0.16526448       0.16579724       0.21686296 </v>
   <v>      -0.09196119      -0.01728338       0.08032727 </v>
   <v>       0.05860716       0.00652728      -0.13939517 </v>
   <v>       0.11858600       0.12521698       0.12154723 </v>
   <v>      -0.09480889       0.21532493       0.05017586 </v>
   <v>       0.14077978       0.22864709      -0.17283566 </v>
   <v>       0.07864553      -0.15734907       0.34473815 </v>
   <v>       0.13637427       0.06400193       0.01967075 </v>
   <v>      -0.01648949      -0.08159001       0.34830050 </v>
   <v>       0.15023636      -0.09571595      -0.02185211 </v>
   <v>      -0.14076289      -0.09347114      -0.06175619 </v>
   <v>      -0.04504777       0.00588856      -0.44962208 </v>
   <v>      -0.07499129      -0.11806331       0.04282237 </v>
   <v>      -0.05038835       0.14555600      -0.22340318 </v>
   <v>       0.11624099      -0.17802280      -0.00211909 </v>
   <v>       0.03624487       0.02665107       0.04069280 </v>
   <v>       0.01578037       0.31430554      -0.05938794 </v>
   <v>      -0.40246524      -0.06489374      -0.04502699 </v>
   <v>      -0.18481584      -0.25984120      -0.06119724 </v>
   <v>      -0.17268231      -0.01682602      -0.15005726 </v>
   <v>       0.05114425       0.36286662       0.05126358 </v>
   <v>       0.11487175       0.08626866      -0.01468867 </v>
   <v>       0.07241097      -0.03055401       0.16155982 </v>
   <v>      -0.11828377      -0.09475889       0.11055094 </v>
   <v>      -0.06728371      -0.19263975       0.09962519 </v>
   <v>       0.08739571      -0.12374073      -0.11960770 </v>
   <v>       0.00269052      -0.08575852      -0.03581424 </v>
   <v>      -0.17161760       0.16197444       0.21696546 </v>
   <v>      -0.07291503       0.06802688      -0.08449148 </v>
   <v>       0.19433430       0.26834636       0.14678848 </v>
   <v>      -0.03508438      -0.14619708      -0.12620393 </v>
   <v>       0.16675486      -0.20761759      -0.07251658 </v>
   <v>      -0.06694261       0.12813007      -0.02192880 </v>
   <v>      -0.12289627       0.01392011      -0.03551742 </v>
   <v>      -0.03256610      -0.00561298      -0.05988655 </v>
   <v>      -0.05450845       0.08446902       0.04447273 </v>
  </varray>
  <varray name="stress" >
   <v>      -1.63316432       0.06599731      -0.20652679 </v>
   <v>       0.06599731      -2.74668367      -0.10777142 </v>
   <v>      -0.20652680      -0.10777143      -2.81455028 </v>
  </varray>
  <energy>
   <i name="e_fr_energy">   -101.28661999 </i>
   <i name="e_wo_entrp">   -101.28661999 </i>
   <i name="e_0_energy">      0.00000000 </i>
  </energy>
  <time name="totalsc">   52.12   55.96</time>
 </calculation>
 <calculation>
  <scstep>
   <time name="dav">    5.41    5.42</time>
   <time name="total">    5.78    5.80</time>
   <energy>
    <i name="alphaZ">    156.19171877 </i>
    <i name="ewald"> 132677.46991598 </i>
    <i name="hartreedc">-179525.01108886 </i>
    <i name="XCdc">   -531.96469316 </i>
    <i name="pawpsdc">  50784.20665556 </i>
    <i name="pawaedc"> -48702.76256508 </i>
    <i name="eentropy">      0.00000000 </i>
    <i name="bandstr">  -3707.87550273 </i>
    <i name="atom">  48748.33561406 </i>
    <i name="e_fr_energy">   -101.40994546 </i>
    <i name="e_wo_entrp">   -101.40994546 </i>
    <i name="e_0_energy">   -101.40994546 </i>
   </energy>
  </scstep>
  <scstep>
   <time name="dav">    5.51    5.51</time>
   <time name="total">    5.88    5.89</time>
   <energy>
    <i name="e_fr_energy">   -101.45245844 </i>
    <i name="e_wo_entrp">   -101.45245844 </i>
    <i name="e_0_energy">   -101.45245844 </i>
   </energy>
  </scstep>
  <scstep>
   <time name="dav">    5.65    5.66</time>
   <time name="total">    6.02    6.73</time>
   <energy>
    <i name="e_fr_energy">   -101.45178187 </i>
    <i name="e_wo_entrp">   -101.45178187 </i>
    <i name="e_0_energy">   -101.45178187 </i>
   </energy>
  </scstep>
  <scstep>
   <time name="dav">    5.52    5.52</time>
   <time name="total">    5.89    5.90</time>
   <energy>
    <i name="e_fr_energy">   -101.45069276 </i>
    <i name="e_wo_entrp">   -101.45069276 </i>
    <i name="e_0_energy">   -101.45069276 </i>
   </energy>
  </scstep>
  <scstep>
   <time name="dav">    5.52    5.53</time>
   <time name="total">    5.75    6.55</time>
   <energy>
    <i name="alphaZ">    156.19171877 </i>
    <i name="ewald"> 132677.46991598 </i>
    <i name="hartreedc">-179523.72997962 </i>
    <i name="XCdc">   -532.01616009 </i>
    <i name="pawpsdc">  50803.86258957 </i>
    <i name="pawaedc"> -48722.79649449 </i>
    <i name="eentropy">      0.00000000 </i>
    <i name="bandstr">  -3708.76799413 </i>
    <i name="atom">  48748.33561406 </i>
    <i name="e_fr_energy">   -101.45078996 </i>
    <i name="e_wo_entrp">   -101.45078996 </i>
    <i name="e_0_energy">   -101.45078996 </i>
   </energy>
  </scstep>
  <structure>
   <crystal>
    <varray name="basis" >
     <v>      22.91310600       0.00000000       0.00000000 </v>
     <v>       0.00000000      22.91310600       0.00000000 </v>
     <v>       0.00000000       0.00000000      22.91310600 </v>
    </varray>
    <i name="volume">  12029.61955504 </i>
    <varray name="rec_basis" >
     <v>       0.04364314       0.00000000       0.00000000 </v>
     <v>       0.00000000       0.04364314       0.00000000 </v>
     <v>       0.00000000       0.00000000       0.04364314 </v>
    </varray>
   </crystal>
   <varray name="positions" >
    <v>       0.64868669       0.43942990       0.46871173 </v>
    <v>       0.54475174       0.47524072       0.41124523 </v>
    <v>       0.55236881       0.44594569       0.66716205 </v>
    <v>       0.26801710       0.54336092       0.42416815 </v>
    <v>       0.61532779       0.54055724       0.62400543 </v>
    <v>       0.65523546       0.42643399       0.59268166 </v>
    <v>       0.49200814       0.56133632       0.48571233 </v>
    <v>       0.48795067       0.36143266       0.59400570 </v>
    <v>       0.43441688       0.64545406       0.56354873 </v>
    <v>       0.70668452       0.52979717       0.40927536 </v>
    <v>       0.32414500       0.43591624       0.60158309 </v>
    <v>       0.37660824       0.34617307       0.52878710 </v>
    <v>       0.36933493       0.56692237       0.48963298 </v>
    <v>       0.48086654       0.56937840       0.35331295 </v>
    <v>       0.66996200       0.64543071       0.39681629 </v>
    <v>       0.31548909       0.45346344       0.35501668 </v>
    <v>       0.47540160       0.38437332       0.34589224 </v>
    <v>       0.35916804       0.58434616       0.35040150 </v>
    <v>       0.55013518       0.46324250       0.54047287 </v>
    <v>       0.60381285       0.56515148       0.33455190 </v>
    <v>       0.41237015       0.49022409       0.29029151 </v>
    <v>       0.42160831       0.47732396       0.41413944 </v>
    <v>       0.36869941       0.55331494       0.62724686 </v>
    <v>       0.26886336       0.53418464       0.55151810 </v>
    <v>       0.58483975       0.35273118       0.40265614 </v>
    <v>       0.61655026       0.56761495       0.48183852 </v>
    <v>       0.71263350       0.52018241       0.53764361 </v>
    <v>       0.55586496       0.63520869       0.56792854 </v>
    <v>       0.32155871       0.44647317       0.47860715 </v>
    <v>       0.62862433       0.70841663       0.49285165 </v>
    <v>       0.31398973       0.64674764       0.56798929 </v>
    <v>       0.55027416       0.64865629       0.41292151 </v>
    <v>       0.67748455       0.63146766       0.57402853 </v>
    <v>       0.49088133       0.54427442       0.61764330 </v>
    <v>       0.30768839       0.65924779       0.43357702 </v>
    <v>       0.53508121       0.47870780       0.28358709 </v>
    <v>       0.42701208       0.45221461       0.67084543 </v>
    <v>       0.50640766       0.72316384       0.49992765 </v>
    <v>       0.59154905       0.34170258       0.52472119 </v>
    <v>       0.59685905       0.33404322       0.64529332 </v>
    <v>       0.37072469       0.35606781       0.40510249 </v>
    <v>       0.64331695       0.44639691       0.34400353 </v>
    <v>       0.42927819       0.65863353       0.42791383 </v>
    <v>       0.38167507       0.33949978       0.64995718 </v>
    <v>       0.42824148       0.46526678       0.54399982 </v>
    <v>       0.48187356       0.37632226       0.46988317 </v>
    <v>       0.57732648       0.36414343       0.28210638 </v>
   </varray>
  </structure>
  <varray name="forces" >
   <v>       0.24123335      -0.08305848      -0.03567037 </v>
   <v>       0.09807227       0.14411526       0.03223953 </v>
   <v>      -0.11171999      -0.11792864      -0.14904516 </v>
   <v>      -0.15664256      -0.03268257       0.04422079 </v>
   <v>       0.04809568      -0.01962379      -0.36079785 </v>
   <v>       0.07013224      -0.08161815       0.10821792 </v>
   <v>      -0.03152632      -0.03256431      -0.00032400 </v>
   <v>      -0.00572589       0.12556267       0.07808943 </v>
   <v>       0.08105399      -0.16385221       0.03937081 </v>
   <v>       0.07738664      -0.01561337      -0.04503266 </v>
   <v>      -0.14346264      -0.05907912       0.12884050 </v>
   <v>       0.13512853       0.16077602       0.15889473 </v>
   <v>      -0.09576113      -0.03034683       0.06577220 </v>
   <v>       0.10229830       0.04910150      -0.07879196 </v>
   <v>       0.09967044       0.06902387       0.08454704 </v>
   <v>      -0.09417696       0.18867797       0.00810646 </v>
   <v>       0.05299885       0.21711388      -0.10536027 </v>
   <v>       0.08360829      -0.16873663       0.33062766 </v>
   <v>       0.09390967       0.09046554      -0.04397819 </v>
   <v>      -0.01886001      -0.06073333       0.34396331 </v>
   <v>       0.09323722      -0.09893873      -0.02520024 </v>
   <v>      -0.08229714      -0.07094446      -0.01707740 </v>
   <v>      -0.02456985      -0.01847280      -0.43467783 </v>
   <v>      -0.08642557      -0.12312469       0.04803683 </v>
   <v>      -0.04802992       0.11215242      -0.04275638 </v>
   <v>       0.00174294      -0.11044010       0.00168264 </v>
   <v>       0.05434724      -0.02558267       0.08190802 </v>
   <v>       0.05366074       0.16360133      -0.01176883 </v>
   <v>      -0.33659455      -0.07576234       0.01922110 </v>
   <v>      -0.14087425      -0.18869101      -0.03752547 </v>
   <v>      -0.12011242      -0.00971630      -0.15033478 </v>
   <v>       0.06150170       0.21720884      -0.02716706 </v>
   <v>       0.10313279       0.07581692      -0.01500180 </v>
   <v>       0.09976725       0.01311357       0.10969603 </v>
   <v>      -0.07427919      -0.08415918       0.11667696 </v>
   <v>      -0.04187715      -0.09962440       0.07631963 </v>
   <v>       0.06991177      -0.09636038      -0.10752292 </v>
   <v>      -0.04232993      -0.00110786      -0.01958883 </v>
   <v>      -0.16269917       0.15805474       0.02634952 </v>
   <v>      -0.05860353      -0.02174441       0.01707326 </v>
   <v>       0.18669395       0.25391966       0.13015378 </v>
   <v>       0.05439438      -0.07674954      -0.09994064 </v>
   <v>       0.08913122      -0.19246190      -0.08022855 </v>
   <v>      -0.05794119       0.08685776       0.02961551 </v>
   <v>      -0.10517430       0.01806960      -0.06098615 </v>
   <v>       0.00969225       0.01678415      -0.06962664 </v>
   <v>      -0.02111807      -0.00069749      -0.06121965 </v>
  </varray>
  <varray name="stress" >
   <v>      -1.62836112       0.03105878      -0.21124109 </v>
   <v>       0.03105878      -2.68013933      -0.09382362 </v>
   <v>      -0.21124109      -0.09382363      -2.74903708 </v>
  </varray>
  <energy>
   <i name="e_fr_energy">   -101.45078996 </i>
   <i name="e_wo_entrp">   -101.45078996 </i>
   <i name="e_0_energy">      0.00000000 </i>
  </energy>
  <time name="totalsc">   39.91   41.52</time>
 </calculation>
 <calculation>
  <scstep>
   <time name="dav">    5.39    5.40</time>
   <time name="total">    5.76    5.78</time>
   <energy>
    <i name="alphaZ">    156.19171877 </i>
    <i name="ewald"> 132929.96449677 </i>
    <i name="hartreedc">-179774.67336431 </i>
    <i name="XCdc">   -531.52473090 </i>
    <i name="pawpsdc">  50803.41426881 </i>
    <i name="pawaedc"> -48722.34674141 </i>
    <i name="eentropy">      0.00000000 </i>
    <i name="bandstr">  -3710.80304411 </i>
    <i name="atom">  48748.33561406 </i>
    <i name="e_fr_energy">   -101.44178233 </i>
    <i name="e_wo_entrp">   -101.44178233 </i>
    <i name="e_0_energy">   -101.44178233 </i>
   </energy>
  </scstep>
  <scstep>
   <time name="dav">    5.48    5.49</time>
   <time name="total">    5.85    5.86</time>
   <energy>
    <i name="e_fr_energy">   -101.61598931 </i>
    <i name="e_wo_entrp">   -101.61598931 </i>
    <i name="e_0_energy">   -101.61598931 </i>
   </energy>
  </scstep>
  <scstep>
   <time name="dav">    5.65    5.66</time>
   <time name="total">    6.02    6.06</time>
   <energy>
    <i name="e_fr_energy">   -101.61337135 </i>
    <i name="e_wo_entrp">   -101.61337135 </i>
    <i name="e_0_energy">   -101.61337135 </i>
   </energy>
  </scstep>
  <scstep>
   <time name="dav">    5.52    5.52</time>
   <time name="total">    5.88    6.72</time>
   <energy>
    <i name="e_fr_energy">   -101.61003373 </i>
    <i name="e_wo_entrp">   -101.61003373 </i>
    <i name="e_0_energy">   -101.61003373 </i>
   </energy>
  </scstep>
  <scstep>
   <time name="dav">    5.62    5.63</time>
   <time name="total">    6.00    6.16</time>
   <energy>
    <i name="e_fr_energy">   -101.61028338 </i>
    <i name="e_wo_entrp">   -101.61028338 </i>
    <i name="e_0_energy">   -101.61028338 </i>
   </energy>
  </scstep>
  <scstep>
   <time name="dav">    4.10    4.11</time>
   <time name="total">    4.33    4.34</time>
   <energy>
    <i name="alphaZ">    156.19171877 </i>
    <i name="ewald"> 132929.96449677 </i>
    <i name="hartreedc">-179771.53255488 </i>
    <i name="XCdc">   -531.63619272 </i>
    <i name="pawpsdc">  50862.25778318 </i>
    <i name="pawaedc"> -48782.20525858 </i>
    <i name="eentropy">      0.00000000 </i>
    <i name="bandstr">  -3712.98589423 </i>
    <i name="atom">  48748.33561406 </i>
    <i name="e_fr_energy">   -101.61028765 </i>
    <i name="e_wo_entrp">   -101.61028765 </i>
    <i name="e_0_energy">   -101.61028765 </i>
   </energy>
  </scstep>
  <structure>
   <crystal>
    <varray name="basis" >
     <v>      22.91310600       0.00000000       0.00000000 </v>
     <v>       0.00000000      22.91310600       0.00000000 </v>
     <v>       0.00000000       0.00000000      22.91310600 </v>
    </varray>
    <i name="volume">  12029.61955504 </i>
    <varray name="rec_basis" >
     <v>       0.04364314       0.00000000       0.00000000 </v>
     <v>       0.00000000       0.04364314       0.00000000 </v>
     <v>       0.00000000       0.00000000       0.04364314 </v>
    </varray>
   </crystal>
   <varray name="positions" >
    <v>       0.65041646       0.43935886       0.46825222 </v>
    <v>       0.54576866       0.47584477       0.41078601 </v>
    <v>       0.55157108       0.44467168       0.66625466 </v>
    <v>       0.26748417       0.54309482       0.42433821 </v>
    <v>       0.61592880       0.54067034       0.62211452 </v>
    <v>       0.65484066       0.42529819       0.59378625 </v>
    <v>       0.49093867       0.56144043       0.48587933 </v>
    <v>       0.48842139       0.36208658       0.59449509 </v>
    <v>       0.43567907       0.64440756       0.56356575 </v>
    <v>       0.70706833       0.52977524       0.40937609 </v>
    <v>       0.32354805       0.43521198       0.60274115 </v>
    <v>       0.37756310       0.34701548       0.53007463 </v>
    <v>       0.36888440       0.56689442       0.49006278 </v>
    <v>       0.48100951       0.56922424       0.35240976 </v>
    <v>       0.67064319       0.64627036       0.39754018 </v>
    <v>       0.31502556       0.45462104       0.35540415 </v>
    <v>       0.47638076       0.38553147       0.34478491 </v>
    <v>       0.35951593       0.58359753       0.35222980 </v>
    <v>       0.55098078       0.46348699       0.54079641 </v>
    <v>       0.60374946       0.56466611       0.33633440 </v>
    <v>       0.41331672       0.48974895       0.29020836 </v>
    <v>       0.42067688       0.47679707       0.41368538 </v>
    <v>       0.36844003       0.55340046       0.62493386 </v>
    <v>       0.26851387       0.53358980       0.55169680 </v>
    <v>       0.58457026       0.35355207       0.40091281 </v>
    <v>       0.61755308       0.56648162       0.48180692 </v>
    <v>       0.71276024       0.52052505       0.53768235 </v>
    <v>       0.55586388       0.63728403       0.56748975 </v>
    <v>       0.31928891       0.44618057       0.47814849 </v>
    <v>       0.62753333       0.70686902       0.49247059 </v>
    <v>       0.31293410       0.64666638       0.56722325 </v>
    <v>       0.55050778       0.65103261       0.41340878 </v>
    <v>       0.67810583       0.63194793       0.57395684 </v>
    <v>       0.49114378       0.54393266       0.61865883 </v>
    <v>       0.30693338       0.65876347       0.43406728 </v>
    <v>       0.53466281       0.47743322       0.28413832 </v>
    <v>       0.42748848       0.45154200       0.67018127 </v>
    <v>       0.50656736       0.72247436       0.49967129 </v>
    <v>       0.59066346       0.34251118       0.52649687 </v>
    <v>       0.59646046       0.33463441       0.64452443 </v>
    <v>       0.37171770       0.35744878       0.40589560 </v>
    <v>       0.64282516       0.44545305       0.34326179 </v>
    <v>       0.43035576       0.65755690       0.42758072 </v>
    <v>       0.38132075       0.34023854       0.64966936 </v>
    <v>       0.42754101       0.46533055       0.54392561 </v>
    <v>       0.48156236       0.37621423       0.46961264 </v>
    <v>       0.57692221       0.36484036       0.28267171 </v>
   </varray>
  </structure>
  <varray name="forces" >
   <v>       0.13203849      -0.16630037       0.02024689 </v>
   <v>      -0.01846557       0.15666166       0.18493876 </v>
   <v>      -0.04443592       0.06913735      -0.07799736 </v>
   <v>      -0.21543196       0.01644326       0.05746672 </v>
   <v>      -0.03773353      -0.06554804      -0.31342777 </v>
   <v>       0.23421618       0.11826667       0.01102126 </v>
   <v>       0.17704217      -0.11373398      -0.04500667 </v>
   <v>      -0.15004189       0.09289710       0.04653416 </v>
   <v>      -0.11834323      -0.10895254       0.08239502 </v>
   <v>       0.09384384      -0.00990802      -0.11809193 </v>
   <v>      -0.17409211       0.05511825       0.01188442 </v>
   <v>       0.08159610       0.14240423       0.02277556 </v>
   <v>      -0.10377439      -0.04633206       0.02391982 </v>
   <v>       0.17577504       0.11401362       0.03377171 </v>
   <v>       0.07524121      -0.04214520       0.00567760 </v>
   <v>      -0.08435050       0.12129353      -0.08625627 </v>
   <v>      -0.15933196       0.14508054       0.04157051 </v>
   <v>       0.07911937      -0.19380656       0.28040219 </v>
   <v>       0.01927442       0.14647427      -0.16582250 </v>
   <v>      -0.01509460      -0.01424627       0.31447976 </v>
   <v>      -0.03398431      -0.09983555      -0.02793994 </v>
   <v>       0.03560546      -0.01053616       0.07494439 </v>
   <v>       0.02848489      -0.07196807      -0.34565326 </v>
   <v>      -0.11423907      -0.13184812       0.05119641 </v>
   <v>      -0.04263984       0.02651594       0.32100015 </v>
   <v>      -0.21107676       0.02046298       0.00141250 </v>
   <v>       0.10398465      -0.11533891       0.15180168 </v>
   <v>       0.15040301      -0.13288249       0.10878461 </v>
   <v>      -0.19560181      -0.09874067       0.14141324 </v>
   <v>      -0.03620058      -0.03126892       0.02833417 </v>
   <v>      -0.03556182       0.00757450      -0.14598430 </v>
   <v>       0.08017728      -0.07189558      -0.21576165 </v>
   <v>       0.08195105       0.06064607      -0.01394434 </v>
   <v>       0.14281081       0.08169538       0.01223279 </v>
   <v>      -0.02037251      -0.05721643       0.11216308 </v>
   <v>       0.02365037       0.11655325       0.00708461 </v>
   <v>       0.02629116      -0.02358095      -0.08177187 </v>
   <v>      -0.15601088       0.19962862       0.01066301 </v>
   <v>      -0.13441814       0.13353033      -0.35583654 </v>
   <v>      -0.01859424      -0.24174819       0.25366336 </v>
   <v>       0.16609190       0.20121918       0.09198521 </v>
   <v>       0.23985628       0.08146049      -0.05302600 </v>
   <v>      -0.06562574      -0.14137938      -0.09073823 </v>
   <v>      -0.03299023      -0.01522017       0.13831178 </v>
   <v>      -0.07956016       0.02897199      -0.10222403 </v>
   <v>       0.09713316       0.06086212      -0.08412994 </v>
   <v>       0.05338490      -0.19247872      -0.31846278 </v>
  </varray>
  <varray name="stress" >
   <v>      -1.51579028      -0.03181742      -0.20928391 </v>
   <v>      -0.03181741      -2.45761884      -0.06971151 </v>
   <v>      -0.20928390      -0.06971151      -2.51602878 </v>
  </varray>
  <energy>
   <i name="e_fr_energy">   -101.61028765 </i>
   <i name="e_wo_entrp">   -101.61028765 </i>
   <i name="e_0_energy">      0.00000000 </i>
  </energy>
  <time name="totalsc">   44.43   46.36</time>
 </calculation>
 <calculation>
  <scstep>
   <time name="dav">    5.41    5.41</time>
   <time name="total">    5.79    5.80</time>
   <energy>
    <i name="alphaZ">    156.19171877 </i>
    <i name="ewald"> 132996.63390032 </i>
    <i name="hartreedc">-179838.40105677 </i>
    <i name="XCdc">   -531.61643563 </i>
    <i name="pawpsdc">  50860.89517946 </i>
    <i name="pawaedc"> -48780.84247474 </i>
    <i name="eentropy">      0.00000000 </i>
    <i name="bandstr">  -3712.89323781 </i>
    <i name="atom">  48748.33561406 </i>
    <i name="e_fr_energy">   -101.69679234 </i>
    <i name="e_wo_entrp">   -101.69679234 </i>
    <i name="e_0_energy">   -101.69679234 </i>
   </energy>
  </scstep>
  <scstep>
   <time name="dav">    5.54    5.55</time>
   <time name="total">    5.91    5.92</time>
   <energy>
    <i name="e_fr_energy">   -101.72690513 </i>
    <i name="e_wo_entrp">   -101.72690513 </i>
    <i name="e_0_energy">   -101.72690513 </i>
   </energy>
  </scstep>
  <scstep>
   <time name="dav">    5.69    5.70</time>
   <time name="total">    6.06    6.93</time>
   <energy>
    <i name="e_fr_energy">   -101.72657832 </i>
    <i name="e_wo_entrp">   -101.72657832 </i>
    <i name="e_0_energy">   -101.72657832 </i>
   </energy>
  </scstep>
  <scstep>
   <time name="dav">    5.50    5.51</time>
   <time name="total">    5.87    5.88</time>
   <energy>
    <i name="e_fr_energy">   -101.72554645 </i>
    <i name="e_wo_entrp">   -101.72554645 </i>
    <i name="e_0_energy">   -101.72554645 </i>
   </energy>
  </scstep>
  <scstep>
   <time name="dav">    5.54    5.54</time>
   <time name="total">    5.92    5.94</time>
   <energy>
    <i name="e_fr_energy">   -101.72539181 </i>
    <i name="e_wo_entrp">   -101.72539181 </i>
    <i name="e_0_energy">   -101.72539181 </i>
   </energy>
  </scstep>
  <scstep>
   <time name="dav">    3.96    3.96</time>
   <time name="total">    4.18    4.19</time>
   <energy>
    <i name="alphaZ">    156.19171877 </i>
    <i name="ewald"> 132996.63390032 </i>
    <i name="hartreedc">-179838.17239192 </i>
    <i name="XCdc">   -531.62713763 </i>
    <i name="pawpsdc">  50856.82717735 </i>
    <i name="pawaedc"> -48776.77431312 </i>
    <i name="eentropy">      0.00000000 </i>
    <i name="bandstr">  -3713.14004133 </i>
    <i name="atom">  48748.33561406 </i>
    <i name="e_fr_energy">   -101.72547350 </i>
    <i name="e_wo_entrp">   -101.72547350 </i>
    <i name="e_0_energy">   -101.72547350 </i>
   </energy>
  </scstep>
  <structure>
   <crystal>
    <varray name="basis" >
     <v>      22.91310600       0.00000000       0.00000000 </v>
     <v>       0.00000000      22.91310600       0.00000000 </v>
     <v>       0.00000000       0.00000000      22.91310600 </v>
    </varray>
    <i name="volume">  12029.61955504 </i>
    <varray name="rec_basis" >
     <v>       0.04364314       0.00000000       0.00000000 </v>
     <v>       0.00000000       0.04364314       0.00000000 </v>
     <v>       0.00000000       0.00000000       0.04364314 </v>
    </varray>
   </crystal>
   <varray name="positions" >
    <v>       0.65108524       0.43897912       0.46819569 </v>
    <v>       0.54595142       0.47632039       0.41109018 </v>
    <v>       0.55129869       0.44454344       0.66588471 </v>
    <v>       0.26689548       0.54307242       0.42450137 </v>
    <v>       0.61597809       0.54055164       0.62101319 </v>
    <v>       0.65526687       0.42530786       0.59405282 </v>
    <v>       0.49109160       0.56121425       0.48581743 </v>
    <v>       0.48819617       0.36243352       0.59470439 </v>
    <v>       0.43569697       0.64393930       0.56374991 </v>
    <v>       0.70735806       0.52974873       0.40913962 </v>
    <v>       0.32303582       0.43517809       0.60302135 </v>
    <v>       0.37795135       0.34751219       0.53040709 </v>
    <v>       0.36855828       0.56678683       0.49020949 </v>
    <v>       0.48142578       0.56944006       0.35228548 </v>
    <v>       0.67095745       0.64636237       0.39771149 </v>
    <v>       0.31473913       0.45514071       0.35530033 </v>
    <v>       0.47624678       0.38610335       0.34463289 </v>
    <v>       0.35976553       0.58300885       0.35324507 </v>
    <v>       0.55120858       0.46386138       0.54050433 </v>
    <v>       0.60370250       0.56452838       0.33741424 </v>
    <v>       0.41345006       0.48942605       0.29012894 </v>
    <v>       0.42055041       0.47665835       0.41374982 </v>
    <v>       0.36844547       0.55326164       0.62366933 </v>
    <v>       0.26818702       0.53317054       0.55184813 </v>
    <v>       0.58441774       0.35379030       0.40123307 </v>
    <v>       0.61731099       0.56627767       0.48180307 </v>
    <v>       0.71301576       0.52034770       0.53802325 </v>
    <v>       0.55619298       0.63744856       0.56763165 </v>
    <v>       0.31836242       0.44590014       0.47835747 </v>
    <v>       0.62721460       0.70646088       0.49244899 </v>
    <v>       0.31262454       0.64666513       0.56673546 </v>
[...]
       <r>     0.9405     0.0000   309.0000 </r>
       <r>     0.9823     0.0000   311.0000 </r>
       <r>     1.0240     0.0000   312.0000 </r>
       <r>     1.0657     0.0000   313.0000 </r>
       <r>     1.1075     0.0000   314.0000 </r>
       <r>     1.1492     0.0000   317.0000 </r>
       <r>     1.1909     0.0000   320.0000 </r>
       <r>     1.2327     0.0000   320.0000 </r>
       <r>     1.2744     0.0000   322.0000 </r>
       <r>     1.3161     0.0000   323.0000 </r>
       <r>     1.3579     0.0000   325.0000 </r>
       <r>     1.3996     0.0000   327.0000 </r>
       <r>     1.4413     0.0052   328.0002 </r>
       <r>     1.4831     0.0000   331.0000 </r>
       <r>     1.5248     0.0000   333.0000 </r>
       <r>     1.5665     0.0000   334.0000 </r>
       <r>     1.6083     0.0000   336.0000 </r>
       <r>     1.6500     0.0000   336.0000 </r>
       <r>     1.6917     0.0000   336.0000 </r>
       <r>     1.7335     0.0000   336.0000 </r>
       <r>     1.7752     0.0000   336.0000 </r>
       <r>     1.8169     0.0000   336.0000 </r>
       <r>     1.8587     0.0000   336.0000 </r>
       <r>     1.9004     0.0000   336.0000 </r>
       <r>     1.9421     0.0000   336.0000 </r>
       <r>     1.9839     0.0000   336.0000 </r>
       <r>     2.0256     0.0000   336.0000 </r>
       <r>     2.0673     0.0000   336.0000 </r>
       <r>     2.1091     0.0000   336.0000 </r>
       <r>     2.1508     0.0000   336.0000 </r>
       <r>     2.1925     0.0000   336.0000 </r>
      </set>
      <set comment="spin 2">
       <r>   -10.3275     0.0000     0.0000 </r>
       <r>   -10.2858     0.0000     0.0000 </r>
       <r>   -10.2440     0.0000     0.0000 </r>
       <r>   -10.2023     0.0000     0.0000 </r>
       <r>   -10.1606     0.0000     0.0000 </r>
       <r>   -10.1188     0.0000     0.0000 </r>
       <r>   -10.0771     0.0000     0.0000 </r>
       <r>   -10.0354     0.0000     0.0000 </r>
       <r>    -9.9936     0.0000     0.0000 </r>
       <r>    -9.9519     0.0000     0.0000 </r>
       <r>    -9.9102     0.0000     0.0000 </r>
       <r>    -9.8684     0.0000     0.0000 </r>
       <r>    -9.8267     0.0000     0.0000 </r>
       <r>    -9.7850     0.0000     0.0000 </r>
       <r>    -9.7432     0.0000     1.0000 </r>
       <r>    -9.7015     0.0000     1.0000 </r>
       <r>    -9.6598     0.0000     1.0000 </r>
       <r>    -9.6180     0.0000     1.0000 </r>
       <r>    -9.5763     0.0000     1.0000 </r>
       <r>    -9.5346     0.0000     1.0000 </r>
       <r>    -9.4928     0.0000     1.0000 </r>
       <r>    -9.4511     0.0000     1.0000 </r>
       <r>    -9.4094     0.0000     1.0000 </r>
       <r>    -9.3676     0.0000     1.0000 </r>
       <r>    -9.3259     0.0000     1.0000 </r>
       <r>    -9.2842     0.0000     1.0000 </r>
       <r>    -9.2424     0.0000     1.0000 </r>
       <r>    -9.2007     0.0000     1.0000 </r>
       <r>    -9.1590     0.0000     2.0000 </r>
       <r>    -9.1172     0.0000     2.0000 </r>
       <r>    -9.0755     0.0000     2.0000 </r>
       <r>    -9.0338     0.0000     4.0000 </r>
       <r>    -8.9920     0.0000     5.0000 </r>
       <r>    -8.9503     0.0000     8.0000 </r>
       <r>    -8.9086     0.0000    10.0000 </r>
       <r>    -8.8668     0.0000    12.0000 </r>
       <r>    -8.8251     0.0000    14.0000 </r>
       <r>    -8.7834     0.0000    14.0000 </r>
       <r>    -8.7416     0.0000    17.0000 </r>
       <r>    -8.6999     0.0000    18.0000 </r>
       <r>    -8.6582     0.0000    22.0000 </r>
       <r>    -8.6164     0.0000    24.0000 </r>
       <r>    -8.5747     0.0000    27.0000 </r>
       <r>    -8.5330    23.9616    30.0000 </r>
       <r>    -8.4912     0.0000    32.0000 </r>
       <r>    -8.4495     0.0000    34.0000 </r>
       <r>    -8.4078     0.0000    37.0000 </r>
       <r>    -8.3660     0.0000    41.0000 </r>
       <r>    -8.3243     0.0000    43.0000 </r>
       <r>    -8.2826     0.0000    46.0000 </r>
       <r>    -8.2408     0.0000    47.0000 </r>
       <r>    -8.1991     0.0000    50.0000 </r>
       <r>    -8.1574     0.0000    53.0000 </r>
       <r>    -8.1156    23.9616    56.0000 </r>
       <r>    -8.0739     0.0000    59.0000 </r>
       <r>    -8.0322     0.0000    64.0000 </r>
       <r>    -7.9904     0.0000    66.0000 </r>
       <r>    -7.9487     0.0000    69.0000 </r>
       <r>    -7.9070     0.0000    72.0000 </r>
       <r>    -7.8652     0.0000    75.0000 </r>
       <r>    -7.8235     0.0000    78.0000 </r>
       <r>    -7.7818     0.0000    81.0000 </r>
       <r>    -7.7400    23.9433    84.9992 </r>
       <r>    -7.6983     0.0000    89.0000 </r>
       <r>    -7.6566     0.0000    91.0000 </r>
       <r>    -7.6148     0.0000    95.0000 </r>
       <r>    -7.5731     0.0000    98.0000 </r>
       <r>    -7.5314     0.0000   101.0000 </r>
       <r>    -7.4896     0.0000   103.0000 </r>
       <r>    -7.4479     0.0000   107.0000 </r>
       <r>    -7.4062     0.0000   111.0000 </r>
       <r>    -7.3644     0.0000   117.0000 </r>
       <r>    -7.3227     0.0000   118.0000 </r>
       <r>    -7.2810    23.9600   121.9999 </r>
       <r>    -7.2392     0.0000   125.0000 </r>
       <r>    -7.1975     0.0000   128.0000 </r>
       <r>    -7.1558     0.0000   133.0000 </r>
       <r>    -7.1140     0.0019   134.0001 </r>
       <r>    -7.0723     0.0000   139.0000 </r>
       <r>    -7.0306     0.0000   141.0000 </r>
       <r>    -6.9888     0.0000   144.0000 </r>
       <r>    -6.9471     0.0000   147.0000 </r>
       <r>    -6.9054     0.0000   150.0000 </r>
       <r>    -6.8636     0.0000   155.0000 </r>
       <r>    -6.8219     0.0000   160.0000 </r>
       <r>    -6.7802     0.0000   163.0000 </r>
       <r>    -6.7384     0.0000   167.0000 </r>
       <r>    -6.6967     0.0000   172.0000 </r>
       <r>    -6.6550     0.0000   177.0000 </r>
       <r>    -6.6132    23.9616   182.0000 </r>
       <r>    -6.5715     0.0000   186.0000 </r>
       <r>    -6.5298     0.0000   192.0000 </r>
       <r>    -6.4880    23.9616   197.0000 </r>
       <r>    -6.4463     0.0000   201.0000 </r>
       <r>    -6.4046     0.0000   205.0000 </r>
       <r>    -6.3628     0.0000   212.0000 </r>
       <r>    -6.3211     0.0000   216.0000 </r>
       <r>    -6.2794     0.0000   219.0000 </r>
       <r>    -6.2376     0.0000   223.0000 </r>
       <r>    -6.1959     0.0352   226.0015 </r>
       <r>    -6.1542     0.0000   230.0000 </r>
       <r>    -6.1124     0.0000   235.0000 </r>
       <r>    -6.0707     0.0000   238.0000 </r>
       <r>    -6.0290     0.0000   240.0000 </r>
       <r>    -5.9872     0.0000   242.0000 </r>
       <r>    -5.9455     0.0000   242.0000 </r>
       <r>    -5.9038     0.0000   242.0000 </r>
       <r>    -5.8620     0.0000   242.0000 </r>
       <r>    -5.8203     0.0000   242.0000 </r>
       <r>    -5.7786     0.0000   242.0000 </r>
       <r>    -5.7368     0.0000   243.0000 </r>
       <r>    -5.6951     0.0000   244.0000 </r>
       <r>    -5.6534     0.0000   244.0000 </r>
       <r>    -5.6116     0.0000   244.0000 </r>
       <r>    -5.5699     0.0000   244.0000 </r>
       <r>    -5.5282     0.0000   244.0000 </r>
       <r>    -5.4864     0.0000   245.0000 </r>
       <r>    -5.4447     0.0000   245.0000 </r>
       <r>    -5.4030     0.0000   245.0000 </r>
       <r>    -5.3612     0.0000   245.0000 </r>
       <r>    -5.3195     0.0000   245.0000 </r>
       <r>    -5.2778     0.0000   245.0000 </r>
       <r>    -5.2360     0.0000   245.0000 </r>
       <r>    -5.1943     0.0000   245.0000 </r>
       <r>    -5.1526     0.0000   245.0000 </r>
       <r>    -5.1108     0.0000   245.0000 </r>
       <r>    -5.0691     0.0000   245.0000 </r>
       <r>    -5.0274     0.0000   246.0000 </r>
       <r>    -4.9856     0.0000   246.0000 </r>
       <r>    -4.9439     0.0000   248.0000 </r>
       <r>    -4.9022     0.0000   248.0000 </r>
       <r>    -4.8604     0.0000   248.0000 </r>
       <r>    -4.8187     0.0000   249.0000 </r>
       <r>    -4.7770     0.0000   249.0000 </r>
       <r>    -4.7352     0.0000   249.0000 </r>
       <r>    -4.6935     0.0000   250.0000 </r>
       <r>    -4.6518     0.0000   250.0000 </r>
       <r>    -4.6100     0.0000   250.0000 </r>
       <r>    -4.5683     0.0000   250.0000 </r>
       <r>    -4.5266     0.0000   250.0000 </r>
       <r>    -4.4848     0.0000   250.0000 </r>
       <r>    -4.4431     0.0000   250.0000 </r>
       <r>    -4.4014     0.0000   250.0000 </r>
       <r>    -4.3596     0.0000   251.0000 </r>
       <r>    -4.3179     0.0000   251.0000 </r>
       <r>    -4.2762     0.0000   251.0000 </r>
       <r>    -4.2344     0.0000   251.0000 </r>
       <r>    -4.1927     0.0000   251.0000 </r>
       <r>    -4.1510     0.0000   252.0000 </r>
       <r>    -4.1092     0.0000   252.0000 </r>
       <r>    -4.0675     0.0000   252.0000 </r>
       <r>    -4.0258     0.0000   252.0000 </r>
       <r>    -3.9840     0.0000   253.0000 </r>
       <r>    -3.9423     0.0000   253.0000 </r>
       <r>    -3.9006     0.0000   254.0000 </r>
       <r>    -3.8588     0.0000   254.0000 </r>
       <r>    -3.8171     0.0000   254.0000 </r>
       <r>    -3.7753     0.0000   254.0000 </r>
       <r>    -3.7336     0.0000   254.0000 </r>
       <r>    -3.6919     0.0000   254.0000 </r>
       <r>    -3.6501     0.0000   254.0000 </r>
       <r>    -3.6084     0.0000   255.0000 </r>
       <r>    -3.5667     0.0000   255.0000 </r>
       <r>    -3.5249     0.0000   256.0000 </r>
       <r>    -3.4832     0.0000   256.0000 </r>
       <r>    -3.4415     0.0000   257.0000 </r>
       <r>    -3.3997     0.0000   257.0000 </r>
       <r>    -3.3580     0.0000   258.0000 </r>
       <r>    -3.3163     0.0000   258.0000 </r>
       <r>    -3.2745     0.0000   258.0000 </r>
       <r>    -3.2328     0.0000   258.0000 </r>
       <r>    -3.1911     0.0000   258.0000 </r>
       <r>    -3.1493     0.0000   259.0000 </r>
       <r>    -3.1076     0.0000   261.0000 </r>
       <r>    -3.0659     0.0000   261.0000 </r>
       <r>    -3.0241     0.0000   261.0000 </r>
       <r>    -2.9824     0.0000   261.0000 </r>
       <r>    -2.9407     0.0000   261.0000 </r>
       <r>    -2.8989     0.0000   261.0000 </r>
       <r>    -2.8572     0.0000   262.0000 </r>
       <r>    -2.8155     0.0000   262.0000 </r>
       <r>    -2.7737     0.0000   262.0000 </r>
       <r>    -2.7320     0.0000   262.0000 </r>
       <r>    -2.6903     0.0000   262.0000 </r>
       <r>    -2.6485     0.0000   262.0000 </r>
       <r>    -2.6068     0.0000   263.0000 </r>
       <r>    -2.5651     0.0000   264.0000 </r>
       <r>    -2.5233     0.0000   264.0000 </r>
       <r>    -2.4816     0.0000   265.0000 </r>
       <r>    -2.4399     0.0000   265.0000 </r>
       <r>    -2.3981     0.0000   265.0000 </r>
       <r>    -2.3564     0.0000   265.0000 </r>
       <r>    -2.3147     0.0000   266.0000 </r>
       <r>    -2.2729     0.0000   266.0000 </r>
       <r>    -2.2312     0.0000   266.0000 </r>
       <r>    -2.1895     0.0000   267.0000 </r>
       <r>    -2.1477     0.0000   268.0000 </r>
       <r>    -2.1060     0.0000   268.0000 </r>
       <r>    -2.0643     0.0000   269.0000 </r>
       <r>    -2.0225     0.0000   269.0000 </r>
       <r>    -1.9808     0.0000   269.0000 </r>
       <r>    -1.9391     0.0000   270.0000 </r>
       <r>    -1.8973     0.0000   270.0000 </r>
       <r>    -1.8556     0.0000   271.0000 </r>
       <r>    -1.8139     0.0000   272.0000 </r>
       <r>    -1.7721     0.0000   272.0000 </r>
       <r>    -1.7304     0.0000   272.0000 </r>
       <r>    -1.6887     0.0000   273.0000 </r>
       <r>    -1.6469     0.0000   274.0000 </r>
       <r>    -1.6052     0.0000   274.0000 </r>
       <r>    -1.5635     0.0000   275.0000 </r>
       <r>    -1.5217     0.0000   276.0000 </r>
       <r>    -1.4800     0.0000   276.0000 </r>
       <r>    -1.4383     0.0000   277.0000 </r>
       <r>    -1.3965     0.0000   277.0000 </r>
       <r>    -1.3548     0.0000   277.0000 </r>
       <r>    -1.3131     0.0000   279.0000 </r>
       <r>    -1.2713     0.0000   280.0000 </r>
       <r>    -1.2296     0.0000   280.0000 </r>
       <r>    -1.1879     0.0000   281.0000 </r>
       <r>    -1.1461     0.0000   281.0000 </r>
       <r>    -1.1044     0.0000   281.0000 </r>
       <r>    -1.0627     0.0000   281.0000 </r>
       <r>    -1.0209     0.0000   282.0000 </r>
       <r>    -0.9792     0.0000   283.0000 </r>
       <r>    -0.9375     0.0000   283.0000 </r>
       <r>    -0.8957     0.0000   283.0000 </r>
       <r>    -0.8540     0.0000   283.0000 </r>
       <r>    -0.8123     0.0000   283.0000 </r>
       <r>    -0.7705     0.0000   284.0000 </r>
       <r>    -0.7288     0.0000   284.0000 </r>
       <r>    -0.6871     0.0000   284.0000 </r>
       <r>    -0.6453     0.0000   285.0000 </r>
       <r>    -0.6036     0.0000   285.0000 </r>
       <r>    -0.5619     0.0000   286.0000 </r>
       <r>    -0.5201     0.0000   286.0000 </r>
       <r>    -0.4784     0.0000   286.0000 </r>
       <r>    -0.4367     0.0000   286.0000 </r>
       <r>    -0.3949     0.0000   287.0000 </r>
       <r>    -0.3532     0.0000   287.0000 </r>
       <r>    -0.3115     0.0000   287.0000 </r>
       <r>    -0.2697     0.0000   287.0000 </r>
       <r>    -0.2280     0.0000   289.0000 </r>
       <r>    -0.1863     0.0000   290.0000 </r>
       <r>    -0.1445     0.0000   290.0000 </r>
       <r>    -0.1028     0.0000   292.0000 </r>
       <r>    -0.0611     0.0000   293.0000 </r>
       <r>    -0.0193     0.0000   293.0000 </r>
       <r>     0.0224     0.0000   294.0000 </r>
       <r>     0.0641     0.0000   294.0000 </r>
       <r>     0.1059     0.0000   295.0000 </r>
       <r>     0.1476     0.0000   295.0000 </r>
       <r>     0.1893     0.0000   295.0000 </r>
       <r>     0.2311    23.9616   297.0000 </r>
       <r>     0.2728     0.0000   298.0000 </r>
       <r>     0.3145     0.0000   299.0000 </r>
       <r>     0.3563     0.0000   300.0000 </r>
       <r>     0.3980     0.0000   300.0000 </r>
       <r>     0.4397     0.0000   300.0000 </r>
       <r>     0.4815     0.0000   301.0000 </r>
       <r>     0.5232     0.0000   301.0000 </r>
       <r>     0.5649     0.0000   301.0000 </r>
       <r>     0.6067     0.0000   302.0000 </r>
       <r>     0.6484     0.0000   303.0000 </r>
       <r>     0.6901     0.0000   304.0000 </r>
       <r>     0.7319     0.0000   304.0000 </r>
       <r>     0.7736     0.0000   304.0000 </r>
       <r>     0.8153     0.0000   305.0000 </r>
       <r>     0.8571     0.0000   308.0000 </r>
       <r>     0.8988     0.0000   308.0000 </r>
       <r>     0.9405     0.0000   308.0000 </r>
       <r>     0.9823     0.0000   310.0000 </r>
       <r>     1.0240     0.0000   312.0000 </r>
       <r>     1.0657     0.0000   312.0000 </r>
       <r>     1.1075     0.0000   314.0000 </r>
       <r>     1.1492     0.0000   316.0000 </r>
       <r>     1.1909     0.0000   318.0000 </r>
       <r>     1.2327     0.0000   320.0000 </r>
       <r>     1.2744     0.0000   321.0000 </r>
       <r>     1.3161     0.0000   322.0000 </r>
       <r>     1.3579     0.0000   325.0000 </r>
       <r>     1.3996     0.0000   325.0000 </r>
       <r>     1.4413     0.0000   327.0000 </r>
       <r>     1.4831     0.0000   329.0000 </r>
       <r>     1.5248     0.0000   333.0000 </r>
       <r>     1.5665     0.0000   334.0000 </r>
       <r>     1.6083     0.0000   335.0000 </r>
       <r>     1.6500     0.0000   336.0000 </r>
       <r>     1.6917     0.0000   336.0000 </r>
       <r>     1.7335     0.0000   336.0000 </r>
       <r>     1.7752     0.0000   336.0000 </r>
       <r>     1.8169     0.0000   336.0000 </r>
       <r>     1.8587     0.0000   336.0000 </r>
       <r>     1.9004     0.0000   336.0000 </r>
       <r>     1.9421     0.0000   336.0000 </r>
       <r>     1.9839     0.0000   336.0000 </r>
       <r>     2.0256     0.0000   336.0000 </r>
       <r>     2.0673     0.0000   336.0000 </r>
       <r>     2.1091     0.0000   336.0000 </r>
       <r>     2.1508     0.0000   336.0000 </r>
       <r>     2.1925     0.0000   336.0000 </r>
      </set>
     </set>
    </array>
   </total>
  </dos>
 </calculation>
 <structure name="finalpos" >
  <crystal>
   <varray name="basis" >
    <v>      22.91310600       0.00000000       0.00000000 </v>
    <v>       0.00000000      22.91310600       0.00000000 </v>
    <v>       0.00000000       0.00000000      22.91310600 </v>
   </varray>
   <i name="volume">  12029.61955504 </i>
   <varray name="rec_basis" >
    <v>       0.04364314       0.00000000       0.00000000 </v>
    <v>       0.00000000       0.04364314       0.00000000 </v>
    <v>       0.00000000       0.00000000       0.04364314 </v>
   </varray>
  </crystal>
  <varray name="positions" >
   <v>       0.65594750       0.43091289       0.46817541 </v>
   <v>       0.54713552       0.47406186       0.41228697 </v>
   <v>       0.55373954       0.44913244       0.66254420 </v>
   <v>       0.25735805       0.54342815       0.42760739 </v>
   <v>       0.61951240       0.54181656       0.60761309 </v>
   <v>       0.65730278       0.42198595       0.59356542 </v>
   <v>       0.49094270       0.56129117       0.48377416 </v>
   <v>       0.48568813       0.36678726       0.59649717 </v>
   <v>       0.43333331       0.64195990       0.56166997 </v>
   <v>       0.71405816       0.52442475       0.41043421 </v>
   <v>       0.31889623       0.43631142       0.60760812 </v>
   <v>       0.37794080       0.35323119       0.53578443 </v>
   <v>       0.36346970       0.56537582       0.48905523 </v>
   <v>       0.48605400       0.56993547       0.35142595 </v>
   <v>       0.67680186       0.64191217       0.41901986 </v>
   <v>       0.31301819       0.45831989       0.35697748 </v>
   <v>       0.47686541       0.38978276       0.34379461 </v>
   <v>       0.36033467       0.57506375       0.36041040 </v>
   <v>       0.55092488       0.46267298       0.53775451 </v>
   <v>       0.61004728       0.56323472       0.35064384 </v>
   <v>       0.41553689       0.48617703       0.29164289 </v>
   <v>       0.42103408       0.47862101       0.41557770 </v>
   <v>       0.36779193       0.55244896       0.61679654 </v>
   <v>       0.26104266       0.53041749       0.55419020 </v>
   <v>       0.58201885       0.35288911       0.40115863 </v>
   <v>       0.61597335       0.55381868       0.47998957 </v>
   <v>       0.71953652       0.51326822       0.53838129 </v>
   <v>       0.55838116       0.63969821       0.56252171 </v>
   <v>       0.31166612       0.44570268       0.48124199 </v>
   <v>       0.62047102       0.72118060       0.49235533 </v>
   <v>       0.30683840       0.64476941       0.56284399 </v>
   <v>       0.55309703       0.65287486       0.41421973 </v>
   <v>       0.68239560       0.63124673       0.54812431 </v>
   <v>       0.49466949       0.54732955       0.61533831 </v>
   <v>       0.30664953       0.65813326       0.43417892 </v>
   <v>       0.54093307       0.48035704       0.28662617 </v>
   <v>       0.42938876       0.45544279       0.66672719 </v>
   <v>       0.49876427       0.72426587       0.49817056 </v>
   <v>       0.58619195       0.34326704       0.52547351 </v>
   <v>       0.59090745       0.33416908       0.64700497 </v>
   <v>       0.37464268       0.36508840       0.41052258 </v>
   <v>       0.64786463       0.44247113       0.34380084 </v>
   <v>       0.43005782       0.65461400       0.42358599 </v>
   <v>       0.38214058       0.34385525       0.65743686 </v>
   <v>       0.42504481       0.46822818       0.54151520 </v>
   <v>       0.48165663       0.37886000       0.46980802 </v>
   <v>       0.57758119       0.36478168       0.27933082 </v>
  </varray>
 </structure>
</modeling>
