 vasp.5.3.5 31Mar14 (build Feb 01 2018 12:10:03) gamma-only                     
  
 executed on             LinuxIFC date 2019.03.23  06:00:54
 running on   64 total cores
 distrk:  each k-point on   64 cores,    1 groups
 distr:  one band on NCORES_PER_BAND=  16 cores,    4 groups


--------------------------------------------------------------------------------------------------------


 INCAR:
 POTCAR:    PAW_PBE Ag 02Apr2005                  
 POTCAR:    PAW_PBE Ag 02Apr2005                  
   VRHFIN =Ag : s1 d10                                                          
   LEXCH  = PE                                                                  
   EATOM  =  1037.2675 eV,   76.2370 Ry                                         
                                                                                
   TITEL  = PAW_PBE Ag 02Apr2005                                                
   LULTRA =        F    use ultrasoft PP ?                                      
   IUNSCR =        1    unscreen: 0-lin 1-nonlin 2-no                           
   RPACOR =    2.000    partial core radius                                     
   POMASS =  107.868; ZVAL   =   11.000    mass and valenz                      
   RCORE  =    2.500    outmost cutoff radius                                   
   RWIGS  =    2.840; RWIGS  =    1.503    wigner-seitz radius (au A)           
   ENMAX  =  249.844; ENMIN  =  187.383 eV                                      
   ICORE  =        3    local potential                                         
   LCOR   =        T    correct aug charges                                     
   LPAW   =        T    paw PP                                                  
   EAUG   =  412.496                                                            
   DEXC   =    0.000                                                            
   RMAX   =    2.560    core radius for proj-oper                               
   RAUG   =    1.300    factor for augmentation sphere                          
   RDEP   =    2.576    radius for radial grids                                 
   RDEPT  =    2.072    core radius for aug-charge                              
                                                                                
   Atomic configuration                                                         
   12 entries                                                                   
     n  l   j            E        occ.                                          
     1  0  0.50    -25324.9161   2.0000                                         
     2  0  0.50     -3728.5341   2.0000                                         
     2  1  1.50     -3344.0404   6.0000                                         
     3  0  0.50      -683.5581   2.0000                                         
     3  1  1.50      -557.3225   6.0000                                         
     3  2  2.50      -358.3853  10.0000                                         
     4  0  0.50       -95.0341   2.0000                                         
     4  1  1.50       -58.5511   6.0000                                         
     4  2  2.50        -7.4440  10.0000                                         
     5  0  0.50        -4.4045   1.0000                                         
     5  1  0.50        -1.3606   0.0000                                         
     4  3  2.50        -1.3606   0.0000                                         
   Description                                                                  
     l       E           TYP  RCUT    TYP  RCUT                                 
     2     -7.4439781     23  2.400                                             
     2     -8.8045607     23  2.400                                             
     0     -4.4044681     23  2.400                                             
     0      1.9520038     23  2.400                                             
     1     -1.3605826     23  2.500                                             
     1     27.2116520     23  2.500                                             
     3     -4.0817478     23  2.400                                             
  local pseudopotential read in
  partial core-charges read in
  partial kinetic energy density read in
  atomic valenz-charges read in
  non local Contribution for L=           2  read in
    real space projection operators read in
  non local Contribution for L=           2  read in
    real space projection operators read in
  non local Contribution for L=           0  read in
    real space projection operators read in
  non local Contribution for L=           0  read in
    real space projection operators read in
  non local Contribution for L=           1  read in
    real space projection operators read in
  non local Contribution for L=           1  read in
    real space projection operators read in
    PAW grid and wavefunctions read in
 
   number of l-projection  operators is LMAX  =           6
   number of lm-projection operators is LMMAX =          18
 

 ----------------------------------------------------------------------------- 
|                                                                             |
|  ADVICE TO THIS USER RUNNING 'VASP/VAMP'   (HEAR YOUR MASTER'S VOICE ...):  |
|                                                                             |
|      You have a (more or less) 'large supercell' and for larger cells       |
|      it might be more efficient to use real space projection opertators     |
|      So try LREAL= Auto  in the INCAR   file.                               |
|      Mind: At the moment your POTCAR file does not contain real space       |
|       projectors, and has to be modified,  BUT if you                       |
|      want to do an extremely  accurate calculation you might also keep the  |
|      reciprocal projection scheme          (i.e. LREAL=.FALSE.)             |
|                                                                             |
 ----------------------------------------------------------------------------- 

  PAW_PBE Ag 02Apr2005                  :
 energy of atom  1       EATOM=-1037.2675
 kinetic energy error for atom=    0.0689 (will be added to EATOM!!)
 
 
 POSCAR: Al38, -119.9428492 <s> Ag </s>          
  positions in direct lattice
  No initial velocities read in
 exchange correlation table for  LEXCH =        8
   RHO(1)=    0.500       N(1)  =     2000
   RHO(2)=  100.500       N(2)  =     4000
 


--------------------------------------------------------------------------------------------------------


 ion  position               nearest neighbor table
   1  0.641  0.618  0.544-   8 2.70   4 2.78   2 2.78   7 2.78  12 2.94  13 3.06   6 3.42
   2  0.535  0.656  0.562-   3 2.73   1 2.78   7 2.83  16 2.84   6 2.86  11 3.04   5 3.23  13 3.52

   3  0.427  0.675  0.585-  11 2.70   2 2.73   9 2.76   5 2.81  17 2.87  16 3.08
   4  0.684  0.539  0.614-  10 2.72  12 2.77   1 2.78   7 2.84  18 2.87
   5  0.440  0.673  0.471-   6 2.71   3 2.81  15 2.85   9 2.86  16 2.86  19 2.87   2 3.23
   6  0.547  0.652  0.445-   5 2.71  14 2.77  15 2.83   2 2.86   8 2.87  13 2.89  16 3.40   1 3.42

   7  0.569  0.553  0.603-   1 2.78  11 2.78  21 2.79   2 2.83   4 2.84  18 2.91  10 2.92  20 2.94
                            13 3.01  16 3.23
   8  0.654  0.605  0.435-   1 2.70  25 2.76  14 2.81   6 2.87  13 2.89  12 2.93
   9  0.334  0.676  0.520-   3 2.76  19 2.80  17 2.83   5 2.86
  10  0.621  0.493  0.693-  26 2.71   4 2.72  22 2.91   7 2.92  20 2.93  18 2.95
  11  0.465  0.586  0.639-   3 2.70  20 2.71   7 2.78  16 2.83  24 2.96  17 2.99   2 3.04  21 3.59

  12  0.674  0.509  0.505-  18 2.76  25 2.77   4 2.77  13 2.82  28 2.86   8 2.93   1 2.94
  13  0.566  0.540  0.480-  16 2.78  27 2.81  12 2.82  28 2.83   6 2.89   8 2.89  25 2.99   7 3.01
                            21 3.02  14 3.04   1 3.06  15 3.15   2 3.52  18 3.60
  14  0.569  0.578  0.361-  30 2.68  15 2.75   6 2.77  25 2.79   8 2.81  23 3.01  13 3.04
  15  0.466  0.578  0.407-  14 2.75  19 2.78  27 2.83   6 2.83  16 2.84   5 2.85  31 2.88  23 2.88
                            13 3.15
  16  0.464  0.571  0.524-  13 2.78  17 2.83  29 2.83  11 2.83   2 2.84  15 2.84  21 2.85   5 2.86
                            19 2.99   3 3.08   7 3.23  27 3.23   6 3.40  24 3.46
  17  0.361  0.577  0.575-  24 2.73  16 2.83   9 2.83   3 2.87  19 2.90  29 2.91  11 2.99
  18  0.619  0.446  0.581-  28 2.68  12 2.76  22 2.80  33 2.86  21 2.86   4 2.87   7 2.91  10 2.95
                            13 3.60
  19  0.363  0.585  0.456-  29 2.76  15 2.78   9 2.80  31 2.87   5 2.87  17 2.90  16 2.99
  20  0.501  0.489  0.681-  11 2.71  26 2.74  24 2.82  22 2.87  32 2.91  10 2.93   7 2.94  21 2.97

  21  0.505  0.467  0.561-  33 2.77   7 2.79  16 2.85  24 2.86  18 2.86  36 2.89  27 2.94  20 2.97
                            13 3.02  32 3.08  28 3.16  29 3.19  22 3.49  11 3.59
  22  0.565  0.391  0.666-  32 2.70  26 2.74  33 2.79  18 2.80  20 2.87  10 2.91  21 3.49
  23  0.484  0.499  0.321-  37 2.78  30 2.80  31 2.86  15 2.88  34 2.90  14 3.01  27 3.03
  24  0.404  0.483  0.618-  17 2.73  32 2.78  29 2.79  20 2.82  21 2.86  11 2.96  36 3.18  16 3.46

  25  0.645  0.499  0.396-   8 2.76  12 2.77  14 2.79  34 2.81  28 2.88  30 2.89  13 2.99
  26  0.555  0.441  0.767-  10 2.71  20 2.74  22 2.74
  27  0.484  0.468  0.442-  13 2.81  35 2.81  15 2.83  29 2.83  34 2.83  31 2.86  38 2.90  21 2.94
                            28 2.99  23 3.03  37 3.14  16 3.23  36 3.48
  28  0.595  0.428  0.475-  18 2.68  34 2.73  13 2.83  35 2.85  12 2.86  25 2.88  33 2.88  27 2.99
                            21 3.16
  29  0.388  0.485  0.505-  19 2.76  24 2.79  38 2.81  36 2.83  16 2.83  27 2.83  17 2.91  31 2.94
                            21 3.19
  30  0.594  0.500  0.288-  14 2.68  23 2.80  34 2.81  25 2.89
  31  0.385  0.494  0.384-  38 2.82  23 2.86  27 2.86  19 2.87  15 2.88  29 2.94  37 3.14
  32  0.456  0.385  0.643-  36 2.64  22 2.70  24 2.78  20 2.91  33 3.03  21 3.08
  33  0.543  0.360  0.558-  21 2.77  22 2.79  35 2.81  18 2.86  28 2.88  36 2.93  32 3.03
  34  0.562  0.423  0.368-  28 2.73  30 2.81  25 2.81  27 2.83  35 2.87  37 2.88  23 2.90
  35  0.507  0.355  0.448-  27 2.81  33 2.81  28 2.85  34 2.87  38 2.92  37 3.02  36 3.03
  36  0.426  0.381  0.539-  38 2.62  32 2.64  29 2.83  21 2.89  33 2.93  35 3.03  24 3.18  27 3.48

  37  0.451  0.392  0.343-  38 2.68  23 2.78  34 2.88  35 3.02  27 3.14  31 3.14
  38  0.393  0.392  0.437-  36 2.62  37 2.68  29 2.81  31 2.82  27 2.90  35 2.92
 
  LATTYP: Found a simple cubic cell.
 ALAT       =    24.3411207463
  
  Lattice vectors:
  
 A1 = (  24.3411207463,   0.0000000000,   0.0000000000)
 A2 = (   0.0000000000,  24.3411207463,   0.0000000000)
 A3 = (   0.0000000000,   0.0000000000,  24.3411207463)


Analysis of symmetry for initial positions (statically):
=====================================================================
 Subroutine PRICEL returns:
 Original cell was already a primitive cell.
 

 Routine SETGRP: Setting up the symmetry group for a 
 simple cubic supercell.


 Subroutine GETGRP returns: Found  1 space group operations
 (whereof  1 operations were pure point group operations)
 out of a pool of 48 trial point group operations.


The static configuration has the point symmetry C_1 .


Analysis of symmetry for dynamics (positions and initial velocities):
=====================================================================
 Subroutine PRICEL returns:
 Original cell was already a primitive cell.
 

 Routine SETGRP: Setting up the symmetry group for a 
 simple cubic supercell.


 Subroutine GETGRP returns: Found  1 space group operations
 (whereof  1 operations were pure point group operations)
 out of a pool of 48 trial point group operations.


The dynamic configuration has the point symmetry C_1 .


Analysis of magnetic symmetry:
=====================================================================
 Subroutine PRICEL returns:
 Original cell was already a primitive cell.
 

 Subroutine MAGSYM returns: Found  1 space group operations
 (whereof  1 operations were pure point group operations)
 out of a pool of  1 trial space group operations
 (whereof  1 operations were pure point group operations)
 and found also     1 'primitive' translations


The magnetic configuration has the point symmetry C_1 .
 
 
 KPOINTS: Gamma-point only                        
  k-points in reciprocal lattice
Space group operators:
 irot       det(A)        alpha          n_x          n_y          n_z        tau_x        tau_y        tau_z
    1     1.000000     0.000000     1.000000     0.000000     0.000000     0.000000     0.000000     0.000000


--------------------------------------------------------------------------------------------------------




 Dimension of arrays:
   k-points           NKPTS =      1   k-points in BZ     NKDIM =      1   number of bands    NBANDS=    272
   number of dos      NEDOS =    301   number of ions     NIONS =     38
   non local maximal  LDIM  =      6   non local SUM 2l+1 LMDIM =     18
   total plane-waves  NPLWV = 884736
   max r-space proj   IRMAX =      1   max aug-charges    IRDMAX=   3215
   dimension x,y,z NGX =    96 NGY =   96 NGZ =   96
   dimension x,y,z NGXF=   192 NGYF=  192 NGZF=  192
   support grid    NGXF=   192 NGYF=  192 NGZF=  192
   ions per type =              38
 NGX,Y,Z   is equivalent  to a cutoff of   6.56,  6.56,  6.56 a.u.
 NGXF,Y,Z  is equivalent  to a cutoff of  13.11, 13.11, 13.11 a.u.


 I would recommend the setting:
   dimension x,y,z NGX =    94 NGY =   94 NGZ =   94
 SYSTEM =  unknown system                          
 POSCAR =  Al38, -119.9428492 <s> Ag </s>          

 Startparameter for this run:
   NWRITE =      2    write-flag & timer
   PREC   = normal    normal or accurate (medium, high low for compatibility)
   ISTART =      0    job   : 0-new  1-cont  2-samecut
   ICHARG =      2    charge: 1-file 2-atom 10-const
   ISPIN  =      2    spin polarized calculation?
   LNONCOLLINEAR =      F non collinear calculations
   LSORBIT =      F    spin-orbit coupling
   INIWAV =      1    electr: 0-lowe 1-rand  2-diag
   LASPH  =      F    aspherical Exc in radial PAW
   METAGGA=      F    non-selfconsistent MetaGGA calc.

 Electronic Relaxation 1
   ENCUT  =  249.8 eV  18.36 Ry    4.29 a.u.  31.37 31.37 31.37*2*pi/ulx,y,z
   ENINI  =  249.8     initial cutoff
   ENAUG  =  412.5 eV  augmentation charge cutoff
   NELM   =     60;   NELMIN=  2; NELMDL= -5     # of ELM steps 
   EDIFF  = 0.1E-03   stopping-criterion for ELM
   LREAL  =      F    real-space projection
   NLSPLINE    = F    spline interpolate recip. space projectors
   LCOMPAT=      F    compatible to vasp.4.4
   GGA_COMPAT  = T    GGA compatible to vasp.4.4-vasp.4.6
   LMAXPAW     = -100 max onsite density
   LMAXMIX     =    2 max onsite mixed and CHGCAR
   VOSKOWN=      0    Vosko Wilk Nusair interpolation
   ROPT   =    0.00000
 Ionic relaxation
   EDIFFG = 0.1E-02   stopping-criterion for IOM
   NSW    =   1000    number of steps for IOM
   NBLOCK =      1;   KBLOCK =   1000    inner block; outer block 
   IBRION =      2    ionic relax: 0-MD 1-quasi-New 2-CG
   NFREE  =      1    steps in history (QN), initial steepest desc. (CG)
   ISIF   =      2    stress and relaxation
   IWAVPR =     11    prediction:  0-non 1-charg 2-wave 3-comb
   ISYM   =      2    0-nonsym 1-usesym 2-fastsym
   LCORR  =      T    Harris-Foulkes like correction to forces

   POTIM  = 0.1000    time-step for ionic-motion
   TEIN   =    0.0    initial temperature
   TEBEG  =    0.0;   TEEND  =   0.0 temperature during run
   SMASS  =  -3.00    Nose mass-parameter (am)
   estimated Nose-frequenzy (Omega)   =  0.10E-29 period in steps =****** mass=  -0.135E-25a.u.
   SCALEE = 1.0000    scale energy and forces
   NPACO  =    256;   APACO  = 16.0  distance and # of slots for P.C.
   PSTRESS=    0.0 pullay stress

  Mass of Ions in am
   POMASS = 107.87
  Ionic Valenz
   ZVAL   =  11.00
  Atomic Wigner-Seitz radii
   RWIGS  =  -1.00
  virtual crystal weights 
   VCA    =   1.00
   NELECT =     418.0000    total number of electrons
   NUPDOWN=      -1.0000    fix difference up-down

 DOS related values:
   EMIN   =  10.00;   EMAX   =-10.00  energy-range for DOS
   EFERMI =   0.00
   ISMEAR =     0;   SIGMA  =   0.00  broadening in eV -4-tet -1-fermi 0-gaus

 Electronic relaxation 2 (details)
   IALGO  =     38    algorithm
   LDIAG  =      T    sub-space diagonalisation (order eigenvalues)
   LSUBROT=      F    optimize rotation matrix (better conditioning)
   TURBO    =      0    0=normal 1=particle mesh
   IRESTART =      0    0=no restart 2=restart with 2 vectors
   NREBOOT  =      0    no. of reboots
   NMIN     =      0    reboot dimension
   EREF     =   0.00    reference energy to select bands
   IMIX   =      4    mixing-type and parameters
     AMIX     =   0.40;   BMIX     =  1.00
     AMIX_MAG =   1.60;   BMIX_MAG =  1.00
     AMIN     =   0.10
     WC   =   100.;   INIMIX=   1;  MIXPRE=   1;  MAXMIX= -45

 Intra band minimization:
   WEIMIN = 0.0010     energy-eigenvalue tresh-hold
   EBREAK =  0.92E-07  absolut break condition
   DEPER  =   0.30     relativ break condition  

   TIME   =   0.40     timestep for ELM

  volume/ion in A,a.u.               =     379.52      2561.15
  Fermi-wavevector in a.u.,A,eV,Ry     =   0.502875  0.950295  3.440680  0.252883
  Thomas-Fermi vector in A             =   1.512111
 
 Write flags
   LWAVE  =      F    write WAVECAR
   LCHARG =      F    write CHGCAR
   LVTOT  =      F    write LOCPOT, total local potential
   LVHAR  =      F    write LOCPOT, Hartree potential only
   LELF   =      F    write electronic localiz. function (ELF)
   LORBIT =      0    0 simple, 1 ext, 2 COOP (PROOUT)


 Dipole corrections
   LMONO  =      F    monopole corrections only (constant potential shift)
   LDIPOL =      F    correct potential (dipole corrections)
   IDIPOL =      0    1-x, 2-y, 3-z, 4-all directions 
   EPSILON=  1.0000000 bulk dielectric constant

 Exchange correlation treatment:
   GGA     =    PE    GGA type
   LEXCH   =     8    internal setting for exchange type
   VOSKOWN=      0    Vosko Wilk Nusair interpolation
   LHFCALC =     F    Hartree Fock is set to
   LHFONE  =     F    Hartree Fock one center treatment
   AEXX    =    0.0000 exact exchange contribution

 Linear response parameters
   LEPSILON=     F    determine dielectric tensor
   LRPA    =     F    only Hartree local field effects (RPA)
   LNABLA  =     F    use nabla operator in PAW spheres
   LVEL    =     F    velocity operator in full k-point grid
   LINTERFAST=   F  fast interpolation
   KINTER  =     0    interpolate to denser k-point grid
   CSHIFT  =0.1000    complex shift for real part using Kramers Kronig
   OMEGAMAX=  -1.0    maximum frequency
   DEG_THRESHOLD= 0.2000000E-02 threshold for treating states as degnerate
   RTIME   =    0.100 relaxation time in fs

 Orbital magnetization related:
   ORBITALMAG=     F  switch on orbital magnetization
   LCHIMAG   =     F  perturbation theory with respect to B field
   DQ        =  0.001000  dq finite difference perturbation B field



--------------------------------------------------------------------------------------------------------


 conjugate gradient relaxation of ions
 charge density and potential will be updated during run
 spin polarized calculation
 Variant of blocked Davidson
 Davidson routine will perform the subspace rotation
 perform sub-space diagonalisation
    after iterative eigenvector-optimisation
 modified Broyden-mixing scheme, WC =      100.0
 initial mixing is a Kerker type mixing with AMIX =  0.4000 and BMIX =      1.0000
 Hartree-type preconditioning will be used
 using additional bands           63
 reciprocal scheme for non local part
 use partial core corrections
 calculate Harris-corrections to forces 
   (improved forces if not selfconsistent)
 use gradient corrections 
 use of overlap-Matrix (Vanderbilt PP)
 Gauss-broadening in eV      SIGMA  =   0.00


--------------------------------------------------------------------------------------------------------


  energy-cutoff  :      249.84
  volume of cell :    14421.87
      direct lattice vectors                 reciprocal lattice vectors
    24.341120746  0.000000000  0.000000000     0.041082743  0.000000000  0.000000000
     0.000000000 24.341120746  0.000000000     0.000000000  0.041082743  0.000000000
     0.000000000  0.000000000 24.341120746     0.000000000  0.000000000  0.041082743

  length of vectors
    24.341120746 24.341120746 24.341120746     0.041082743  0.041082743  0.041082743


 
 k-points in units of 2pi/SCALE and weight: Gamma-point only                        
   0.00000000  0.00000000  0.00000000       1.000
 
 k-points in reciprocal lattice and weights: Gamma-point only                        
   0.00000000  0.00000000  0.00000000       1.000
 
 position of ions in fractional coordinates (direct lattice) 
   0.64089985  0.61830007  0.54407427
   0.53450351  0.65551043  0.56214518
   0.42651530  0.67466910  0.58494490
   0.68406909  0.53919818  0.61400356
   0.44016679  0.67271499  0.47052452
   0.54654480  0.65198778  0.44544178
   0.56876643  0.55258105  0.60346341
   0.65421149  0.60491719  0.43491366
   0.33365543  0.67611481  0.52012275
   0.62081338  0.49264681  0.69332221
   0.46534379  0.58576883  0.63905192
   0.67434164  0.50898388  0.50485867
   0.56553825  0.54017384  0.48030037
   0.56894926  0.57826797  0.36146835
   0.46555547  0.57760620  0.40711170
   0.46432543  0.57065799  0.52371305
   0.36054130  0.57740503  0.57535105
   0.61892240  0.44639812  0.58142572
   0.36274766  0.58498113  0.45641461
   0.50124521  0.48902531  0.68056472
   0.50506903  0.46727583  0.56060170
   0.56476596  0.39053333  0.66606061
   0.48362665  0.49865012  0.32098061
   0.40386558  0.48318230  0.61794276
   0.64453981  0.49916137  0.39568446
   0.55527023  0.44068956  0.76654482
   0.48409093  0.46829103  0.44151255
   0.59486900  0.42759868  0.47547822
   0.38791947  0.48527112  0.50453216
   0.59395911  0.49969232  0.28831374
   0.38467770  0.49449340  0.38424695
   0.45628177  0.38493246  0.64308480
   0.54317414  0.35998939  0.55763450
   0.56229549  0.42261402  0.36831532
   0.50695474  0.35530107  0.44797910
   0.42608331  0.38116637  0.53911582
   0.45106093  0.39166527  0.34323386
   0.39314518  0.39155708  0.43706277
 
 position of ions in cartesian coordinates  (Angst):
  15.60022065 15.05011667 13.24337748
  13.01041440 15.95585847 13.68324368
  10.38186042 16.42220193 14.23821444
  16.65100824 13.12468804 14.94553470
  10.71415289 16.37463681 11.45309426
  13.30351290 15.87011331 10.84255208
  13.84441245 13.45044199 14.68897570
  15.92424084 14.72436231 10.58628593
   8.12154700 16.45739230 12.66037070
  15.11129355 11.99157541 16.87623970
  11.32698944 14.25826973 15.55523990
  16.41423119 12.38923800 12.28882575
  13.76583487 13.14843659 11.69104926
  13.84886269 14.07569039  8.79854486
  11.33214193 14.05958234  9.90955509
  11.30220143 13.89045497 12.74776263
   8.77597942 14.05468555 14.00468929
  15.06526487 10.86583049 14.15255356
   8.82968456 14.23909642 11.10964325
  12.20087008 11.90342411 16.56570801
  12.29394620 11.37401739 13.64567371
  13.74703631  9.50601898 16.21266167
  11.77201466 12.13770273  7.81302768
   9.83054075 11.76119867 15.04141928
  15.68882146 12.15014707  9.63140314
  13.51589963 10.72687787 18.65855999
  11.78331588 11.39872843 10.74691041
  14.47977816 10.40823117 11.57367271
   9.44239455 11.81204293 12.28087817
  14.45763049 12.16307103  7.01787955
   9.36348645 12.03652353  9.35300131
  11.10640960  9.36968752 15.65340486
  13.22146739  8.76254521 13.57344882
  13.68690239 10.28689892  8.96520764
  12.33984652  8.64842627 10.90431334
  10.37134526  9.27801662 13.12268334
  10.97932867  9.53357168  8.35469686
   9.56959428  9.53093820 10.63859770
 


--------------------------------------------------------------------------------------------------------


 use parallel FFT for wavefunctions z direction half grid
 k-point  1 :   0.0000 0.0000 0.0000  plane waves:   64594

 maximum and minimum number of plane-waves per node :      4043     4030

 maximum number of plane-waves:     64594
 maximum index in each direction: 
   IXMAX=   31   IYMAX=   31   IZMAX=   31
   IXMIN=  -31   IYMIN=  -31   IZMIN=    0

 WARNING: aliasing errors must be expected set NGX to 126 to avoid them
 WARNING: aliasing errors must be expected set NGY to 126 to avoid them
 WARNING: aliasing errors must be expected set NGZ to 126 to avoid them
 aliasing errors are usually negligible using standard VASP settings
 and one can safely disregard these warnings

 parallel 3D FFT for wavefunctions:
    minimum data exchange during FFTs selected (reduces bandwidth)
 parallel 3D FFT for charge:
    minimum data exchange during FFTs selected (reduces bandwidth)


 total amount of memory used by VASP on root node    59386. kBytes
========================================================================

   base      :      30000. kBytes
   nonl-proj :       3041. kBytes
   fftplans  :       4970. kBytes
   grid      :      12469. kBytes
   one-center:         46. kBytes
   wavefun   :       8860. kBytes
 
     INWAV:  cpu time    0.00: real time    0.00
 Broyden mixing: mesh for mixing (old mesh)
   NGX = 63   NGY = 63   NGZ = 63
  (NGX  =192   NGY  =192   NGZ  =192)
  gives a total of 250047 points

 initial charge density was supplied:
 charge density of overlapping atoms calculated
 number of electron     418.0000000 magnetization      38.0000000
 keeping initial charge density in first step


--------------------------------------------------------------------------------------------------------


 Maximum index for augmentation-charges          247 (set IRDMAX)


--------------------------------------------------------------------------------------------------------


 First call to EWALD:  gamma=   0.073
 Maximum number of real-space cells 3x 3x 3
 Maximum number of reciprocal cells 3x 3x 3

 FEWALD executed in parallel
    FEWALD:  cpu time    0.00: real time    0.00


----------------------------------------- Iteration    1(   1)  ---------------------------------------


    POTLOK:  cpu time    0.24: real time    0.24
    SETDIJ:  cpu time    0.01: real time    0.01
     EDDAV:  cpu time    4.70: real time    4.71
       DOS:  cpu time    0.00: real time    0.00
    --------------------------------------------
      LOOP:  cpu time    4.95: real time    4.99

 eigenvalue-minimisations  :  1088
 total energy-change (2. order) : 0.3717821E+04  (-0.7556816E+04)
 number of electron     418.0000000 magnetization      38.0000000
 augmentation part      418.0000000 magnetization      38.0000000

 Free energy of the ion-electron system (eV)
  ---------------------------------------------------
  alpha Z        PSCENC =        85.16470804
  Ewald energy   TEWEN  =    107837.60085863
  -Hartree energ DENC   =   -145601.68894188
  -exchange      EXHF   =         0.00000000
  -V(xc)+E(xc)   XCENC  =      -414.76067313
  PAW double counting   =     38128.14276665   -36376.05513740
  entropy T*S    EENTRO =        -0.00000000
  eigenvalues    EBANDS =       645.86996056
  atomic energy  EATOM  =     39413.54794328
  ---------------------------------------------------
  free energy    TOTEN  =      3717.82148474 eV

  energy without entropy =     3717.82148474  energy(sigma->0) =     3717.82148474


--------------------------------------------------------------------------------------------------------




----------------------------------------- Iteration    1(   2)  ---------------------------------------


     EDDAV:  cpu time    7.41: real time    7.42
       DOS:  cpu time    0.00: real time    0.00
    --------------------------------------------
      LOOP:  cpu time    7.41: real time    7.43

 eigenvalue-minimisations  :  1912
 total energy-change (2. order) :-0.2876622E+04  (-0.2561743E+04)
 number of electron     418.0000000 magnetization      38.0000000
 augmentation part      418.0000000 magnetization      38.0000000

 Free energy of the ion-electron system (eV)
  ---------------------------------------------------
  alpha Z        PSCENC =        85.16470804
  Ewald energy   TEWEN  =    107837.60085863
  -Hartree energ DENC   =   -145601.68894188
  -exchange      EXHF   =         0.00000000
  -V(xc)+E(xc)   XCENC  =      -414.76067313
  PAW double counting   =     38128.14276665   -36376.05513740
  entropy T*S    EENTRO =         0.00000000
  eigenvalues    EBANDS =     -2230.75210763
  atomic energy  EATOM  =     39413.54794328
  ---------------------------------------------------
  free energy    TOTEN  =       841.19941656 eV

  energy without entropy =      841.19941656  energy(sigma->0) =      841.19941656


--------------------------------------------------------------------------------------------------------




----------------------------------------- Iteration    1(   3)  ---------------------------------------


     EDDAV:  cpu time    5.79: real time    5.79
       DOS:  cpu time    0.00: real time    0.00
    --------------------------------------------
      LOOP:  cpu time    5.79: real time    5.80

 eigenvalue-minimisations  :  1424
 total energy-change (2. order) :-0.8748776E+03  (-0.7978965E+03)
 number of electron     418.0000000 magnetization      38.0000000
 augmentation part      418.0000000 magnetization      38.0000000

 Free energy of the ion-electron system (eV)
  ---------------------------------------------------
  alpha Z        PSCENC =        85.16470804
  Ewald energy   TEWEN  =    107837.60085863
  -Hartree energ DENC   =   -145601.68894188
  -exchange      EXHF   =         0.00000000
  -V(xc)+E(xc)   XCENC  =      -414.76067313
  PAW double counting   =     38128.14276665   -36376.05513740
  entropy T*S    EENTRO =         0.00000000
  eigenvalues    EBANDS =     -3105.62974818
  atomic energy  EATOM  =     39413.54794328
  ---------------------------------------------------
  free energy    TOTEN  =       -33.67822400 eV

  energy without entropy =      -33.67822400  energy(sigma->0) =      -33.67822400


--------------------------------------------------------------------------------------------------------




----------------------------------------- Iteration    1(   4)  ---------------------------------------


     EDDAV:  cpu time    5.17: real time    5.18
       DOS:  cpu time    0.00: real time    0.00
    --------------------------------------------
      LOOP:  cpu time    5.17: real time    5.18

 eigenvalue-minimisations  :  1192
 total energy-change (2. order) :-0.4743870E+02  (-0.4685364E+02)
 number of electron     418.0000000 magnetization      38.0000000
 augmentation part      418.0000000 magnetization      38.0000000

 Free energy of the ion-electron system (eV)
  ---------------------------------------------------
  alpha Z        PSCENC =        85.16470804
  Ewald energy   TEWEN  =    107837.60085863
  -Hartree energ DENC   =   -145601.68894188
  -exchange      EXHF   =         0.00000000
  -V(xc)+E(xc)   XCENC  =      -414.76067313
  PAW double counting   =     38128.14276665   -36376.05513740
  entropy T*S    EENTRO =         0.00000000
  eigenvalues    EBANDS =     -3153.06844536
  atomic energy  EATOM  =     39413.54794328
  ---------------------------------------------------
  free energy    TOTEN  =       -81.11692118 eV

  energy without entropy =      -81.11692118  energy(sigma->0) =      -81.11692118


--------------------------------------------------------------------------------------------------------




----------------------------------------- Iteration    1(   5)  ---------------------------------------


     EDDAV:  cpu time    5.22: real time    5.22
       DOS:  cpu time    0.00: real time    0.00
    CHARGE:  cpu time    0.13: real time    0.13
    MIXING:  cpu time    0.00: real time    0.01
    --------------------------------------------
      LOOP:  cpu time    5.35: real time    5.36

 eigenvalue-minimisations  :  1240
 total energy-change (2. order) :-0.6825061E+00  (-0.6814623E+00)
 number of electron     417.9999814 magnetization      34.4017881
 augmentation part      196.0550361 magnetization      33.2978643

 Broyden mixing:
  rms(total) = 0.35554E+01    rms(broyden)= 0.35548E+01
  rms(prec ) = 0.36047E+01
  weight for this iteration     100.00

 Free energy of the ion-electron system (eV)
  ---------------------------------------------------
  alpha Z        PSCENC =        85.16470804
  Ewald energy   TEWEN  =    107837.60085863
  -Hartree energ DENC   =   -145601.68894188
  -exchange      EXHF   =         0.00000000
  -V(xc)+E(xc)   XCENC  =      -414.76067313
  PAW double counting   =     38128.14276665   -36376.05513740
  entropy T*S    EENTRO =         0.00000000
  eigenvalues    EBANDS =     -3153.75095149
  atomic energy  EATOM  =     39413.54794328
  ---------------------------------------------------
  free energy    TOTEN  =       -81.79942731 eV

  energy without entropy =      -81.79942731  energy(sigma->0) =      -81.79942731


--------------------------------------------------------------------------------------------------------




----------------------------------------- Iteration    1(   6)  ---------------------------------------


    POTLOK:  cpu time    0.24: real time    0.24
    SETDIJ:  cpu time    0.01: real time    0.01
     EDDAV:  cpu time    4.76: real time    4.76
       DOS:  cpu time    0.00: real time    0.00
    CHARGE:  cpu time    0.13: real time    0.13
    MIXING:  cpu time    0.00: real time    0.01
    --------------------------------------------
      LOOP:  cpu time    5.14: real time    5.15

 eigenvalue-minimisations  :  1104
 total energy-change (2. order) : 0.4876746E+02  (-0.1493796E+02)
 number of electron     417.9999808 magnetization      31.9464155
 augmentation part      200.8018538 magnetization      21.1486126

 Broyden mixing:
  rms(total) = 0.19075E+01    rms(broyden)= 0.19074E+01
  rms(prec ) = 0.19283E+01
  weight for this iteration     100.00

 eigenvalues of (default mixing * dielectric matrix)
  average eigenvalue GAMMA=   0.8523
  0.8523

 Free energy of the ion-electron system (eV)
  ---------------------------------------------------
  alpha Z        PSCENC =        85.16470804
  Ewald energy   TEWEN  =    107837.60085863
  -Hartree energ DENC   =   -145439.27235403
  -exchange      EXHF   =         0.00000000
  -V(xc)+E(xc)   XCENC  =      -392.89220675
  PAW double counting   =     39407.71060094   -37684.10212204
  entropy T*S    EENTRO =         0.00000000
  eigenvalues    EBANDS =     -3260.78939791
  atomic energy  EATOM  =     39413.54794328
  ---------------------------------------------------
  free energy    TOTEN  =       -33.03196984 eV

  energy without entropy =      -33.03196984  energy(sigma->0) =      -33.03196984


--------------------------------------------------------------------------------------------------------




----------------------------------------- Iteration    1(   7)  ---------------------------------------


    POTLOK:  cpu time    0.23: real time    0.23
    SETDIJ:  cpu time    0.01: real time    0.01
     EDDAV:  cpu time    4.97: real time    4.97
       DOS:  cpu time    0.00: real time    0.00
    CHARGE:  cpu time    0.13: real time    0.13
    MIXING:  cpu time    0.00: real time    0.01
    --------------------------------------------
      LOOP:  cpu time    5.34: real time    5.61

 eigenvalue-minimisations  :  1168
 total energy-change (2. order) : 0.8288195E+01  (-0.8589896E+00)
 number of electron     417.9999810 magnetization      27.6614061
 augmentation part      200.7714898 magnetization      19.1295878

 Broyden mixing:
  rms(total) = 0.12182E+01    rms(broyden)= 0.12182E+01
  rms(prec ) = 0.12328E+01
  weight for this iteration     100.00

 eigenvalues of (default mixing * dielectric matrix)
  average eigenvalue GAMMA=   1.0328
  0.7610  1.3046

 Free energy of the ion-electron system (eV)
  ---------------------------------------------------
  alpha Z        PSCENC =        85.16470804
  Ewald energy   TEWEN  =    107837.60085863
  -Hartree energ DENC   =   -145526.95007869
  -exchange      EXHF   =         0.00000000
  -V(xc)+E(xc)   XCENC  =      -386.08801773
  PAW double counting   =     40179.73233858   -38474.29509096
  entropy T*S    EENTRO =         0.00000000
  eigenvalues    EBANDS =     -3153.45643631
  atomic energy  EATOM  =     39413.54794328
  ---------------------------------------------------
  free energy    TOTEN  =       -24.74377516 eV

  energy without entropy =      -24.74377516  energy(sigma->0) =      -24.74377516


--------------------------------------------------------------------------------------------------------




----------------------------------------- Iteration    1(   8)  ---------------------------------------


    POTLOK:  cpu time    0.23: real time    0.23
    SETDIJ:  cpu time    0.01: real time    0.01
     EDDAV:  cpu time    5.04: real time    5.05
       DOS:  cpu time    0.00: real time    0.00
    CHARGE:  cpu time    0.13: real time    0.13
    MIXING:  cpu time    0.01: real time    0.01
    --------------------------------------------
      LOOP:  cpu time    5.42: real time    5.43

 eigenvalue-minimisations  :  1184
 total energy-change (2. order) : 0.6180999E+01  (-0.3037131E+00)
 number of electron     417.9999808 magnetization      24.8654728
 augmentation part      200.5992142 magnetization      14.5992154

 Broyden mixing:
  rms(total) = 0.64216E+00    rms(broyden)= 0.64211E+00
  rms(prec ) = 0.65584E+00
  weight for this iteration     100.00

 eigenvalues of (default mixing * dielectric matrix)
  average eigenvalue GAMMA=   1.2293
  2.1652  0.9048  0.6178

 Free energy of the ion-electron system (eV)
  ---------------------------------------------------
  alpha Z        PSCENC =        85.16470804
  Ewald energy   TEWEN  =    107837.60085863
  -Hartree energ DENC   =   -145649.35045930
  -exchange      EXHF   =         0.00000000
  -V(xc)+E(xc)   XCENC  =      -380.47936834
  PAW double counting   =     41141.84812352   -39456.59676315
  entropy T*S    EENTRO =         0.00000000
  eigenvalues    EBANDS =     -3010.29781883
  atomic energy  EATOM  =     39413.54794328
  ---------------------------------------------------
  free energy    TOTEN  =       -18.56277615 eV

  energy without entropy =      -18.56277615  energy(sigma->0) =      -18.56277615


--------------------------------------------------------------------------------------------------------




----------------------------------------- Iteration    1(   9)  ---------------------------------------


    POTLOK:  cpu time    0.24: real time    0.24
    SETDIJ:  cpu time    0.01: real time    0.01
     EDDAV:  cpu time    5.01: real time    5.01
       DOS:  cpu time    0.00: real time    0.00
    CHARGE:  cpu time    0.13: real time    0.13
    MIXING:  cpu time    0.00: real time    0.01
    --------------------------------------------
      LOOP:  cpu time    5.39: real time    5.42

 eigenvalue-minimisations  :  1184
 total energy-change (2. order) :-0.7953499E+01  (-0.1962703E+00)
 number of electron     417.9999810 magnetization      23.0506209
 augmentation part      200.4813593 magnetization      14.9333157

 Broyden mixing:
  rms(total) = 0.47356E+00    rms(broyden)= 0.47351E+00
  rms(prec ) = 0.47934E+00
  weight for this iteration     100.00

 eigenvalues of (default mixing * dielectric matrix)
  average eigenvalue GAMMA=   1.1213
  2.3228  0.9569  0.6141  0.5913

 Free energy of the ion-electron system (eV)
  ---------------------------------------------------
  alpha Z        PSCENC =        85.16470804
  Ewald energy   TEWEN  =    107837.60085863
  -Hartree energ DENC   =   -145688.63045734
  -exchange      EXHF   =         0.00000000
  -V(xc)+E(xc)   XCENC  =      -386.29641768
  PAW double counting   =     41475.18407411   -39796.65808425
  entropy T*S    EENTRO =         0.00000000
  eigenvalues    EBANDS =     -2966.42890023
  atomic energy  EATOM  =     39413.54794328
  ---------------------------------------------------
  free energy    TOTEN  =       -26.51627544 eV

  energy without entropy =      -26.51627544  energy(sigma->0) =      -26.51627544


--------------------------------------------------------------------------------------------------------




----------------------------------------- Iteration    1(  10)  ---------------------------------------


    POTLOK:  cpu time    0.24: real time    0.25
    SETDIJ:  cpu time    0.01: real time    0.01
     EDDAV:  cpu time    5.02: real time    5.02
       DOS:  cpu time    0.00: real time    0.00
    CHARGE:  cpu time    0.13: real time    0.13
    MIXING:  cpu time    0.01: real time    0.01
    --------------------------------------------
      LOOP:  cpu time    5.41: real time    5.43

 eigenvalue-minimisations  :  1184
 total energy-change (2. order) :-0.4382212E+01  (-0.8421890E-01)
 number of electron     417.9999810 magnetization      18.0257426
 augmentation part      200.4571027 magnetization      10.1728771

 Broyden mixing:
  rms(total) = 0.39919E+00    rms(broyden)= 0.39919E+00
  rms(prec ) = 0.40184E+00
  weight for this iteration     100.00

 eigenvalues of (default mixing * dielectric matrix)
  average eigenvalue GAMMA=   1.2291
  2.3472  1.7882  0.8379  0.5860  0.5860

 Free energy of the ion-electron system (eV)
  ---------------------------------------------------
  alpha Z        PSCENC =        85.16470804
  Ewald energy   TEWEN  =    107837.60085863
  -Hartree energ DENC   =   -145697.47979273
  -exchange      EXHF   =         0.00000000
  -V(xc)+E(xc)   XCENC  =      -389.40950580
  PAW double counting   =     41510.67443457   -39832.84038612
  entropy T*S    EENTRO =         0.00000000
  eigenvalues    EBANDS =     -2958.15674703
  atomic energy  EATOM  =     39413.54794328
  ---------------------------------------------------
  free energy    TOTEN  =       -30.89848717 eV

  energy without entropy =      -30.89848717  energy(sigma->0) =      -30.89848717


--------------------------------------------------------------------------------------------------------




----------------------------------------- Iteration    1(  11)  ---------------------------------------


    POTLOK:  cpu time    0.23: real time    0.23
    SETDIJ:  cpu time    0.01: real time    0.01
     EDDAV:  cpu time    4.74: real time    4.74
       DOS:  cpu time    0.00: real time    0.00
    CHARGE:  cpu time    0.13: real time    0.13
    MIXING:  cpu time    0.00: real time    0.01
    --------------------------------------------
      LOOP:  cpu time    5.12: real time    5.85

 eigenvalue-minimisations  :  1128
 total energy-change (2. order) :-0.1609771E+02  (-0.7109340E+00)
 number of electron     417.9999809 magnetization      14.9864578
 augmentation part      200.4649710 magnetization       9.7571193

 Broyden mixing:
  rms(total) = 0.31895E+00    rms(broyden)= 0.31884E+00
  rms(prec ) = 0.32437E+00
  weight for this iteration     100.00

 eigenvalues of (default mixing * dielectric matrix)
  average eigenvalue GAMMA=   1.2783
  2.8981  2.0930  0.8551  0.6463  0.6463  0.5308

 Free energy of the ion-electron system (eV)
  ---------------------------------------------------
  alpha Z        PSCENC =        85.16470804
  Ewald energy   TEWEN  =    107837.60085863
  -Hartree energ DENC   =   -145708.61834745
  -exchange      EXHF   =         0.00000000
  -V(xc)+E(xc)   XCENC  =      -401.23253375
  PAW double counting   =     41485.93397792   -39807.95673501
  entropy T*S    EENTRO =         0.00000000
  eigenvalues    EBANDS =     -2951.43607327
  atomic energy  EATOM  =     39413.54794328
  ---------------------------------------------------
  free energy    TOTEN  =       -46.99620161 eV

  energy without entropy =      -46.99620161  energy(sigma->0) =      -46.99620161


--------------------------------------------------------------------------------------------------------




----------------------------------------- Iteration    1(  12)  ---------------------------------------


    POTLOK:  cpu time    0.23: real time    0.23
    SETDIJ:  cpu time    0.01: real time    0.01
     EDDAV:  cpu time    4.96: real time    4.96
       DOS:  cpu time    0.00: real time    0.00
    CHARGE:  cpu time    0.13: real time    0.13
    MIXING:  cpu time    0.01: real time    0.01
    --------------------------------------------
      LOOP:  cpu time    5.34: real time    5.69

 eigenvalue-minimisations  :  1160
 total energy-change (2. order) :-0.7155954E+01  (-0.2644814E+00)
 number of electron     417.9999809 magnetization      12.3443510
 augmentation part      200.3873173 magnetization       7.5029284

 Broyden mixing:
  rms(total) = 0.23986E+00    rms(broyden)= 0.23984E+00
  rms(prec ) = 0.24383E+00
  weight for this iteration     100.00

 eigenvalues of (default mixing * dielectric matrix)
  average eigenvalue GAMMA=   1.3816
  3.6468  2.2990  0.9587  0.9587  0.6867  0.6029  0.5180

 Free energy of the ion-electron system (eV)
  ---------------------------------------------------
  alpha Z        PSCENC =        85.16470804
  Ewald energy   TEWEN  =    107837.60085863
  -Hartree energ DENC   =   -145720.77110598
  -exchange      EXHF   =         0.00000000
  -V(xc)+E(xc)   XCENC  =      -406.31441445
  PAW double counting   =     41481.17646669   -39803.51058759
  entropy T*S    EENTRO =        -0.00000000
  eigenvalues    EBANDS =     -2941.04602463
  atomic energy  EATOM  =     39413.54794328
  ---------------------------------------------------
  free energy    TOTEN  =       -54.15215601 eV

  energy without entropy =      -54.15215601  energy(sigma->0) =      -54.15215601


--------------------------------------------------------------------------------------------------------




----------------------------------------- Iteration    1(  13)  ---------------------------------------


    POTLOK:  cpu time    0.24: real time    0.24
    SETDIJ:  cpu time    0.01: real time    0.01
     EDDAV:  cpu time    4.85: real time    4.85
       DOS:  cpu time    0.00: real time    0.00
    CHARGE:  cpu time    0.13: real time    0.13
    MIXING:  cpu time    0.01: real time    0.01
    --------------------------------------------
      LOOP:  cpu time    5.24: real time    5.44

 eigenvalue-minimisations  :  1128
 total energy-change (2. order) :-0.8686106E+01  (-0.3312430E+00)
 number of electron     417.9999808 magnetization      10.4590538
 augmentation part      200.3535244 magnetization       7.8323368

 Broyden mixing:
  rms(total) = 0.23398E+00    rms(broyden)= 0.23387E+00
  rms(prec ) = 0.24323E+00
  weight for this iteration     100.00

 eigenvalues of (default mixing * dielectric matrix)
  average eigenvalue GAMMA=   1.3519
  4.2572  2.3070  0.9690  0.9690  0.6830  0.5983  0.5983  0.4332

 Free energy of the ion-electron system (eV)
  ---------------------------------------------------
  alpha Z        PSCENC =        85.16470804
  Ewald energy   TEWEN  =    107837.60085863
  -Hartree energ DENC   =   -145709.69504116
  -exchange      EXHF   =         0.00000000
  -V(xc)+E(xc)   XCENC  =      -412.86563005
  PAW double counting   =     41385.43444071   -39706.74708881
  entropy T*S    EENTRO =         0.00000000
  eigenvalues    EBANDS =     -2955.27845265
  atomic energy  EATOM  =     39413.54794328
  ---------------------------------------------------
  free energy    TOTEN  =       -62.83826202 eV

  energy without entropy =      -62.83826202  energy(sigma->0) =      -62.83826202


--------------------------------------------------------------------------------------------------------




----------------------------------------- Iteration    1(  14)  ---------------------------------------


    POTLOK:  cpu time    0.27: real time    0.27
    SETDIJ:  cpu time    0.01: real time    0.01
     EDDAV:  cpu time    4.95: real time    4.96
       DOS:  cpu time    0.00: real time    0.00
    CHARGE:  cpu time    0.13: real time    0.13
    MIXING:  cpu time    0.01: real time    0.01
    --------------------------------------------
      LOOP:  cpu time    5.38: real time    5.40

 eigenvalue-minimisations  :  1168
 total energy-change (2. order) :-0.3075988E+01  (-0.6872527E-01)
 number of electron     417.9999808 magnetization       7.8723106
 augmentation part      200.3622683 magnetization       5.4399019

 Broyden mixing:
  rms(total) = 0.17680E+00    rms(broyden)= 0.17679E+00
  rms(prec ) = 0.18397E+00
  weight for this iteration     100.00

 eigenvalues of (default mixing * dielectric matrix)
  average eigenvalue GAMMA=   1.4844
  5.4983  2.2573  1.1527  1.1527  0.7937  0.7937  0.6600  0.5875  0.4640

 Free energy of the ion-electron system (eV)
  ---------------------------------------------------
  alpha Z        PSCENC =        85.16470804
  Ewald energy   TEWEN  =    107837.60085863
  -Hartree energ DENC   =   -145702.56698312
  -exchange      EXHF   =         0.00000000
  -V(xc)+E(xc)   XCENC  =      -415.32121664
  PAW double counting   =     41356.58088235   -39677.81911767
  entropy T*S    EENTRO =         0.00000000
  eigenvalues    EBANDS =     -2963.10132455
  atomic energy  EATOM  =     39413.54794328
  ---------------------------------------------------
  free energy    TOTEN  =       -65.91424968 eV

  energy without entropy =      -65.91424968  energy(sigma->0) =      -65.91424968


--------------------------------------------------------------------------------------------------------




----------------------------------------- Iteration    1(  15)  ---------------------------------------


    POTLOK:  cpu time    0.24: real time    0.24
    SETDIJ:  cpu time    0.01: real time    0.01
     EDDAV:  cpu time    4.94: real time    4.95
       DOS:  cpu time    0.00: real time    0.00
    CHARGE:  cpu time    0.12: real time    0.13
    MIXING:  cpu time    0.01: real time    0.01
    --------------------------------------------
      LOOP:  cpu time    5.33: real time    5.45

 eigenvalue-minimisations  :  1136
 total energy-change (2. order) :-0.4980778E+01  (-0.1381206E+00)
 number of electron     417.9999808 magnetization       6.0086160
 augmentation part      200.3668767 magnetization       3.7774838

 Broyden mixing:
  rms(total) = 0.12318E+00    rms(broyden)= 0.12317E+00
  rms(prec ) = 0.12836E+00
  weight for this iteration     100.00

 eigenvalues of (default mixing * dielectric matrix)
  average eigenvalue GAMMA=   1.5932
  6.5104  2.1355  1.9732  1.0952  0.9145  0.9145  0.6478  0.6478  0.6208  0.4725

 Free energy of the ion-electron system (eV)
  ---------------------------------------------------
  alpha Z        PSCENC =        85.16470804
  Ewald energy   TEWEN  =    107837.60085863
  -Hartree energ DENC   =   -145682.33104243
  -exchange      EXHF   =         0.00000000
  -V(xc)+E(xc)   XCENC  =      -419.59824555
  PAW double counting   =     41300.61225264   -39621.70884520
  entropy T*S    EENTRO =         0.00000000
  eigenvalues    EBANDS =     -2984.18265750
  atomic energy  EATOM  =     39413.54794328
  ---------------------------------------------------
  free energy    TOTEN  =       -70.89502809 eV

  energy without entropy =      -70.89502809  energy(sigma->0) =      -70.89502809


--------------------------------------------------------------------------------------------------------




----------------------------------------- Iteration    1(  16)  ---------------------------------------


    POTLOK:  cpu time    0.24: real time    0.24
    SETDIJ:  cpu time    0.01: real time    0.01
     EDDAV:  cpu time    4.78: real time    4.78
       DOS:  cpu time    0.00: real time    0.00
    CHARGE:  cpu time    0.13: real time    0.13
    MIXING:  cpu time    0.01: real time    0.01
    --------------------------------------------
      LOOP:  cpu time    5.17: real time    5.19

 eigenvalue-minimisations  :  1096
 total energy-change (2. order) :-0.3798077E+01  (-0.8163977E-01)
 number of electron     417.9999808 magnetization       4.5526939
 augmentation part      200.3721777 magnetization       2.4219096

 Broyden mixing:
  rms(total) = 0.84874E-01    rms(broyden)= 0.84859E-01
  rms(prec ) = 0.89642E-01
  weight for this iteration     100.00

 eigenvalues of (default mixing * dielectric matrix)
  average eigenvalue GAMMA=   1.6861
  7.5300  2.6793  2.0709  1.2322  0.9118  0.9118  0.8339  0.6736  0.6158  0.6158
  0.4720

 Free energy of the ion-electron system (eV)
  ---------------------------------------------------
  alpha Z        PSCENC =        85.16470804
  Ewald energy   TEWEN  =    107837.60085863
  -Hartree energ DENC   =   -145651.60693221
  -exchange      EXHF   =         0.00000000
  -V(xc)+E(xc)   XCENC  =      -423.19985282
  PAW double counting   =     41246.41224438   -39567.02017905
  entropy T*S    EENTRO =         0.00000000
  eigenvalues    EBANDS =     -3015.59189544
  atomic energy  EATOM  =     39413.54794328
  ---------------------------------------------------
  free energy    TOTEN  =       -74.69310519 eV

  energy without entropy =      -74.69310519  energy(sigma->0) =      -74.69310519


--------------------------------------------------------------------------------------------------------




----------------------------------------- Iteration    1(  17)  ---------------------------------------


    POTLOK:  cpu time    0.23: real time    0.23
    SETDIJ:  cpu time    0.01: real time    0.01
     EDDAV:  cpu time    4.86: real time    4.87
       DOS:  cpu time    0.00: real time    0.00
    CHARGE:  cpu time    0.13: real time    0.13
    MIXING:  cpu time    0.01: real time    0.01
    --------------------------------------------
      LOOP:  cpu time    5.25: real time    5.99

 eigenvalue-minimisations  :  1120
 total energy-change (2. order) :-0.2064201E+01  (-0.2616815E-01)
 number of electron     417.9999808 magnetization       3.4053002
 augmentation part      200.4148345 magnetization       1.3383432

 Broyden mixing:
  rms(total) = 0.60507E-01    rms(broyden)= 0.60487E-01
  rms(prec ) = 0.64417E-01
  weight for this iteration     100.00

 eigenvalues of (default mixing * dielectric matrix)
  average eigenvalue GAMMA=   1.7863
  8.2854  3.2001  2.4480  1.2447  1.2447  0.8933  0.8933  0.7736  0.7736  0.6036
  0.6036  0.4721

 Free energy of the ion-electron system (eV)
  ---------------------------------------------------
  alpha Z        PSCENC =        85.16470804
  Ewald energy   TEWEN  =    107837.60085863
  -Hartree energ DENC   =   -145622.45677213
  -exchange      EXHF   =         0.00000000
  -V(xc)+E(xc)   XCENC  =      -425.39935712
  PAW double counting   =     41212.34910953   -39532.48800661
  entropy T*S    EENTRO =         0.00000000
  eigenvalues    EBANDS =     -3045.07578935
  atomic energy  EATOM  =     39413.54794328
  ---------------------------------------------------
  free energy    TOTEN  =       -76.75730572 eV

  energy without entropy =      -76.75730572  energy(sigma->0) =      -76.75730572


--------------------------------------------------------------------------------------------------------




----------------------------------------- Iteration    1(  18)  ---------------------------------------


    POTLOK:  cpu time    0.23: real time    0.23
    SETDIJ:  cpu time    0.01: real time    0.01
     EDDAV:  cpu time    4.87: real time    4.87
       DOS:  cpu time    0.00: real time    0.00
    CHARGE:  cpu time    0.13: real time    0.13
    MIXING:  cpu time    0.01: real time    0.01
    --------------------------------------------
      LOOP:  cpu time    5.25: real time    5.28

 eigenvalue-minimisations  :  1128
 total energy-change (2. order) :-0.2069685E+01  (-0.1741392E-01)
 number of electron     417.9999808 magnetization       2.6964037
 augmentation part      200.4151579 magnetization       0.6387755

 Broyden mixing:
  rms(total) = 0.34455E-01    rms(broyden)= 0.34418E-01
  rms(prec ) = 0.37455E-01
  weight for this iteration     100.00

 eigenvalues of (default mixing * dielectric matrix)
  average eigenvalue GAMMA=   1.8645
  9.1614  3.9459  2.2604  1.4983  1.4983  0.8915  0.8915  0.9804  0.4718  0.7207
  0.7207  0.5989  0.5989

 Free energy of the ion-electron system (eV)
  ---------------------------------------------------
  alpha Z        PSCENC =        85.16470804
  Ewald energy   TEWEN  =    107837.60085863
  -Hartree energ DENC   =   -145593.72111225
  -exchange      EXHF   =         0.00000000
  -V(xc)+E(xc)   XCENC  =      -427.64064356
  PAW double counting   =     41220.75273448   -39540.84561694
  entropy T*S    EENTRO =         0.00000000
  eigenvalues    EBANDS =     -3073.68586272
  atomic energy  EATOM  =     39413.54794328
  ---------------------------------------------------
  free energy    TOTEN  =       -78.82699104 eV

  energy without entropy =      -78.82699104  energy(sigma->0) =      -78.82699104


--------------------------------------------------------------------------------------------------------




----------------------------------------- Iteration    1(  19)  ---------------------------------------


    POTLOK:  cpu time    0.24: real time    0.24
    SETDIJ:  cpu time    0.00: real time    0.01
     EDDAV:  cpu time    5.00: real time    5.01
       DOS:  cpu time    0.00: real time    0.00
    CHARGE:  cpu time    0.13: real time    0.13
    MIXING:  cpu time    0.01: real time    0.01
    --------------------------------------------
      LOOP:  cpu time    5.40: real time    5.42

 eigenvalue-minimisations  :  1144
 total energy-change (2. order) :-0.1034407E+01  (-0.4556154E-02)
 number of electron     417.9999808 magnetization       2.3984922
 augmentation part      200.4317464 magnetization       0.3548260

 Broyden mixing:
  rms(total) = 0.20690E-01    rms(broyden)= 0.20664E-01
  rms(prec ) = 0.23028E-01
  weight for this iteration     100.00

 eigenvalues of (default mixing * dielectric matrix)
  average eigenvalue GAMMA=   1.9049
  9.7081  4.3748  2.2091  2.2091  1.2192  1.2192  0.8890  0.8890  0.8639  0.4721
  0.7642  0.5977  0.5977  0.6548

 Free energy of the ion-electron system (eV)
  ---------------------------------------------------
  alpha Z        PSCENC =        85.16470804
  Ewald energy   TEWEN  =    107837.60085863
  -Hartree energ DENC   =   -145573.77219737
  -exchange      EXHF   =         0.00000000
  -V(xc)+E(xc)   XCENC  =      -428.80569491
  PAW double counting   =     41222.85653065   -39542.69878023
  entropy T*S    EENTRO =         0.00000000
  eigenvalues    EBANDS =     -3093.75476616
  atomic energy  EATOM  =     39413.54794328
  ---------------------------------------------------
  free energy    TOTEN  =       -79.86139808 eV

  energy without entropy =      -79.86139808  energy(sigma->0) =      -79.86139808


--------------------------------------------------------------------------------------------------------




----------------------------------------- Iteration    1(  20)  ---------------------------------------


    POTLOK:  cpu time    0.24: real time    0.25
    SETDIJ:  cpu time    0.01: real time    0.01
     EDDAV:  cpu time    5.00: real time    5.01
       DOS:  cpu time    0.00: real time    0.00
    CHARGE:  cpu time    0.13: real time    0.13
    MIXING:  cpu time    0.01: real time    0.01
    --------------------------------------------
      LOOP:  cpu time    5.40: real time    5.41

 eigenvalue-minimisations  :  1160
 total energy-change (2. order) :-0.4092567E+00  (-0.7413599E-03)
 number of electron     417.9999808 magnetization       2.2303496
 augmentation part      200.4282964 magnetization       0.1852934

 Broyden mixing:
  rms(total) = 0.11541E-01    rms(broyden)= 0.11532E-01
  rms(prec ) = 0.13392E-01
  weight for this iteration     100.00

 eigenvalues of (default mixing * dielectric matrix)
  average eigenvalue GAMMA=   1.9637
 10.1226  4.9693  2.5288  2.4082  1.3807  1.3807  1.1354  0.8693  0.8693  0.4721
  0.7574  0.6945  0.6768  0.5949  0.5949

 Free energy of the ion-electron system (eV)
  ---------------------------------------------------
  alpha Z        PSCENC =        85.16470804
  Ewald energy   TEWEN  =    107837.60085863
  -Hartree energ DENC   =   -145563.54598703
  -exchange      EXHF   =         0.00000000
  -V(xc)+E(xc)   XCENC  =      -429.25517260
  PAW double counting   =     41239.26126627   -39559.15761294
  entropy T*S    EENTRO =         0.00000000
  eigenvalues    EBANDS =     -3103.88665848
  atomic energy  EATOM  =     39413.54794328
  ---------------------------------------------------
  free energy    TOTEN  =       -80.27065482 eV

  energy without entropy =      -80.27065482  energy(sigma->0) =      -80.27065482


--------------------------------------------------------------------------------------------------------




----------------------------------------- Iteration    1(  21)  ---------------------------------------


    POTLOK:  cpu time    0.23: real time    0.23
    SETDIJ:  cpu time    0.01: real time    0.01
     EDDAV:  cpu time    4.92: real time    4.92
       DOS:  cpu time    0.00: real time    0.00
    CHARGE:  cpu time    0.13: real time    0.13
    MIXING:  cpu time    0.01: real time    0.01
    --------------------------------------------
      LOOP:  cpu time    5.30: real time    6.11

 eigenvalue-minimisations  :  1128
 total energy-change (2. order) :-0.2126224E+00  (-0.3426294E-03)
 number of electron     417.9999808 magnetization       2.1325343
 augmentation part      200.4298007 magnetization       0.0846279

 Broyden mixing:
  rms(total) = 0.61126E-02    rms(broyden)= 0.61081E-02
  rms(prec ) = 0.74948E-02
  weight for this iteration     100.00

 eigenvalues of (default mixing * dielectric matrix)
  average eigenvalue GAMMA=   1.9654
 10.4192  5.2948  2.5539  2.5539  1.6738  1.2799  1.2799  0.8748  0.8748  0.8982
  0.4720  0.7300  0.6761  0.6761  0.5947  0.5947

 Free energy of the ion-electron system (eV)
  ---------------------------------------------------
  alpha Z        PSCENC =        85.16470804
  Ewald energy   TEWEN  =    107837.60085863
  -Hartree energ DENC   =   -145555.76185915
  -exchange      EXHF   =         0.00000000
  -V(xc)+E(xc)   XCENC  =      -429.49446042
  PAW double counting   =     41247.95139071   -39567.89360890
  entropy T*S    EENTRO =         0.00000000
  eigenvalues    EBANDS =     -3111.59824942
  atomic energy  EATOM  =     39413.54794328
  ---------------------------------------------------
  free energy    TOTEN  =       -80.48327724 eV

  energy without entropy =      -80.48327724  energy(sigma->0) =      -80.48327724


--------------------------------------------------------------------------------------------------------




----------------------------------------- Iteration    1(  22)  ---------------------------------------


    POTLOK:  cpu time    0.24: real time    0.24
    SETDIJ:  cpu time    0.01: real time    0.01
     EDDAV:  cpu time    3.73: real time    3.74
       DOS:  cpu time    0.00: real time    0.00
    CHARGE:  cpu time    0.15: real time    0.15
    MIXING:  cpu time    0.01: real time    0.01
    --------------------------------------------
      LOOP:  cpu time    4.14: real time    4.21

 eigenvalue-minimisations  :   768
 total energy-change (2. order) :-0.5956783E-01  (-0.7381724E-04)
 number of electron     417.9999808 magnetization       2.0726168
 augmentation part      200.4334711 magnetization       0.0268141

 Broyden mixing:
  rms(total) = 0.35236E-02    rms(broyden)= 0.35221E-02
  rms(prec ) = 0.47689E-02
  weight for this iteration     100.00

 eigenvalues of (default mixing * dielectric matrix)
  average eigenvalue GAMMA=   1.9777
 10.5403  5.5023  3.1453  2.2267  2.2267  1.2896  1.2896  1.0761  0.8736  0.8736
  0.8727  0.4720  0.7039  0.7039  0.5976  0.5976  0.6296

 Free energy of the ion-electron system (eV)
  ---------------------------------------------------
  alpha Z        PSCENC =        85.16470804
  Ewald energy   TEWEN  =    107837.60085863
  -Hartree energ DENC   =   -145551.97205975
  -exchange      EXHF   =         0.00000000
  -V(xc)+E(xc)   XCENC  =      -429.56968409
  PAW double counting   =     41246.41763190   -39566.36424349
  entropy T*S    EENTRO =         0.00000000
  eigenvalues    EBANDS =     -3115.36799958
  atomic energy  EATOM  =     39413.54794328
  ---------------------------------------------------
  free energy    TOTEN  =       -80.54284507 eV

  energy without entropy =      -80.54284507  energy(sigma->0) =      -80.54284507


--------------------------------------------------------------------------------------------------------




----------------------------------------- Iteration    1(  23)  ---------------------------------------


    POTLOK:  cpu time    0.24: real time    0.24
    SETDIJ:  cpu time    0.01: real time    0.01
     EDDAV:  cpu time    3.67: real time    3.67
       DOS:  cpu time    0.00: real time    0.01
    CHARGE:  cpu time    0.13: real time    0.13
    MIXING:  cpu time    0.01: real time    0.01
    --------------------------------------------
      LOOP:  cpu time    4.06: real time    4.07

 eigenvalue-minimisations  :   752
 total energy-change (2. order) :-0.3323130E-01  (-0.4204009E-04)
 number of electron     417.9999808 magnetization       2.0511262
 augmentation part      200.4323140 magnetization       0.0062747

 Broyden mixing:
  rms(total) = 0.20936E-02    rms(broyden)= 0.20927E-02
  rms(prec ) = 0.30182E-02
  weight for this iteration     100.00

 eigenvalues of (default mixing * dielectric matrix)
  average eigenvalue GAMMA=   1.9552
 10.5764  5.6645  3.3082  2.2615  2.2615  1.4054  1.4054  1.0282  1.0282  0.8793
  0.8793  0.4720  0.8035  0.7022  0.7022  0.5969  0.5969  0.6212

 Free energy of the ion-electron system (eV)
  ---------------------------------------------------
  alpha Z        PSCENC =        85.16470804
  Ewald energy   TEWEN  =    107837.60085863
  -Hartree energ DENC   =   -145549.50388784
  -exchange      EXHF   =         0.00000000
  -V(xc)+E(xc)   XCENC  =      -429.60539782
  PAW double counting   =     41247.09327633   -39567.08115929
  entropy T*S    EENTRO =         0.00000000
  eigenvalues    EBANDS =     -3117.79241769
  atomic energy  EATOM  =     39413.54794328
  ---------------------------------------------------
  free energy    TOTEN  =       -80.57607636 eV

  energy without entropy =      -80.57607636  energy(sigma->0) =      -80.57607636


--------------------------------------------------------------------------------------------------------




----------------------------------------- Iteration    1(  24)  ---------------------------------------


    POTLOK:  cpu time    0.24: real time    0.24
    SETDIJ:  cpu time    0.01: real time    0.01
     EDDAV:  cpu time    3.79: real time    3.79
       DOS:  cpu time    0.00: real time    0.00
    CHARGE:  cpu time    0.13: real time    0.13
    MIXING:  cpu time    0.01: real time    0.01
    --------------------------------------------
      LOOP:  cpu time    4.18: real time    4.20

 eigenvalue-minimisations  :   776
 total energy-change (2. order) :-0.3960618E-02  (-0.1486527E-04)
 number of electron     417.9999808 magnetization       2.0368281
 augmentation part      200.4322477 magnetization      -0.0080749

 Broyden mixing:
  rms(total) = 0.15008E-02    rms(broyden)= 0.15004E-02
  rms(prec ) = 0.21687E-02
  weight for this iteration     100.00

 eigenvalues of (default mixing * dielectric matrix)
  average eigenvalue GAMMA=   1.9479
 10.6171  5.7172  3.4383  2.5026  2.0231  2.0231  1.2797  1.2797  0.8804  0.8804
  0.9682  0.9682  0.4720  0.7375  0.7035  0.7035  0.5967  0.5967  0.6226

 Free energy of the ion-electron system (eV)
  ---------------------------------------------------
  alpha Z        PSCENC =        85.16470804
  Ewald energy   TEWEN  =    107837.60085863
  -Hartree energ DENC   =   -145547.95672001
  -exchange      EXHF   =         0.00000000
  -V(xc)+E(xc)   XCENC  =      -429.61248627
  PAW double counting   =     41246.58943537   -39566.56811545
  entropy T*S    EENTRO =         0.00000000
  eigenvalues    EBANDS =     -3119.34566057
  atomic energy  EATOM  =     39413.54794328
  ---------------------------------------------------
  free energy    TOTEN  =       -80.58003698 eV

  energy without entropy =      -80.58003698  energy(sigma->0) =      -80.58003698


--------------------------------------------------------------------------------------------------------




----------------------------------------- Iteration    1(  25)  ---------------------------------------


    POTLOK:  cpu time    0.24: real time    0.24
    SETDIJ:  cpu time    0.01: real time    0.01
     EDDAV:  cpu time    3.61: real time    3.61
       DOS:  cpu time    0.00: real time    0.00
    CHARGE:  cpu time    0.15: real time    0.15
    MIXING:  cpu time    0.01: real time    0.01
    --------------------------------------------
      LOOP:  cpu time    4.02: real time    4.04

 eigenvalue-minimisations  :   744
 total energy-change (2. order) :-0.3067259E-02  (-0.1135329E-04)
 number of electron     417.9999808 magnetization       2.0300473
 augmentation part      200.4322941 magnetization      -0.0149258

 Broyden mixing:
  rms(total) = 0.99020E-03    rms(broyden)= 0.98982E-03
  rms(prec ) = 0.14561E-02
  weight for this iteration     100.00

 eigenvalues of (default mixing * dielectric matrix)
  average eigenvalue GAMMA=   1.9545
 10.6225  5.8397  3.8260  2.3512  2.3512  2.2889  1.3815  1.3815  1.0327  1.0327
  0.8743  0.8743  0.8499  0.4720  0.7223  0.7223  0.5975  0.5975  0.6291  0.6431

 Free energy of the ion-electron system (eV)
  ---------------------------------------------------
  alpha Z        PSCENC =        85.16470804
  Ewald energy   TEWEN  =    107837.60085863
  -Hartree energ DENC   =   -145546.40793583
  -exchange      EXHF   =         0.00000000
  -V(xc)+E(xc)   XCENC  =      -429.61953919
  PAW double counting   =     41246.39055530   -39566.36311085
  entropy T*S    EENTRO =         0.00000000
  eigenvalues    EBANDS =     -3120.89658362
  atomic energy  EATOM  =     39413.54794328
  ---------------------------------------------------
  free energy    TOTEN  =       -80.58310424 eV

  energy without entropy =      -80.58310424  energy(sigma->0) =      -80.58310424


--------------------------------------------------------------------------------------------------------




----------------------------------------- Iteration    1(  26)  ---------------------------------------


    POTLOK:  cpu time    0.24: real time    0.24
    SETDIJ:  cpu time    0.00: real time    0.01
     EDDAV:  cpu time    3.63: real time    3.64
       DOS:  cpu time    0.00: real time    0.00
    CHARGE:  cpu time    0.13: real time    0.13
    MIXING:  cpu time    0.02: real time    0.01
    --------------------------------------------
      LOOP:  cpu time    4.03: real time    4.04

 eigenvalue-minimisations  :   736
 total energy-change (2. order) :-0.2387459E-02  (-0.5573907E-05)
 number of electron     417.9999808 magnetization       2.0197189
 augmentation part      200.4324740 magnetization      -0.0255116

 Broyden mixing:
  rms(total) = 0.74788E-03    rms(broyden)= 0.74763E-03
  rms(prec ) = 0.10093E-02
  weight for this iteration     100.00

 eigenvalues of (default mixing * dielectric matrix)
  average eigenvalue GAMMA=   1.9449
 10.6270  5.9884  4.1155  2.5816  2.5816  1.6624  1.6624  1.2654  1.2654  1.2164
  0.8794  0.8794  0.9371  0.8476  0.4720  0.7038  0.7038  0.5974  0.5974  0.6206
  0.6390

 Free energy of the ion-electron system (eV)
  ---------------------------------------------------
  alpha Z        PSCENC =        85.16470804
  Ewald energy   TEWEN  =    107837.60085863
  -Hartree energ DENC   =   -145545.17974399
  -exchange      EXHF   =         0.00000000
  -V(xc)+E(xc)   XCENC  =      -429.62543923
  PAW double counting   =     41246.55537815   -39566.53180957
  entropy T*S    EENTRO =         0.00000000
  eigenvalues    EBANDS =     -3122.11738701
  atomic energy  EATOM  =     39413.54794328
  ---------------------------------------------------
  free energy    TOTEN  =       -80.58549170 eV

  energy without entropy =      -80.58549170  energy(sigma->0) =      -80.58549170


--------------------------------------------------------------------------------------------------------




----------------------------------------- Iteration    1(  27)  ---------------------------------------


    POTLOK:  cpu time    0.24: real time    0.25
    SETDIJ:  cpu time    0.01: real time    0.01
     EDDAV:  cpu time    3.69: real time    3.70
       DOS:  cpu time    0.00: real time    0.00
    CHARGE:  cpu time    0.13: real time    0.13
    MIXING:  cpu time    0.02: real time    0.01
    --------------------------------------------
      LOOP:  cpu time    4.09: real time    4.16

 eigenvalue-minimisations  :   760
 total energy-change (2. order) :-0.2342274E-02  (-0.2674777E-05)
 number of electron     417.9999808 magnetization       2.0093620
 augmentation part      200.4330603 magnetization      -0.0355088

 Broyden mixing:
  rms(total) = 0.51922E-03    rms(broyden)= 0.51904E-03
  rms(prec ) = 0.67552E-03
  weight for this iteration     100.00

 eigenvalues of (default mixing * dielectric matrix)
  average eigenvalue GAMMA=   1.9742
 10.6264  6.1334  4.6387  2.6890  2.6890  1.9319  1.9319  1.3770  1.3770  1.1127
  1.1127  0.8760  0.8760  0.9208  0.4720  0.8078  0.7054  0.7054  0.5974  0.5974
  0.6272  0.6272

 Free energy of the ion-electron system (eV)
  ---------------------------------------------------
  alpha Z        PSCENC =        85.16470804
  Ewald energy   TEWEN  =    107837.60085863
  -Hartree energ DENC   =   -145544.34738080
  -exchange      EXHF   =         0.00000000
  -V(xc)+E(xc)   XCENC  =      -429.63157023
  PAW double counting   =     41246.31062921   -39566.28586765
  entropy T*S    EENTRO =         0.00000000
  eigenvalues    EBANDS =     -3122.94715445
  atomic energy  EATOM  =     39413.54794328
  ---------------------------------------------------
  free energy    TOTEN  =       -80.58783397 eV

  energy without entropy =      -80.58783397  energy(sigma->0) =      -80.58783397


--------------------------------------------------------------------------------------------------------




----------------------------------------- Iteration    1(  28)  ---------------------------------------


    POTLOK:  cpu time    0.24: real time    0.24
    SETDIJ:  cpu time    0.01: real time    0.01
     EDDAV:  cpu time    3.59: real time    3.59
       DOS:  cpu time    0.00: real time    0.00
    CHARGE:  cpu time    0.14: real time    0.14
    MIXING:  cpu time    0.01: real time    0.01
    --------------------------------------------
      LOOP:  cpu time    4.00: real time    4.01

 eigenvalue-minimisations  :   744
 total energy-change (2. order) :-0.2791704E-02  (-0.2340615E-05)
 number of electron     417.9999808 magnetization       2.0075239
 augmentation part      200.4329783 magnetization      -0.0370701

 Broyden mixing:
  rms(total) = 0.29129E-03    rms(broyden)= 0.29112E-03
  rms(prec ) = 0.36618E-03
  weight for this iteration     100.00

 eigenvalues of (default mixing * dielectric matrix)
  average eigenvalue GAMMA=   2.0060
 10.6192  6.5891  5.2931  2.9307  2.9307  2.2379  1.5166  1.4405  1.4405  1.2367
  1.2367  0.8775  0.8775  0.9272  0.9272  0.4720  0.7129  0.7129  0.7053  0.5972
  0.5972  0.6297  0.6297

 Free energy of the ion-electron system (eV)
  ---------------------------------------------------
  alpha Z        PSCENC =        85.16470804
  Ewald energy   TEWEN  =    107837.60085863
  -Hartree energ DENC   =   -145543.70037852
  -exchange      EXHF   =         0.00000000
  -V(xc)+E(xc)   XCENC  =      -429.63658515
  PAW double counting   =     41246.65183243   -39566.62913649
  entropy T*S    EENTRO =         0.00000000
  eigenvalues    EBANDS =     -3123.58986789
  atomic energy  EATOM  =     39413.54794328
  ---------------------------------------------------
  free energy    TOTEN  =       -80.59062568 eV

  energy without entropy =      -80.59062568  energy(sigma->0) =      -80.59062568


--------------------------------------------------------------------------------------------------------




----------------------------------------- Iteration    1(  29)  ---------------------------------------


    POTLOK:  cpu time    0.24: real time    0.24
    SETDIJ:  cpu time    0.01: real time    0.01
     EDDAV:  cpu time    3.64: real time    3.64
       DOS:  cpu time    0.00: real time    0.00
    CHARGE:  cpu time    0.13: real time    0.13
    MIXING:  cpu time    0.02: real time    0.02
    --------------------------------------------
      LOOP:  cpu time    4.03: real time    4.92

 eigenvalue-minimisations  :   728
 total energy-change (2. order) :-0.7120771E-03  (-0.4166001E-06)
 number of electron     417.9999808 magnetization       2.0057104
 augmentation part      200.4329278 magnetization      -0.0389539

 Broyden mixing:
  rms(total) = 0.18435E-03    rms(broyden)= 0.18427E-03
  rms(prec ) = 0.24034E-03
  weight for this iteration     100.00

 eigenvalues of (default mixing * dielectric matrix)
  average eigenvalue GAMMA=   2.0449
 10.6082  7.4359  5.5835  3.5117  2.5328  2.5328  1.6626  1.6626  1.3642  1.3642
  1.1314  1.1314  0.8766  0.8766  0.8934  0.8934  0.4720  0.7100  0.7100  0.5973
  0.5973  0.6715  0.6287  0.6287

 Free energy of the ion-electron system (eV)
  ---------------------------------------------------
  alpha Z        PSCENC =        85.16470804
  Ewald energy   TEWEN  =    107837.60085863
  -Hartree energ DENC   =   -145543.48302730
  -exchange      EXHF   =         0.00000000
  -V(xc)+E(xc)   XCENC  =      -429.63795793
  PAW double counting   =     41246.83118822   -39566.80883609
  entropy T*S    EENTRO =         0.00000000
  eigenvalues    EBANDS =     -3123.80621459
  atomic energy  EATOM  =     39413.54794328
  ---------------------------------------------------
  free energy    TOTEN  =       -80.59133775 eV

  energy without entropy =      -80.59133775  energy(sigma->0) =      -80.59133775


--------------------------------------------------------------------------------------------------------




----------------------------------------- Iteration    1(  30)  ---------------------------------------


    POTLOK:  cpu time    0.24: real time    0.23
    SETDIJ:  cpu time    0.01: real time    0.01
     EDDAV:  cpu time    3.52: real time    3.52
       DOS:  cpu time    0.00: real time    0.00
    CHARGE:  cpu time    0.13: real time    0.13
    MIXING:  cpu time    0.02: real time    0.02
    --------------------------------------------
      LOOP:  cpu time    3.91: real time    4.01

 eigenvalue-minimisations  :   696
 total energy-change (2. order) :-0.3160389E-03  (-0.2199593E-06)
 number of electron     417.9999808 magnetization       2.0039855
 augmentation part      200.4329257 magnetization      -0.0407135

 Broyden mixing:
  rms(total) = 0.10596E-03    rms(broyden)= 0.10591E-03
  rms(prec ) = 0.14686E-03
  weight for this iteration     100.00

 eigenvalues of (default mixing * dielectric matrix)
  average eigenvalue GAMMA=   2.0696
 10.5970  8.2253  5.7251  3.6719  2.6869  2.5415  1.9717  1.7362  1.3816  1.3816
  1.1966  1.1966  0.8770  0.8770  0.9262  0.9262  0.4720  0.8215  0.7127  0.7127
  0.5973  0.5973  0.6538  0.6267  0.6267

 Free energy of the ion-electron system (eV)
  ---------------------------------------------------
  alpha Z        PSCENC =        85.16470804
  Ewald energy   TEWEN  =    107837.60085863
  -Hartree energ DENC   =   -145543.34036411
[...]
  0.003  -0.002   0.004 -10.390   0.005   0.003  -0.002   0.004
  0.002  -0.002   0.004   0.005 -10.377   0.002  -0.001   0.004
 -0.002  -0.002   0.002  -0.002   0.002  -0.002  -0.002   0.002
 -0.003  -0.004   0.004  -0.003   0.004  -0.003  -0.004   0.004
  0.015   0.001  -0.009   0.000  -0.015   0.015   0.001  -0.009
  0.000   0.015   0.000   0.016  -0.000   0.000   0.014   0.000
  0.015   0.000  -0.009   0.001   0.016   0.015   0.000  -0.008
  0.019   0.001  -0.011   0.000  -0.019   0.018   0.001  -0.011
  0.000   0.018  -0.000   0.019  -0.000   0.000   0.017  -0.000
  0.019   0.000  -0.011   0.001   0.019   0.018   0.000  -0.010
 pseudopotential strength for first ion, spin component:           2
-10.414   0.004   0.000   0.003   0.002 -10.384   0.004   0.000
  0.004 -10.410   0.003  -0.002  -0.002   0.004 -10.381   0.003
  0.000   0.003 -10.411   0.004   0.004   0.000   0.003 -10.382
  0.003  -0.002   0.004 -10.420   0.005   0.003  -0.002   0.004
  0.002  -0.002   0.004   0.005 -10.407   0.002  -0.002   0.004
-10.384   0.004   0.000   0.003   0.002 -10.330   0.004   0.000
  0.004 -10.381   0.003  -0.002  -0.002   0.004 -10.327   0.003
  0.000   0.003 -10.382   0.004   0.004   0.000   0.003 -10.328
  0.003  -0.002   0.004 -10.390   0.005   0.003  -0.002   0.004
  0.002  -0.002   0.004   0.005 -10.377   0.002  -0.002   0.004
 -0.002  -0.002   0.002  -0.002   0.003  -0.002  -0.002   0.002
 -0.003  -0.004   0.003  -0.003   0.004  -0.003  -0.004   0.003
  0.016   0.001  -0.010  -0.000  -0.016   0.015   0.001  -0.009
 -0.000   0.014   0.000   0.016  -0.000  -0.000   0.014   0.000
  0.015  -0.000  -0.009   0.001   0.016   0.015  -0.000  -0.009
  0.019   0.002  -0.012  -0.000  -0.019   0.019   0.002  -0.011
 -0.000   0.018   0.001   0.020  -0.000  -0.000   0.017   0.000
  0.019  -0.000  -0.011   0.002   0.019   0.018  -0.000  -0.011
 total augmentation occupancy for first ion, spin component:           1
  2.699   0.026  -0.053  -0.029   0.060  -0.721  -0.021   0.018   0.054  -0.028   0.162   0.000   0.013   0.008   0.076   0.008
  0.026   2.895   0.082  -0.013  -0.023  -0.021  -0.891  -0.045   0.022   0.018   0.178  -0.010   0.003   0.165  -0.017   0.000
 -0.053   0.082   2.961   0.045  -0.022   0.017  -0.045  -0.940  -0.017   0.034  -0.201   0.028  -0.032   0.120  -0.057  -0.004
 -0.029  -0.013   0.045   2.705  -0.016   0.054   0.022  -0.017  -0.768   0.036   0.121  -0.009  -0.014   0.070   0.004   0.001
  0.060  -0.023  -0.022  -0.016   2.870  -0.028   0.018   0.034   0.037  -0.781  -0.153   0.008  -0.114  -0.000   0.130  -0.001
 -0.721  -0.021   0.017   0.054  -0.028   0.704   0.015   0.010  -0.075   0.001  -0.154   0.012  -0.036  -0.005  -0.089   0.002
 -0.021  -0.891  -0.045   0.022   0.018   0.015   0.853   0.017  -0.026  -0.014  -0.159   0.010  -0.003  -0.179   0.014   0.000
  0.018  -0.045  -0.940  -0.017   0.034   0.010   0.017   0.887  -0.008  -0.045   0.189  -0.031   0.034  -0.123   0.067  -0.001
  0.054   0.022  -0.017  -0.768   0.037  -0.075  -0.026  -0.008   0.785  -0.054  -0.103   0.002   0.011  -0.077   0.000  -0.001
 -0.028   0.018   0.034   0.036  -0.781   0.001  -0.014  -0.045  -0.054   0.671   0.133  -0.005   0.124   0.002  -0.138  -0.008
  0.162   0.178  -0.201   0.121  -0.153  -0.154  -0.159   0.189  -0.103   0.133   1.917  -0.276  -0.143  -0.033  -0.120   0.014
  0.000  -0.010   0.028  -0.009   0.008   0.012   0.010  -0.031   0.002  -0.005  -0.276   0.059   0.036   0.015   0.023  -0.003
  0.013   0.003  -0.032  -0.014  -0.114  -0.036  -0.003   0.034   0.011   0.124  -0.143   0.036   0.078  -0.012  -0.024  -0.005
  0.008   0.165   0.120   0.070  -0.000  -0.005  -0.179  -0.123  -0.077   0.002  -0.033   0.015  -0.012   0.112  -0.000   0.000
  0.076  -0.017  -0.057   0.004   0.130  -0.089   0.014   0.067   0.000  -0.138  -0.120   0.023  -0.024  -0.000   0.093   0.001
  0.008   0.000  -0.004   0.001  -0.001   0.002   0.000  -0.001  -0.001  -0.008   0.014  -0.003  -0.005   0.000   0.001   0.000
  0.000  -0.002  -0.007   0.004  -0.000  -0.000   0.011   0.007   0.005   0.000   0.004  -0.001   0.000  -0.007  -0.000  -0.000
  0.004   0.001  -0.002  -0.000   0.001   0.005  -0.001  -0.003   0.000   0.009   0.011  -0.002   0.001  -0.000  -0.006   0.000
 total augmentation occupancy for first ion, spin component:           2
 -0.006   0.006  -0.023   0.002  -0.005  -0.001  -0.005   0.016  -0.002   0.004   0.006   0.000   0.006  -0.002  -0.001  -0.000
  0.006  -0.005  -0.022  -0.001  -0.001  -0.005   0.001   0.017   0.002   0.001   0.007   0.001   0.011  -0.002  -0.006  -0.000
 -0.023  -0.022   0.069  -0.008   0.006   0.016   0.017  -0.055   0.006  -0.005   0.011   0.003  -0.020   0.006  -0.001   0.000
  0.002  -0.001  -0.008  -0.002  -0.000  -0.002   0.002   0.006  -0.002   0.001  -0.007  -0.002  -0.003  -0.001   0.006   0.000
 -0.005  -0.001   0.006  -0.000  -0.013   0.004   0.001  -0.005   0.001   0.006   0.002   0.001  -0.003   0.001  -0.001   0.000
 -0.001  -0.005   0.016  -0.002   0.004   0.007   0.003  -0.011   0.002  -0.003  -0.007   0.001  -0.005   0.001   0.001   0.000
 -0.005   0.001   0.017   0.002   0.001   0.003   0.004  -0.014  -0.003  -0.001  -0.005  -0.000  -0.008   0.002   0.005   0.000
  0.016   0.017  -0.055   0.006  -0.005  -0.011  -0.014   0.045  -0.004   0.004  -0.012  -0.001   0.015  -0.004   0.001  -0.000
 -0.002   0.002   0.006  -0.002   0.001   0.002  -0.003  -0.004   0.005  -0.001   0.005   0.001   0.002   0.000  -0.004  -0.000
  0.004   0.001  -0.005   0.001   0.006  -0.003  -0.001   0.004  -0.001  -0.000  -0.002  -0.000   0.002  -0.000   0.001  -0.000
  0.006   0.007   0.011  -0.007   0.002  -0.007  -0.005  -0.012   0.005  -0.002   0.018  -0.002   0.006   0.002  -0.009  -0.000
  0.000   0.001   0.003  -0.002   0.001   0.001  -0.000  -0.001   0.001  -0.000  -0.002   0.001   0.000   0.000  -0.001  -0.000
  0.006   0.011  -0.020  -0.003  -0.003  -0.005  -0.008   0.015   0.002   0.002   0.006   0.000   0.009  -0.001  -0.004  -0.000
 -0.002  -0.002   0.006  -0.001   0.001   0.001   0.002  -0.004   0.000  -0.000   0.002   0.000  -0.001   0.000  -0.001   0.000
 -0.001  -0.006  -0.001   0.006  -0.001   0.001   0.005   0.001  -0.004   0.001  -0.009  -0.001  -0.004  -0.001   0.005   0.000
 -0.000  -0.000   0.000   0.000   0.000   0.000   0.000  -0.000  -0.000  -0.000  -0.000  -0.000  -0.000   0.000   0.000   0.000
  0.000   0.000  -0.000  -0.000  -0.000  -0.000  -0.000   0.000   0.000   0.000  -0.000  -0.000   0.000  -0.000   0.000  -0.000
  0.000   0.000   0.000  -0.000  -0.000  -0.000  -0.000  -0.000   0.000   0.000   0.000   0.000   0.000   0.000  -0.000  -0.000


------------------------ aborting loop because EDIFF is reached ----------------------------------------


    CHARGE:  cpu time    0.13: real time    0.13
    FORLOC:  cpu time    0.02: real time    0.02
    FORNL :  cpu time    3.25: real time    3.25
    STRESS:  cpu time    3.98: real time    3.98
    FORCOR:  cpu time    0.24: real time    0.24
    FORHAR:  cpu time    0.04: real time    0.04
    MIXING:  cpu time    0.01: real time    0.01
    OFIELD:  cpu time    0.00: real time    0.00

  FORCE on cell =-STRESS in cart. coord.  units (eV):
  Direction    XX          YY          ZZ          XY          YZ          ZX
  --------------------------------------------------------------------------------------
  Alpha Z    85.16471    85.16471    85.16471
  Ewald   32544.34789 30225.59503 43861.15938 -2085.27929  -820.85557  1622.65635
  Hartree 45288.34093 43152.79246 55910.32357 -2040.25535  -777.86499  1510.62227
  E(xc)   -2204.09665 -2204.46267 -2202.71289     0.10804    -0.03711     0.16497
  Local  -84028.41190-79577.16923************  4131.18291  1598.31501 -3132.51483
  n-local  -394.72591  -394.60435  -394.49463    -1.33394     0.16110     0.08463
  augment  3492.18166  3493.11656  3488.91953    -1.27415     0.11568    -0.30931
  Kinetic  5203.77263  5206.21929  5196.16266    -3.20007     0.38106    -0.78064
  Fock        0.00000     0.00000     0.00000     0.00000     0.00000     0.00000
  -------------------------------------------------------------------------------------
  Total     -13.42665   -13.34820   -13.78937    -0.05185     0.21519    -0.07656
  in kB      -1.49161    -1.48290    -1.53191    -0.00576     0.02391    -0.00851
  external pressure =       -1.50 kB  Pullay stress =        0.00 kB


 VOLUME and BASIS-vectors are now :
 -----------------------------------------------------------------------------
  energy-cutoff  :      249.84
  volume of cell :    14421.87
      direct lattice vectors                 reciprocal lattice vectors
    24.341120746  0.000000000  0.000000000     0.041082743  0.000000000  0.000000000
     0.000000000 24.341120746  0.000000000     0.000000000  0.041082743  0.000000000
     0.000000000  0.000000000 24.341120746     0.000000000  0.000000000  0.041082743

  length of vectors
    24.341120746 24.341120746 24.341120746     0.041082743  0.041082743  0.041082743


 FORCES acting on ions
    electron-ion (+dipol)            ewald-force                    non-local-force                 convergence-correction
 -----------------------------------------------------------------------------------------------
   -.109E+04 -.117E+04 -.328E+03   0.109E+04 0.117E+04 0.328E+03   0.270E+01 0.249E+01 0.320E-01   -.132E-01 -.614E-02 -.723E-02
   -.311E+03 -.142E+04 -.581E+03   0.310E+03 0.142E+04 0.579E+03   0.923E+00 0.186E+01 0.989E+00   0.115E-01 0.418E-02 0.143E-01
   0.520E+03 -.129E+04 -.811E+03   -.519E+03 0.129E+04 0.809E+03   -.107E+01 0.355E+01 0.225E+01   -.117E-01 0.158E-02 -.191E-02
   -.142E+04 -.385E+03 -.719E+03   0.141E+04 0.383E+03 0.717E+03   0.436E+01 0.178E+01 0.184E+01   -.684E-02 -.111E-01 0.638E-02
   0.384E+03 -.146E+04 0.437E+03   -.383E+03 0.146E+04 -.437E+03   -.129E+01 0.308E+01 -.309E+00   -.168E-01 0.325E-01 0.257E-02
   -.396E+03 -.147E+04 0.556E+03   0.395E+03 0.146E+04 -.556E+03   0.118E+01 0.260E+01 -.552E+00   0.734E-02 -.267E-01 0.654E-02
   -.519E+03 -.650E+03 -.942E+03   0.518E+03 0.650E+03 0.942E+03   0.112E+01 0.287E+00 -.423E+00   -.180E-01 -.524E-02 0.357E-02
   -.129E+04 -.876E+03 0.637E+03   0.129E+04 0.873E+03 -.636E+03   0.442E+01 0.254E+01 -.974E+00   -.958E-02 -.117E-02 0.107E-01
   0.116E+04 -.102E+04 0.276E+02   -.115E+04 0.102E+04 -.271E+02   -.461E+01 0.360E+01 -.583E+00   0.139E-02 -.635E-02 0.754E-02
   -.911E+03 -.673E+02 -.125E+04   0.910E+03 0.666E+02 0.125E+04   0.180E+01 0.705E+00 0.349E+01   0.202E-02 0.117E-01 0.565E-02
   0.419E+03 -.708E+03 -.133E+04   -.418E+03 0.707E+03 0.133E+04   -.542E+00 0.669E+00 0.235E+01   0.994E-02 -.274E-01 -.245E-02
   -.160E+04 0.124E+03 0.101E+03   0.159E+04 -.124E+03 -.101E+03   0.298E+01 0.241E+00 -.300E+00   0.503E-02 -.663E-02 0.532E-02
   -.508E+03 -.274E+03 0.243E+03   0.506E+03 0.273E+03 -.242E+03   0.139E+01 0.129E+01 -.109E+01   0.242E-03 0.374E-03 -.652E-02
   -.439E+03 -.813E+03 0.127E+04   0.438E+03 0.812E+03 -.127E+04   0.989E+00 0.139E+01 -.193E+01   -.151E-01 -.162E-03 0.470E-02
   0.431E+03 -.829E+03 0.108E+04   -.431E+03 0.829E+03 -.108E+04   -.295E+00 0.489E+00 -.322E+00   0.141E-01 -.791E-02 -.528E-01
   0.427E+03 -.434E+03 -.114E+03   -.427E+03 0.433E+03 0.114E+03   -.508E+00 0.100E+01 0.502E+00   0.295E-01 0.481E-02 -.127E-01
   0.140E+04 -.339E+03 -.677E+03   -.140E+04 0.338E+03 0.675E+03   -.315E+01 0.148E+01 0.130E+01   -.854E-02 0.167E-02 0.404E-02
   -.120E+04 0.724E+03 -.422E+03   0.120E+04 -.724E+03 0.422E+03   0.160E+01 -.333E+00 0.195E+00   -.293E-01 0.171E-01 0.339E-01
   0.133E+04 -.553E+03 0.665E+03   -.133E+04 0.553E+03 -.664E+03   -.240E+01 0.848E+00 -.121E+01   -.116E-01 0.430E-02 -.762E-02
   0.278E+03 -.747E+02 -.140E+04   -.277E+03 0.755E+02 0.140E+04   -.137E+00 -.827E+00 0.209E+01   -.154E-02 0.362E-02 -.179E-01
   -.126E+02 0.403E+03 -.413E+03   0.133E+02 -.401E+03 0.413E+03   -.634E+00 -.154E+01 0.437E+00   -.346E-01 0.501E-01 -.971E-02
   -.567E+03 0.114E+04 -.886E+03   0.566E+03 -.114E+04 0.885E+03   0.123E+01 -.244E+01 0.120E+01   0.701E-02 -.193E-02 0.343E-01
   0.296E+03 -.689E+02 0.151E+04   -.295E+03 0.694E+02 -.150E+04   -.572E+00 -.471E+00 -.268E+01   0.167E-03 0.710E-02 0.927E-02
   0.118E+04 0.309E+03 -.999E+03   -.118E+04 -.309E+03 0.997E+03   -.150E+01 -.490E+00 0.137E+01   0.317E-02 -.118E-01 0.110E-01
   -.128E+04 0.290E+03 0.841E+03   0.128E+04 -.290E+03 -.840E+03   0.167E+01 -.192E+00 -.104E+01   0.728E-02 -.636E-02 -.840E-02
   -.753E+02 0.401E+03 -.137E+04   0.761E+02 -.400E+03 0.136E+04   -.769E+00 -.108E+01 0.625E+01   0.238E-02 0.162E-01 0.206E-01
   0.263E+03 0.397E+03 0.492E+03   -.261E+03 -.395E+03 -.491E+03   -.118E+01 -.133E+01 -.824E+00   -.416E-02 -.391E-02 -.169E-01
   -.961E+03 0.102E+04 0.297E+03   0.960E+03 -.102E+04 -.297E+03   0.299E+00 -.890E+00 0.342E+00   0.508E-02 -.184E-01 -.202E-01
   0.150E+04 0.355E+03 -.336E+02   -.149E+04 -.355E+03 0.337E+02   -.162E+01 -.668E+00 -.488E-01   0.234E-01 -.196E-01 -.220E-01
   -.623E+03 0.129E+03 0.144E+04   0.620E+03 -.128E+03 -.143E+04   0.241E+01 -.513E+00 -.592E+01   0.377E-02 0.479E-03 -.652E-02
   0.122E+04 0.236E+02 0.111E+04   -.121E+04 -.229E+02 -.111E+04   -.272E+01 -.737E+00 -.272E+01   0.470E-02 0.704E-02 -.606E-02
   0.664E+03 0.111E+04 -.101E+04   -.663E+03 -.111E+04 0.101E+04   -.106E+01 -.345E+01 0.334E+01   0.125E-01 -.889E-02 0.128E-01
   -.362E+03 0.157E+04 -.248E+03   0.362E+03 -.157E+04 0.248E+03   0.470E+00 -.335E+01 0.198E+00   0.127E-01 -.130E-01 0.122E-01
   -.567E+03 0.103E+04 0.104E+04   0.566E+03 -.103E+04 -.104E+04   0.106E+01 -.157E+01 -.143E+01   -.165E-01 -.194E-02 0.444E-02
   0.919E+01 0.159E+04 0.418E+03   -.839E+01 -.159E+04 -.417E+03   -.826E+00 -.326E+01 -.138E+01   0.971E-02 0.154E-01 0.620E-02
   0.909E+03 0.124E+04 -.305E+03   -.908E+03 -.124E+04 0.304E+03   -.119E+01 -.180E+01 0.724E+00   -.197E-01 -.173E-01 -.382E-01
   0.524E+03 0.979E+03 0.124E+04   -.522E+03 -.977E+03 -.124E+04   -.179E+01 -.234E+01 -.341E+01   0.318E-01 0.434E-02 -.992E-02
   0.123E+04 0.107E+04 0.446E+03   -.123E+04 -.106E+04 -.445E+03   -.300E+01 -.292E+01 -.133E+01   0.108E-01 0.162E-01 0.252E-01
 -----------------------------------------------------------------------------------------------
   0.827E-01 0.416E+00 -.382E+00   0.227E-12 0.000E+00 -.853E-12   -.270E+00 -.296E+00 0.432E+00   -.152E-02 -.296E-02 -.565E-02
 
 
 POSITION                                       TOTAL-FORCE (eV/Angst)
 -----------------------------------------------------------------------------------
     15.41444     15.11253     13.12031         0.004013      0.004646     -0.001449
     12.75317     15.89863     13.68437         0.001800     -0.005948     -0.005539
     10.12512     16.54208     14.41417         0.002161      0.004843     -0.002117
     16.66494     13.23663     14.90159         0.003830      0.002410     -0.001387
     10.73906     16.35890     11.66522         0.001974     -0.008902      0.002941
     13.44447     15.85685     10.96182         0.005431      0.010321     -0.005519
     13.89388     13.55838     14.84959         0.000870     -0.000938     -0.000968
     15.97447     14.63526     10.43803         0.001838      0.003762     -0.001296
      8.05935     16.55715     12.55716         0.004870      0.002500     -0.003381
     15.14497     11.90267     16.85450         0.001098     -0.005741     -0.010207
     11.21319     14.24205     15.48661         0.003628      0.005175      0.006153
     16.47805     12.43873     12.22171         0.001558      0.006921     -0.003309
     13.78394     13.13735     11.70703        -0.004877      0.008725      0.006715
     13.90411     14.13627      8.69281        -0.001478      0.000327      0.001599
     11.34903     14.27197      9.85217         0.006860     -0.010639      0.010418
     11.19615     13.66339     12.67410        -0.003802     -0.015435      0.013882
      8.70423     14.15804     13.89687        -0.002817      0.006458      0.002589
     15.32792     10.85916     14.20084         0.022512     -0.004747     -0.006734
      8.77098     14.38450     10.98240        -0.001435     -0.001868      0.002334
     12.33825     11.92612     16.55677        -0.003590      0.006974      0.001150
     12.53608     11.37044     13.67380         0.016214     -0.005498      0.009641
     14.04800      9.41240     16.14807        -0.004274      0.001963     -0.021552
     11.98282     12.21437      8.08121        -0.002648     -0.000904      0.004666
      9.95092     11.80111     14.86242         0.004195      0.009020     -0.001380
     15.61470     11.96354      9.60546        -0.002440      0.001949      0.002248
     13.41580     10.40605     18.58999        -0.000402     -0.014232     -0.013801
     11.69079     11.37219     10.87866         0.000359     -0.001615      0.006965
     14.47818     10.29604     11.61234        -0.004879      0.006699     -0.001996
      8.96731     11.84558     12.22101        -0.013094     -0.004350      0.002928
     14.53695     11.93332      7.05723        -0.000814      0.000511      0.001665
      9.45457     12.15285      9.38652         0.000145     -0.005030      0.007066
     11.33840      9.48398     15.70132        -0.006597      0.005657      0.006051
     13.26270      8.66890     13.57679        -0.005667     -0.008540     -0.012683
     13.67703     10.05077      8.94932        -0.003125     -0.000690      0.001039
     12.18290      8.61599     10.93919        -0.007239     -0.002431     -0.004649
     10.48650      9.50246     13.08751        -0.003315      0.010571     -0.004170
     10.97595      9.65836      8.50579        -0.005782      0.001611      0.003110
      9.29514      9.56575     10.63419        -0.005082     -0.003536      0.008974
 -----------------------------------------------------------------------------------
    total drift:                               -0.188385      0.117031      0.044867


--------------------------------------------------------------------------------------------------------



  FREE ENERGIE OF THE ION-ELECTRON SYSTEM (eV)
  ---------------------------------------------------
  free  energy   TOTEN  =       -81.31341624 eV

  energy  without entropy=      -81.31341624  energy(sigma->0) =      -81.31341624
 
 d Force = 0.9085893E-04[-0.257E-03, 0.439E-03]  d Energy = 0.5569895E-04 0.352E-04
 d Force = 0.9699838E+00[ 0.964E+00, 0.976E+00]  d Ewald  = 0.9699844E+00-0.544E-06


--------------------------------------------------------------------------------------------------------


    POTLOK:  cpu time    0.26: real time    0.26


--------------------------------------------------------------------------------------------------------




--------------------------------------------------------------------------------------------------------


  
 reached required accuracy - stopping structural energy minimisation
     LOOP+:  cpu time   22.35: real time   25.41
    4ORBIT:  cpu time    0.00: real time    0.00

 total amount of memory used by VASP on root node    59386. kBytes
========================================================================

   base      :      30000. kBytes
   nonl-proj :       3041. kBytes
   fftplans  :       4970. kBytes
   grid      :      12469. kBytes
   one-center:         46. kBytes
   wavefun   :       8860. kBytes
 
  
  
 General timing and accounting informations for this job:
 ========================================================
  
                  Total CPU time used (sec):     1263.011
                            User time (sec):     1255.838
                          System time (sec):        7.172
                         Elapsed time (sec):     1312.444
  
                   Maximum memory used (kb):       74652.
                   Average memory used (kb):           0.
  
                          Minor page faults:       632133
                          Major page faults:            0
                 Voluntary context switches:        26087
