  50  50   0   0
  0.2414776E+03  0.2294117E-08  0.2294117E-08  0.2294117E-08  0.1000000E-15
  1.000000000000000E-004
  CAR 
 unknown system                          
      2.21145097    -10.31805655  301     -3.16579601      1.00000000
    -10.318  0.0000E+00  0.0000E+00  0.0000E+00  0.0000E+00
    -10.276  0.0000E+00  0.0000E+00  0.0000E+00  0.0000E+00
    -10.235  0.0000E+00  0.0000E+00  0.0000E+00  0.0000E+00
    -10.193  0.0000E+00  0.0000E+00  0.0000E+00  0.0000E+00
    -10.151  0.0000E+00  0.0000E+00  0.0000E+00  0.0000E+00
    -10.109  0.0000E+00  0.0000E+00  0.0000E+00  0.0000E+00
    -10.067  0.0000E+00  0.0000E+00  0.0000E+00  0.0000E+00
    -10.026  0.0000E+00  0.0000E+00  0.0000E+00  0.0000E+00
     -9.984  0.0000E+00  0.0000E+00  0.0000E+00  0.0000E+00
     -9.942  0.0000E+00  0.0000E+00  0.0000E+00  0.0000E+00
     -9.900  0.0000E+00  0.0000E+00  0.0000E+00  0.0000E+00
     -9.859  0.0000E+00  0.0000E+00  0.0000E+00  0.0000E+00
     -9.817  0.0000E+00  0.0000E+00  0.0000E+00  0.0000E+00
     -9.775  0.0000E+00  0.0000E+00  0.0000E+00  0.0000E+00
     -9.733  0.0000E+00  0.0000E+00  0.1000E-02  0.1000E-02
     -9.692  0.0000E+00  0.0000E+00  0.1000E-02  0.1000E-02
     -9.650  0.0000E+00  0.0000E+00  0.1000E-02  0.1000E-02
     -9.608  0.0000E+00  0.0000E+00  0.1000E-02  0.1000E-02
     -9.566  0.0000E+00  0.0000E+00  0.1000E-02  0.1000E-02
     -9.525  0.0000E+00  0.0000E+00  0.1000E-02  0.1000E-02
     -9.483  0.0000E+00  0.0000E+00  0.1000E-02  0.1000E-02
     -9.441  0.0000E+00  0.0000E+00  0.1000E-02  0.1000E-02
     -9.399  0.0000E+00  0.0000E+00  0.1000E-02  0.1000E-02
     -9.357  0.0000E+00  0.0000E+00  0.1000E-02  0.1000E-02
     -9.316  0.0000E+00  0.0000E+00  0.1000E-02  0.1000E-02
     -9.274  0.0000E+00  0.0000E+00  0.2000E-02  0.2000E-02
     -9.232  0.0000E+00  0.0000E+00  0.2000E-02  0.2000E-02
     -9.190  0.0000E+00  0.0000E+00  0.2000E-02  0.2000E-02
     -9.149  0.0000E+00  0.0000E+00  0.2000E-02  0.2000E-02
     -9.107  0.0000E+00  0.0000E+00  0.3000E-02  0.3000E-02
     -9.065  0.0000E+00  0.0000E+00  0.4000E-02  0.4000E-02
     -9.023  0.0000E+00  0.0000E+00  0.5000E-02  0.5000E-02
     -8.982  0.0000E+00  0.0000E+00  0.7000E-02  0.7000E-02
     -8.940  0.0000E+00  0.0000E+00  0.1000E-01  0.1000E-01
     -8.898  0.0000E+00  0.0000E+00  0.1100E-01  0.1100E-01
     -8.856  0.0000E+00  0.0000E+00  0.1300E-01  0.1300E-01
     -8.815  0.0000E+00  0.0000E+00  0.1600E-01  0.1600E-01
     -8.773  0.0000E+00  0.0000E+00  0.1800E-01  0.1800E-01
     -8.731  0.0000E+00  0.0000E+00  0.1900E-01  0.1900E-01
     -8.689  0.0000E+00  0.0000E+00  0.2000E-01  0.2000E-01
     -8.647  0.0000E+00  0.0000E+00  0.2300E-01  0.2300E-01
     -8.606  0.0000E+00  0.0000E+00  0.2500E-01  0.2500E-01
     -8.564  0.0000E+00  0.0000E+00  0.2700E-01  0.2700E-01
     -8.522  0.0000E+00  0.0000E+00  0.3000E-01  0.3000E-01
     -8.480  0.0000E+00  0.0000E+00  0.3200E-01  0.3200E-01
     -8.439  0.0000E+00  0.0000E+00  0.3700E-01  0.3700E-01
     -8.397  0.2394E-01  0.2394E-01  0.3900E-01  0.3900E-01
     -8.355  0.0000E+00  0.0000E+00  0.4200E-01  0.4200E-01
     -8.313  0.0000E+00  0.0000E+00  0.4500E-01  0.4500E-01
     -8.272  0.0000E+00  0.0000E+00  0.4800E-01  0.4800E-01
     -8.230  0.0000E+00  0.0000E+00  0.5200E-01  0.5200E-01
     -8.188  0.0000E+00  0.0000E+00  0.5600E-01  0.5600E-01
     -8.146  0.0000E+00  0.0000E+00  0.5800E-01  0.5800E-01
     -8.105  0.0000E+00  0.0000E+00  0.6200E-01  0.6200E-01
     -8.063  0.0000E+00  0.0000E+00  0.6500E-01  0.6500E-01
     -8.021  0.0000E+00  0.0000E+00  0.6700E-01  0.6700E-01
     -7.979  0.0000E+00  0.0000E+00  0.7100E-01  0.7100E-01
     -7.937  0.0000E+00  0.0000E+00  0.7400E-01  0.7400E-01
     -7.896  0.0000E+00  0.0000E+00  0.7600E-01  0.7600E-01
     -7.854  0.0000E+00  0.0000E+00  0.7900E-01  0.7900E-01
     -7.812  0.0000E+00  0.0000E+00  0.8200E-01  0.8200E-01
     -7.770  0.2394E-01  0.2394E-01  0.8500E-01  0.8500E-01
     -7.729  0.0000E+00  0.0000E+00  0.8800E-01  0.8800E-01
     -7.687  0.0000E+00  0.0000E+00  0.9200E-01  0.9200E-01
     -7.645  0.0000E+00  0.0000E+00  0.9500E-01  0.9500E-01
     -7.603  0.0000E+00  0.0000E+00  0.9800E-01  0.9800E-01
     -7.562  0.0000E+00  0.0000E+00  0.1010E+00  0.1010E+00
     -7.520  0.0000E+00  0.0000E+00  0.1060E+00  0.1060E+00
     -7.478  0.2394E-01  0.2394E-01  0.1080E+00  0.1080E+00
     -7.436  0.0000E+00  0.0000E+00  0.1110E+00  0.1110E+00
     -7.395  0.0000E+00  0.0000E+00  0.1130E+00  0.1130E+00
     -7.353  0.0000E+00  0.0000E+00  0.1180E+00  0.1180E+00
     -7.311  0.0000E+00  0.0000E+00  0.1200E+00  0.1200E+00
     -7.269  0.0000E+00  0.0000E+00  0.1250E+00  0.1250E+00
     -7.227  0.0000E+00  0.0000E+00  0.1280E+00  0.1280E+00
     -7.186  0.0000E+00  0.0000E+00  0.1310E+00  0.1310E+00
     -7.144  0.0000E+00  0.0000E+00  0.1340E+00  0.1340E+00
     -7.102  0.0000E+00  0.0000E+00  0.1390E+00  0.1390E+00
     -7.060  0.0000E+00  0.0000E+00  0.1430E+00  0.1430E+00
     -7.019  0.0000E+00  0.0000E+00  0.1460E+00  0.1460E+00
     -6.977  0.0000E+00  0.0000E+00  0.1500E+00  0.1500E+00
     -6.935  0.0000E+00  0.0000E+00  0.1540E+00  0.1540E+00
     -6.893  0.0000E+00  0.0000E+00  0.1570E+00  0.1570E+00
     -6.852  0.0000E+00  0.0000E+00  0.1610E+00  0.1610E+00
     -6.810  0.0000E+00  0.0000E+00  0.1650E+00  0.1650E+00
     -6.768  0.0000E+00  0.0000E+00  0.1690E+00  0.1690E+00
     -6.726  0.0000E+00  0.0000E+00  0.1740E+00  0.1740E+00
     -6.684  0.0000E+00  0.0000E+00  0.1790E+00  0.1790E+00
     -6.643  0.0000E+00  0.0000E+00  0.1830E+00  0.1830E+00
     -6.601  0.0000E+00  0.0000E+00  0.1880E+00  0.1880E+00
     -6.559  0.0000E+00  0.0000E+00  0.1930E+00  0.1930E+00
     -6.517  0.0000E+00  0.0000E+00  0.1990E+00  0.1990E+00
     -6.476  0.2393E-01  0.2393E-01  0.2030E+00  0.2030E+00
     -6.434  0.0000E+00  0.0000E+00  0.2100E+00  0.2100E+00
     -6.392  0.0000E+00  0.0000E+00  0.2150E+00  0.2150E+00
     -6.350  0.5391E-05  0.5391E-05  0.2200E+00  0.2200E+00
     -6.309  0.0000E+00  0.0000E+00  0.2260E+00  0.2260E+00
     -6.267  0.0000E+00  0.0000E+00  0.2300E+00  0.2300E+00
     -6.225  0.0000E+00  0.0000E+00  0.2360E+00  0.2360E+00
     -6.183  0.0000E+00  0.0000E+00  0.2410E+00  0.2410E+00
     -6.142  0.0000E+00  0.0000E+00  0.2440E+00  0.2440E+00
     -6.100  0.2196E-01  0.2196E-01  0.2479E+00  0.2479E+00
     -6.058  0.0000E+00  0.0000E+00  0.2520E+00  0.2520E+00
     -6.016  0.0000E+00  0.0000E+00  0.2550E+00  0.2550E+00
     -5.974  0.0000E+00  0.0000E+00  0.2560E+00  0.2560E+00
     -5.933  0.0000E+00  0.0000E+00  0.2570E+00  0.2570E+00
     -5.891  0.0000E+00  0.0000E+00  0.2570E+00  0.2570E+00
     -5.849  0.0000E+00  0.0000E+00  0.2570E+00  0.2570E+00
     -5.807  0.0000E+00  0.0000E+00  0.2580E+00  0.2580E+00
     -5.766  0.0000E+00  0.0000E+00  0.2580E+00  0.2580E+00
     -5.724  0.0000E+00  0.0000E+00  0.2580E+00  0.2580E+00
     -5.682  0.0000E+00  0.0000E+00  0.2590E+00  0.2590E+00
     -5.640  0.0000E+00  0.0000E+00  0.2590E+00  0.2590E+00
     -5.599  0.0000E+00  0.0000E+00  0.2590E+00  0.2590E+00
     -5.557  0.0000E+00  0.0000E+00  0.2590E+00  0.2590E+00
     -5.515  0.0000E+00  0.0000E+00  0.2590E+00  0.2590E+00
     -5.473  0.0000E+00  0.0000E+00  0.2590E+00  0.2590E+00
     -5.432  0.0000E+00  0.0000E+00  0.2590E+00  0.2590E+00
     -5.390  0.0000E+00  0.0000E+00  0.2600E+00  0.2600E+00
     -5.348  0.0000E+00  0.0000E+00  0.2600E+00  0.2600E+00
     -5.306  0.0000E+00  0.0000E+00  0.2600E+00  0.2600E+00
     -5.264  0.0000E+00  0.0000E+00  0.2600E+00  0.2600E+00
     -5.223  0.0000E+00  0.0000E+00  0.2600E+00  0.2600E+00
     -5.181  0.0000E+00  0.0000E+00  0.2610E+00  0.2610E+00
     -5.139  0.0000E+00  0.0000E+00  0.2610E+00  0.2610E+00
     -5.097  0.0000E+00  0.0000E+00  0.2620E+00  0.2620E+00
     -5.056  0.0000E+00  0.0000E+00  0.2620E+00  0.2620E+00
     -5.014  0.0000E+00  0.0000E+00  0.2620E+00  0.2620E+00
     -4.972  0.0000E+00  0.0000E+00  0.2630E+00  0.2630E+00
     -4.930  0.0000E+00  0.0000E+00  0.2630E+00  0.2630E+00
     -4.889  0.0000E+00  0.0000E+00  0.2630E+00  0.2630E+00
     -4.847  0.0000E+00  0.0000E+00  0.2640E+00  0.2640E+00
     -4.805  0.0000E+00  0.0000E+00  0.2640E+00  0.2640E+00
     -4.763  0.0000E+00  0.0000E+00  0.2650E+00  0.2650E+00
     -4.722  0.0000E+00  0.0000E+00  0.2650E+00  0.2650E+00
     -4.680  0.0000E+00  0.0000E+00  0.2650E+00  0.2650E+00
     -4.638  0.0000E+00  0.0000E+00  0.2650E+00  0.2650E+00
     -4.596  0.0000E+00  0.0000E+00  0.2650E+00  0.2650E+00
     -4.554  0.0000E+00  0.0000E+00  0.2650E+00  0.2650E+00
     -4.513  0.0000E+00  0.0000E+00  0.2650E+00  0.2650E+00
     -4.471  0.0000E+00  0.0000E+00  0.2660E+00  0.2660E+00
     -4.429  0.0000E+00  0.0000E+00  0.2660E+00  0.2660E+00
     -4.387  0.0000E+00  0.0000E+00  0.2660E+00  0.2660E+00
     -4.346  0.0000E+00  0.0000E+00  0.2670E+00  0.2670E+00
     -4.304  0.0000E+00  0.0000E+00  0.2670E+00  0.2670E+00
     -4.262  0.0000E+00  0.0000E+00  0.2670E+00  0.2670E+00
     -4.220  0.0000E+00  0.0000E+00  0.2680E+00  0.2680E+00
     -4.179  0.0000E+00  0.0000E+00  0.2680E+00  0.2680E+00
     -4.137  0.0000E+00  0.0000E+00  0.2680E+00  0.2680E+00
     -4.095  0.0000E+00  0.0000E+00  0.2680E+00  0.2680E+00
     -4.053  0.0000E+00  0.0000E+00  0.2680E+00  0.2680E+00
     -4.012  0.0000E+00  0.0000E+00  0.2680E+00  0.2680E+00
     -3.970  0.0000E+00  0.0000E+00  0.2680E+00  0.2680E+00
     -3.928  0.0000E+00  0.0000E+00  0.2680E+00  0.2680E+00
     -3.886  0.0000E+00  0.0000E+00  0.2680E+00  0.2680E+00
     -3.844  0.0000E+00  0.0000E+00  0.2700E+00  0.2700E+00
     -3.803  0.0000E+00  0.0000E+00  0.2700E+00  0.2700E+00
     -3.761  0.0000E+00  0.0000E+00  0.2710E+00  0.2710E+00
     -3.719  0.0000E+00  0.0000E+00  0.2710E+00  0.2710E+00
     -3.677  0.0000E+00  0.0000E+00  0.2710E+00  0.2710E+00
     -3.636  0.0000E+00  0.0000E+00  0.2720E+00  0.2720E+00
     -3.594  0.0000E+00  0.0000E+00  0.2720E+00  0.2720E+00
     -3.552  0.0000E+00  0.0000E+00  0.2720E+00  0.2720E+00
     -3.510  0.0000E+00  0.0000E+00  0.2720E+00  0.2720E+00
     -3.469  0.0000E+00  0.0000E+00  0.2730E+00  0.2730E+00
     -3.427  0.0000E+00  0.0000E+00  0.2730E+00  0.2730E+00
     -3.385  0.0000E+00  0.0000E+00  0.2730E+00  0.2730E+00
     -3.343  0.0000E+00  0.0000E+00  0.2740E+00  0.2740E+00
     -3.302  0.0000E+00  0.0000E+00  0.2740E+00  0.2740E+00
     -3.260  0.0000E+00  0.0000E+00  0.2740E+00  0.2740E+00
     -3.218  0.0000E+00  0.0000E+00  0.2740E+00  0.2740E+00
     -3.176  0.0000E+00  0.0000E+00  0.2750E+00  0.2750E+00
     -3.134  0.0000E+00  0.0000E+00  0.2750E+00  0.2750E+00
     -3.093  0.0000E+00  0.0000E+00  0.2750E+00  0.2750E+00
     -3.051  0.0000E+00  0.0000E+00  0.2760E+00  0.2760E+00
     -3.009  0.0000E+00  0.0000E+00  0.2760E+00  0.2760E+00
     -2.967  0.0000E+00  0.0000E+00  0.2770E+00  0.2770E+00
     -2.926  0.0000E+00  0.0000E+00  0.2770E+00  0.2770E+00
     -2.884  0.0000E+00  0.0000E+00  0.2770E+00  0.2770E+00
     -2.842  0.0000E+00  0.0000E+00  0.2770E+00  0.2770E+00
     -2.800  0.0000E+00  0.0000E+00  0.2780E+00  0.2780E+00
     -2.759  0.0000E+00  0.0000E+00  0.2780E+00  0.2780E+00
     -2.717  0.0000E+00  0.0000E+00  0.2780E+00  0.2780E+00
     -2.675  0.0000E+00  0.0000E+00  0.2790E+00  0.2790E+00
     -2.633  0.0000E+00  0.0000E+00  0.2790E+00  0.2790E+00
     -2.592  0.0000E+00  0.0000E+00  0.2800E+00  0.2800E+00
     -2.550  0.0000E+00  0.0000E+00  0.2800E+00  0.2800E+00
     -2.508  0.0000E+00  0.0000E+00  0.2800E+00  0.2800E+00
     -2.466  0.0000E+00  0.0000E+00  0.2800E+00  0.2800E+00
     -2.424  0.0000E+00  0.0000E+00  0.2810E+00  0.2810E+00
     -2.383  0.0000E+00  0.0000E+00  0.2810E+00  0.2810E+00
     -2.341  0.0000E+00  0.0000E+00  0.2820E+00  0.2820E+00
     -2.299  0.0000E+00  0.0000E+00  0.2820E+00  0.2820E+00
     -2.257  0.0000E+00  0.0000E+00  0.2830E+00  0.2830E+00
     -2.216  0.0000E+00  0.0000E+00  0.2830E+00  0.2830E+00
     -2.174  0.0000E+00  0.0000E+00  0.2830E+00  0.2830E+00
     -2.132  0.0000E+00  0.0000E+00  0.2840E+00  0.2840E+00
     -2.090  0.0000E+00  0.0000E+00  0.2850E+00  0.2850E+00
     -2.049  0.0000E+00  0.0000E+00  0.2860E+00  0.2860E+00
     -2.007  0.0000E+00  0.0000E+00  0.2860E+00  0.2860E+00
     -1.965  0.0000E+00  0.0000E+00  0.2870E+00  0.2870E+00
     -1.923  0.0000E+00  0.0000E+00  0.2870E+00  0.2870E+00
     -1.882  0.0000E+00  0.0000E+00  0.2880E+00  0.2880E+00
     -1.840  0.0000E+00  0.0000E+00  0.2880E+00  0.2880E+00
     -1.798  0.0000E+00  0.0000E+00  0.2880E+00  0.2880E+00
     -1.756  0.0000E+00  0.0000E+00  0.2890E+00  0.2890E+00
     -1.714  0.0000E+00  0.0000E+00  0.2910E+00  0.2910E+00
     -1.673  0.0000E+00  0.0000E+00  0.2910E+00  0.2910E+00
     -1.631  0.0000E+00  0.0000E+00  0.2910E+00  0.2910E+00
     -1.589  0.0000E+00  0.0000E+00  0.2910E+00  0.2910E+00
     -1.547  0.0000E+00  0.0000E+00  0.2920E+00  0.2920E+00
     -1.506  0.0000E+00  0.0000E+00  0.2930E+00  0.2930E+00
     -1.464  0.0000E+00  0.0000E+00  0.2930E+00  0.2930E+00
     -1.422  0.0000E+00  0.0000E+00  0.2930E+00  0.2930E+00
     -1.380  0.0000E+00  0.0000E+00  0.2930E+00  0.2930E+00
     -1.339  0.0000E+00  0.0000E+00  0.2940E+00  0.2940E+00
     -1.297  0.0000E+00  0.0000E+00  0.2940E+00  0.2940E+00
     -1.255  0.0000E+00  0.0000E+00  0.2950E+00  0.2950E+00
     -1.213  0.0000E+00  0.0000E+00  0.2960E+00  0.2960E+00
     -1.172  0.0000E+00  0.0000E+00  0.2960E+00  0.2960E+00
     -1.130  0.0000E+00  0.0000E+00  0.2960E+00  0.2960E+00
     -1.088  0.0000E+00  0.0000E+00  0.2970E+00  0.2970E+00
     -1.046  0.0000E+00  0.0000E+00  0.2970E+00  0.2970E+00
     -1.004  0.0000E+00  0.0000E+00  0.2980E+00  0.2980E+00
     -0.963  0.0000E+00  0.0000E+00  0.2980E+00  0.2980E+00
     -0.921  0.0000E+00  0.0000E+00  0.2980E+00  0.2980E+00
     -0.879  0.0000E+00  0.0000E+00  0.2980E+00  0.2980E+00
     -0.837  0.0000E+00  0.0000E+00  0.3000E+00  0.3000E+00
     -0.796  0.0000E+00  0.0000E+00  0.3010E+00  0.3010E+00
     -0.754  0.0000E+00  0.0000E+00  0.3010E+00  0.3010E+00
     -0.712  0.2394E-01  0.2394E-01  0.3020E+00  0.3020E+00
     -0.670  0.0000E+00  0.0000E+00  0.3020E+00  0.3020E+00
     -0.629  0.0000E+00  0.0000E+00  0.3030E+00  0.3030E+00
     -0.587  0.0000E+00  0.0000E+00  0.3040E+00  0.3040E+00
     -0.545  0.0000E+00  0.0000E+00  0.3040E+00  0.3040E+00
     -0.503  0.0000E+00  0.0000E+00  0.3050E+00  0.3050E+00
     -0.462  0.0000E+00  0.0000E+00  0.3050E+00  0.3050E+00
     -0.420  0.0000E+00  0.0000E+00  0.3060E+00  0.3060E+00
     -0.378  0.0000E+00  0.0000E+00  0.3070E+00  0.3070E+00
     -0.336  0.0000E+00  0.0000E+00  0.3070E+00  0.3070E+00
     -0.294  0.0000E+00  0.0000E+00  0.3080E+00  0.3080E+00
     -0.253  0.0000E+00  0.0000E+00  0.3090E+00  0.3090E+00
     -0.211  0.0000E+00  0.0000E+00  0.3090E+00  0.3090E+00
     -0.169  0.0000E+00  0.0000E+00  0.3090E+00  0.3090E+00
     -0.127  0.0000E+00  0.0000E+00  0.3100E+00  0.3100E+00
     -0.086  0.0000E+00  0.0000E+00  0.3100E+00  0.3100E+00
     -0.044  0.2394E-01  0.2394E-01  0.3120E+00  0.3120E+00
     -0.002  0.0000E+00  0.0000E+00  0.3120E+00  0.3120E+00
      0.040  0.0000E+00  0.0000E+00  0.3130E+00  0.3130E+00
      0.081  0.0000E+00  0.0000E+00  0.3130E+00  0.3130E+00
      0.123  0.0000E+00  0.0000E+00  0.3140E+00  0.3140E+00
      0.165  0.0000E+00  0.0000E+00  0.3140E+00  0.3140E+00
      0.207  0.0000E+00  0.0000E+00  0.3140E+00  0.3140E+00
      0.248  0.0000E+00  0.0000E+00  0.3150E+00  0.3150E+00
      0.290  0.0000E+00  0.0000E+00  0.3160E+00  0.3160E+00
      0.332  0.0000E+00  0.0000E+00  0.3160E+00  0.3160E+00
      0.374  0.0000E+00  0.0000E+00  0.3170E+00  0.3170E+00
      0.416  0.0000E+00  0.0000E+00  0.3170E+00  0.3170E+00
      0.457  0.0000E+00  0.0000E+00  0.3170E+00  0.3170E+00
      0.499  0.0000E+00  0.0000E+00  0.3170E+00  0.3170E+00
      0.541  0.0000E+00  0.0000E+00  0.3180E+00  0.3180E+00
      0.583  0.0000E+00  0.0000E+00  0.3190E+00  0.3190E+00
      0.624  0.0000E+00  0.0000E+00  0.3190E+00  0.3190E+00
      0.666  0.0000E+00  0.0000E+00  0.3200E+00  0.3200E+00
      0.708  0.0000E+00  0.0000E+00  0.3210E+00  0.3210E+00
      0.750  0.0000E+00  0.0000E+00  0.3220E+00  0.3220E+00
      0.791  0.0000E+00  0.0000E+00  0.3230E+00  0.3230E+00
      0.833  0.0000E+00  0.0000E+00  0.3240E+00  0.3240E+00
      0.875  0.0000E+00  0.0000E+00  0.3250E+00  0.3250E+00
      0.917  0.0000E+00  0.0000E+00  0.3260E+00  0.3260E+00
      0.959  0.0000E+00  0.0000E+00  0.3270E+00  0.3270E+00
      1.000  0.0000E+00  0.0000E+00  0.3280E+00  0.3280E+00
      1.042  0.0000E+00  0.0000E+00  0.3290E+00  0.3290E+00
      1.084  0.0000E+00  0.0000E+00  0.3310E+00  0.3310E+00
      1.126  0.0000E+00  0.0000E+00  0.3320E+00  0.3320E+00
      1.167  0.0000E+00  0.0000E+00  0.3350E+00  0.3350E+00
      1.209  0.0000E+00  0.0000E+00  0.3380E+00  0.3380E+00
      1.251  0.0000E+00  0.0000E+00  0.3390E+00  0.3390E+00
      1.293  0.0000E+00  0.0000E+00  0.3410E+00  0.3410E+00
      1.334  0.0000E+00  0.0000E+00  0.3420E+00  0.3420E+00
      1.376  0.0000E+00  0.0000E+00  0.3430E+00  0.3430E+00
      1.418  0.0000E+00  0.0000E+00  0.3450E+00  0.3450E+00
      1.460  0.5501E-14  0.5830E-14  0.3470E+00  0.3470E+00
      1.501  0.0000E+00  0.0000E+00  0.3490E+00  0.3490E+00
      1.543  0.0000E+00  0.0000E+00  0.3510E+00  0.3510E+00
      1.585  0.0000E+00  0.0000E+00  0.3540E+00  0.3540E+00
      1.627  0.0000E+00  0.0000E+00  0.3550E+00  0.3550E+00
      1.669  0.0000E+00  0.0000E+00  0.3560E+00  0.3560E+00
      1.710  0.0000E+00  0.0000E+00  0.3560E+00  0.3560E+00
      1.752  0.0000E+00  0.0000E+00  0.3560E+00  0.3560E+00
      1.794  0.0000E+00  0.0000E+00  0.3560E+00  0.3560E+00
      1.836  0.0000E+00  0.0000E+00  0.3560E+00  0.3560E+00
      1.877  0.0000E+00  0.0000E+00  0.3560E+00  0.3560E+00
      1.919  0.0000E+00  0.0000E+00  0.3560E+00  0.3560E+00
      1.961  0.0000E+00  0.0000E+00  0.3560E+00  0.3560E+00
      2.003  0.0000E+00  0.0000E+00  0.3560E+00  0.3560E+00
      2.044  0.0000E+00  0.0000E+00  0.3560E+00  0.3560E+00
      2.086  0.0000E+00  0.0000E+00  0.3560E+00  0.3560E+00
      2.128  0.0000E+00  0.0000E+00  0.3560E+00  0.3560E+00
      2.170  0.0000E+00  0.0000E+00  0.3560E+00  0.3560E+00
      2.211  0.0000E+00  0.0000E+00  0.3560E+00  0.3560E+00
