<?xml version="1.0" encoding="ISO-8859-1"?>
<modeling>
 <generator>
  <i name="program" type="string">vasp </i>
  <i name="version" type="string">5.3.5  </i>
  <i name="subversion" type="string">31Mar14 (build Feb 01 2018 12:10:03) gamma-only                       parallel </i>
  <i name="platform" type="string">LinuxIFC </i>
  <i name="date" type="string">2019 03 24 </i>
  <i name="time" type="string">23:45:24 </i>
 </generator>
 <incar>
  <i type="string" name="PREC">normal</i>
  <i type="int" name="ISPIN">     2</i>
  <i type="int" name="IBRION">     2</i>
  <i type="int" name="NSW">  1000</i>
  <i type="int" name="ISIF">     2</i>
  <i name="POTIM">      0.10000000</i>
  <i type="logical" name="LPLANE"> T  </i>
  <i type="int" name="ISMEAR">     0</i>
  <i name="SIGMA">      0.00010000</i>
  <i type="logical" name="LWAVE"> F  </i>
  <i type="logical" name="LCHARG"> F  </i>
  <i type="logical" name="LVTOT"> F  </i>
  <i type="string" name="GGA"> PE</i>
 </incar>
 <kpoints>
  <varray name="kpointlist" >
   <v>       0.00000000       0.00000000       0.00000000 </v>
  </varray>
  <varray name="weights" >
   <v>       1.00000000 </v>
  </varray>
 </kpoints>
 <parameters>
  <separator name="general" >
   <i type="string" name="SYSTEM">unknown system</i>
   <i type="logical" name="LCOMPAT"> F  </i>
  </separator>
  <separator name="electronic" >
   <i type="string" name="PREC">normal</i>
   <i name="ENMAX">    249.84400000</i>
   <i name="ENAUG">    412.49600000</i>
   <i name="EDIFF">      0.00010000</i>
   <i type="int" name="IALGO">    38</i>
   <i type="int" name="IWAVPR">    11</i>
   <i type="int" name="NBANDS">   356</i>
   <i name="NELECT">    550.00000000</i>
   <i type="int" name="TURBO">     0</i>
   <i type="int" name="IRESTART">     0</i>
   <i type="int" name="NREBOOT">     0</i>
   <i type="int" name="NMIN">     0</i>
   <i name="EREF">      0.00000000</i>
   <separator name="electronic smearing" >
    <i type="int" name="ISMEAR">     0</i>
    <i name="SIGMA">      0.00010000</i>
    <i name="KSPACING">      0.50000000</i>
    <i type="logical" name="KGAMMA"> T  </i>
   </separator>
   <separator name="electronic projectors" >
    <i type="logical" name="LREAL"> F  </i>
    <v name="ROPT">      0.00000000</v>
    <i type="int" name="LMAXPAW">  -100</i>
    <i type="int" name="LMAXMIX">     2</i>
    <i type="logical" name="NLSPLINE"> F  </i>
   </separator>
   <separator name="electronic startup" >
    <i type="int" name="ISTART">     0</i>
    <i type="int" name="ICHARG">     2</i>
    <i type="int" name="INIWAV">     1</i>
   </separator>
   <separator name="electronic spin" >
    <i type="int" name="ISPIN">     2</i>
    <i type="logical" name="LNONCOLLINEAR"> F  </i>
    <v name="MAGMOM">      1.00000000      1.00000000      1.00000000      1.00000000      1.00000000      1.00000000      1.00000000      1.00000000      1.00000000      1.00000000      1.00000000      1.00000000      1.00000000      1.00000000      1.00000000      1.00000000      1.00000000      1.00000000      1.00000000      1.00000000
      1.00000000      1.00000000      1.00000000      1.00000000      1.00000000      1.00000000      1.00000000      1.00000000      1.00000000      1.00000000      1.00000000      1.00000000      1.00000000      1.00000000      1.00000000      1.00000000      1.00000000      1.00000000      1.00000000      1.00000000
      1.00000000      1.00000000      1.00000000      1.00000000      1.00000000      1.00000000      1.00000000      1.00000000      1.00000000      1.00000000</v>
    <i name="NUPDOWN">     -1.00000000</i>
    <i type="logical" name="LSORBIT"> F  </i>
    <v name="SAXIS">      0.00000000      0.00000000      1.00000000</v>
    <i type="logical" name="LSPIRAL"> F  </i>
    <v name="QSPIRAL">      0.00000000      0.00000000      0.00000000</v>
    <i type="logical" name="LZEROZ"> F  </i>
   </separator>
   <separator name="electronic exchange-correlation" >
    <i type="logical" name="LASPH"> F  </i>
    <i type="logical" name="LMETAGGA"> F  </i>
   </separator>
   <separator name="electronic convergence" >
    <i type="int" name="NELM">    60</i>
    <i type="int" name="NELMDL">    -5</i>
    <i type="int" name="NELMIN">     2</i>
    <i name="ENINI">    249.84400000</i>
    <separator name="electronic convergence detail" >
     <i type="logical" name="LDIAG"> T  </i>
     <i type="logical" name="LSUBROT"> F  </i>
     <i name="WEIMIN">      0.00100000</i>
     <i name="EBREAK">      0.00000007</i>
     <i name="DEPER">      0.30000000</i>
     <i type="int" name="NRMM">     4</i>
     <i name="TIME">      0.40000000</i>
    </separator>
   </separator>
   <separator name="electronic mixer" >
    <i name="AMIX">      0.40000000</i>
    <i name="BMIX">      1.00000000</i>
    <i name="AMIN">      0.10000000</i>
    <i name="AMIX_MAG">      1.60000000</i>
    <i name="BMIX_MAG">      1.00000000</i>
    <separator name="electronic mixer details" >
     <i type="int" name="IMIX">     4</i>
     <i type="int" name="MAXMIX">   -45</i>
     <i name="WC">    100.00000000</i>
     <i type="int" name="INIMIX">     1</i>
     <i type="int" name="MIXPRE">     1</i>
     <i type="int" name="MREMOVE">     5</i>
    </separator>
   </separator>
   <separator name="electronic dipolcorrection" >
    <i type="logical" name="LDIPOL"> F  </i>
    <i type="logical" name="LMONO"> F  </i>
    <i type="int" name="IDIPOL">     0</i>
    <i name="EPSILON">      1.00000000</i>
    <v name="DIPOL">   -100.00000000   -100.00000000   -100.00000000</v>
    <i name="EFIELD">      0.00000000</i>
   </separator>
  </separator>
  <separator name="grids" >
   <i type="int" name="NGX">    90</i>
   <i type="int" name="NGY">    90</i>
   <i type="int" name="NGZ">    90</i>
   <i type="int" name="NGXF">   180</i>
   <i type="int" name="NGYF">   180</i>
   <i type="int" name="NGZF">   180</i>
   <i type="logical" name="ADDGRID"> F  </i>
  </separator>
  <separator name="ionic" >
   <i type="int" name="NSW">  1000</i>
   <i type="int" name="IBRION">     2</i>
   <i type="int" name="ISIF">     2</i>
   <i name="PSTRESS">      0.00000000</i>
   <i name="EDIFFG">      0.00100000</i>
   <i type="int" name="NFREE">     1</i>
   <i name="POTIM">      0.10000000</i>
   <i name="SMASS">     -3.00000000</i>
   <i name="SCALEE">      1.00000000</i>
  </separator>
  <separator name="ionic md" >
   <i name="TEBEG">      0.00010000</i>
   <i name="TEEND">      0.00010000</i>
   <i type="int" name="NBLOCK">     1</i>
   <i type="int" name="KBLOCK">  1000</i>
   <i type="int" name="NPACO">   256</i>
   <i name="APACO">     16.00000000</i>
  </separator>
  <separator name="symmetry" >
   <i type="int" name="ISYM">     2</i>
   <i name="SYMPREC">      0.00001000</i>
  </separator>
  <separator name="dos" >
   <i type="logical" name="LORBIT"> F  </i>
   <v name="RWIGS">     -1.00000000</v>
   <i type="int" name="NEDOS">   301</i>
   <i name="EMIN">     10.00000000</i>
   <i name="EMAX">    -10.00000000</i>
   <i name="EFERMI">      0.00000000</i>
  </separator>
  <separator name="writing" >
   <i type="int" name="NWRITE">     2</i>
   <i type="logical" name="LWAVE"> F  </i>
   <i type="logical" name="LCHARG"> F  </i>
   <i type="logical" name="LPARD"> F  </i>
   <i type="logical" name="LVTOT"> F  </i>
   <i type="logical" name="LVHAR"> F  </i>
   <i type="logical" name="LELF"> F  </i>
   <i type="logical" name="LOPTICS"> F  </i>
   <v name="STM">      0.00000000      0.00000000      0.00000000      0.00000000      0.00000000      0.00000000      0.00000000</v>
  </separator>
  <separator name="performance" >
   <i type="int" name="NPAR">     4</i>
   <i type="int" name="NSIM">     4</i>
   <i type="int" name="NBLK">    -1</i>
   <i type="logical" name="LPLANE"> T  </i>
   <i type="logical" name="LSCALAPACK"> T  </i>
   <i type="logical" name="LSCAAWARE"> F  </i>
   <i type="logical" name="LSCALU"> F  </i>
   <i type="logical" name="LASYNC"> F  </i>
   <i type="logical" name="LORBITALREAL"> F  </i>
  </separator>
  <separator name="miscellaneous" >
   <i type="int" name="IDIOT">     3</i>
   <i type="logical" name="LMUSIC"> F  </i>
   <v name="POMASS">    107.86800000</v>
   <v name="DARWINR">      0.00000000</v>
   <v name="DARWINV">      1.00000000</v>
   <i type="logical" name="LCORR"> T  </i>
  </separator>
  <i type="logical" name="GGA_COMPAT"> T  </i>
  <i type="logical" name="LBERRY"> F  </i>
  <i type="int" name="ICORELEVEL">     0</i>
  <i type="logical" name="LDAU"> F  </i>
  <i type="int" name="I_CONSTRAINED_M">     0</i>
  <separator name="electronic exchange-correlation" >
   <i type="string" name="GGA">PE</i>
   <i type="int" name="VOSKOWN">     0</i>
   <i type="logical" name="LHFCALC"> F  </i>
   <i type="string" name="PRECFOCK"></i>
   <i type="logical" name="LSYMGRAD"> F  </i>
   <i type="logical" name="LHFONE"> F  </i>
   <i type="logical" name="LRHFCALC"> F  </i>
   <i type="logical" name="LTHOMAS"> F  </i>
   <i type="logical" name="LMODELHF"> F  </i>
   <i name="ENCUT4O">     -1.00000000</i>
   <i type="int" name="EXXOEP">     0</i>
   <i type="int" name="FOURORBIT">     0</i>
   <i name="AEXX">      0.00000000</i>
   <i name="HFALPHA">      0.00000000</i>
   <i name="MCALPHA">      0.00000000</i>
   <i name="ALDAX">      1.00000000</i>
   <i name="AGGAX">      1.00000000</i>
   <i name="ALDAC">      1.00000000</i>
   <i name="AGGAC">      1.00000000</i>
   <i type="int" name="NKREDX">     1</i>
   <i type="int" name="NKREDY">     1</i>
   <i type="int" name="NKREDZ">     1</i>
   <i type="logical" name="SHIFTRED"> F  </i>
   <i type="logical" name="ODDONLY"> F  </i>
   <i type="logical" name="EVENONLY"> F  </i>
   <i type="int" name="LMAXFOCK">     0</i>
   <i type="int" name="NMAXFOCKAE">     0</i>
   <i type="logical" name="LFOCKAEDFT"> F  </i>
   <i name="HFSCREEN">      0.00000000</i>
   <i name="HFSCREENC">      0.00000000</i>
   <i type="int" name="NBANDSGWLOW">     0</i>
  </separator>
  <separator name="vdW DFT" >
   <i type="logical" name="LUSE_VDW"> F  </i>
   <i name="Zab_VDW">     -0.84910000</i>
   <i name="PARAM1">      0.12340000</i>
   <i name="PARAM2">      1.00000000</i>
   <i name="PARAM3">      0.00000000</i>
  </separator>
  <separator name="model GW" >
   <i type="int" name="MODEL_GW">     0</i>
   <i name="MODEL_EPS0">    144.88656969</i>
   <i name="MODEL_ALPHA">      1.00000000</i>
  </separator>
  <separator name="linear response parameters" >
   <i type="logical" name="LEPSILON"> F  </i>
   <i type="logical" name="LRPA"> F  </i>
   <i type="logical" name="LNABLA"> F  </i>
   <i type="logical" name="LVEL"> F  </i>
   <i type="int" name="KINTER">     0</i>
   <i name="CSHIFT">      0.10000000</i>
   <i name="OMEGAMAX">     -1.00000000</i>
   <i name="DEG_THRESHOLD">      0.00200000</i>
  </separator>
  <separator name="orbital magnetization" >
   <i type="logical" name="NUCIND"> F  </i>
   <v name="MAGPOS">      0.00000000      0.00000000      0.00000000</v>
   <i type="logical" name="LNICSALL"> T  </i>
   <i type="logical" name="ORBITALMAG"> F  </i>
   <i type="logical" name="LMAGBLOCH"> F  </i>
   <i type="logical" name="LCHIMAG"> F  </i>
   <i type="logical" name="LGAUGE"> T  </i>
   <i type="int" name="MAGATOM">     0</i>
   <v name="MAGDIPOL">      0.00000000      0.00000000      0.00000000</v>
   <v name="AVECCONST">      0.00000000      0.00000000      0.00000000</v>
  </separator>
  <separator name="response functions" >
   <i type="logical" name="LADDER"> F  </i>
   <i type="logical" name="LFXC"> F  </i>
   <i type="logical" name="LHARTREE"> T  </i>
   <i type="int" name="IBSE">     0</i>
   <i type="logical" name="LTCTE"> F  </i>
   <i type="logical" name="LTETE"> F  </i>
   <i type="logical" name="LTRIPLET"> F  </i>
   <i type="logical" name="LFXCEPS"> F  </i>
   <i type="logical" name="LFXHEG"> F  </i>
   <i type="logical" name="L2ORDER"> F  </i>
   <i type="logical" name="LUSEW"> F  </i>
   <i name="ENCUTGW">     -2.00000000</i>
   <i name="ENCUTGWSOFT">     -2.00000000</i>
   <i name="ENCUTLF">     -1.00000000</i>
   <i type="int" name="LMAXMP2">    -1</i>
   <i name="SCISSOR">      0.00000000</i>
   <i type="int" name="NOMEGA">     0</i>
   <i type="int" name="NOMEGAR">     0</i>
   <i type="int" name="NBANDSGW">    -1</i>
   <i type="int" name="NBANDSO">    -1</i>
   <i type="int" name="NBANDSV">    -1</i>
   <i type="int" name="NELM">     1</i>
   <i type="int" name="DIM">     3</i>
   <i type="int" name="ANTIRES">     0</i>
   <i name="OMEGAMAX">    -30.00000000</i>
   <i name="OMEGAMIN">    -30.00000000</i>
   <i name="OMEGATL">   -200.00000000</i>
   <i type="int" name="OMEGAGRID">     0</i>
   <i name="CSHIFT">     -0.10000000</i>
   <i type="logical" name="SELFENERGY"> F  </i>
   <i type="logical" name="LSPECTRAL"> F  </i>
   <i type="logical" name="ODDONLYGW"> F  </i>
   <i type="logical" name="EVENONLYGW"> F  </i>
   <i type="int" name="NKREDLFX">     1</i>
   <i type="int" name="NKREDLFY">     1</i>
   <i type="int" name="NKREDLFZ">     1</i>
   <i type="int" name="MAXMEM">  1800</i>
   <i type="int" name="TELESCOPE">     0</i>
   <i type="int" name="TAUPAR">     1</i>
  </separator>
  <separator name="External order field" >
   <i name="OFIELD_KAPPA">      0.00000000</i>
   <v name="OFIELD_K">      0.00000000      0.00000000      0.00000000</v>
   <i name="OFIELD_Q6_NEAR">      0.00000000</i>
   <i name="OFIELD_Q6_FAR">      0.00000000</i>
   <i name="OFIELD_A">      0.00000000</i>
  </separator>
 </parameters>
 <atominfo>
  <atoms>      50 </atoms>
  <types>       1 </types>
  <array name="atoms" >
   <dimension dim="1">ion</dimension>
   <field type="string">element</field>
   <field type="int">atomtype</field>
   <set>
    <rc><c>Ag</c><c>   1</c></rc>
    <rc><c>Ag</c><c>   1</c></rc>
    <rc><c>Ag</c><c>   1</c></rc>
    <rc><c>Ag</c><c>   1</c></rc>
    <rc><c>Ag</c><c>   1</c></rc>
    <rc><c>Ag</c><c>   1</c></rc>
    <rc><c>Ag</c><c>   1</c></rc>
    <rc><c>Ag</c><c>   1</c></rc>
    <rc><c>Ag</c><c>   1</c></rc>
    <rc><c>Ag</c><c>   1</c></rc>
    <rc><c>Ag</c><c>   1</c></rc>
    <rc><c>Ag</c><c>   1</c></rc>
    <rc><c>Ag</c><c>   1</c></rc>
    <rc><c>Ag</c><c>   1</c></rc>
    <rc><c>Ag</c><c>   1</c></rc>
    <rc><c>Ag</c><c>   1</c></rc>
    <rc><c>Ag</c><c>   1</c></rc>
    <rc><c>Ag</c><c>   1</c></rc>
    <rc><c>Ag</c><c>   1</c></rc>
    <rc><c>Ag</c><c>   1</c></rc>
    <rc><c>Ag</c><c>   1</c></rc>
    <rc><c>Ag</c><c>   1</c></rc>
    <rc><c>Ag</c><c>   1</c></rc>
    <rc><c>Ag</c><c>   1</c></rc>
    <rc><c>Ag</c><c>   1</c></rc>
    <rc><c>Ag</c><c>   1</c></rc>
    <rc><c>Ag</c><c>   1</c></rc>
    <rc><c>Ag</c><c>   1</c></rc>
    <rc><c>Ag</c><c>   1</c></rc>
    <rc><c>Ag</c><c>   1</c></rc>
    <rc><c>Ag</c><c>   1</c></rc>
    <rc><c>Ag</c><c>   1</c></rc>
    <rc><c>Ag</c><c>   1</c></rc>
    <rc><c>Ag</c><c>   1</c></rc>
    <rc><c>Ag</c><c>   1</c></rc>
    <rc><c>Ag</c><c>   1</c></rc>
    <rc><c>Ag</c><c>   1</c></rc>
    <rc><c>Ag</c><c>   1</c></rc>
    <rc><c>Ag</c><c>   1</c></rc>
    <rc><c>Ag</c><c>   1</c></rc>
    <rc><c>Ag</c><c>   1</c></rc>
    <rc><c>Ag</c><c>   1</c></rc>
    <rc><c>Ag</c><c>   1</c></rc>
    <rc><c>Ag</c><c>   1</c></rc>
    <rc><c>Ag</c><c>   1</c></rc>
    <rc><c>Ag</c><c>   1</c></rc>
    <rc><c>Ag</c><c>   1</c></rc>
    <rc><c>Ag</c><c>   1</c></rc>
    <rc><c>Ag</c><c>   1</c></rc>
    <rc><c>Ag</c><c>   1</c></rc>
   </set>
  </array>
  <array name="atomtypes" >
   <dimension dim="1">type</dimension>
   <field type="int">atomspertype</field>
   <field type="string">element</field>
   <field>mass</field>
   <field>valence</field>
   <field type="string">pseudopotential</field>
   <set>
    <rc><c>  50</c><c>Ag</c><c>    107.86800000</c><c>     11.00000000</c><c>  PAW_PBE Ag 02Apr2005                  </c></rc>
   </set>
  </array>
 </atominfo>
 <structure name="initialpos" >
  <crystal>
   <varray name="basis" >
    <v>      22.94117343       0.00000000       0.00000000 </v>
    <v>       0.00000000      22.94117343       0.00000000 </v>
    <v>       0.00000000       0.00000000      22.94117343 </v>
   </varray>
   <i name="volume">  12073.88080741 </i>
   <varray name="rec_basis" >
    <v>       0.04358975       0.00000000       0.00000000 </v>
    <v>       0.00000000       0.04358975       0.00000000 </v>
    <v>       0.00000000       0.00000000       0.04358975 </v>
   </varray>
  </crystal>
  <varray name="positions" >
   <v>       0.74285774       0.58802037       0.55738006 </v>
   <v>       0.69863671       0.51596384       0.46857570 </v>
   <v>       0.73889455       0.47592098       0.58036529 </v>
   <v>       0.66094312       0.62769832       0.49354027 </v>
   <v>       0.60827834       0.52437128       0.34722490 </v>
   <v>       0.71019958       0.55261409       0.66231710 </v>
   <v>       0.56400307       0.40805859       0.31724470 </v>
   <v>       0.61665222       0.43050944       0.42316365 </v>
   <v>       0.59335905       0.64960364       0.39993656 </v>
   <v>       0.65269777       0.64747949       0.61195665 </v>
   <v>       0.65184042       0.41349293       0.54242013 </v>
   <v>       0.63845763       0.53349421       0.56923415 </v>
   <v>       0.57978614       0.53879967       0.46158920 </v>
   <v>       0.51632264       0.50512334       0.27378152 </v>
   <v>       0.58959011       0.33075579       0.48611346 </v>
   <v>       0.56932222       0.69375315       0.50892922 </v>
   <v>       0.64726758       0.45028986       0.65558573 </v>
   <v>       0.50527212       0.59957087       0.34780938 </v>
   <v>       0.50831263       0.47944078       0.38771522 </v>
   <v>       0.49533730       0.36493000       0.41442176 </v>
   <v>       0.44881033       0.41537748       0.30762159 </v>
   <v>       0.53430589       0.42954172       0.50978462 </v>
   <v>       0.59758275       0.56656054       0.68660570 </v>
   <v>       0.49690234       0.70727708       0.41467863 </v>
   <v>       0.53894863       0.60193768       0.58208706 </v>
   <v>       0.40751875       0.52895406       0.31388360 </v>
   <v>       0.48689807       0.56901071       0.69750494 </v>
   <v>       0.48127368       0.31124854       0.52462559 </v>
   <v>       0.48612354       0.60922351       0.47115476 </v>
   <v>       0.56580321       0.36148982       0.60438872 </v>
   <v>       0.39997334       0.63342398       0.38824915 </v>
   <v>       0.52627437       0.67555310       0.64985829 </v>
   <v>       0.45819210       0.69443308       0.53669883 </v>
   <v>       0.53057423       0.48302161       0.61454769 </v>
   <v>       0.41544324       0.52820547       0.43172355 </v>
   <v>       0.41292360       0.41043611       0.50263852 </v>
   <v>       0.38904274       0.31654765       0.44209577 </v>
   <v>       0.52734502       0.45195591       0.71083571 </v>
   <v>       0.36672339       0.43212883       0.39442778 </v>
   <v>       0.42915566       0.51836037       0.55153876 </v>
   <v>       0.31288074       0.54692876       0.39335126 </v>
   <v>       0.44942603       0.38643462       0.62006378 </v>
   <v>       0.36949580       0.31905599       0.55944613 </v>
   <v>       0.35891965       0.60515591       0.49998690 </v>
   <v>       0.41927470       0.61451613       0.61767971 </v>
   <v>       0.30215190       0.37789176       0.48572123 </v>
   <v>       0.41055416       0.48862652       0.66360529 </v>
   <v>       0.30764343       0.49373981       0.49642840 </v>
   <v>       0.33111433       0.42474779       0.59401375 </v>
   <v>       0.32521661       0.54349629       0.59925348 </v>
  </varray>
 </structure>
 <calculation>
  <scstep>
   <time name="dav">    6.14    6.14</time>
   <time name="total">    6.38    6.40</time>
   <energy>
    <i name="alphaZ">    176.11944382 </i>
    <i name="ewald"> 157555.67814505 </i>
    <i name="hartreedc">-207394.68567139 </i>
    <i name="XCdc">   -534.55053734 </i>
    <i name="pawpsdc">  50168.60890348 </i>
    <i name="pawaedc"> -47863.23044394 </i>
    <i name="eentropy">      0.00000000 </i>
    <i name="bandstr">    638.61853862 </i>
    <i name="atom">  51859.93150432 </i>
    <i name="e_fr_energy">   4606.48988260 </i>
    <i name="e_wo_entrp">   4606.48988260 </i>
    <i name="e_0_energy">   4606.48988260 </i>
   </energy>
  </scstep>
  <scstep>
   <time name="dav">    8.92    8.92</time>
   <time name="total">    8.92    8.93</time>
   <energy>
    <i name="e_fr_energy">    655.34367149 </i>
    <i name="e_wo_entrp">    655.34367149 </i>
    <i name="e_0_energy">    655.34367149 </i>
   </energy>
  </scstep>
  <scstep>
   <time name="dav">    7.21    7.22</time>
   <time name="total">    7.21    7.23</time>
   <energy>
    <i name="e_fr_energy">    -80.36569349 </i>
    <i name="e_wo_entrp">    -80.36569349 </i>
    <i name="e_0_energy">    -80.36569349 </i>
   </energy>
  </scstep>
  <scstep>
   <time name="dav">    6.68    6.69</time>
   <time name="total">    6.69    6.70</time>
   <energy>
    <i name="e_fr_energy">   -106.85590942 </i>
    <i name="e_wo_entrp">   -106.85590942 </i>
    <i name="e_0_energy">   -106.85590942 </i>
   </energy>
  </scstep>
  <scstep>
   <time name="dav">    6.72    6.73</time>
   <time name="total">    6.88    6.89</time>
   <energy>
    <i name="e_fr_energy">   -107.25607191 </i>
    <i name="e_wo_entrp">   -107.25607191 </i>
    <i name="e_0_energy">   -107.25607191 </i>
   </energy>
  </scstep>
  <scstep>
   <time name="dav">    6.96    6.97</time>
   <time name="total">    7.34    7.37</time>
   <energy>
    <i name="e_fr_energy">    -51.77183552 </i>
    <i name="e_wo_entrp">    -51.77183552 </i>
    <i name="e_0_energy">    -51.77183552 </i>
   </energy>
  </scstep>
  <scstep>
   <time name="dav">    6.41    6.41</time>
   <time name="total">    6.79   10.28</time>
   <energy>
    <i name="e_fr_energy">    -39.97690842 </i>
    <i name="e_wo_entrp">    -39.97690842 </i>
    <i name="e_0_energy">    -39.97690842 </i>
   </energy>
  </scstep>
  <scstep>
   <time name="dav">    6.50    6.51</time>
   <time name="total">    6.88    6.89</time>
   <energy>
    <i name="e_fr_energy">    -34.39031957 </i>
    <i name="e_wo_entrp">    -34.39031957 </i>
    <i name="e_0_energy">    -34.39031957 </i>
   </energy>
  </scstep>
  <scstep>
   <time name="dav">    6.68    6.68</time>
   <time name="total">    7.06    7.11</time>
   <energy>
    <i name="e_fr_energy">    -38.07377173 </i>
    <i name="e_wo_entrp">    -38.07377173 </i>
    <i name="e_0_energy">    -38.07377173 </i>
   </energy>
  </scstep>
  <scstep>
   <time name="dav">    6.32    6.32</time>
   <time name="total">    6.69    6.86</time>
   <energy>
    <i name="e_fr_energy">    -51.97613951 </i>
    <i name="e_wo_entrp">    -51.97613951 </i>
    <i name="e_0_energy">    -51.97613951 </i>
   </energy>
  </scstep>
  <scstep>
   <time name="dav">    6.34    6.34</time>
   <time name="total">    6.77    6.80</time>
   <energy>
    <i name="e_fr_energy">    -64.94786178 </i>
    <i name="e_wo_entrp">    -64.94786178 </i>
    <i name="e_0_energy">    -64.94786178 </i>
   </energy>
  </scstep>
  <scstep>
   <time name="dav">    6.38    6.39</time>
   <time name="total">    6.80    9.11</time>
   <energy>
    <i name="e_fr_energy">    -76.30489106 </i>
    <i name="e_wo_entrp">    -76.30489106 </i>
    <i name="e_0_energy">    -76.30489106 </i>
   </energy>
  </scstep>
  <scstep>
   <time name="dav">    6.47    6.48</time>
   <time name="total">    6.86    6.87</time>
   <energy>
    <i name="e_fr_energy">    -83.41041737 </i>
    <i name="e_wo_entrp">    -83.41041737 </i>
    <i name="e_0_energy">    -83.41041737 </i>
   </energy>
  </scstep>
  <scstep>
   <time name="dav">    6.36    6.37</time>
   <time name="total">    6.74    6.77</time>
   <energy>
    <i name="e_fr_energy">    -86.82108492 </i>
    <i name="e_wo_entrp">    -86.82108492 </i>
    <i name="e_0_energy">    -86.82108492 </i>
   </energy>
  </scstep>
  <scstep>
   <time name="dav">    6.40    6.40</time>
   <time name="total">    6.77    6.78</time>
   <energy>
    <i name="e_fr_energy">    -93.10275606 </i>
    <i name="e_wo_entrp">    -93.10275606 </i>
    <i name="e_0_energy">    -93.10275606 </i>
   </energy>
  </scstep>
  <scstep>
   <time name="dav">    6.46    6.47</time>
   <time name="total">    6.84    6.85</time>
   <energy>
    <i name="e_fr_energy">    -95.10648025 </i>
    <i name="e_wo_entrp">    -95.10648025 </i>
    <i name="e_0_energy">    -95.10648025 </i>
   </energy>
  </scstep>
  <scstep>
   <time name="dav">    6.38    6.38</time>
   <time name="total">    6.74    6.75</time>
   <energy>
    <i name="e_fr_energy">    -98.53156735 </i>
    <i name="e_wo_entrp">    -98.53156735 </i>
    <i name="e_0_energy">    -98.53156735 </i>
   </energy>
  </scstep>
  <scstep>
   <time name="dav">    6.33    6.33</time>
   <time name="total">    6.70    6.71</time>
   <energy>
    <i name="e_fr_energy">   -101.09679385 </i>
    <i name="e_wo_entrp">   -101.09679385 </i>
    <i name="e_0_energy">   -101.09679385 </i>
   </energy>
  </scstep>
  <scstep>
   <time name="dav">    6.42    6.43</time>
   <time name="total">    6.80    7.52</time>
   <energy>
    <i name="e_fr_energy">   -102.43731972 </i>
    <i name="e_wo_entrp">   -102.43731972 </i>
    <i name="e_0_energy">   -102.43731972 </i>
   </energy>
  </scstep>
  <scstep>
   <time name="dav">    6.42    6.43</time>
   <time name="total">    6.81    6.82</time>
   <energy>
    <i name="e_fr_energy">   -103.64103022 </i>
    <i name="e_wo_entrp">   -103.64103022 </i>
    <i name="e_0_energy">   -103.64103022 </i>
   </energy>
  </scstep>
  <scstep>
   <time name="dav">    6.45    6.45</time>
   <time name="total">    6.86    6.89</time>
   <energy>
    <i name="e_fr_energy">   -104.09438715 </i>
    <i name="e_wo_entrp">   -104.09438715 </i>
    <i name="e_0_energy">   -104.09438715 </i>
   </energy>
  </scstep>
  <scstep>
   <time name="dav">    5.81    5.82</time>
   <time name="total">    6.20    6.24</time>
   <energy>
    <i name="e_fr_energy">   -104.22368471 </i>
    <i name="e_wo_entrp">   -104.22368471 </i>
    <i name="e_0_energy">   -104.22368471 </i>
   </energy>
  </scstep>
  <scstep>
   <time name="dav">    6.00    6.00</time>
   <time name="total">    6.37    6.38</time>
   <energy>
    <i name="e_fr_energy">   -104.33961133 </i>
    <i name="e_wo_entrp">   -104.33961133 </i>
    <i name="e_0_energy">   -104.33961133 </i>
   </energy>
  </scstep>
  <scstep>
   <time name="dav">    4.90    4.91</time>
   <time name="total">    5.28    5.29</time>
   <energy>
    <i name="e_fr_energy">   -104.36529614 </i>
    <i name="e_wo_entrp">   -104.36529614 </i>
    <i name="e_0_energy">   -104.36529614 </i>
   </energy>
  </scstep>
  <scstep>
   <time name="dav">    4.86    4.86</time>
   <time name="total">    5.26    6.42</time>
   <energy>
    <i name="e_fr_energy">   -104.38275201 </i>
    <i name="e_wo_entrp">   -104.38275201 </i>
    <i name="e_0_energy">   -104.38275201 </i>
   </energy>
  </scstep>
  <scstep>
   <time name="dav">    4.92    4.92</time>
   <time name="total">    5.29    5.30</time>
   <energy>
    <i name="e_fr_energy">   -104.39185919 </i>
    <i name="e_wo_entrp">   -104.39185919 </i>
    <i name="e_0_energy">   -104.39185919 </i>
   </energy>
  </scstep>
  <scstep>
   <time name="dav">    4.81    4.81</time>
   <time name="total">    5.22    5.24</time>
   <energy>
    <i name="e_fr_energy">   -104.39611754 </i>
    <i name="e_wo_entrp">   -104.39611754 </i>
    <i name="e_0_energy">   -104.39611754 </i>
   </energy>
  </scstep>
  <scstep>
   <time name="dav">    4.65    4.65</time>
   <time name="total">    5.06    5.66</time>
   <energy>
    <i name="e_fr_energy">   -104.40000412 </i>
    <i name="e_wo_entrp">   -104.40000412 </i>
    <i name="e_0_energy">   -104.40000412 </i>
   </energy>
  </scstep>
  <scstep>
   <time name="dav">    4.78    4.78</time>
   <time name="total">    5.16    5.17</time>
   <energy>
    <i name="e_fr_energy">   -104.40190701 </i>
    <i name="e_wo_entrp">   -104.40190701 </i>
    <i name="e_0_energy">   -104.40190701 </i>
   </energy>
  </scstep>
  <scstep>
   <time name="dav">    4.60    4.60</time>
   <time name="total">    4.98    6.70</time>
   <energy>
    <i name="e_fr_energy">   -104.40229552 </i>
    <i name="e_wo_entrp">   -104.40229552 </i>
    <i name="e_0_energy">   -104.40229552 </i>
   </energy>
  </scstep>
  <scstep>
   <time name="dav">    4.56    4.57</time>
   <time name="total">    4.96    5.21</time>
   <energy>
    <i name="e_fr_energy">   -104.40241743 </i>
    <i name="e_wo_entrp">   -104.40241743 </i>
    <i name="e_0_energy">   -104.40241743 </i>
   </energy>
  </scstep>
  <scstep>
   <time name="dav">    4.56    4.57</time>
   <time name="total">    4.81    4.82</time>
   <energy>
    <i name="alphaZ">    176.11944382 </i>
    <i name="ewald"> 157555.67814505 </i>
    <i name="hartreedc">-207271.74896363 </i>
    <i name="XCdc">   -555.79910182 </i>
    <i name="pawpsdc">  55731.54962070 </i>
    <i name="pawaedc"> -53543.55933073 </i>
    <i name="eentropy">     -0.00000000 </i>
    <i name="bandstr">  -4056.57377578 </i>
    <i name="atom">  51859.93150432 </i>
    <i name="e_fr_energy">   -104.40245808 </i>
    <i name="e_wo_entrp">   -104.40245808 </i>
    <i name="e_0_energy">   -104.40245808 </i>
   </energy>
  </scstep>
  <structure>
   <crystal>
    <varray name="basis" >
     <v>      22.94117343       0.00000000       0.00000000 </v>
     <v>       0.00000000      22.94117343       0.00000000 </v>
     <v>       0.00000000       0.00000000      22.94117343 </v>
    </varray>
    <i name="volume">  12073.88080741 </i>
    <varray name="rec_basis" >
     <v>       0.04358975       0.00000000       0.00000000 </v>
     <v>       0.00000000       0.04358975       0.00000000 </v>
     <v>       0.00000000       0.00000000       0.04358975 </v>
    </varray>
   </crystal>
   <varray name="positions" >
    <v>       0.74285774       0.58802037       0.55738006 </v>
    <v>       0.69863671       0.51596384       0.46857570 </v>
    <v>       0.73889455       0.47592098       0.58036529 </v>
    <v>       0.66094312       0.62769832       0.49354027 </v>
    <v>       0.60827834       0.52437128       0.34722490 </v>
    <v>       0.71019958       0.55261409       0.66231710 </v>
    <v>       0.56400307       0.40805859       0.31724470 </v>
    <v>       0.61665222       0.43050944       0.42316365 </v>
    <v>       0.59335905       0.64960364       0.39993656 </v>
    <v>       0.65269777       0.64747949       0.61195665 </v>
    <v>       0.65184042       0.41349293       0.54242013 </v>
    <v>       0.63845763       0.53349421       0.56923415 </v>
    <v>       0.57978614       0.53879967       0.46158920 </v>
    <v>       0.51632264       0.50512334       0.27378152 </v>
    <v>       0.58959011       0.33075579       0.48611346 </v>
    <v>       0.56932222       0.69375315       0.50892922 </v>
    <v>       0.64726758       0.45028986       0.65558573 </v>
    <v>       0.50527212       0.59957087       0.34780938 </v>
    <v>       0.50831263       0.47944078       0.38771522 </v>
    <v>       0.49533730       0.36493000       0.41442176 </v>
    <v>       0.44881033       0.41537748       0.30762159 </v>
    <v>       0.53430589       0.42954172       0.50978462 </v>
    <v>       0.59758275       0.56656054       0.68660570 </v>
    <v>       0.49690234       0.70727708       0.41467863 </v>
    <v>       0.53894863       0.60193768       0.58208706 </v>
    <v>       0.40751875       0.52895406       0.31388360 </v>
    <v>       0.48689807       0.56901071       0.69750494 </v>
    <v>       0.48127368       0.31124854       0.52462559 </v>
    <v>       0.48612354       0.60922351       0.47115476 </v>
    <v>       0.56580321       0.36148982       0.60438872 </v>
    <v>       0.39997334       0.63342398       0.38824915 </v>
    <v>       0.52627437       0.67555310       0.64985829 </v>
    <v>       0.45819210       0.69443308       0.53669883 </v>
    <v>       0.53057423       0.48302161       0.61454769 </v>
    <v>       0.41544324       0.52820547       0.43172355 </v>
    <v>       0.41292360       0.41043611       0.50263852 </v>
    <v>       0.38904274       0.31654765       0.44209577 </v>
    <v>       0.52734502       0.45195591       0.71083571 </v>
    <v>       0.36672339       0.43212883       0.39442778 </v>
    <v>       0.42915566       0.51836037       0.55153876 </v>
    <v>       0.31288074       0.54692876       0.39335126 </v>
    <v>       0.44942603       0.38643462       0.62006378 </v>
    <v>       0.36949580       0.31905599       0.55944613 </v>
    <v>       0.35891965       0.60515591       0.49998690 </v>
    <v>       0.41927470       0.61451613       0.61767971 </v>
    <v>       0.30215190       0.37789176       0.48572123 </v>
    <v>       0.41055416       0.48862652       0.66360529 </v>
    <v>       0.30764343       0.49373981       0.49642840 </v>
    <v>       0.33111433       0.42474779       0.59401375 </v>
    <v>       0.32521661       0.54349629       0.59925348 </v>
   </varray>
  </structure>
  <varray name="forces" >
   <v>       1.60197812       0.69873390      -0.08610772 </v>
   <v>       0.30619073      -0.59775685      -0.64070626 </v>
   <v>       1.37404666      -0.99917287      -0.04475845 </v>
   <v>      -0.02976816       0.51664528      -0.72048427 </v>
   <v>       0.85394755       0.49035212      -0.34067339 </v>
   <v>       0.60001660       0.38490646       1.36362217 </v>
   <v>       0.98232764      -0.97580322      -0.47300325 </v>
   <v>       0.65203990      -0.25641938      -0.08586800 </v>
   <v>       1.12341792      -0.21702272      -0.25346952 </v>
   <v>      -0.37003063       0.73502345       0.22438009 </v>
   <v>       0.20811920      -0.29984696      -0.52921901 </v>
   <v>      -1.12333615      -0.11168296      -0.08874139 </v>
   <v>      -0.05952854       0.27042212       0.63899021 </v>
   <v>       0.12123673       0.66719300      -1.25951964 </v>
   <v>       0.57063395      -0.98802533      -0.31134681 </v>
   <v>       0.45301502       0.66586454       0.66062431 </v>
   <v>      -0.51385196      -0.46743443       0.61971112 </v>
   <v>      -0.20630820      -0.25154592      -0.50128187 </v>
   <v>      -0.43762104       0.15908880       0.76044085 </v>
   <v>      -0.05921344      -0.41092989      -0.44633718 </v>
   <v>      -0.90432456      -0.81630157      -0.18578574 </v>
   <v>      -0.81633247       0.84845554       0.06793615 </v>
   <v>       0.46452278      -0.07712975       0.37517027 </v>
   <v>      -0.80756031       1.11657010      -0.49692832 </v>
   <v>       0.30580333      -2.76283976      -2.69741379 </v>
   <v>      -0.39983171       0.10159573      -0.25410119 </v>
   <v>      -0.20843389       0.06764580       0.74471968 </v>
   <v>       0.19445253      -0.27528109       0.09330412 </v>
   <v>       0.27669930      -0.92361896       0.14007227 </v>
   <v>       0.13678214      -0.18541772       0.60895437 </v>
   <v>      -0.47469670       0.97487965      -0.45824952 </v>
   <v>      -0.27137795       2.81149484       2.32904813 </v>
   <v>      -0.89855631       0.99835321       0.74337641 </v>
   <v>       0.21446848       1.14208554      -3.12800526 </v>
   <v>       0.69976195      -0.80883958       0.90839425 </v>
   <v>       0.86546238       1.11928522      -0.03132757 </v>
   <v>       0.20036091      -1.00257518      -1.08729855 </v>
   <v>      -0.03237757      -1.13441137       3.29973098 </v>
   <v>      -0.54428855      -0.61623285      -0.68981109 </v>
   <v>       0.97782261      -0.28801295      -0.57607354 </v>
   <v>      -1.18852553       0.29278506      -0.88068650 </v>
   <v>       0.16539758      -0.05920764       0.15924070 </v>
   <v>      -0.43685723      -1.17759421       0.93636742 </v>
   <v>      -0.11243021       0.76088740       0.36513333 </v>
   <v>      -0.49663151       0.64532596      -0.06101739 </v>
   <v>      -1.54510495      -0.05552519      -0.38454571 </v>
   <v>      -0.21990185      -0.11385571       0.67286038 </v>
   <v>      -0.17394458      -0.18817716      -0.19041617 </v>
   <v>      -0.20056564       0.10743894       0.43728857 </v>
   <v>      -0.81710437       0.48562855       0.75381131 </v>
  </varray>
  <varray name="stress" >
   <v>       3.68007125      -0.45982902       0.26440931 </v>
   <v>      -0.45982902       3.95078737       0.96722674 </v>
   <v>       0.26440931       0.96722673       4.35118334 </v>
  </varray>
  <energy>
   <i name="e_fr_energy">   -104.40245808 </i>
   <i name="e_wo_entrp">   -104.40245808 </i>
   <i name="e_0_energy">     -0.00000000 </i>
  </energy>
  <time name="totalsc">  215.97  226.75</time>
 </calculation>
 <calculation>
  <scstep>
   <time name="dav">    6.24    6.25</time>
   <time name="total">    6.70    6.71</time>
   <energy>
    <i name="alphaZ">    176.11944382 </i>
    <i name="ewald"> 156962.13763809 </i>
    <i name="hartreedc">-206685.27410757 </i>
    <i name="XCdc">   -556.79473914 </i>
    <i name="pawpsdc">  55731.58129922 </i>
    <i name="pawaedc"> -53543.59124352 </i>
    <i name="eentropy">     -0.00000000 </i>
    <i name="bandstr">  -4049.39199366 </i>
    <i name="atom">  51859.93150432 </i>
    <i name="e_fr_energy">   -105.28219844 </i>
    <i name="e_wo_entrp">   -105.28219844 </i>
    <i name="e_0_energy">   -105.28219844 </i>
   </energy>
  </scstep>
  <scstep>
   <time name="dav">    6.44    6.45</time>
   <time name="total">    6.85    6.86</time>
   <energy>
    <i name="e_fr_energy">   -105.31467284 </i>
    <i name="e_wo_entrp">   -105.31467284 </i>
    <i name="e_0_energy">   -105.31467284 </i>
   </energy>
  </scstep>
  <scstep>
   <time name="dav">    6.53    6.54</time>
   <time name="total">    6.92    8.60</time>
   <energy>
    <i name="e_fr_energy">   -105.31315511 </i>
    <i name="e_wo_entrp">   -105.31315511 </i>
    <i name="e_0_energy">   -105.31315511 </i>
   </energy>
  </scstep>
  <scstep>
   <time name="dav">    6.53    6.54</time>
   <time name="total">    6.92    6.93</time>
   <energy>
    <i name="e_fr_energy">   -105.31300862 </i>
    <i name="e_wo_entrp">   -105.31300862 </i>
    <i name="e_0_energy">   -105.31300862 </i>
   </energy>
  </scstep>
  <scstep>
   <time name="dav">    5.23    5.23</time>
   <time name="total">    5.45    5.47</time>
   <energy>
    <i name="alphaZ">    176.11944382 </i>
    <i name="ewald"> 156962.13763809 </i>
    <i name="hartreedc">-206691.31623276 </i>
    <i name="XCdc">   -556.65827862 </i>
    <i name="pawpsdc">  55551.45591115 </i>
    <i name="pawaedc"> -53360.97462888 </i>
    <i name="eentropy">      0.00000000 </i>
    <i name="bandstr">  -4046.00828775 </i>
    <i name="atom">  51859.93150432 </i>
    <i name="e_fr_energy">   -105.31293064 </i>
    <i name="e_wo_entrp">   -105.31293064 </i>
    <i name="e_0_energy">   -105.31293064 </i>
   </energy>
  </scstep>
  <structure>
   <crystal>
    <varray name="basis" >
     <v>      22.94117343       0.00000000       0.00000000 </v>
     <v>       0.00000000      22.94117343       0.00000000 </v>
     <v>       0.00000000       0.00000000      22.94117343 </v>
    </varray>
    <i name="volume">  12073.88080741 </i>
    <varray name="rec_basis" >
     <v>       0.04358975       0.00000000       0.00000000 </v>
     <v>       0.00000000       0.04358975       0.00000000 </v>
     <v>       0.00000000       0.00000000       0.04358975 </v>
    </varray>
   </crystal>
   <varray name="positions" >
    <v>       0.74353150       0.58831424       0.55734385 </v>
    <v>       0.69876548       0.51571244       0.46830624 </v>
    <v>       0.73947244       0.47550075       0.58034647 </v>
    <v>       0.66093060       0.62791561       0.49323725 </v>
    <v>       0.60863749       0.52457751       0.34708162 </v>
    <v>       0.71045194       0.55277597       0.66289061 </v>
    <v>       0.56441621       0.40764819       0.31704576 </v>
    <v>       0.61692645       0.43040159       0.42312754 </v>
    <v>       0.59383154       0.64951236       0.39982995 </v>
    <v>       0.65254214       0.64778862       0.61205102 </v>
    <v>       0.65192795       0.41336682       0.54219755 </v>
    <v>       0.63798518       0.53344724       0.56919682 </v>
    <v>       0.57976111       0.53891340       0.46185794 </v>
    <v>       0.51637363       0.50540395       0.27325179 </v>
    <v>       0.58983011       0.33034025       0.48598251 </v>
    <v>       0.56951275       0.69403319       0.50920706 </v>
    <v>       0.64705147       0.45009327       0.65584637 </v>
    <v>       0.50518535       0.59946508       0.34759855 </v>
    <v>       0.50812857       0.47950769       0.38803504 </v>
    <v>       0.49531239       0.36475717       0.41423404 </v>
    <v>       0.44842999       0.41503417       0.30754345 </v>
    <v>       0.53396256       0.42989856       0.50981319 </v>
    <v>       0.59777812       0.56652810       0.68676349 </v>
    <v>       0.49656270       0.70774668       0.41446963 </v>
    <v>       0.53907724       0.60077569       0.58095259 </v>
    <v>       0.40735059       0.52899679       0.31377673 </v>
    <v>       0.48681041       0.56903916       0.69781815 </v>
    <v>       0.48135546       0.31113277       0.52466484 </v>
    <v>       0.48623991       0.60883506       0.47121367 </v>
    <v>       0.56586074       0.36141183       0.60464483 </v>
    <v>       0.39977369       0.63383399       0.38805642 </v>
    <v>       0.52616023       0.67673555       0.65083783 </v>
    <v>       0.45781419       0.69485296       0.53701147 </v>
    <v>       0.53066443       0.48350195       0.61323212 </v>
    <v>       0.41573754       0.52786529       0.43210560 </v>
    <v>       0.41328760       0.41090686       0.50262534 </v>
    <v>       0.38912701       0.31612599       0.44163848 </v>
    <v>       0.52733140       0.45147880       0.71222350 </v>
    <v>       0.36649448       0.43186966       0.39413766 </v>
    <v>       0.42956691       0.51823924       0.55129648 </v>
    <v>       0.31238087       0.54705190       0.39298086 </v>
    <v>       0.44949560       0.38640972       0.62013075 </v>
    <v>       0.36931206       0.31856072       0.55983994 </v>
    <v>       0.35887237       0.60547592       0.50014047 </v>
    <v>       0.41906583       0.61478754       0.61765405 </v>
    <v>       0.30150207       0.37786841       0.48555950 </v>
    <v>       0.41046167       0.48857864       0.66388828 </v>
    <v>       0.30757027       0.49366066       0.49634832 </v>
    <v>       0.33102998       0.42479297       0.59419766 </v>
    <v>       0.32487296       0.54370053       0.59957051 </v>
   </varray>
  </structure>
  <varray name="forces" >
   <v>       1.37129424       0.58377245      -0.05609629 </v>
   <v>       0.28591661      -0.54568920      -0.54964660 </v>
   <v>       1.20399637      -0.82317643      -0.01061177 </v>
   <v>       0.07589964       0.43722576      -0.59965732 </v>
   <v>       0.74832471       0.43518935      -0.29297887 </v>
   <v>       0.56818744       0.32844919       1.15843654 </v>
   <v>       0.82447192      -0.82455090      -0.42513679 </v>
   <v>       0.59467231      -0.23550260      -0.08735239 </v>
   <v>       0.95281323      -0.17411285      -0.26134230 </v>
   <v>      -0.35434325       0.65400209       0.18207148 </v>
   <v>       0.19626855      -0.26738268      -0.47718264 </v>
   <v>      -0.79579030      -0.13426590      -0.05553101 </v>
   <v>      -0.01636815       0.22314150       0.56017175 </v>
   <v>       0.11124681       0.54686752      -1.10511768 </v>
   <v>       0.50272457      -0.87710056      -0.27913997 </v>
   <v>       0.33693063       0.63858882       0.61781430 </v>
   <v>      -0.48354830      -0.41948599       0.54503914 </v>
   <v>      -0.18382052      -0.21104377      -0.44069974 </v>
   <v>      -0.28312320       0.07699757       0.55614637 </v>
   <v>      -0.03526704      -0.39536392      -0.42047073 </v>
   <v>      -0.76346046      -0.72374396      -0.17172995 </v>
   <v>      -0.70372498       0.68164032      -0.04566086 </v>
   <v>       0.37943089      -0.06994453       0.33989462 </v>
   <v>      -0.69516598       0.93625431      -0.41381292 </v>
   <v>       0.10729598      -1.75763746      -1.82058110 </v>
   <v>      -0.37277701       0.07959837      -0.20292977 </v>
   <v>      -0.15269849       0.07306941       0.64872627 </v>
   <v>       0.16136735      -0.23812274       0.07711968 </v>
   <v>       0.21818001      -0.65117410       0.11260365 </v>
   <v>       0.13987719      -0.15330402       0.55641333 </v>
   <v>      -0.43919140       0.83998736      -0.39175023 </v>
   <v>      -0.13995293       1.85229519       1.53426903 </v>
   <v>      -0.76949528       0.88207610       0.63522438 </v>
   <v>       0.16033312       0.78024733      -1.93275571 </v>
   <v>       0.41517298      -0.68980817       0.77229414 </v>
   <v>       0.66121779       0.85766128      -0.06917304 </v>
   <v>       0.15318666      -0.84923762      -0.91329611 </v>
   <v>      -0.01276382      -0.76936584       2.25545070 </v>
   <v>      -0.54149622      -0.56990429      -0.64470712 </v>
   <v>       0.85145064      -0.19520277      -0.45084817 </v>
   <v>      -0.99471803       0.25713042      -0.79090465 </v>
   <v>       0.15780171      -0.04323398       0.14865430 </v>
   <v>      -0.40355395      -1.00459691       0.77567422 </v>
   <v>      -0.08857778       0.70067903       0.33309999 </v>
   <v>      -0.41990316       0.58237805      -0.04966409 </v>
   <v>      -1.30428696      -0.10379993      -0.33891750 </v>
   <v>      -0.19017329      -0.09714796       0.60876383 </v>
   <v>      -0.14078788      -0.14567032      -0.17797425 </v>
   <v>      -0.17079805       0.08470947       0.38248790 </v>
   <v>      -0.72227494       0.43760852       0.67531389 </v>
  </varray>
  <varray name="stress" >
   <v>       3.12664541      -0.40007894       0.30870619 </v>
   <v>      -0.40007895       3.20241318       0.89132521 </v>
   <v>       0.30870619       0.89132521       3.42806994 </v>
  </varray>
  <energy>
   <i name="e_fr_energy">   -105.31293064 </i>
   <i name="e_wo_entrp">   -105.31293064 </i>
   <i name="e_0_energy">      0.00000000 </i>
  </energy>
  <time name="totalsc">   44.65   46.40</time>
 </calculation>
 <calculation>
  <scstep>
   <time name="dav">    6.20    6.20</time>
   <time name="total">    6.60    6.62</time>
   <energy>
    <i name="alphaZ">    176.11944382 </i>
    <i name="ewald"> 155219.72264081 </i>
    <i name="hartreedc">-204966.13359726 </i>
    <i name="XCdc">   -559.33690141 </i>
    <i name="pawpsdc">  55552.74235042 </i>
    <i name="pawaedc"> -53362.28164953 </i>
    <i name="eentropy">     -0.00000048 </i>
    <i name="bandstr">  -4027.29363097 </i>
    <i name="atom">  51859.93150432 </i>
    <i name="e_fr_energy">   -106.52984029 </i>
    <i name="e_wo_entrp">   -106.52983981 </i>
    <i name="e_0_energy">   -106.52984005 </i>
   </energy>
  </scstep>
  <scstep>
   <time name="dav">    6.41    6.42</time>
   <time name="total">    6.83    6.84</time>
   <energy>
    <i name="e_fr_energy">   -106.73126458 </i>
    <i name="e_wo_entrp">   -106.73126458 </i>
    <i name="e_0_energy">   -106.73126458 </i>
   </energy>
  </scstep>
  <scstep>
   <time name="dav">    6.38    6.38</time>
   <time name="total">    6.74    6.76</time>
   <energy>
    <i name="e_fr_energy">   -106.76666069 </i>
    <i name="e_wo_entrp">   -106.76666069 </i>
    <i name="e_0_energy">   -106.76666069 </i>
   </energy>
  </scstep>
  <scstep>
   <time name="dav">    6.44    6.45</time>
   <time name="total">    6.90    7.03</time>
   <energy>
    <i name="e_fr_energy">   -106.79317722 </i>
    <i name="e_wo_entrp">   -106.79317722 </i>
    <i name="e_0_energy">   -106.79317722 </i>
   </energy>
  </scstep>
  <scstep>
   <time name="dav">    6.31    6.32</time>
   <time name="total">    6.68    6.69</time>
   <energy>
    <i name="e_fr_energy">   -106.77392437 </i>
    <i name="e_wo_entrp">   -106.77392437 </i>
    <i name="e_0_energy">   -106.77392437 </i>
   </energy>
  </scstep>
  <scstep>
   <time name="dav">    6.48    6.48</time>
   <time name="total">    6.86    6.86</time>
   <energy>
    <i name="e_fr_energy">   -106.78661682 </i>
    <i name="e_wo_entrp">   -106.78661682 </i>
    <i name="e_0_energy">   -106.78661682 </i>
   </energy>
  </scstep>
  <scstep>
   <time name="dav">    6.64    6.65</time>
   <time name="total">    7.03   10.58</time>
   <energy>
    <i name="e_fr_energy">   -106.79582147 </i>
    <i name="e_wo_entrp">   -106.79582147 </i>
    <i name="e_0_energy">   -106.79582147 </i>
   </energy>
  </scstep>
  <scstep>
   <time name="dav">    6.56    6.56</time>
   <time name="total">    6.94    6.95</time>
   <energy>
    <i name="e_fr_energy">   -106.80292951 </i>
    <i name="e_wo_entrp">   -106.80292951 </i>
    <i name="e_0_energy">   -106.80292951 </i>
   </energy>
  </scstep>
  <scstep>
   <time name="dav">    5.00    5.01</time>
   <time name="total">    5.40    5.42</time>
   <energy>
    <i name="e_fr_energy">   -106.80557443 </i>
    <i name="e_wo_entrp">   -106.80557443 </i>
    <i name="e_0_energy">   -106.80557443 </i>
   </energy>
  </scstep>
  <scstep>
   <time name="dav">    4.84    4.85</time>
   <time name="total">    5.22    5.28</time>
   <energy>
    <i name="e_fr_energy">   -106.80725911 </i>
    <i name="e_wo_entrp">   -106.80725840 </i>
    <i name="e_0_energy">   -106.80725875 </i>
   </energy>
  </scstep>
  <scstep>
   <time name="dav">    4.80    4.80</time>
   <time name="total">    5.21    5.22</time>
   <energy>
    <i name="e_fr_energy">   -106.80495586 </i>
    <i name="e_wo_entrp">   -106.80495549 </i>
    <i name="e_0_energy">   -106.80495568 </i>
   </energy>
  </scstep>
  <scstep>
   <time name="dav">    4.74    4.75</time>
   <time name="total">    5.13    5.15</time>
   <energy>
    <i name="e_fr_energy">   -106.80426507 </i>
    <i name="e_wo_entrp">   -106.80426507 </i>
    <i name="e_0_energy">   -106.80426507 </i>
   </energy>
  </scstep>
  <scstep>
   <time name="dav">    4.89    4.89</time>
   <time name="total">    5.28    5.30</time>
   <energy>
    <i name="e_fr_energy">   -106.80500786 </i>
    <i name="e_wo_entrp">   -106.80500786 </i>
    <i name="e_0_energy">   -106.80500786 </i>
   </energy>
  </scstep>
  <scstep>
   <time name="dav">    4.85    4.86</time>
   <time name="total">    5.24    5.24</time>
   <energy>
    <i name="e_fr_energy">   -106.80666039 </i>
    <i name="e_wo_entrp">   -106.80666039 </i>
    <i name="e_0_energy">   -106.80666039 </i>
   </energy>
  </scstep>
  <scstep>
   <time name="dav">    4.77    4.77</time>
   <time name="total">    5.21    5.33</time>
   <energy>
    <i name="e_fr_energy">   -106.80846913 </i>
    <i name="e_wo_entrp">   -106.80846913 </i>
    <i name="e_0_energy">   -106.80846913 </i>
   </energy>
  </scstep>
  <scstep>
   <time name="dav">    4.77    4.78</time>
   <time name="total">    5.15    5.16</time>
   <energy>
    <i name="e_fr_energy">   -106.81013521 </i>
    <i name="e_wo_entrp">   -106.81013521 </i>
    <i name="e_0_energy">   -106.81013521 </i>
   </energy>
  </scstep>
  <scstep>
   <time name="dav">    4.70    4.70</time>
   <time name="total">    5.08    5.09</time>
   <energy>
    <i name="e_fr_energy">   -106.81114740 </i>
    <i name="e_wo_entrp">   -106.81114740 </i>
    <i name="e_0_energy">   -106.81114740 </i>
   </energy>
  </scstep>
  <scstep>
   <time name="dav">    4.66    4.66</time>
   <time name="total">    5.04    5.04</time>
   <energy>
    <i name="e_fr_energy">   -106.81173267 </i>
    <i name="e_wo_entrp">   -106.81173267 </i>
    <i name="e_0_energy">   -106.81173267 </i>
   </energy>
  </scstep>
  <scstep>
   <time name="dav">    4.55    4.55</time>
   <time name="total">    4.92    4.93</time>
   <energy>
    <i name="e_fr_energy">   -106.81191638 </i>
    <i name="e_wo_entrp">   -106.81191638 </i>
    <i name="e_0_energy">   -106.81191638 </i>
   </energy>
  </scstep>
  <scstep>
   <time name="dav">    4.51    4.51</time>
   <time name="total">    4.74    4.78</time>
   <energy>
    <i name="alphaZ">    176.11944382 </i>
    <i name="ewald"> 155219.72264081 </i>
    <i name="hartreedc">-204983.72255721 </i>
    <i name="XCdc">   -558.92462281 </i>
    <i name="pawpsdc">  55118.11138739 </i>
    <i name="pawaedc"> -52921.32130279 </i>
    <i name="eentropy">     -0.00000000 </i>
    <i name="bandstr">  -4016.72846621 </i>
    <i name="atom">  51859.93150432 </i>
    <i name="e_fr_energy">   -106.81197269 </i>
    <i name="e_wo_entrp">   -106.81197269 </i>
    <i name="e_0_energy">   -106.81197269 </i>
   </energy>
  </scstep>
  <structure>
   <crystal>
    <varray name="basis" >
     <v>      22.94117343       0.00000000       0.00000000 </v>
     <v>       0.00000000      22.94117343       0.00000000 </v>
     <v>       0.00000000       0.00000000      22.94117343 </v>
    </varray>
    <i name="volume">  12073.88080741 </i>
    <varray name="rec_basis" >
     <v>       0.04358975       0.00000000       0.00000000 </v>
     <v>       0.00000000       0.04358975       0.00000000 </v>
     <v>       0.00000000       0.00000000       0.04358975 </v>
    </varray>
   </crystal>
   <varray name="positions" >
    <v>       0.74555276       0.58919585       0.55723520 </v>
    <v>       0.69915181       0.51495823       0.46749784 </v>
    <v>       0.74120612       0.47424006       0.58029000 </v>
    <v>       0.66089304       0.62856748       0.49232819 </v>
    <v>       0.60971494       0.52519620       0.34665178 </v>
    <v>       0.71120900       0.55326162       0.66461114 </v>
    <v>       0.56565565       0.40641699       0.31644896 </v>
    <v>       0.61774915       0.43007806       0.42301920 </v>
    <v>       0.59524899       0.64923854       0.39951014 </v>
    <v>       0.65207526       0.64871602       0.61233413 </v>
    <v>       0.65219054       0.41298850       0.54152982 </v>
    <v>       0.63656783       0.53330633       0.56908485 </v>
    <v>       0.57968600       0.53925460       0.46266418 </v>
    <v>       0.51652660       0.50624577       0.27166262 </v>
    <v>       0.59055010       0.32909363       0.48558968 </v>
    <v>       0.57008433       0.69487334       0.51004059 </v>
    <v>       0.64640312       0.44950349       0.65662827 </v>
    <v>       0.50492504       0.59914770       0.34696607 </v>
    <v>       0.50757641       0.47970841       0.38899451 </v>
    <v>       0.49523768       0.36423869       0.41367088 </v>
    <v>       0.44728898       0.41400421       0.30730904 </v>
    <v>       0.53293257       0.43096909       0.50989891 </v>
    <v>       0.59836422       0.56643079       0.68723685 </v>
    <v>       0.49554378       0.70915549       0.41384264 </v>
    <v>       0.53946308       0.59728973       0.57754918 </v>
    <v>       0.40684611       0.52912498       0.31345613 </v>
    <v>       0.48654742       0.56912451       0.69875779 </v>
    <v>       0.48160080       0.31078544       0.52478256 </v>
    <v>       0.48658903       0.60766970       0.47139040 </v>
    <v>       0.56603332       0.36117789       0.60541317 </v>
    <v>       0.39917475       0.63506403       0.38747824 </v>
    <v>       0.52581783       0.68028290       0.65377646 </v>
    <v>       0.45668045       0.69611262       0.53794941 </v>
    <v>       0.53093503       0.48494295       0.60928542 </v>
    <v>       0.41662045       0.52684476       0.43325175 </v>
    <v>       0.41437958       0.41231910       0.50258582 </v>
    <v>       0.38937981       0.31486101       0.44026660 </v>
    <v>       0.52729055       0.45004748       0.71638688 </v>
    <v>       0.36580773       0.43109214       0.39326730 </v>
    <v>       0.43080066       0.51787584       0.55056963 </v>
    <v>       0.31088127       0.54742132       0.39186967 </v>
    <v>       0.44970428       0.38633501       0.62033167 </v>
    <v>       0.36876087       0.31707492       0.56102139 </v>
    <v>       0.35873051       0.60643595       0.50060117 </v>
    <v>       0.41843921       0.61560177       0.61757706 </v>
    <v>       0.29955256       0.37779835       0.48507430 </v>
    <v>       0.41018421       0.48843498       0.66473725 </v>
    <v>       0.30735080       0.49342323       0.49610806 </v>
    <v>       0.33077692       0.42492853       0.59474940 </v>
    <v>       0.32384199       0.54431326       0.60052162 </v>
   </varray>
  </structure>
  <varray name="forces" >
   <v>       0.78838133       0.29614596       0.02231257 </v>
   <v>       0.22968700      -0.39725080      -0.30391552 </v>
   <v>       0.74771876      -0.38653271       0.06889343 </v>
   <v>       0.37324477       0.21023550      -0.25163519 </v>
   <v>       0.46584528       0.28866332      -0.15731193 </v>
   <v>       0.48316624       0.18715679       0.61448020 </v>
   <v>       0.43556222      -0.46034748      -0.30040426 </v>
   <v>       0.42789486      -0.17966667      -0.09505790 </v>
   <v>       0.49937974      -0.07000907      -0.30671045 </v>
   <v>      -0.31425388       0.44068910       0.07366613 </v>
   <v>       0.16722880      -0.17873415      -0.32880512 </v>
   <v>       0.16645637      -0.22646510       0.03474087 </v>
   <v>       0.13074666       0.07962966       0.30416250 </v>
   <v>       0.08581011       0.25779620      -0.72175273 </v>
   <v>       0.32949629      -0.60169246      -0.19609003 </v>
   <v>       0.03200828       0.56091021       0.51739253 </v>
   <v>      -0.40372275      -0.29185653       0.34408644 </v>
   <v>      -0.12368815      -0.10016444      -0.27043892 </v>
   <v>       0.15856839      -0.15627077       0.01861099 </v>
   <v>       0.03371506      -0.34989800      -0.34263027 </v>
   <v>      -0.39790893      -0.47084644      -0.13770375 </v>
   <v>      -0.38014146       0.18052640      -0.44375861 </v>
   <v>       0.15695998      -0.05194460       0.25030027 </v>
   <v>      -0.42437770       0.47500479      -0.19246681 </v>
   <v>      -0.29257885       0.24490961      -0.26162649 </v>
   <v>      -0.30024334       0.01606156      -0.06261187 </v>
   <v>      -0.00695000       0.08469972       0.40408937 </v>
   <v>       0.07206467      -0.13235350       0.03293285 </v>
   <v>       0.02006182       0.09036216      -0.01516938 </v>
   <v>       0.15096659      -0.06095252       0.41514224 </v>
   <v>      -0.33826261       0.48966608      -0.21869888 </v>
   <v>       0.04557239       0.19077554       0.13132683 </v>
   <v>      -0.43077353       0.58504759       0.36789454 </v>
   <v>       0.04759298      -0.00403398       0.47926665 </v>
   <v>      -0.35420343      -0.38458079       0.41260398 </v>
   <v>       0.12647116       0.17140386      -0.17990066 </v>
   <v>       0.03335278      -0.44720445      -0.48604028 </v>
   <v>       0.00876445      -0.10588357       0.38161692 </v>
   <v>      -0.53351479      -0.44190199      -0.50100715 </v>
   <v>       0.47439005       0.09081566      -0.09420060 </v>
   <v>      -0.52080696       0.16460232      -0.54711980 </v>
   <v>       0.13299694       0.00106584       0.11715326 </v>
   <v>      -0.31300291      -0.59784975       0.40931700 </v>
   <v>      -0.01983199       0.53417428       0.24855604 </v>
   <v>      -0.22150356       0.41180891      -0.01721474 </v>
   <v>      -0.71894142      -0.21781576      -0.22363047 </v>
   <v>      -0.11111080      -0.04871961       0.43464795 </v>
   <v>      -0.05072358      -0.02765498      -0.14352103 </v>
   <v>      -0.08825531       0.02718030       0.24172990 </v>
   <v>      -0.47930803       0.31129877       0.47449937 </v>
  </varray>
  <varray name="stress" >
   <v>       1.76124487      -0.28015368       0.40349316 </v>
   <v>      -0.28015368       1.45224008       0.77050657 </v>
   <v>       0.40349316       0.77050657       1.36576905 </v>
  </varray>
  <energy>
   <i name="e_fr_energy">   -106.81197269 </i>
   <i name="e_wo_entrp">   -106.81197269 </i>
   <i name="e_0_energy">     -0.00000000 </i>
  </energy>
  <time name="totalsc">  127.99  132.20</time>
 </calculation>
 <calculation>
  <scstep>
   <time name="dav">    6.20    6.20</time>
   <time name="total">    6.62    6.64</time>
   <energy>
    <i name="alphaZ">    176.11944382 </i>
    <i name="ewald"> 154400.93323478 </i>
    <i name="hartreedc">-204171.17905655 </i>
    <i name="XCdc">   -560.07464283 </i>
    <i name="pawpsdc">  55118.12043462 </i>
    <i name="pawaedc"> -52921.33037027 </i>
    <i name="eentropy">     -0.00000000 </i>
    <i name="bandstr">  -4009.50461982 </i>
    <i name="atom">  51859.93150432 </i>
    <i name="e_fr_energy">   -106.98407193 </i>
    <i name="e_wo_entrp">   -106.98407193 </i>
    <i name="e_0_energy">   -106.98407193 </i>
   </energy>
  </scstep>
  <scstep>
   <time name="dav">    6.40    6.40</time>
   <time name="total">    6.77    6.78</time>
   <energy>
    <i name="e_fr_energy">   -106.95602893 </i>
    <i name="e_wo_entrp">   -106.95602893 </i>
    <i name="e_0_energy">   -106.95602893 </i>
   </energy>
  </scstep>
  <scstep>
   <time name="dav">    6.46    6.47</time>
   <time name="total">    6.85    6.88</time>
   <energy>
    <i name="e_fr_energy">   -106.99004982 </i>
    <i name="e_wo_entrp">   -106.99004982 </i>
    <i name="e_0_energy">   -106.99004982 </i>
   </energy>
  </scstep>
  <scstep>
   <time name="dav">    6.42    6.43</time>
   <time name="total">    6.80    6.81</time>
   <energy>
    <i name="e_fr_energy">   -107.01835594 </i>
    <i name="e_wo_entrp">   -107.01835594 </i>
    <i name="e_0_energy">   -107.01835594 </i>
   </energy>
  </scstep>
  <scstep>
   <time name="dav">    6.46    6.47</time>
   <time name="total">    6.91    6.92</time>
   <energy>
    <i name="e_fr_energy">   -107.03471811 </i>
    <i name="e_wo_entrp">   -107.03471717 </i>
    <i name="e_0_energy">   -107.03471764 </i>
   </energy>
  </scstep>
  <scstep>
   <time name="dav">    6.37    6.38</time>
   <time name="total">    6.74    6.75</time>
   <energy>
    <i name="e_fr_energy">   -107.03024729 </i>
    <i name="e_wo_entrp">   -107.03024729 </i>
    <i name="e_0_energy">   -107.03024729 </i>
   </energy>
  </scstep>
  <scstep>
   <time name="dav">    6.30    6.31</time>
   <time name="total">    6.70    6.71</time>
   <energy>
    <i name="e_fr_energy">   -107.03575375 </i>
    <i name="e_wo_entrp">   -107.03574600 </i>
    <i name="e_0_energy">   -107.03574988 </i>
   </energy>
  </scstep>
  <scstep>
   <time name="dav">    4.84    4.84</time>
   <time name="total">    5.22    5.45</time>
   <energy>
    <i name="e_fr_energy">   -107.03947991 </i>
    <i name="e_wo_entrp">   -107.03943818 </i>
    <i name="e_0_energy">   -107.03945904 </i>
   </energy>
  </scstep>
  <scstep>
   <time name="dav">    4.71    4.71</time>
   <time name="total">    5.10    5.11</time>
   <energy>
    <i name="e_fr_energy">   -107.03666426 </i>
    <i name="e_wo_entrp">   -107.03666426 </i>
    <i name="e_0_energy">   -107.03666426 </i>
   </energy>
  </scstep>
  <scstep>
   <time name="dav">    4.67    4.68</time>
   <time name="total">    5.12    5.20</time>
   <energy>
    <i name="e_fr_energy">   -107.04010278 </i>
    <i name="e_wo_entrp">   -107.04010276 </i>
    <i name="e_0_energy">   -107.04010277 </i>
   </energy>
  </scstep>
  <scstep>
   <time name="dav">    4.80    4.80</time>
   <time name="total">    5.21    5.24</time>
   <energy>
    <i name="e_fr_energy">   -107.04209329 </i>
    <i name="e_wo_entrp">   -107.04207787 </i>
    <i name="e_0_energy">   -107.04208558 </i>
   </energy>
  </scstep>
  <scstep>
   <time name="dav">    4.82    4.82</time>
   <time name="total">    5.22    5.23</time>
   <energy>
    <i name="e_fr_energy">   -107.04379234 </i>
    <i name="e_wo_entrp">   -107.04373927 </i>
    <i name="e_0_energy">   -107.04376581 </i>
   </energy>
  </scstep>
  <scstep>
   <time name="dav">    4.67    4.68</time>
   <time name="total">    5.05    5.17</time>
   <energy>
    <i name="e_fr_energy">   -107.04336325 </i>
    <i name="e_wo_entrp">   -107.04331491 </i>
    <i name="e_0_energy">   -107.04333908 </i>
   </energy>
  </scstep>
  <scstep>
   <time name="dav">    4.58    4.59</time>
   <time name="total">    4.97    5.19</time>
   <energy>
    <i name="e_fr_energy">   -107.04451471 </i>
    <i name="e_wo_entrp">   -107.04446302 </i>
    <i name="e_0_energy">   -107.04448887 </i>
   </energy>
  </scstep>
  <scstep>
   <time name="dav">    4.60    4.60</time>
   <time name="total">    5.00    5.01</time>
   <energy>
    <i name="e_fr_energy">   -107.04400787 </i>
    <i name="e_wo_entrp">   -107.04395190 </i>
    <i name="e_0_energy">   -107.04397989 </i>
   </energy>
  </scstep>
  <scstep>
   <time name="dav">    4.59    4.60</time>
   <time name="total">    5.01    5.04</time>
   <energy>
    <i name="e_fr_energy">   -107.04439648 </i>
    <i name="e_wo_entrp">   -107.04434849 </i>
    <i name="e_0_energy">   -107.04437248 </i>
   </energy>
  </scstep>
  <scstep>
   <time name="dav">    4.66    4.66</time>
   <time name="total">    5.04    5.05</time>
   <energy>
    <i name="e_fr_energy">   -107.04405085 </i>
    <i name="e_wo_entrp">   -107.04400336 </i>
    <i name="e_0_energy">   -107.04402711 </i>
   </energy>
  </scstep>
  <scstep>
   <time name="dav">    4.49    4.49</time>
   <time name="total">    4.87    4.87</time>
   <energy>
    <i name="e_fr_energy">   -107.04384158 </i>
    <i name="e_wo_entrp">   -107.04378523 </i>
    <i name="e_0_energy">   -107.04381340 </i>
   </energy>
  </scstep>
  <scstep>
   <time name="dav">    4.83    4.83</time>
   <time name="total">    5.22    5.25</time>
   <energy>
    <i name="e_fr_energy">   -107.04428603 </i>
    <i name="e_wo_entrp">   -107.04424276 </i>
    <i name="e_0_energy">   -107.04426440 </i>
   </energy>
  </scstep>
  <scstep>
   <time name="dav">    4.67    4.67</time>
   <time name="total">    5.05    5.06</time>
   <energy>
    <i name="e_fr_energy">   -107.04485413 </i>
    <i name="e_wo_entrp">   -107.04482027 </i>
    <i name="e_0_energy">   -107.04483720 </i>
   </energy>
  </scstep>
  <scstep>
   <time name="dav">    4.50    4.50</time>
   <time name="total">    4.88    5.00</time>
   <energy>
    <i name="e_fr_energy">   -107.04519731 </i>
    <i name="e_wo_entrp">   -107.04516387 </i>
    <i name="e_0_energy">   -107.04518059 </i>
   </energy>
  </scstep>
  <scstep>
   <time name="dav">    4.60    4.61</time>
   <time name="total">    5.07    5.09</time>
   <energy>
    <i name="e_fr_energy">   -107.04577091 </i>
    <i name="e_wo_entrp">   -107.04574731 </i>
    <i name="e_0_energy">   -107.04575911 </i>
   </energy>
  </scstep>
  <scstep>
   <time name="dav">    4.63    4.63</time>
   <time name="total">    5.02    5.15</time>
   <energy>
    <i name="e_fr_energy">   -107.04607489 </i>
    <i name="e_wo_entrp">   -107.04605562 </i>
    <i name="e_0_energy">   -107.04606526 </i>
   </energy>
  </scstep>
  <scstep>
   <time name="dav">    4.58    4.58</time>
   <time name="total">    4.98    5.14</time>
   <energy>
    <i name="e_fr_energy">   -107.04622035 </i>
    <i name="e_wo_entrp">   -107.04620741 </i>
    <i name="e_0_energy">   -107.04621388 </i>
   </energy>
  </scstep>
  <scstep>
   <time name="dav">    4.60    4.61</time>
   <time name="total">    4.84    4.85</time>
   <energy>
    <i name="alphaZ">    176.11944382 </i>
    <i name="ewald"> 154400.93323478 </i>
    <i name="hartreedc">-204178.66895253 </i>
    <i name="XCdc">   -559.87346177 </i>
    <i name="pawpsdc">  54955.55543453 </i>
    <i name="pawaedc"> -52756.21620161 </i>
    <i name="eentropy">     -0.00001280 </i>
    <i name="bandstr">  -4004.82729255 </i>
    <i name="atom">  51859.93150432 </i>
    <i name="e_fr_energy">   -107.04630382 </i>
    <i name="e_wo_entrp">   -107.04629101 </i>
    <i name="e_0_energy">   -107.04629742 </i>
   </energy>
  </scstep>
  <structure>
   <crystal>
    <varray name="basis" >
     <v>      22.94117343       0.00000000       0.00000000 </v>
     <v>       0.00000000      22.94117343       0.00000000 </v>
     <v>       0.00000000       0.00000000      22.94117343 </v>
    </varray>
    <i name="volume">  12073.88080741 </i>
    <varray name="rec_basis" >
     <v>       0.04358975       0.00000000       0.00000000 </v>
     <v>       0.00000000       0.04358975       0.00000000 </v>
     <v>       0.00000000       0.00000000       0.04358975 </v>
    </varray>
   </crystal>
   <varray name="positions" >
    <v>       0.74652535       0.58962006       0.55718293 </v>
    <v>       0.69933771       0.51459532       0.46710886 </v>
    <v>       0.74204033       0.47363345       0.58026282 </v>
    <v>       0.66087497       0.62888114       0.49189078 </v>
    <v>       0.61023339       0.52549390       0.34644495 </v>
    <v>       0.71157328       0.55349530       0.66543901 </v>
    <v>       0.56625203       0.40582456       0.31616179 </v>
    <v>       0.61814501       0.42992238       0.42296707 </v>
    <v>       0.59593103       0.64910678       0.39935626 </v>
    <v>       0.65185061       0.64916227       0.61247035 </v>
    <v>       0.65231690       0.41280645       0.54120852 </v>
    <v>       0.63588583       0.53323852       0.56903098 </v>
    <v>       0.57964986       0.53941878       0.46305212 </v>
    <v>       0.51660020       0.50665083       0.27089794 </v>
    <v>       0.59089654       0.32849378       0.48540065 </v>
    <v>       0.57035937       0.69527759       0.51044166 </v>
    <v>       0.64609116       0.44921970       0.65700451 </v>
    <v>       0.50479979       0.59899498       0.34666173 </v>
    <v>       0.50731073       0.47980500       0.38945619 </v>
    <v>       0.49520173       0.36398921       0.41339990 </v>
    <v>       0.44673995       0.41350862       0.30719624 </v>
    <v>       0.53243696       0.43148420       0.50994015 </v>
    <v>       0.59864624       0.56638396       0.68746462 </v>
    <v>       0.49505349       0.70983338       0.41354095 </v>
    <v>       0.53964874       0.59561237       0.57591154 </v>
    <v>       0.40660336       0.52918666       0.31330186 </v>
    <v>       0.48642088       0.56916558       0.69920992 </v>
    <v>       0.48171886       0.31061831       0.52483921 </v>
    <v>       0.48675702       0.60710896       0.47147545 </v>
    <v>       0.56611637       0.36106532       0.60578287 </v>
    <v>       0.39888656       0.63565589       0.38720002 </v>
    <v>       0.52565307       0.68198980       0.65519046 </v>
    <v>       0.45613493       0.69671873       0.53840073 </v>
    <v>       0.53106524       0.48563633       0.60738636 </v>
    <v>       0.41704529       0.52635370       0.43380325 </v>
    <v>       0.41490501       0.41299863       0.50256680 </v>
    <v>       0.38950145       0.31425233       0.43960648 </v>
    <v>       0.52727089       0.44935876       0.71839020 </v>
    <v>       0.36547729       0.43071801       0.39284851 </v>
    <v>       0.43139431       0.51770099       0.55021989 </v>
    <v>       0.31015970       0.54759907       0.39133499 </v>
    <v>       0.44980470       0.38629907       0.62042835 </v>
    <v>       0.36849564       0.31635998       0.56158987 </v>
    <v>       0.35866225       0.60689790       0.50082284 </v>
    <v>       0.41813770       0.61599355       0.61754002 </v>
    <v>       0.29861450       0.37776464       0.48484084 </v>
    <v>       0.41005071       0.48836586       0.66514575 </v>
    <v>       0.30724520       0.49330899       0.49599246 </v>
    <v>       0.33065515       0.42499376       0.59501488 </v>
    <v>       0.32334592       0.54460810       0.60097927 </v>
   </varray>
  </structure>
  <varray name="forces" >
   <v>       0.55224418       0.18225731       0.05342092 </v>
   <v>       0.20436649      -0.33248288      -0.20252346 </v>
   <v>       0.55473691      -0.22001747       0.09548294 </v>
   <v>       0.50517008       0.10786188      -0.09116115 </v>
   <v>       0.35012854       0.22784936      -0.10080271 </v>
   <v>       0.44756201       0.13566434       0.39465041 </v>
   <v>       0.28407181      -0.32166143      -0.24316652 </v>
   <v>       0.35580518      -0.15740011      -0.10131569 </v>
   <v>       0.29857030      -0.03244195      -0.34484135 </v>
   <v>      -0.29476891       0.36214553       0.02747066 </v>
   <v>       0.15893981      -0.14047829      -0.26733352 </v>
   <v>       0.63550024      -0.28497851       0.07341713 </v>
   <v>       0.21230612       0.00843253       0.16379115 </v>
   <v>       0.07739285       0.14279262      -0.56867940 </v>
   <v>       0.26335083      -0.50363772      -0.16434360 </v>
   <v>      -0.09530273       0.52298759       0.48352078 </v>
   <v>      -0.36973483      -0.23258349       0.25607478 </v>
   <v>      -0.09819110      -0.05110921      -0.19889375 </v>
   <v>       0.36295764      -0.26287085      -0.21196214 </v>
   <v>       0.06676481      -0.32854969      -0.30943335 </v>
   <v>      -0.24677792      -0.36031408      -0.12529884 </v>
   <v>      -0.22559648      -0.06888620      -0.67003118 </v>
   <v>       0.06656301      -0.04452322       0.21455839 </v>
   <v>      -0.32680160       0.29470739      -0.10239618 </v>
   <v>      -0.43556899       0.93639364       0.14558449 </v>
   <v>      -0.26962009      -0.01328390      -0.00385569 </v>
   <v>       0.05183511       0.09284220       0.30609065 </v>
   <v>       0.03405817      -0.08315946       0.01186940 </v>
   <v>      -0.08860724       0.40991733      -0.10283761 </v>
   <v>       0.15444727      -0.01988001       0.35861253 </v>
   <v>      -0.29430999       0.34910751      -0.15046723 </v>
   <v>       0.07142495      -0.22216095      -0.19992184 </v>
   <v>      -0.29125129       0.46593775       0.26046658 </v>
   <v>       0.00806460      -0.31194417       1.30294561 </v>
   <v>      -0.69234905      -0.25168429       0.25996209 </v>
   <v>      -0.09946567      -0.12001175      -0.23335395 </v>
   <v>      -0.01416420      -0.28634225      -0.33470482 </v>
   <v>       0.00722078       0.06419496      -0.08387931 </v>
   <v>      -0.53039595      -0.38139409      -0.42926598 </v>
   <v>       0.28838951       0.23288946       0.06875779 </v>
   <v>      -0.34075635       0.12765235      -0.44570619 </v>
   <v>       0.12154465       0.02082157       0.09841710 </v>
   <v>      -0.27008257      -0.44821113       0.28832230 </v>
   <v>       0.01348980       0.45249942       0.21002770 </v>
   <v>      -0.13805069       0.33838078      -0.00040475 </v>
   <v>      -0.49680370      -0.25587481      -0.17805331 </v>
   <v>      -0.07759471      -0.02519363       0.35680779 </v>
   <v>      -0.01399471       0.02311590      -0.13002684 </v>
   <v>      -0.05418293       0.00495479       0.17496055 </v>
   <v>      -0.38253395       0.25766930       0.38944859 </v>
  </varray>
  <varray name="stress" >
   <v>       1.27113180      -0.26759051       0.43170073 </v>
   <v>      -0.26759051       0.81244117       0.75788860 </v>
   <v>       0.43170072       0.75788860       0.67349570 </v>
  </varray>
  <energy>
   <i name="e_fr_energy">   -107.04630382 </i>
   <i name="e_wo_entrp">   -107.04629742 </i>
   <i name="e_0_energy">     -0.00001280 </i>
  </energy>
  <time name="totalsc">  150.12  152.69</time>
 </calculation>
 <calculation>
  <scstep>
   <time name="dav">    6.20    6.21</time>
   <time name="total">    6.58    6.90</time>
   <energy>
    <i name="alphaZ">    176.11944382 </i>
    <i name="ewald"> 154034.63519361 </i>
    <i name="hartreedc">-203814.83547048 </i>
    <i name="XCdc">   -560.36575412 </i>
    <i name="pawpsdc">  54955.55465198 </i>
    <i name="pawaedc"> -52756.21561209 </i>
    <i name="eentropy">     -0.00000000 </i>
    <i name="bandstr">  -4001.88375152 </i>
    <i name="atom">  51859.93150432 </i>
    <i name="e_fr_energy">   -107.05979448 </i>
    <i name="e_wo_entrp">   -107.05979448 </i>
    <i name="e_0_energy">   -107.05979448 </i>
   </energy>
  </scstep>
  <scstep>
   <time name="dav">    6.46    6.46</time>
   <time name="total">    6.85    6.86</time>
   <energy>
    <i name="e_fr_energy">   -106.99738470 </i>
    <i name="e_wo_entrp">   -106.99738470 </i>
    <i name="e_0_energy">   -106.99738470 </i>
   </energy>
  </scstep>
  <scstep>
   <time name="dav">    6.44    6.45</time>
   <time name="total">    6.81    6.82</time>
   <energy>
    <i name="e_fr_energy">   -107.02607103 </i>
    <i name="e_wo_entrp">   -107.02607103 </i>
    <i name="e_0_energy">   -107.02607103 </i>
   </energy>
  </scstep>
  <scstep>
   <time name="dav">    6.45    6.46</time>
   <time name="total">    6.90    6.94</time>
   <energy>
    <i name="e_fr_energy">   -107.04690585 </i>
    <i name="e_wo_entrp">   -107.04690585 </i>
    <i name="e_0_energy">   -107.04690585 </i>
   </energy>
  </scstep>
  <scstep>
   <time name="dav">    6.60    6.61</time>
   <time name="total">    7.00    7.01</time>
   <energy>
    <i name="e_fr_energy">   -107.06281809 </i>
    <i name="e_wo_entrp">   -107.06281210 </i>
    <i name="e_0_energy">   -107.06281509 </i>
   </energy>
  </scstep>
  <scstep>
   <time name="dav">    6.43    6.43</time>
   <time name="total">    6.81    6.84</time>
   <energy>
    <i name="e_fr_energy">   -107.05402720 </i>
    <i name="e_wo_entrp">   -107.05402526 </i>
    <i name="e_0_energy">   -107.05402623 </i>
   </energy>
  </scstep>
  <scstep>
   <time name="dav">    5.73    5.74</time>
   <time name="total">    6.22    6.24</time>
   <energy>
    <i name="e_fr_energy">   -107.06205592 </i>
    <i name="e_wo_entrp">   -107.06205592 </i>
    <i name="e_0_energy">   -107.06205592 </i>
   </energy>
  </scstep>
  <scstep>
   <time name="dav">    4.66    4.67</time>
   <time name="total">    5.05    5.21</time>
   <energy>
    <i name="e_fr_energy">   -107.05756563 </i>
    <i name="e_wo_entrp">   -107.05756563 </i>
    <i name="e_0_energy">   -107.05756563 </i>
   </energy>
  </scstep>
  <scstep>
   <time name="dav">    4.56    4.57</time>
   <time name="total">    4.94    4.95</time>
   <energy>
    <i name="e_fr_energy">   -107.05736052 </i>
    <i name="e_wo_entrp">   -107.05736052 </i>
    <i name="e_0_energy">   -107.05736052 </i>
   </energy>
  </scstep>
  <scstep>
   <time name="dav">    4.51    4.51</time>
   <time name="total">    4.94    4.97</time>
   <energy>
    <i name="e_fr_energy">   -107.05813593 </i>
    <i name="e_wo_entrp">   -107.05813593 </i>
    <i name="e_0_energy">   -107.05813593 </i>
   </energy>
  </scstep>
  <scstep>
   <time name="dav">    4.80    4.81</time>
   <time name="total">    5.20    5.23</time>
   <energy>
    <i name="e_fr_energy">   -107.05934858 </i>
    <i name="e_wo_entrp">   -107.05934858 </i>
    <i name="e_0_energy">   -107.05934858 </i>
   </energy>
  </scstep>
  <scstep>
   <time name="dav">    4.83    4.83</time>
   <time name="total">    5.22    5.60</time>
   <energy>
    <i name="e_fr_energy">   -107.06224744 </i>
    <i name="e_wo_entrp">   -107.06224744 </i>
    <i name="e_0_energy">   -107.06224744 </i>
   </energy>
  </scstep>
  <scstep>
   <time name="dav">    4.55    4.55</time>
   <time name="total">    4.92    5.32</time>
   <energy>
    <i name="e_fr_energy">   -107.06195912 </i>
    <i name="e_wo_entrp">   -107.06195912 </i>
    <i name="e_0_energy">   -107.06195912 </i>
   </energy>
  </scstep>
  <scstep>
   <time name="dav">    4.54    4.54</time>
   <time name="total">    4.84    5.61</time>
   <energy>
    <i name="alphaZ">    176.11944382 </i>
    <i name="ewald"> 154034.63519361 </i>
    <i name="hartreedc">-203818.50124304 </i>
    <i name="XCdc">   -560.26362761 </i>
    <i name="pawpsdc">  54889.60061557 </i>
[...]
       <r>     1.1256     0.0000   332.0000 </r>
       <r>     1.1673     0.0000   335.0000 </r>
       <r>     1.2091     0.0000   338.0000 </r>
       <r>     1.2509     0.0000   339.0000 </r>
       <r>     1.2926     0.0000   341.0000 </r>
       <r>     1.3344     0.0000   342.0000 </r>
       <r>     1.3762     0.0000   343.0000 </r>
       <r>     1.4179     0.0000   345.0000 </r>
       <r>     1.4597     0.0000   347.0000 </r>
       <r>     1.5014     0.0000   349.0000 </r>
       <r>     1.5432     0.0000   351.0000 </r>
       <r>     1.5850     0.0000   354.0000 </r>
       <r>     1.6267     0.0000   355.0000 </r>
       <r>     1.6685     0.0000   356.0000 </r>
       <r>     1.7103     0.0000   356.0000 </r>
       <r>     1.7520     0.0000   356.0000 </r>
       <r>     1.7938     0.0000   356.0000 </r>
       <r>     1.8356     0.0000   356.0000 </r>
       <r>     1.8773     0.0000   356.0000 </r>
       <r>     1.9191     0.0000   356.0000 </r>
       <r>     1.9609     0.0000   356.0000 </r>
       <r>     2.0026     0.0000   356.0000 </r>
       <r>     2.0444     0.0000   356.0000 </r>
       <r>     2.0862     0.0000   356.0000 </r>
       <r>     2.1279     0.0000   356.0000 </r>
       <r>     2.1697     0.0000   356.0000 </r>
       <r>     2.2115     0.0000   356.0000 </r>
      </set>
      <set comment="spin 2">
       <r>   -10.3181     0.0000     0.0000 </r>
       <r>   -10.2763     0.0000     0.0000 </r>
       <r>   -10.2345     0.0000     0.0000 </r>
       <r>   -10.1928     0.0000     0.0000 </r>
       <r>   -10.1510     0.0000     0.0000 </r>
       <r>   -10.1092     0.0000     0.0000 </r>
       <r>   -10.0675     0.0000     0.0000 </r>
       <r>   -10.0257     0.0000     0.0000 </r>
       <r>    -9.9839     0.0000     0.0000 </r>
       <r>    -9.9422     0.0000     0.0000 </r>
       <r>    -9.9004     0.0000     0.0000 </r>
       <r>    -9.8586     0.0000     0.0000 </r>
       <r>    -9.8169     0.0000     0.0000 </r>
       <r>    -9.7751     0.0000     0.0000 </r>
       <r>    -9.7333     0.0000     1.0000 </r>
       <r>    -9.6916     0.0000     1.0000 </r>
       <r>    -9.6498     0.0000     1.0000 </r>
       <r>    -9.6081     0.0000     1.0000 </r>
       <r>    -9.5663     0.0000     1.0000 </r>
       <r>    -9.5245     0.0000     1.0000 </r>
       <r>    -9.4828     0.0000     1.0000 </r>
       <r>    -9.4410     0.0000     1.0000 </r>
       <r>    -9.3992     0.0000     1.0000 </r>
       <r>    -9.3575     0.0000     1.0000 </r>
       <r>    -9.3157     0.0000     1.0000 </r>
       <r>    -9.2739     0.0000     2.0000 </r>
       <r>    -9.2322     0.0000     2.0000 </r>
       <r>    -9.1904     0.0000     2.0000 </r>
       <r>    -9.1486     0.0000     2.0000 </r>
       <r>    -9.1069     0.0000     3.0000 </r>
       <r>    -9.0651     0.0000     4.0000 </r>
       <r>    -9.0233     0.0000     5.0000 </r>
       <r>    -8.9816     0.0000     7.0000 </r>
       <r>    -8.9398     0.0000    10.0000 </r>
       <r>    -8.8980     0.0000    11.0000 </r>
       <r>    -8.8563     0.0000    13.0000 </r>
       <r>    -8.8145     0.0000    16.0000 </r>
       <r>    -8.7728     0.0000    18.0000 </r>
       <r>    -8.7310     0.0000    19.0000 </r>
       <r>    -8.6892     0.0000    20.0000 </r>
       <r>    -8.6475     0.0000    23.0000 </r>
       <r>    -8.6057     0.0000    25.0000 </r>
       <r>    -8.5639     0.0000    27.0000 </r>
       <r>    -8.5222     0.0000    30.0000 </r>
       <r>    -8.4804     0.0000    32.0000 </r>
       <r>    -8.4386     0.0000    37.0000 </r>
       <r>    -8.3969    23.9435    39.0000 </r>
       <r>    -8.3551     0.0000    42.0000 </r>
       <r>    -8.3133     0.0000    45.0000 </r>
       <r>    -8.2716     0.0000    48.0000 </r>
       <r>    -8.2298     0.0000    52.0000 </r>
       <r>    -8.1880     0.0000    56.0000 </r>
       <r>    -8.1463     0.0000    58.0000 </r>
       <r>    -8.1045     0.0000    62.0000 </r>
       <r>    -8.0627     0.0000    65.0000 </r>
       <r>    -8.0210     0.0000    67.0000 </r>
       <r>    -7.9792     0.0000    71.0000 </r>
       <r>    -7.9375     0.0000    74.0000 </r>
       <r>    -7.8957     0.0000    76.0000 </r>
       <r>    -7.8539     0.0000    79.0000 </r>
       <r>    -7.8122     0.0000    82.0000 </r>
       <r>    -7.7704    23.9435    85.0000 </r>
       <r>    -7.7286     0.0000    88.0000 </r>
       <r>    -7.6869     0.0000    92.0000 </r>
       <r>    -7.6451     0.0000    95.0000 </r>
       <r>    -7.6033     0.0000    98.0000 </r>
       <r>    -7.5616     0.0000   101.0000 </r>
       <r>    -7.5198     0.0000   106.0000 </r>
       <r>    -7.4780    23.9435   108.0000 </r>
       <r>    -7.4363     0.0000   111.0000 </r>
       <r>    -7.3945     0.0000   113.0000 </r>
       <r>    -7.3527     0.0000   118.0000 </r>
       <r>    -7.3110     0.0000   120.0000 </r>
       <r>    -7.2692     0.0000   125.0000 </r>
       <r>    -7.2274     0.0000   128.0000 </r>
       <r>    -7.1857     0.0000   131.0000 </r>
       <r>    -7.1439     0.0000   134.0000 </r>
       <r>    -7.1021     0.0000   139.0000 </r>
       <r>    -7.0604     0.0000   143.0000 </r>
       <r>    -7.0186     0.0000   146.0000 </r>
       <r>    -6.9769     0.0000   150.0000 </r>
       <r>    -6.9351     0.0000   154.0000 </r>
       <r>    -6.8933     0.0000   157.0000 </r>
       <r>    -6.8516     0.0000   161.0000 </r>
       <r>    -6.8098     0.0000   165.0000 </r>
       <r>    -6.7680     0.0000   169.0000 </r>
       <r>    -6.7263     0.0000   174.0000 </r>
       <r>    -6.6845     0.0000   179.0000 </r>
       <r>    -6.6427     0.0000   183.0000 </r>
       <r>    -6.6010     0.0000   188.0000 </r>
       <r>    -6.5592     0.0000   193.0000 </r>
       <r>    -6.5174     0.0000   199.0000 </r>
       <r>    -6.4757    23.9341   202.9996 </r>
       <r>    -6.4339     0.0000   210.0000 </r>
       <r>    -6.3921     0.0000   215.0000 </r>
       <r>    -6.3504     0.0054   220.0002 </r>
       <r>    -6.3086     0.0000   226.0000 </r>
       <r>    -6.2668     0.0000   230.0000 </r>
       <r>    -6.2251     0.0000   236.0000 </r>
       <r>    -6.1833     0.0000   241.0000 </r>
       <r>    -6.1416     0.0000   244.0000 </r>
       <r>    -6.0998    21.9635   247.9173 </r>
       <r>    -6.0580     0.0000   252.0000 </r>
       <r>    -6.0163     0.0000   255.0000 </r>
       <r>    -5.9745     0.0000   256.0000 </r>
       <r>    -5.9327     0.0000   257.0000 </r>
       <r>    -5.8910     0.0000   257.0000 </r>
       <r>    -5.8492     0.0000   257.0000 </r>
       <r>    -5.8074     0.0000   258.0000 </r>
       <r>    -5.7657     0.0000   258.0000 </r>
       <r>    -5.7239     0.0000   258.0000 </r>
       <r>    -5.6821     0.0000   259.0000 </r>
       <r>    -5.6404     0.0000   259.0000 </r>
       <r>    -5.5986     0.0000   259.0000 </r>
       <r>    -5.5568     0.0000   259.0000 </r>
       <r>    -5.5151     0.0000   259.0000 </r>
       <r>    -5.4733     0.0000   259.0000 </r>
       <r>    -5.4315     0.0000   259.0000 </r>
       <r>    -5.3898     0.0000   260.0000 </r>
       <r>    -5.3480     0.0000   260.0000 </r>
       <r>    -5.3063     0.0000   260.0000 </r>
       <r>    -5.2645     0.0000   260.0000 </r>
       <r>    -5.2227     0.0000   260.0000 </r>
       <r>    -5.1810     0.0000   261.0000 </r>
       <r>    -5.1392     0.0000   261.0000 </r>
       <r>    -5.0974     0.0000   262.0000 </r>
       <r>    -5.0557     0.0000   262.0000 </r>
       <r>    -5.0139     0.0000   262.0000 </r>
       <r>    -4.9721     0.0000   263.0000 </r>
       <r>    -4.9304     0.0000   263.0000 </r>
       <r>    -4.8886     0.0000   263.0000 </r>
       <r>    -4.8468     0.0000   264.0000 </r>
       <r>    -4.8051     0.0000   264.0000 </r>
       <r>    -4.7633     0.0000   265.0000 </r>
       <r>    -4.7215     0.0000   265.0000 </r>
       <r>    -4.6798     0.0000   265.0000 </r>
       <r>    -4.6380     0.0000   265.0000 </r>
       <r>    -4.5962     0.0000   265.0000 </r>
       <r>    -4.5545     0.0000   265.0000 </r>
       <r>    -4.5127     0.0000   265.0000 </r>
       <r>    -4.4710     0.0000   266.0000 </r>
       <r>    -4.4292     0.0000   266.0000 </r>
       <r>    -4.3874     0.0000   266.0000 </r>
       <r>    -4.3457     0.0000   267.0000 </r>
       <r>    -4.3039     0.0000   267.0000 </r>
       <r>    -4.2621     0.0000   267.0000 </r>
       <r>    -4.2204     0.0000   268.0000 </r>
       <r>    -4.1786     0.0000   268.0000 </r>
       <r>    -4.1368     0.0000   268.0000 </r>
       <r>    -4.0951     0.0000   268.0000 </r>
       <r>    -4.0533     0.0000   268.0000 </r>
       <r>    -4.0115     0.0000   268.0000 </r>
       <r>    -3.9698     0.0000   268.0000 </r>
       <r>    -3.9280     0.0000   268.0000 </r>
       <r>    -3.8862     0.0000   268.0000 </r>
       <r>    -3.8445     0.0000   270.0000 </r>
       <r>    -3.8027     0.0000   270.0000 </r>
       <r>    -3.7609     0.0000   271.0000 </r>
       <r>    -3.7192     0.0000   271.0000 </r>
       <r>    -3.6774     0.0000   271.0000 </r>
       <r>    -3.6357     0.0000   272.0000 </r>
       <r>    -3.5939     0.0000   272.0000 </r>
       <r>    -3.5521     0.0000   272.0000 </r>
       <r>    -3.5104     0.0000   272.0000 </r>
       <r>    -3.4686     0.0000   273.0000 </r>
       <r>    -3.4268     0.0000   273.0000 </r>
       <r>    -3.3851     0.0000   273.0000 </r>
       <r>    -3.3433     0.0000   274.0000 </r>
       <r>    -3.3015     0.0000   274.0000 </r>
       <r>    -3.2598     0.0000   274.0000 </r>
       <r>    -3.2180     0.0000   274.0000 </r>
       <r>    -3.1762     0.0000   275.0000 </r>
       <r>    -3.1345     0.0000   275.0000 </r>
       <r>    -3.0927     0.0000   275.0000 </r>
       <r>    -3.0509     0.0000   276.0000 </r>
       <r>    -3.0092     0.0000   276.0000 </r>
       <r>    -2.9674     0.0000   277.0000 </r>
       <r>    -2.9256     0.0000   277.0000 </r>
       <r>    -2.8839     0.0000   277.0000 </r>
       <r>    -2.8421     0.0000   277.0000 </r>
       <r>    -2.8004     0.0000   278.0000 </r>
       <r>    -2.7586     0.0000   278.0000 </r>
       <r>    -2.7168     0.0000   278.0000 </r>
       <r>    -2.6751     0.0000   279.0000 </r>
       <r>    -2.6333     0.0000   279.0000 </r>
       <r>    -2.5915     0.0000   280.0000 </r>
       <r>    -2.5498     0.0000   280.0000 </r>
       <r>    -2.5080     0.0000   280.0000 </r>
       <r>    -2.4662     0.0000   280.0000 </r>
       <r>    -2.4245     0.0000   281.0000 </r>
       <r>    -2.3827     0.0000   281.0000 </r>
       <r>    -2.3409     0.0000   282.0000 </r>
       <r>    -2.2992     0.0000   282.0000 </r>
       <r>    -2.2574     0.0000   283.0000 </r>
       <r>    -2.2156     0.0000   283.0000 </r>
       <r>    -2.1739     0.0000   283.0000 </r>
       <r>    -2.1321     0.0000   284.0000 </r>
       <r>    -2.0903     0.0000   285.0000 </r>
       <r>    -2.0486     0.0000   286.0000 </r>
       <r>    -2.0068     0.0000   286.0000 </r>
       <r>    -1.9651     0.0000   287.0000 </r>
       <r>    -1.9233     0.0000   287.0000 </r>
       <r>    -1.8815     0.0000   288.0000 </r>
       <r>    -1.8398     0.0000   288.0000 </r>
       <r>    -1.7980     0.0000   288.0000 </r>
       <r>    -1.7562     0.0000   289.0000 </r>
       <r>    -1.7145     0.0000   291.0000 </r>
       <r>    -1.6727     0.0000   291.0000 </r>
       <r>    -1.6309     0.0000   291.0000 </r>
       <r>    -1.5892     0.0000   291.0000 </r>
       <r>    -1.5474     0.0000   292.0000 </r>
       <r>    -1.5056     0.0000   293.0000 </r>
       <r>    -1.4639     0.0000   293.0000 </r>
       <r>    -1.4221     0.0000   293.0000 </r>
       <r>    -1.3803     0.0000   293.0000 </r>
       <r>    -1.3386     0.0000   294.0000 </r>
       <r>    -1.2968     0.0000   294.0000 </r>
       <r>    -1.2550     0.0000   295.0000 </r>
       <r>    -1.2133     0.0000   296.0000 </r>
       <r>    -1.1715     0.0000   296.0000 </r>
       <r>    -1.1298     0.0000   296.0000 </r>
       <r>    -1.0880     0.0000   297.0000 </r>
       <r>    -1.0462     0.0000   297.0000 </r>
       <r>    -1.0045     0.0000   298.0000 </r>
       <r>    -0.9627     0.0000   298.0000 </r>
       <r>    -0.9209     0.0000   298.0000 </r>
       <r>    -0.8792     0.0000   298.0000 </r>
       <r>    -0.8374     0.0000   300.0000 </r>
       <r>    -0.7956     0.0000   301.0000 </r>
       <r>    -0.7539     0.0000   301.0000 </r>
       <r>    -0.7121    23.9435   302.0000 </r>
       <r>    -0.6703     0.0000   302.0000 </r>
       <r>    -0.6286     0.0000   303.0000 </r>
       <r>    -0.5868     0.0000   304.0000 </r>
       <r>    -0.5450     0.0000   304.0000 </r>
       <r>    -0.5033     0.0000   305.0000 </r>
       <r>    -0.4615     0.0000   305.0000 </r>
       <r>    -0.4197     0.0000   306.0000 </r>
       <r>    -0.3780     0.0000   307.0000 </r>
       <r>    -0.3362     0.0000   307.0000 </r>
       <r>    -0.2945     0.0000   308.0000 </r>
       <r>    -0.2527     0.0000   309.0000 </r>
       <r>    -0.2109     0.0000   309.0000 </r>
       <r>    -0.1692     0.0000   309.0000 </r>
       <r>    -0.1274     0.0000   310.0000 </r>
       <r>    -0.0856     0.0000   310.0000 </r>
       <r>    -0.0439    23.9435   312.0000 </r>
       <r>    -0.0021     0.0000   312.0000 </r>
       <r>     0.0397     0.0000   313.0000 </r>
       <r>     0.0814     0.0000   313.0000 </r>
       <r>     0.1232     0.0000   314.0000 </r>
       <r>     0.1650     0.0000   314.0000 </r>
       <r>     0.2067     0.0000   314.0000 </r>
       <r>     0.2485     0.0000   315.0000 </r>
       <r>     0.2903     0.0000   316.0000 </r>
       <r>     0.3320     0.0000   316.0000 </r>
       <r>     0.3738     0.0000   317.0000 </r>
       <r>     0.4156     0.0000   317.0000 </r>
       <r>     0.4573     0.0000   317.0000 </r>
       <r>     0.4991     0.0000   317.0000 </r>
       <r>     0.5408     0.0000   318.0000 </r>
       <r>     0.5826     0.0000   319.0000 </r>
       <r>     0.6244     0.0000   319.0000 </r>
       <r>     0.6661     0.0000   320.0000 </r>
       <r>     0.7079     0.0000   321.0000 </r>
       <r>     0.7497     0.0000   322.0000 </r>
       <r>     0.7914     0.0000   323.0000 </r>
       <r>     0.8332     0.0000   324.0000 </r>
       <r>     0.8750     0.0000   325.0000 </r>
       <r>     0.9167     0.0000   326.0000 </r>
       <r>     0.9585     0.0000   327.0000 </r>
       <r>     1.0003     0.0000   328.0000 </r>
       <r>     1.0420     0.0000   329.0000 </r>
       <r>     1.0838     0.0000   331.0000 </r>
       <r>     1.1256     0.0000   332.0000 </r>
       <r>     1.1673     0.0000   335.0000 </r>
       <r>     1.2091     0.0000   338.0000 </r>
       <r>     1.2509     0.0000   339.0000 </r>
       <r>     1.2926     0.0000   341.0000 </r>
       <r>     1.3344     0.0000   342.0000 </r>
       <r>     1.3762     0.0000   343.0000 </r>
       <r>     1.4179     0.0000   345.0000 </r>
       <r>     1.4597     0.0000   347.0000 </r>
       <r>     1.5014     0.0000   349.0000 </r>
       <r>     1.5432     0.0000   351.0000 </r>
       <r>     1.5850     0.0000   354.0000 </r>
       <r>     1.6267     0.0000   355.0000 </r>
       <r>     1.6685     0.0000   356.0000 </r>
       <r>     1.7103     0.0000   356.0000 </r>
       <r>     1.7520     0.0000   356.0000 </r>
       <r>     1.7938     0.0000   356.0000 </r>
       <r>     1.8356     0.0000   356.0000 </r>
       <r>     1.8773     0.0000   356.0000 </r>
       <r>     1.9191     0.0000   356.0000 </r>
       <r>     1.9609     0.0000   356.0000 </r>
       <r>     2.0026     0.0000   356.0000 </r>
       <r>     2.0444     0.0000   356.0000 </r>
       <r>     2.0862     0.0000   356.0000 </r>
       <r>     2.1279     0.0000   356.0000 </r>
       <r>     2.1697     0.0000   356.0000 </r>
       <r>     2.2115     0.0000   356.0000 </r>
      </set>
     </set>
    </array>
   </total>
  </dos>
 </calculation>
 <structure name="finalpos" >
  <crystal>
   <varray name="basis" >
    <v>      22.94117343       0.00000000       0.00000000 </v>
    <v>       0.00000000      22.94117343       0.00000000 </v>
    <v>       0.00000000       0.00000000      22.94117343 </v>
   </varray>
   <i name="volume">  12073.88080741 </i>
   <varray name="rec_basis" >
    <v>       0.04358975       0.00000000       0.00000000 </v>
    <v>       0.00000000       0.04358975       0.00000000 </v>
    <v>       0.00000000       0.00000000       0.04358975 </v>
   </varray>
  </crystal>
  <varray name="positions" >
   <v>       0.75711442       0.58887910       0.55590885 </v>
   <v>       0.70270345       0.50742055       0.47352059 </v>
   <v>       0.75310570       0.46968903       0.59121090 </v>
   <v>       0.65749524       0.62599372       0.50101256 </v>
   <v>       0.59975249       0.52955100       0.34800348 </v>
   <v>       0.72590080       0.56477985       0.67065407 </v>
   <v>       0.56307690       0.40281981       0.31375343 </v>
   <v>       0.62303497       0.42738816       0.42030722 </v>
   <v>       0.58078116       0.63749949       0.40865488 </v>
   <v>       0.64211869       0.65444579       0.62070770 </v>
   <v>       0.65826432       0.41421705       0.54113385 </v>
   <v>       0.65022676       0.53326215       0.58151900 </v>
   <v>       0.57878777       0.53206069       0.47742998 </v>
   <v>       0.50361470       0.49938489       0.27200911 </v>
   <v>       0.60630412       0.32140798       0.48373629 </v>
   <v>       0.56179605       0.69829283       0.52042732 </v>
   <v>       0.65196662       0.44364565       0.66597488 </v>
   <v>       0.48872781       0.59322976       0.34526324 </v>
   <v>       0.50481660       0.47242139       0.39810412 </v>
   <v>       0.50783492       0.34768038       0.40871783 </v>
   <v>       0.43558005       0.40348994       0.32397212 </v>
   <v>       0.53514848       0.42109079       0.50984717 </v>
   <v>       0.61029115       0.56190343       0.69730989 </v>
   <v>       0.48110354       0.71062796       0.41384703 </v>
   <v>       0.54160321       0.59099261       0.58223718 </v>
   <v>       0.39093440       0.52222888       0.30924864 </v>
   <v>       0.49754900       0.59513099       0.70490224 </v>
   <v>       0.49081327       0.30797664       0.52269475 </v>
   <v>       0.47984379       0.60862881       0.47449701 </v>
   <v>       0.57655757       0.35391299       0.60875141 </v>
   <v>       0.38472054       0.63840174       0.38769997 </v>
   <v>       0.52259735       0.69595864       0.63724458 </v>
   <v>       0.44130515       0.71033251       0.53381935 </v>
   <v>       0.54444187       0.47517191       0.61857537 </v>
   <v>       0.40279780       0.52510597       0.42910403 </v>
   <v>       0.41750263       0.41062657       0.47637236 </v>
   <v>       0.38135259       0.32173527       0.40863187 </v>
   <v>       0.53401624       0.47689984       0.73625032 </v>
   <v>       0.33169858       0.43458893       0.37959971 </v>
   <v>       0.44625578       0.51145132       0.54361375 </v>
   <v>       0.29502492       0.55402393       0.38075778 </v>
   <v>       0.45674096       0.38922089       0.60786774 </v>
   <v>       0.37358933       0.31565589       0.54480653 </v>
   <v>       0.36081784       0.60998631       0.50785749 </v>
   <v>       0.42445012       0.62003627       0.61301893 </v>
   <v>       0.29236822       0.37683366       0.47968149 </v>
   <v>       0.43013506       0.49784893       0.66396793 </v>
   <v>       0.30175887       0.49806591       0.49148635 </v>
   <v>       0.34603920       0.42873442       0.58157531 </v>
   <v>       0.33006219       0.54444026       0.60651620 </v>
  </varray>
 </structure>
</modeling>
