  18  18   0   0
  0.4056146E+03  0.1939972E-08  0.1939972E-08  0.1939972E-08  0.1000000E-15
  1.000000000000000E-004
  CAR 
 unknown system                          
      1.35619960     -9.71338342  301     -3.83727977      1.00000000
     -9.713  0.0000E+00  0.0000E+00  0.0000E+00  0.0000E+00
     -9.676  0.0000E+00  0.0000E+00  0.0000E+00  0.0000E+00
     -9.640  0.0000E+00  0.0000E+00  0.0000E+00  0.0000E+00
     -9.603  0.0000E+00  0.0000E+00  0.0000E+00  0.0000E+00
     -9.566  0.0000E+00  0.0000E+00  0.0000E+00  0.0000E+00
     -9.529  0.0000E+00  0.0000E+00  0.0000E+00  0.0000E+00
     -9.492  0.0000E+00  0.0000E+00  0.0000E+00  0.0000E+00
     -9.455  0.0000E+00  0.0000E+00  0.0000E+00  0.0000E+00
     -9.418  0.0000E+00  0.0000E+00  0.0000E+00  0.0000E+00
     -9.381  0.0000E+00  0.0000E+00  0.0000E+00  0.0000E+00
     -9.344  0.0000E+00  0.0000E+00  0.0000E+00  0.0000E+00
     -9.307  0.0000E+00  0.0000E+00  0.0000E+00  0.0000E+00
     -9.271  0.0000E+00  0.0000E+00  0.0000E+00  0.0000E+00
     -9.234  0.0000E+00  0.0000E+00  0.0000E+00  0.0000E+00
     -9.197  0.0000E+00  0.0000E+00  0.1000E-02  0.1000E-02
     -9.160  0.0000E+00  0.0000E+00  0.1000E-02  0.1000E-02
     -9.123  0.0000E+00  0.0000E+00  0.1000E-02  0.1000E-02
     -9.086  0.0000E+00  0.0000E+00  0.1000E-02  0.1000E-02
     -9.049  0.0000E+00  0.0000E+00  0.1000E-02  0.1000E-02
     -9.012  0.0000E+00  0.0000E+00  0.1000E-02  0.1000E-02
     -8.975  0.0000E+00  0.0000E+00  0.2000E-02  0.2000E-02
     -8.939  0.0000E+00  0.0000E+00  0.3000E-02  0.3000E-02
     -8.902  0.0000E+00  0.0000E+00  0.4000E-02  0.4000E-02
     -8.865  0.0000E+00  0.0000E+00  0.4000E-02  0.4000E-02
     -8.828  0.0000E+00  0.0000E+00  0.4000E-02  0.4000E-02
     -8.791  0.0000E+00  0.0000E+00  0.5000E-02  0.5000E-02
     -8.754  0.0000E+00  0.0000E+00  0.7000E-02  0.7000E-02
     -8.717  0.0000E+00  0.0000E+00  0.7000E-02  0.7000E-02
     -8.680  0.6857E-02  0.6859E-02  0.8253E-02  0.8253E-02
     -8.643  0.0000E+00  0.0000E+00  0.9000E-02  0.9000E-02
     -8.606  0.0000E+00  0.0000E+00  0.9000E-02  0.9000E-02
     -8.570  0.0000E+00  0.0000E+00  0.1100E-01  0.1100E-01
     -8.533  0.0000E+00  0.0000E+00  0.1200E-01  0.1200E-01
     -8.496  0.0000E+00  0.0000E+00  0.1300E-01  0.1300E-01
     -8.459  0.0000E+00  0.0000E+00  0.1300E-01  0.1300E-01
     -8.422  0.0000E+00  0.0000E+00  0.1400E-01  0.1400E-01
     -8.385  0.0000E+00  0.0000E+00  0.1500E-01  0.1500E-01
     -8.348  0.0000E+00  0.0000E+00  0.1700E-01  0.1700E-01
     -8.311  0.0000E+00  0.0000E+00  0.1700E-01  0.1700E-01
     -8.274  0.0000E+00  0.0000E+00  0.1800E-01  0.1800E-01
     -8.237  0.0000E+00  0.0000E+00  0.2000E-01  0.2000E-01
     -8.201  0.0000E+00  0.0000E+00  0.2100E-01  0.2100E-01
     -8.164  0.0000E+00  0.0000E+00  0.2200E-01  0.2200E-01
     -8.127  0.0000E+00  0.0000E+00  0.2200E-01  0.2200E-01
     -8.090  0.4699E-02  0.4701E-02  0.2317E-01  0.2317E-01
     -8.053  0.0000E+00  0.0000E+00  0.2500E-01  0.2500E-01
     -8.016  0.0000E+00  0.0000E+00  0.2600E-01  0.2600E-01
     -7.979  0.2709E-01  0.2709E-01  0.2700E-01  0.2700E-01
     -7.942  0.0000E+00  0.0000E+00  0.2700E-01  0.2700E-01
     -7.905  0.0000E+00  0.0000E+00  0.2900E-01  0.2900E-01
     -7.868  0.0000E+00  0.0000E+00  0.3000E-01  0.3000E-01
     -7.832  0.0000E+00  0.0000E+00  0.3100E-01  0.3100E-01
     -7.795  0.0000E+00  0.0000E+00  0.3100E-01  0.3100E-01
     -7.758  0.0000E+00  0.0000E+00  0.3300E-01  0.3300E-01
     -7.721  0.0000E+00  0.0000E+00  0.3500E-01  0.3500E-01
     -7.684  0.0000E+00  0.0000E+00  0.3500E-01  0.3500E-01
     -7.647  0.0000E+00  0.0000E+00  0.3500E-01  0.3500E-01
     -7.610  0.0000E+00  0.0000E+00  0.3600E-01  0.3600E-01
     -7.573  0.0000E+00  0.0000E+00  0.3700E-01  0.3700E-01
     -7.536  0.0000E+00  0.0000E+00  0.3800E-01  0.3800E-01
     -7.499  0.0000E+00  0.0000E+00  0.4000E-01  0.4000E-01
     -7.463  0.0000E+00  0.0000E+00  0.4100E-01  0.4100E-01
     -7.426  0.0000E+00  0.0000E+00  0.4200E-01  0.4200E-01
     -7.389  0.0000E+00  0.0000E+00  0.4200E-01  0.4200E-01
     -7.352  0.0000E+00  0.0000E+00  0.4300E-01  0.4300E-01
     -7.315  0.0000E+00  0.0000E+00  0.4300E-01  0.4300E-01
     -7.278  0.0000E+00  0.0000E+00  0.4500E-01  0.4500E-01
     -7.241  0.0000E+00  0.0000E+00  0.4500E-01  0.4500E-01
     -7.204  0.0000E+00  0.0000E+00  0.4700E-01  0.4700E-01
     -7.167  0.0000E+00  0.0000E+00  0.4900E-01  0.4900E-01
     -7.130  0.0000E+00  0.0000E+00  0.5000E-01  0.5000E-01
     -7.094  0.0000E+00  0.0000E+00  0.5200E-01  0.5200E-01
     -7.057  0.0000E+00  0.0000E+00  0.5400E-01  0.5400E-01
     -7.020  0.0000E+00  0.0000E+00  0.5500E-01  0.5500E-01
     -6.983  0.0000E+00  0.0000E+00  0.5800E-01  0.5800E-01
     -6.946  0.0000E+00  0.0000E+00  0.6000E-01  0.6000E-01
     -6.909  0.0000E+00  0.0000E+00  0.6200E-01  0.6200E-01
     -6.872  0.0000E+00  0.0000E+00  0.6400E-01  0.6400E-01
     -6.835  0.0000E+00  0.0000E+00  0.6600E-01  0.6600E-01
     -6.798  0.0000E+00  0.0000E+00  0.6700E-01  0.6700E-01
     -6.761  0.0000E+00  0.0000E+00  0.6900E-01  0.6900E-01
     -6.725  0.0000E+00  0.0000E+00  0.7100E-01  0.7100E-01
     -6.688  0.0000E+00  0.0000E+00  0.7300E-01  0.7300E-01
     -6.651  0.0000E+00  0.0000E+00  0.7500E-01  0.7500E-01
     -6.614  0.0000E+00  0.0000E+00  0.7600E-01  0.7600E-01
     -6.577  0.0000E+00  0.0000E+00  0.7700E-01  0.7700E-01
     -6.540  0.0000E+00  0.0000E+00  0.8000E-01  0.8000E-01
     -6.503  0.0000E+00  0.0000E+00  0.8100E-01  0.8100E-01
     -6.466  0.0000E+00  0.0000E+00  0.8400E-01  0.8400E-01
     -6.429  0.0000E+00  0.0000E+00  0.8400E-01  0.8400E-01
     -6.393  0.0000E+00  0.0000E+00  0.8500E-01  0.8500E-01
     -6.356  0.0000E+00  0.0000E+00  0.8600E-01  0.8600E-01
     -6.319  0.0000E+00  0.0000E+00  0.8600E-01  0.8600E-01
     -6.282  0.0000E+00  0.0000E+00  0.8800E-01  0.8800E-01
     -6.245  0.0000E+00  0.0000E+00  0.8900E-01  0.8900E-01
     -6.208  0.0000E+00  0.0000E+00  0.9100E-01  0.9100E-01
     -6.171  0.0000E+00  0.0000E+00  0.9200E-01  0.9200E-01
     -6.134  0.0000E+00  0.0000E+00  0.9200E-01  0.9200E-01
     -6.097  0.0000E+00  0.0000E+00  0.9300E-01  0.9300E-01
     -6.060  0.0000E+00  0.0000E+00  0.9300E-01  0.9300E-01
     -6.024  0.0000E+00  0.0000E+00  0.9300E-01  0.9300E-01
     -5.987  0.0000E+00  0.0000E+00  0.9300E-01  0.9300E-01
     -5.950  0.0000E+00  0.0000E+00  0.9300E-01  0.9300E-01
     -5.913  0.0000E+00  0.0000E+00  0.9300E-01  0.9300E-01
     -5.876  0.0000E+00  0.0000E+00  0.9300E-01  0.9300E-01
     -5.839  0.0000E+00  0.0000E+00  0.9300E-01  0.9300E-01
     -5.802  0.0000E+00  0.0000E+00  0.9300E-01  0.9300E-01
     -5.765  0.0000E+00  0.0000E+00  0.9300E-01  0.9300E-01
     -5.728  0.0000E+00  0.0000E+00  0.9300E-01  0.9300E-01
     -5.691  0.0000E+00  0.0000E+00  0.9300E-01  0.9300E-01
     -5.655  0.0000E+00  0.0000E+00  0.9300E-01  0.9300E-01
     -5.618  0.0000E+00  0.0000E+00  0.9300E-01  0.9300E-01
     -5.581  0.0000E+00  0.0000E+00  0.9300E-01  0.9300E-01
     -5.544  0.0000E+00  0.0000E+00  0.9300E-01  0.9300E-01
     -5.507  0.0000E+00  0.0000E+00  0.9300E-01  0.9300E-01
     -5.470  0.0000E+00  0.0000E+00  0.9300E-01  0.9300E-01
     -5.433  0.0000E+00  0.0000E+00  0.9400E-01  0.9400E-01
     -5.396  0.0000E+00  0.0000E+00  0.9400E-01  0.9400E-01
     -5.359  0.0000E+00  0.0000E+00  0.9400E-01  0.9400E-01
     -5.322  0.0000E+00  0.0000E+00  0.9400E-01  0.9400E-01
     -5.286  0.0000E+00  0.0000E+00  0.9400E-01  0.9400E-01
     -5.249  0.0000E+00  0.0000E+00  0.9400E-01  0.9400E-01
     -5.212  0.0000E+00  0.0000E+00  0.9400E-01  0.9400E-01
     -5.175  0.0000E+00  0.0000E+00  0.9400E-01  0.9400E-01
     -5.138  0.0000E+00  0.0000E+00  0.9400E-01  0.9400E-01
     -5.101  0.0000E+00  0.0000E+00  0.9400E-01  0.9400E-01
     -5.064  0.0000E+00  0.0000E+00  0.9400E-01  0.9400E-01
     -5.027  0.0000E+00  0.0000E+00  0.9400E-01  0.9400E-01
     -4.990  0.0000E+00  0.0000E+00  0.9500E-01  0.9500E-01
     -4.953  0.0000E+00  0.0000E+00  0.9500E-01  0.9500E-01
     -4.917  0.0000E+00  0.0000E+00  0.9500E-01  0.9500E-01
     -4.880  0.0000E+00  0.0000E+00  0.9500E-01  0.9500E-01
     -4.843  0.0000E+00  0.0000E+00  0.9500E-01  0.9500E-01
     -4.806  0.0000E+00  0.0000E+00  0.9500E-01  0.9500E-01
     -4.769  0.0000E+00  0.0000E+00  0.9500E-01  0.9500E-01
     -4.732  0.0000E+00  0.0000E+00  0.9500E-01  0.9500E-01
     -4.695  0.0000E+00  0.0000E+00  0.9500E-01  0.9500E-01
     -4.658  0.0000E+00  0.0000E+00  0.9500E-01  0.9500E-01
     -4.621  0.0000E+00  0.0000E+00  0.9500E-01  0.9500E-01
     -4.584  0.0000E+00  0.0000E+00  0.9500E-01  0.9500E-01
     -4.548  0.0000E+00  0.0000E+00  0.9600E-01  0.9600E-01
     -4.511  0.0000E+00  0.0000E+00  0.9600E-01  0.9600E-01
     -4.474  0.0000E+00  0.0000E+00  0.9600E-01  0.9600E-01
     -4.437  0.0000E+00  0.0000E+00  0.9600E-01  0.9600E-01
     -4.400  0.0000E+00  0.0000E+00  0.9600E-01  0.9600E-01
     -4.363  0.0000E+00  0.0000E+00  0.9600E-01  0.9600E-01
     -4.326  0.0000E+00  0.0000E+00  0.9600E-01  0.9600E-01
     -4.289  0.0000E+00  0.0000E+00  0.9700E-01  0.9700E-01
     -4.252  0.0000E+00  0.0000E+00  0.9700E-01  0.9700E-01
     -4.215  0.0000E+00  0.0000E+00  0.9700E-01  0.9700E-01
     -4.179  0.0000E+00  0.0000E+00  0.9700E-01  0.9700E-01
     -4.142  0.0000E+00  0.0000E+00  0.9700E-01  0.9700E-01
     -4.105  0.0000E+00  0.0000E+00  0.9700E-01  0.9700E-01
     -4.068  0.0000E+00  0.0000E+00  0.9800E-01  0.9800E-01
     -4.031  0.0000E+00  0.0000E+00  0.9800E-01  0.9800E-01
     -3.994  0.0000E+00  0.0000E+00  0.9800E-01  0.9800E-01
     -3.957  0.0000E+00  0.0000E+00  0.9800E-01  0.9800E-01
     -3.920  0.0000E+00  0.0000E+00  0.9800E-01  0.9800E-01
     -3.883  0.0000E+00  0.0000E+00  0.9800E-01  0.9800E-01
     -3.847  0.0000E+00  0.0000E+00  0.9900E-01  0.9900E-01
     -3.810  0.0000E+00  0.0000E+00  0.9900E-01  0.9900E-01
     -3.773  0.0000E+00  0.0000E+00  0.9900E-01  0.9900E-01
     -3.736  0.0000E+00  0.0000E+00  0.9900E-01  0.9900E-01
     -3.699  0.0000E+00  0.0000E+00  0.9900E-01  0.9900E-01
     -3.662  0.0000E+00  0.0000E+00  0.9900E-01  0.9900E-01
     -3.625  0.0000E+00  0.0000E+00  0.9900E-01  0.9900E-01
     -3.588  0.0000E+00  0.0000E+00  0.9900E-01  0.9900E-01
     -3.551  0.0000E+00  0.0000E+00  0.9900E-01  0.9900E-01
     -3.514  0.0000E+00  0.0000E+00  0.9900E-01  0.9900E-01
     -3.478  0.0000E+00  0.0000E+00  0.9900E-01  0.9900E-01
     -3.441  0.0000E+00  0.0000E+00  0.9900E-01  0.9900E-01
     -3.404  0.0000E+00  0.0000E+00  0.9900E-01  0.9900E-01
     -3.367  0.0000E+00  0.0000E+00  0.9900E-01  0.9900E-01
     -3.330  0.0000E+00  0.0000E+00  0.9900E-01  0.9900E-01
     -3.293  0.0000E+00  0.0000E+00  0.9900E-01  0.9900E-01
     -3.256  0.0000E+00  0.0000E+00  0.9900E-01  0.9900E-01
     -3.219  0.0000E+00  0.0000E+00  0.9900E-01  0.9900E-01
     -3.182  0.0000E+00  0.0000E+00  0.9900E-01  0.9900E-01
     -3.145  0.0000E+00  0.0000E+00  0.9900E-01  0.9900E-01
     -3.109  0.0000E+00  0.0000E+00  0.9900E-01  0.9900E-01
     -3.072  0.0000E+00  0.0000E+00  0.9900E-01  0.9900E-01
     -3.035  0.0000E+00  0.0000E+00  0.9900E-01  0.9900E-01
     -2.998  0.0000E+00  0.0000E+00  0.1000E+00  0.1000E+00
     -2.961  0.0000E+00  0.0000E+00  0.1000E+00  0.1000E+00
     -2.924  0.0000E+00  0.0000E+00  0.1000E+00  0.1000E+00
     -2.887  0.0000E+00  0.0000E+00  0.1000E+00  0.1000E+00
     -2.850  0.0000E+00  0.0000E+00  0.1000E+00  0.1000E+00
     -2.813  0.0000E+00  0.0000E+00  0.1000E+00  0.1000E+00
     -2.776  0.0000E+00  0.0000E+00  0.1000E+00  0.1000E+00
     -2.740  0.0000E+00  0.0000E+00  0.1000E+00  0.1000E+00
     -2.703  0.2710E-01  0.2710E-01  0.1010E+00  0.1010E+00
     -2.666  0.0000E+00  0.0000E+00  0.1010E+00  0.1010E+00
     -2.629  0.0000E+00  0.0000E+00  0.1010E+00  0.1010E+00
     -2.592  0.0000E+00  0.0000E+00  0.1010E+00  0.1010E+00
     -2.555  0.0000E+00  0.0000E+00  0.1020E+00  0.1020E+00
     -2.518  0.0000E+00  0.0000E+00  0.1020E+00  0.1020E+00
     -2.481  0.0000E+00  0.0000E+00  0.1020E+00  0.1020E+00
     -2.444  0.0000E+00  0.0000E+00  0.1020E+00  0.1020E+00
     -2.407  0.0000E+00  0.0000E+00  0.1030E+00  0.1030E+00
     -2.371  0.0000E+00  0.0000E+00  0.1030E+00  0.1030E+00
     -2.334  0.0000E+00  0.0000E+00  0.1030E+00  0.1030E+00
     -2.297  0.0000E+00  0.0000E+00  0.1030E+00  0.1030E+00
     -2.260  0.0000E+00  0.0000E+00  0.1030E+00  0.1030E+00
     -2.223  0.0000E+00  0.0000E+00  0.1040E+00  0.1040E+00
     -2.186  0.0000E+00  0.0000E+00  0.1040E+00  0.1040E+00
     -2.149  0.0000E+00  0.0000E+00  0.1040E+00  0.1040E+00
     -2.112  0.0000E+00  0.0000E+00  0.1040E+00  0.1040E+00
     -2.075  0.0000E+00  0.0000E+00  0.1040E+00  0.1040E+00
     -2.038  0.0000E+00  0.0000E+00  0.1050E+00  0.1050E+00
     -2.002  0.0000E+00  0.0000E+00  0.1050E+00  0.1050E+00
     -1.965  0.0000E+00  0.0000E+00  0.1050E+00  0.1050E+00
     -1.928  0.0000E+00  0.0000E+00  0.1050E+00  0.1050E+00
     -1.891  0.0000E+00  0.0000E+00  0.1060E+00  0.1060E+00
     -1.854  0.0000E+00  0.0000E+00  0.1060E+00  0.1060E+00
     -1.817  0.0000E+00  0.0000E+00  0.1060E+00  0.1060E+00
     -1.780  0.0000E+00  0.0000E+00  0.1060E+00  0.1060E+00
     -1.743  0.0000E+00  0.0000E+00  0.1060E+00  0.1060E+00
     -1.706  0.2449E-02  0.2270E-02  0.1061E+00  0.1061E+00
     -1.669  0.0000E+00  0.0000E+00  0.1070E+00  0.1070E+00
     -1.633  0.0000E+00  0.0000E+00  0.1070E+00  0.1070E+00
     -1.596  0.0000E+00  0.0000E+00  0.1070E+00  0.1070E+00
     -1.559  0.0000E+00  0.0000E+00  0.1070E+00  0.1070E+00
     -1.522  0.0000E+00  0.0000E+00  0.1070E+00  0.1070E+00
     -1.485  0.0000E+00  0.0000E+00  0.1070E+00  0.1070E+00
     -1.448  0.0000E+00  0.0000E+00  0.1070E+00  0.1070E+00
     -1.411  0.0000E+00  0.0000E+00  0.1080E+00  0.1080E+00
     -1.374  0.0000E+00  0.0000E+00  0.1080E+00  0.1080E+00
     -1.337  0.0000E+00  0.0000E+00  0.1080E+00  0.1080E+00
     -1.301  0.0000E+00  0.0000E+00  0.1080E+00  0.1080E+00
     -1.264  0.0000E+00  0.0000E+00  0.1080E+00  0.1080E+00
     -1.227  0.0000E+00  0.0000E+00  0.1080E+00  0.1080E+00
     -1.190  0.0000E+00  0.0000E+00  0.1080E+00  0.1080E+00
     -1.153  0.0000E+00  0.0000E+00  0.1090E+00  0.1090E+00
     -1.116  0.0000E+00  0.0000E+00  0.1090E+00  0.1090E+00
     -1.079  0.0000E+00  0.0000E+00  0.1090E+00  0.1090E+00
     -1.042  0.0000E+00  0.0000E+00  0.1090E+00  0.1090E+00
     -1.005  0.0000E+00  0.0000E+00  0.1100E+00  0.1100E+00
     -0.968  0.0000E+00  0.0000E+00  0.1100E+00  0.1100E+00
     -0.932  0.0000E+00  0.0000E+00  0.1110E+00  0.1110E+00
     -0.895  0.0000E+00  0.0000E+00  0.1110E+00  0.1110E+00
     -0.858  0.0000E+00  0.0000E+00  0.1110E+00  0.1110E+00
     -0.821  0.0000E+00  0.0000E+00  0.1110E+00  0.1110E+00
     -0.784  0.0000E+00  0.0000E+00  0.1120E+00  0.1120E+00
     -0.747  0.0000E+00  0.0000E+00  0.1120E+00  0.1120E+00
     -0.710  0.0000E+00  0.0000E+00  0.1120E+00  0.1120E+00
     -0.673  0.0000E+00  0.0000E+00  0.1120E+00  0.1120E+00
     -0.636  0.0000E+00  0.0000E+00  0.1120E+00  0.1120E+00
     -0.599  0.0000E+00  0.0000E+00  0.1130E+00  0.1130E+00
     -0.563  0.0000E+00  0.0000E+00  0.1130E+00  0.1130E+00
     -0.526  0.1141E-06  0.7858E-07  0.1130E+00  0.1130E+00
     -0.489  0.0000E+00  0.0000E+00  0.1140E+00  0.1140E+00
     -0.452  0.0000E+00  0.0000E+00  0.1140E+00  0.1140E+00
     -0.415  0.0000E+00  0.0000E+00  0.1150E+00  0.1150E+00
     -0.378  0.0000E+00  0.0000E+00  0.1150E+00  0.1150E+00
     -0.341  0.0000E+00  0.0000E+00  0.1150E+00  0.1150E+00
     -0.304  0.0000E+00  0.0000E+00  0.1150E+00  0.1150E+00
     -0.267  0.0000E+00  0.0000E+00  0.1150E+00  0.1150E+00
     -0.230  0.0000E+00  0.0000E+00  0.1150E+00  0.1150E+00
     -0.194  0.0000E+00  0.0000E+00  0.1160E+00  0.1160E+00
     -0.157  0.0000E+00  0.0000E+00  0.1160E+00  0.1160E+00
     -0.120  0.0000E+00  0.0000E+00  0.1160E+00  0.1160E+00
     -0.083  0.0000E+00  0.0000E+00  0.1160E+00  0.1160E+00
     -0.046  0.0000E+00  0.0000E+00  0.1160E+00  0.1160E+00
     -0.009  0.0000E+00  0.0000E+00  0.1170E+00  0.1170E+00
      0.028  0.0000E+00  0.0000E+00  0.1170E+00  0.1170E+00
      0.065  0.0000E+00  0.0000E+00  0.1180E+00  0.1180E+00
      0.102  0.0000E+00  0.0000E+00  0.1180E+00  0.1180E+00
      0.139  0.0000E+00  0.0000E+00  0.1190E+00  0.1190E+00
      0.175  0.0000E+00  0.0000E+00  0.1190E+00  0.1190E+00
      0.212  0.0000E+00  0.0000E+00  0.1190E+00  0.1190E+00
      0.249  0.0000E+00  0.0000E+00  0.1200E+00  0.1200E+00
      0.286  0.0000E+00  0.0000E+00  0.1200E+00  0.1200E+00
      0.323  0.0000E+00  0.0000E+00  0.1200E+00  0.1200E+00
      0.360  0.0000E+00  0.0000E+00  0.1200E+00  0.1200E+00
      0.397  0.0000E+00  0.0000E+00  0.1200E+00  0.1200E+00
      0.434  0.0000E+00  0.0000E+00  0.1200E+00  0.1200E+00
      0.471  0.0000E+00  0.0000E+00  0.1210E+00  0.1210E+00
      0.508  0.0000E+00  0.0000E+00  0.1210E+00  0.1210E+00
      0.544  0.0000E+00  0.0000E+00  0.1220E+00  0.1220E+00
      0.581  0.0000E+00  0.0000E+00  0.1220E+00  0.1220E+00
      0.618  0.1414E-01  0.2571E-01  0.1225E+00  0.1229E+00
      0.655  0.0000E+00  0.0000E+00  0.1230E+00  0.1230E+00
      0.692  0.0000E+00  0.0000E+00  0.1230E+00  0.1230E+00
      0.729  0.0000E+00  0.0000E+00  0.1240E+00  0.1240E+00
      0.766  0.3009E-17  0.4366E-08  0.1240E+00  0.1240E+00
      0.803  0.0000E+00  0.0000E+00  0.1260E+00  0.1260E+00
      0.840  0.0000E+00  0.0000E+00  0.1270E+00  0.1270E+00
      0.877  0.0000E+00  0.0000E+00  0.1280E+00  0.1280E+00
      0.913  0.0000E+00  0.0000E+00  0.1280E+00  0.1280E+00
      0.950  0.0000E+00  0.0000E+00  0.1280E+00  0.1280E+00
      0.987  0.0000E+00  0.0000E+00  0.1280E+00  0.1280E+00
      1.024  0.0000E+00  0.0000E+00  0.1280E+00  0.1280E+00
      1.061  0.0000E+00  0.0000E+00  0.1280E+00  0.1280E+00
      1.098  0.0000E+00  0.0000E+00  0.1280E+00  0.1280E+00
      1.135  0.0000E+00  0.0000E+00  0.1280E+00  0.1280E+00
      1.172  0.0000E+00  0.0000E+00  0.1280E+00  0.1280E+00
      1.209  0.0000E+00  0.0000E+00  0.1280E+00  0.1280E+00
      1.246  0.0000E+00  0.0000E+00  0.1280E+00  0.1280E+00
      1.282  0.0000E+00  0.0000E+00  0.1280E+00  0.1280E+00
      1.319  0.0000E+00  0.0000E+00  0.1280E+00  0.1280E+00
      1.356  0.0000E+00  0.0000E+00  0.1280E+00  0.1280E+00
