 vasp.5.3.5 31Mar14 (build Feb 01 2018 12:10:03) gamma-only                     
  
 executed on             LinuxIFC date 2019.03.23  01:54:15
 running on   64 total cores
 distrk:  each k-point on   64 cores,    1 groups
 distr:  one band on NCORES_PER_BAND=  16 cores,    4 groups


--------------------------------------------------------------------------------------------------------


 INCAR:
 POTCAR:    PAW_PBE Ag 02Apr2005                  
 POTCAR:    PAW_PBE Ag 02Apr2005                  
   VRHFIN =Ag : s1 d10                                                          
   LEXCH  = PE                                                                  
   EATOM  =  1037.2675 eV,   76.2370 Ry                                         
                                                                                
   TITEL  = PAW_PBE Ag 02Apr2005                                                
   LULTRA =        F    use ultrasoft PP ?                                      
   IUNSCR =        1    unscreen: 0-lin 1-nonlin 2-no                           
   RPACOR =    2.000    partial core radius                                     
   POMASS =  107.868; ZVAL   =   11.000    mass and valenz                      
   RCORE  =    2.500    outmost cutoff radius                                   
   RWIGS  =    2.840; RWIGS  =    1.503    wigner-seitz radius (au A)           
   ENMAX  =  249.844; ENMIN  =  187.383 eV                                      
   ICORE  =        3    local potential                                         
   LCOR   =        T    correct aug charges                                     
   LPAW   =        T    paw PP                                                  
   EAUG   =  412.496                                                            
   DEXC   =    0.000                                                            
   RMAX   =    2.560    core radius for proj-oper                               
   RAUG   =    1.300    factor for augmentation sphere                          
   RDEP   =    2.576    radius for radial grids                                 
   RDEPT  =    2.072    core radius for aug-charge                              
                                                                                
   Atomic configuration                                                         
   12 entries                                                                   
     n  l   j            E        occ.                                          
     1  0  0.50    -25324.9161   2.0000                                         
     2  0  0.50     -3728.5341   2.0000                                         
     2  1  1.50     -3344.0404   6.0000                                         
     3  0  0.50      -683.5581   2.0000                                         
     3  1  1.50      -557.3225   6.0000                                         
     3  2  2.50      -358.3853  10.0000                                         
     4  0  0.50       -95.0341   2.0000                                         
     4  1  1.50       -58.5511   6.0000                                         
     4  2  2.50        -7.4440  10.0000                                         
     5  0  0.50        -4.4045   1.0000                                         
     5  1  0.50        -1.3606   0.0000                                         
     4  3  2.50        -1.3606   0.0000                                         
   Description                                                                  
     l       E           TYP  RCUT    TYP  RCUT                                 
     2     -7.4439781     23  2.400                                             
     2     -8.8045607     23  2.400                                             
     0     -4.4044681     23  2.400                                             
     0      1.9520038     23  2.400                                             
     1     -1.3605826     23  2.500                                             
     1     27.2116520     23  2.500                                             
     3     -4.0817478     23  2.400                                             
  local pseudopotential read in
  partial core-charges read in
  partial kinetic energy density read in
  atomic valenz-charges read in
  non local Contribution for L=           2  read in
    real space projection operators read in
  non local Contribution for L=           2  read in
    real space projection operators read in
  non local Contribution for L=           0  read in
    real space projection operators read in
  non local Contribution for L=           0  read in
    real space projection operators read in
  non local Contribution for L=           1  read in
    real space projection operators read in
  non local Contribution for L=           1  read in
    real space projection operators read in
    PAW grid and wavefunctions read in
 
   number of l-projection  operators is LMAX  =           6
   number of lm-projection operators is LMMAX =          18
 

 ----------------------------------------------------------------------------- 
|                                                                             |
|  ADVICE TO THIS USER RUNNING 'VASP/VAMP'   (HEAR YOUR MASTER'S VOICE ...):  |
|                                                                             |
|      You have a (more or less) 'large supercell' and for larger cells       |
|      it might be more efficient to use real space projection opertators     |
|      So try LREAL= Auto  in the INCAR   file.                               |
|      Mind: At the moment your POTCAR file does not contain real space       |
|       projectors, and has to be modified,  BUT if you                       |
|      want to do an extremely  accurate calculation you might also keep the  |
|      reciprocal projection scheme          (i.e. LREAL=.FALSE.)             |
|                                                                             |
 ----------------------------------------------------------------------------- 

  PAW_PBE Ag 02Apr2005                  :
 energy of atom  1       EATOM=-1037.2675
 kinetic energy error for atom=    0.0689 (will be added to EATOM!!)
 
 
 POSCAR: Al35, -109.99849858 <s> Ag </s>         
  positions in direct lattice
  No initial velocities read in
 exchange correlation table for  LEXCH =        8
   RHO(1)=    0.500       N(1)  =     2000
   RHO(2)=  100.500       N(2)  =     4000
 


--------------------------------------------------------------------------------------------------------


 ion  position               nearest neighbor table
   1  0.631  0.448  0.454-   2 2.76  15 2.76  10 2.80  13 2.85   5 2.86  14 2.86   4 2.88   7 2.92
                             6 3.18
   2  0.656  0.501  0.345-   1 2.76   4 2.77   3 2.77   6 2.84   7 2.86
   3  0.585  0.602  0.362-   2 2.77   8 2.78  12 2.78   6 2.78  14 2.83   9 3.07   7 3.08
   4  0.605  0.387  0.343-   2 2.77  10 2.78   6 2.84  11 2.84   1 2.88
   5  0.655  0.516  0.561-  18 2.74  20 2.78   7 2.79   1 2.86  21 2.91  14 2.98  15 3.00
   6  0.530  0.489  0.362-  12 2.73  11 2.76   3 2.78  16 2.79   2 2.84   4 2.84  13 2.88  14 2.94
                             1 3.18
   7  0.686  0.567  0.451-   5 2.79   9 2.81   2 2.86   1 2.92  14 2.94   3 3.08
   8  0.520  0.702  0.400-  26 2.76  22 2.76   3 2.78  12 2.83   9 2.85
   9  0.617  0.670  0.479-  20 2.78   7 2.81   8 2.85  22 2.90  14 2.95   3 3.07
  10  0.578  0.333  0.453-  19 2.77  15 2.78   4 2.78   1 2.80  13 2.84  11 3.05
  11  0.479  0.376  0.367-  17 2.75   6 2.76  16 2.78   4 2.84  13 2.85  10 3.05
  12  0.463  0.589  0.389-   6 2.73  24 2.76   3 2.78  16 2.79   8 2.83  26 2.83  23 2.88  14 2.96
                            22 3.15
  13  0.505  0.436  0.478-  14 2.79  28 2.81  19 2.82  10 2.84   1 2.85  11 2.85   6 2.88  23 2.89
                            17 2.93  21 2.94  15 3.05  16 3.07
  14  0.557  0.551  0.476-  13 2.79  23 2.80   3 2.83  22 2.85   1 2.86  21 2.86   7 2.94   6 2.94
                             9 2.95  12 2.96  20 2.98   5 2.98
  15  0.604  0.390  0.562-  18 2.70   1 2.76  10 2.78  25 2.81   5 3.00  21 3.04  13 3.05  19 3.08

  16  0.408  0.476  0.388-  24 2.77  11 2.78   6 2.79  12 2.79  27 2.86  17 2.86  23 3.06  13 3.07

  17  0.394  0.368  0.457-  11 2.75  19 2.82  16 2.86  27 2.87  28 2.88  13 2.93
  18  0.623  0.454  0.664-  15 2.70   5 2.74  29 2.75  31 2.80  21 2.86  25 3.01  30 3.26
  19  0.485  0.325  0.535-  10 2.77  25 2.80  13 2.82  17 2.82  28 2.91  15 3.08
  20  0.587  0.618  0.589-  30 2.74   5 2.78   9 2.78  22 2.85  21 2.91  14 2.98  32 3.01
  21  0.528  0.501  0.591-  25 2.81  34 2.81  18 2.86  30 2.86  14 2.86  20 2.91   5 2.91  23 2.93
                            13 2.94  28 2.95  32 3.04  15 3.04  31 3.50
  22  0.491  0.655  0.512-  32 2.75   8 2.76  33 2.80  23 2.82  14 2.85  20 2.85  26 2.88   9 2.90
                            12 3.15
  23  0.435  0.541  0.507-  14 2.80  28 2.81  35 2.82  22 2.82  24 2.85  33 2.86  12 2.88  13 2.89
                            27 2.93  21 2.93  32 3.06  16 3.06
  24  0.344  0.578  0.423-  27 2.75  12 2.76  16 2.77  26 2.84  23 2.85  33 3.05
  25  0.507  0.387  0.643-  31 2.75  19 2.80  28 2.80  21 2.81  15 2.81  18 3.01  34 3.07
  26  0.399  0.693  0.428-   8 2.76  33 2.78  12 2.83  24 2.84  22 2.88
  27  0.324  0.473  0.486-  24 2.75  35 2.82  16 2.86  17 2.87  28 2.88  23 2.93
  28  0.416  0.432  0.568-  25 2.80  23 2.81  34 2.81  13 2.81  17 2.88  27 2.88  19 2.91  35 2.91
                            21 2.95
  29  0.629  0.520  0.768-  31 2.74  30 2.75  18 2.75
  30  0.544  0.573  0.696-  32 2.70  20 2.74  29 2.75  31 2.80  21 2.86  34 3.02  18 3.26
  31  0.526  0.458  0.743-  29 2.74  34 2.75  25 2.75  30 2.80  18 2.80  21 3.50
  32  0.455  0.613  0.623-  30 2.70  22 2.75  33 2.77  34 2.81  20 3.01  21 3.04  23 3.06  35 3.08

  33  0.368  0.647  0.540-  35 2.77  32 2.77  26 2.78  22 2.80  23 2.86  24 3.05
  34  0.432  0.499  0.674-  31 2.75  35 2.79  21 2.81  32 2.81  28 2.81  30 3.02  25 3.07
  35  0.342  0.537  0.594-  33 2.77  34 2.79  23 2.82  27 2.82  28 2.91  32 3.08
 
  LATTYP: Found a simple cubic cell.
 ALAT       =    22.1870956345
  
  Lattice vectors:
  
 A1 = (  22.1870956345,   0.0000000000,   0.0000000000)
 A2 = (   0.0000000000,  22.1870956345,   0.0000000000)
 A3 = (   0.0000000000,   0.0000000000,  22.1870956345)


Analysis of symmetry for initial positions (statically):
=====================================================================
 Subroutine PRICEL returns:
 Original cell was already a primitive cell.
 

 Routine SETGRP: Setting up the symmetry group for a 
 simple cubic supercell.


 Subroutine GETGRP returns: Found  1 space group operations
 (whereof  1 operations were pure point group operations)
 out of a pool of 48 trial point group operations.


The static configuration has the point symmetry C_1 .


Analysis of symmetry for dynamics (positions and initial velocities):
=====================================================================
 Subroutine PRICEL returns:
 Original cell was already a primitive cell.
 

 Routine SETGRP: Setting up the symmetry group for a 
 simple cubic supercell.


 Subroutine GETGRP returns: Found  1 space group operations
 (whereof  1 operations were pure point group operations)
 out of a pool of 48 trial point group operations.


The dynamic configuration has the point symmetry C_1 .


Analysis of magnetic symmetry:
=====================================================================
 Subroutine PRICEL returns:
 Original cell was already a primitive cell.
 

 Subroutine MAGSYM returns: Found  1 space group operations
 (whereof  1 operations were pure point group operations)
 out of a pool of  1 trial space group operations
 (whereof  1 operations were pure point group operations)
 and found also     1 'primitive' translations


The magnetic configuration has the point symmetry C_1 .
 
 
 KPOINTS: Gamma-point only                        
  k-points in reciprocal lattice
Space group operators:
 irot       det(A)        alpha          n_x          n_y          n_z        tau_x        tau_y        tau_z
    1     1.000000     0.000000     1.000000     0.000000     0.000000     0.000000     0.000000     0.000000


--------------------------------------------------------------------------------------------------------




 Dimension of arrays:
   k-points           NKPTS =      1   k-points in BZ     NKDIM =      1   number of bands    NBANDS=    252
   number of dos      NEDOS =    301   number of ions     NIONS =     35
   non local maximal  LDIM  =      6   non local SUM 2l+1 LMDIM =     18
   total plane-waves  NPLWV = 729000
   max r-space proj   IRMAX =      1   max aug-charges    IRDMAX=   3481
   dimension x,y,z NGX =    90 NGY =   90 NGZ =   90
   dimension x,y,z NGXF=   180 NGYF=  180 NGZF=  180
   support grid    NGXF=   180 NGYF=  180 NGZF=  180
   ions per type =              35
 NGX,Y,Z   is equivalent  to a cutoff of   6.74,  6.74,  6.74 a.u.
 NGXF,Y,Z  is equivalent  to a cutoff of  13.49, 13.49, 13.49 a.u.


 I would recommend the setting:
   dimension x,y,z NGX =    86 NGY =   86 NGZ =   86
 SYSTEM =  unknown system                          
 POSCAR =  Al35, -109.99849858 <s> Ag </s>         

 Startparameter for this run:
   NWRITE =      2    write-flag & timer
   PREC   = normal    normal or accurate (medium, high low for compatibility)
   ISTART =      0    job   : 0-new  1-cont  2-samecut
   ICHARG =      2    charge: 1-file 2-atom 10-const
   ISPIN  =      2    spin polarized calculation?
   LNONCOLLINEAR =      F non collinear calculations
   LSORBIT =      F    spin-orbit coupling
   INIWAV =      1    electr: 0-lowe 1-rand  2-diag
   LASPH  =      F    aspherical Exc in radial PAW
   METAGGA=      F    non-selfconsistent MetaGGA calc.

 Electronic Relaxation 1
   ENCUT  =  249.8 eV  18.36 Ry    4.29 a.u.  28.60 28.60 28.60*2*pi/ulx,y,z
   ENINI  =  249.8     initial cutoff
   ENAUG  =  412.5 eV  augmentation charge cutoff
   NELM   =     60;   NELMIN=  2; NELMDL= -5     # of ELM steps 
   EDIFF  = 0.1E-03   stopping-criterion for ELM
   LREAL  =      F    real-space projection
   NLSPLINE    = F    spline interpolate recip. space projectors
   LCOMPAT=      F    compatible to vasp.4.4
   GGA_COMPAT  = T    GGA compatible to vasp.4.4-vasp.4.6
   LMAXPAW     = -100 max onsite density
   LMAXMIX     =    2 max onsite mixed and CHGCAR
   VOSKOWN=      0    Vosko Wilk Nusair interpolation
   ROPT   =    0.00000
 Ionic relaxation
   EDIFFG = 0.1E-02   stopping-criterion for IOM
   NSW    =   1000    number of steps for IOM
   NBLOCK =      1;   KBLOCK =   1000    inner block; outer block 
   IBRION =      2    ionic relax: 0-MD 1-quasi-New 2-CG
   NFREE  =      1    steps in history (QN), initial steepest desc. (CG)
   ISIF   =      2    stress and relaxation
   IWAVPR =     11    prediction:  0-non 1-charg 2-wave 3-comb
   ISYM   =      2    0-nonsym 1-usesym 2-fastsym
   LCORR  =      T    Harris-Foulkes like correction to forces

   POTIM  = 0.1000    time-step for ionic-motion
   TEIN   =    0.0    initial temperature
   TEBEG  =    0.0;   TEEND  =   0.0 temperature during run
   SMASS  =  -3.00    Nose mass-parameter (am)
   estimated Nose-frequenzy (Omega)   =  0.10E-29 period in steps =****** mass=  -0.112E-25a.u.
   SCALEE = 1.0000    scale energy and forces
   NPACO  =    256;   APACO  = 16.0  distance and # of slots for P.C.
   PSTRESS=    0.0 pullay stress

  Mass of Ions in am
   POMASS = 107.87
  Ionic Valenz
   ZVAL   =  11.00
  Atomic Wigner-Seitz radii
   RWIGS  =  -1.00
  virtual crystal weights 
   VCA    =   1.00
   NELECT =     385.0000    total number of electrons
   NUPDOWN=      -1.0000    fix difference up-down

 DOS related values:
   EMIN   =  10.00;   EMAX   =-10.00  energy-range for DOS
   EFERMI =   0.00
   ISMEAR =     0;   SIGMA  =   0.00  broadening in eV -4-tet -1-fermi 0-gaus

 Electronic relaxation 2 (details)
   IALGO  =     38    algorithm
   LDIAG  =      T    sub-space diagonalisation (order eigenvalues)
   LSUBROT=      F    optimize rotation matrix (better conditioning)
   TURBO    =      0    0=normal 1=particle mesh
   IRESTART =      0    0=no restart 2=restart with 2 vectors
   NREBOOT  =      0    no. of reboots
   NMIN     =      0    reboot dimension
   EREF     =   0.00    reference energy to select bands
   IMIX   =      4    mixing-type and parameters
     AMIX     =   0.40;   BMIX     =  1.00
     AMIX_MAG =   1.60;   BMIX_MAG =  1.00
     AMIN     =   0.10
     WC   =   100.;   INIMIX=   1;  MIXPRE=   1;  MAXMIX= -45

 Intra band minimization:
   WEIMIN = 0.0010     energy-eigenvalue tresh-hold
   EBREAK =  0.99E-07  absolut break condition
   DEPER  =   0.30     relativ break condition  

   TIME   =   0.40     timestep for ELM

  volume/ion in A,a.u.               =     312.06      2105.86
  Fermi-wavevector in a.u.,A,eV,Ry     =   0.536778  1.014363  3.920253  0.288131
  Thomas-Fermi vector in A             =   1.562252
 
 Write flags
   LWAVE  =      F    write WAVECAR
   LCHARG =      F    write CHGCAR
   LVTOT  =      F    write LOCPOT, total local potential
   LVHAR  =      F    write LOCPOT, Hartree potential only
   LELF   =      F    write electronic localiz. function (ELF)
   LORBIT =      0    0 simple, 1 ext, 2 COOP (PROOUT)


 Dipole corrections
   LMONO  =      F    monopole corrections only (constant potential shift)
   LDIPOL =      F    correct potential (dipole corrections)
   IDIPOL =      0    1-x, 2-y, 3-z, 4-all directions 
   EPSILON=  1.0000000 bulk dielectric constant

 Exchange correlation treatment:
   GGA     =    PE    GGA type
   LEXCH   =     8    internal setting for exchange type
   VOSKOWN=      0    Vosko Wilk Nusair interpolation
   LHFCALC =     F    Hartree Fock is set to
   LHFONE  =     F    Hartree Fock one center treatment
   AEXX    =    0.0000 exact exchange contribution

 Linear response parameters
   LEPSILON=     F    determine dielectric tensor
   LRPA    =     F    only Hartree local field effects (RPA)
   LNABLA  =     F    use nabla operator in PAW spheres
   LVEL    =     F    velocity operator in full k-point grid
   LINTERFAST=   F  fast interpolation
   KINTER  =     0    interpolate to denser k-point grid
   CSHIFT  =0.1000    complex shift for real part using Kramers Kronig
   OMEGAMAX=  -1.0    maximum frequency
   DEG_THRESHOLD= 0.2000000E-02 threshold for treating states as degnerate
   RTIME   =    0.100 relaxation time in fs

 Orbital magnetization related:
   ORBITALMAG=     F  switch on orbital magnetization
   LCHIMAG   =     F  perturbation theory with respect to B field
   DQ        =  0.001000  dq finite difference perturbation B field



--------------------------------------------------------------------------------------------------------


 conjugate gradient relaxation of ions
 charge density and potential will be updated during run
 spin polarized calculation
 Variant of blocked Davidson
 Davidson routine will perform the subspace rotation
 perform sub-space diagonalisation
    after iterative eigenvector-optimisation
 modified Broyden-mixing scheme, WC =      100.0
 initial mixing is a Kerker type mixing with AMIX =  0.4000 and BMIX =      1.0000
 Hartree-type preconditioning will be used
 using additional bands           59
 reciprocal scheme for non local part
 use partial core corrections
 calculate Harris-corrections to forces 
   (improved forces if not selfconsistent)
 use gradient corrections 
 use of overlap-Matrix (Vanderbilt PP)
 Gauss-broadening in eV      SIGMA  =   0.00


--------------------------------------------------------------------------------------------------------


  energy-cutoff  :      249.84
  volume of cell :    10921.98
      direct lattice vectors                 reciprocal lattice vectors
    22.187095634  0.000000000  0.000000000     0.045071244  0.000000000  0.000000000
     0.000000000 22.187095634  0.000000000     0.000000000  0.045071244  0.000000000
     0.000000000  0.000000000 22.187095634     0.000000000  0.000000000  0.045071244

  length of vectors
    22.187095634 22.187095634 22.187095634     0.045071244  0.045071244  0.045071244


 
 k-points in units of 2pi/SCALE and weight: Gamma-point only                        
   0.00000000  0.00000000  0.00000000       1.000
 
 k-points in reciprocal lattice and weights: Gamma-point only                        
   0.00000000  0.00000000  0.00000000       1.000
 
 position of ions in fractional coordinates (direct lattice) 
   0.63101306  0.44796536  0.45444515
   0.65601960  0.50080343  0.34471082
   0.58474032  0.60199607  0.36225816
   0.60456059  0.38701667  0.34310003
   0.65467005  0.51604922  0.56106348
   0.52985379  0.48916156  0.36171899
   0.68604630  0.56742169  0.45076263
   0.52036304  0.70247200  0.40002221
   0.61653043  0.66975708  0.47853783
   0.57813467  0.33338540  0.45317297
   0.47937112  0.37564925  0.36722135
   0.46301107  0.58893520  0.38934161
   0.50538489  0.43601635  0.47767322
   0.55681930  0.55098147  0.47600038
   0.60419497  0.39046731  0.56152150
   0.40783019  0.47608602  0.38819449
   0.39417449  0.36806493  0.45702872
   0.62348519  0.45425527  0.66357308
   0.48466542  0.32499564  0.53549106
   0.58669619  0.61753818  0.58866680
   0.52778767  0.50054523  0.59100696
   0.49098438  0.65532648  0.51152131
   0.43458916  0.54136161  0.50664165
   0.34403414  0.57764039  0.42324023
   0.50721778  0.38715851  0.64302562
   0.39933454  0.69291957  0.42750251
   0.32390013  0.47274837  0.48579603
   0.41623254  0.43211851  0.56765854
   0.62943972  0.52034573  0.76811103
   0.54410156  0.57346309  0.69595664
   0.52579523  0.45805095  0.74302949
   0.45543286  0.61276508  0.62256584
   0.36846968  0.64671846  0.53960876
   0.43205119  0.49942535  0.67365255
   0.34239405  0.53746666  0.59385214
 
 position of ions in cartesian coordinates  (Angst):
  14.00034718  9.93905032 10.08281791
  14.55516953 11.11137364  7.64813185
  12.97368942 13.35654437  8.03745638
  13.41344365  8.58677596  7.61239314
  14.52522711 11.44963347 12.44836916
  11.75591670 10.85307442  8.02549372
  15.22137483 12.58943935 10.00111369
  11.54534448 15.58581347  8.87533107
  13.67901951 14.85996440 10.61736471
  12.82712916  7.39685374 10.05459206
  10.63585297  8.33456589  8.14757526
  10.27287092 13.06676164  8.63835945
  11.21302289  9.67393636 10.59818134
  12.35420314 12.22467859 10.56106593
  13.40533167  8.66333545 12.45853127
   9.04856734 10.56296596  8.61290832
   8.74558710  8.16629190 10.14013997
  13.83332562 10.07860504 14.72275932
  10.75331801  7.21070927 11.88099143
  13.01708444 13.70137864 13.06080662
  11.71007551 11.10564479 13.11272788
  10.89351750 14.53979136 11.34917231
   9.64227129 12.01124182 11.24090681
   7.63311837 12.81616262  9.39047149
  11.25368934  8.58992299 14.26687093
   8.86007360 15.37387277  9.48503904
   7.18640321 10.48891332 10.77840299
   9.23499124  9.58745473 12.59469427
  13.96543922 11.54496049 17.04215293
  12.07203332 12.72348037 15.44125655
  11.66586900 10.16282013 16.48566627
  10.10473244 13.59547749 13.81292778
   8.17527201 14.34880426 11.97235126
   9.58596118 11.08079799 14.94639349
   7.59672947 11.92482428 13.17585418
 


--------------------------------------------------------------------------------------------------------


 use parallel FFT for wavefunctions z direction half grid
 k-point  1 :   0.0000 0.0000 0.0000  plane waves:   48857

 maximum and minimum number of plane-waves per node :      3058     3050

 maximum number of plane-waves:     48857
 maximum index in each direction: 
   IXMAX=   28   IYMAX=   28   IZMAX=   28
   IXMIN=  -28   IYMIN=  -28   IZMIN=    0

 WARNING: aliasing errors must be expected set NGX to 114 to avoid them
 WARNING: aliasing errors must be expected set NGY to 114 to avoid them
 WARNING: aliasing errors must be expected set NGZ to 114 to avoid them
 aliasing errors are usually negligible using standard VASP settings
 and one can safely disregard these warnings

 parallel 3D FFT for wavefunctions:
    minimum data exchange during FFTs selected (reduces bandwidth)
 parallel 3D FFT for charge:
    minimum data exchange during FFTs selected (reduces bandwidth)


 total amount of memory used by VASP on root node    53721. kBytes
========================================================================

   base      :      30000. kBytes
   nonl-proj :       2154. kBytes
   fftplans  :       4332. kBytes
   grid      :      10964. kBytes
   one-center:         46. kBytes
   wavefun   :       6225. kBytes
 
     INWAV:  cpu time    0.00: real time    0.00
 Broyden mixing: mesh for mixing (old mesh)
   NGX = 57   NGY = 57   NGZ = 57
  (NGX  =180   NGY  =180   NGZ  =180)
  gives a total of 185193 points

 initial charge density was supplied:
 charge density of overlapping atoms calculated
 number of electron     385.0000000 magnetization      35.0000000
 keeping initial charge density in first step


--------------------------------------------------------------------------------------------------------


 Maximum index for augmentation-charges          248 (set IRDMAX)


--------------------------------------------------------------------------------------------------------


 First call to EWALD:  gamma=   0.080
 Maximum number of real-space cells 3x 3x 3
 Maximum number of reciprocal cells 3x 3x 3

 FEWALD executed in parallel
    FEWALD:  cpu time    0.00: real time    0.00


----------------------------------------- Iteration    1(   1)  ---------------------------------------


    POTLOK:  cpu time    0.22: real time    0.22
    SETDIJ:  cpu time    0.01: real time    0.01
     EDDAV:  cpu time    3.08: real time    3.09
       DOS:  cpu time    0.00: real time    0.00
    --------------------------------------------
      LOOP:  cpu time    3.31: real time    3.34

 eigenvalue-minimisations  :  1032
 total energy-change (2. order) : 0.3272780E+04  (-0.7499493E+04)
 number of electron     385.0000000 magnetization      35.0000000
 augmentation part      385.0000000 magnetization      35.0000000

 Free energy of the ion-electron system (eV)
  ---------------------------------------------------
  alpha Z        PSCENC =        95.40011616
  Ewald energy   TEWEN  =     86655.07816497
  -Hartree energ DENC   =   -121505.83459909
  -exchange      EXHF   =         0.00000000
  -V(xc)+E(xc)   XCENC  =      -382.14174208
  PAW double counting   =     35118.02623244   -33504.26131076
  entropy T*S    EENTRO =         0.00000000
  eigenvalues    EBANDS =       494.56096256
  atomic energy  EATOM  =     36301.95205302
  ---------------------------------------------------
  free energy    TOTEN  =      3272.77987721 eV

  energy without entropy =     3272.77987721  energy(sigma->0) =     3272.77987721


--------------------------------------------------------------------------------------------------------




----------------------------------------- Iteration    1(   2)  ---------------------------------------


     EDDAV:  cpu time    4.56: real time    4.56
       DOS:  cpu time    0.00: real time    0.00
    --------------------------------------------
      LOOP:  cpu time    4.56: real time    6.19

 eigenvalue-minimisations  :  1688
 total energy-change (2. order) :-0.2668552E+04  (-0.2396620E+04)
 number of electron     385.0000000 magnetization      35.0000000
 augmentation part      385.0000000 magnetization      35.0000000

 Free energy of the ion-electron system (eV)
  ---------------------------------------------------
  alpha Z        PSCENC =        95.40011616
  Ewald energy   TEWEN  =     86655.07816497
  -Hartree energ DENC   =   -121505.83459909
  -exchange      EXHF   =         0.00000000
  -V(xc)+E(xc)   XCENC  =      -382.14174208
  PAW double counting   =     35118.02623244   -33504.26131076
  entropy T*S    EENTRO =         0.00000000
  eigenvalues    EBANDS =     -2173.99118431
  atomic energy  EATOM  =     36301.95205302
  ---------------------------------------------------
  free energy    TOTEN  =       604.22773034 eV

  energy without entropy =      604.22773034  energy(sigma->0) =      604.22773034


--------------------------------------------------------------------------------------------------------




----------------------------------------- Iteration    1(   3)  ---------------------------------------


     EDDAV:  cpu time    3.67: real time    3.67
       DOS:  cpu time    0.00: real time    0.00
    --------------------------------------------
      LOOP:  cpu time    3.68: real time    4.30

 eigenvalue-minimisations  :  1296
 total energy-change (2. order) :-0.6512879E+03  (-0.5969218E+03)
 number of electron     385.0000000 magnetization      35.0000000
 augmentation part      385.0000000 magnetization      35.0000000

 Free energy of the ion-electron system (eV)
  ---------------------------------------------------
  alpha Z        PSCENC =        95.40011616
  Ewald energy   TEWEN  =     86655.07816497
  -Hartree energ DENC   =   -121505.83459909
  -exchange      EXHF   =         0.00000000
  -V(xc)+E(xc)   XCENC  =      -382.14174208
  PAW double counting   =     35118.02623244   -33504.26131076
  entropy T*S    EENTRO =         0.00000000
  eigenvalues    EBANDS =     -2825.27910253
  atomic energy  EATOM  =     36301.95205302
  ---------------------------------------------------
  free energy    TOTEN  =       -47.06018787 eV

  energy without entropy =      -47.06018787  energy(sigma->0) =      -47.06018787


--------------------------------------------------------------------------------------------------------




----------------------------------------- Iteration    1(   4)  ---------------------------------------


     EDDAV:  cpu time    3.18: real time    3.19
       DOS:  cpu time    0.00: real time    0.00
    --------------------------------------------
      LOOP:  cpu time    3.18: real time    3.73

 eigenvalue-minimisations  :  1080
 total energy-change (2. order) :-0.2749229E+02  (-0.2726082E+02)
 number of electron     385.0000000 magnetization      35.0000000
 augmentation part      385.0000000 magnetization      35.0000000

 Free energy of the ion-electron system (eV)
  ---------------------------------------------------
  alpha Z        PSCENC =        95.40011616
  Ewald energy   TEWEN  =     86655.07816497
  -Hartree energ DENC   =   -121505.83459909
  -exchange      EXHF   =         0.00000000
  -V(xc)+E(xc)   XCENC  =      -382.14174208
  PAW double counting   =     35118.02623244   -33504.26131076
  entropy T*S    EENTRO =         0.00000000
  eigenvalues    EBANDS =     -2852.77139203
  atomic energy  EATOM  =     36301.95205302
  ---------------------------------------------------
  free energy    TOTEN  =       -74.55247737 eV

  energy without entropy =      -74.55247737  energy(sigma->0) =      -74.55247737


--------------------------------------------------------------------------------------------------------




----------------------------------------- Iteration    1(   5)  ---------------------------------------


     EDDAV:  cpu time    3.34: real time    3.34
       DOS:  cpu time    0.00: real time    0.00
    CHARGE:  cpu time    0.10: real time    0.11
    MIXING:  cpu time    0.00: real time    0.01
    --------------------------------------------
      LOOP:  cpu time    3.45: real time    3.78

 eigenvalue-minimisations  :  1144
 total energy-change (2. order) :-0.3934572E+00  (-0.3930347E+00)
 number of electron     385.0000726 magnetization      30.9611781
 augmentation part      180.6470103 magnetization      30.7179874

 Broyden mixing:
  rms(total) = 0.34380E+01    rms(broyden)= 0.34375E+01
  rms(prec ) = 0.34946E+01
  weight for this iteration     100.00

 Free energy of the ion-electron system (eV)
  ---------------------------------------------------
  alpha Z        PSCENC =        95.40011616
  Ewald energy   TEWEN  =     86655.07816497
  -Hartree energ DENC   =   -121505.83459909
  -exchange      EXHF   =         0.00000000
  -V(xc)+E(xc)   XCENC  =      -382.14174208
  PAW double counting   =     35118.02623244   -33504.26131076
  entropy T*S    EENTRO =         0.00000000
  eigenvalues    EBANDS =     -2853.16484926
  atomic energy  EATOM  =     36301.95205302
  ---------------------------------------------------
  free energy    TOTEN  =       -74.94593460 eV

  energy without entropy =      -74.94593460  energy(sigma->0) =      -74.94593460


--------------------------------------------------------------------------------------------------------




----------------------------------------- Iteration    1(   6)  ---------------------------------------


    POTLOK:  cpu time    0.22: real time    0.22
    SETDIJ:  cpu time    0.01: real time    0.01
     EDDAV:  cpu time    3.03: real time    3.04
       DOS:  cpu time    0.00: real time    0.00
    CHARGE:  cpu time    0.10: real time    0.10
    MIXING:  cpu time    0.00: real time    0.00
    --------------------------------------------
      LOOP:  cpu time    3.37: real time    3.38

 eigenvalue-minimisations  :  1012
 total energy-change (2. order) : 0.4629153E+02  (-0.1406009E+02)
 number of electron     385.0000743 magnetization      28.0853601
 augmentation part      184.9635421 magnetization      20.4216531

 Broyden mixing:
  rms(total) = 0.18764E+01    rms(broyden)= 0.18763E+01
  rms(prec ) = 0.19021E+01
  weight for this iteration     100.00

 eigenvalues of (default mixing * dielectric matrix)
  average eigenvalue GAMMA=   0.8525
  0.8525

 Free energy of the ion-electron system (eV)
  ---------------------------------------------------
  alpha Z        PSCENC =        95.40011616
  Ewald energy   TEWEN  =     86655.07816497
  -Hartree energ DENC   =   -121358.57823757
  -exchange      EXHF   =         0.00000000
  -V(xc)+E(xc)   XCENC  =      -361.12323106
  PAW double counting   =     36311.23707666   -34723.65928108
  entropy T*S    EENTRO =         0.00000000
  eigenvalues    EBANDS =     -2948.96106264
  atomic energy  EATOM  =     36301.95205302
  ---------------------------------------------------
  free energy    TOTEN  =       -28.65440153 eV

  energy without entropy =      -28.65440153  energy(sigma->0) =      -28.65440153


--------------------------------------------------------------------------------------------------------




----------------------------------------- Iteration    1(   7)  ---------------------------------------


    POTLOK:  cpu time    0.21: real time    0.21
    SETDIJ:  cpu time    0.01: real time    0.01
     EDDAV:  cpu time    3.18: real time    3.18
       DOS:  cpu time    0.00: real time    0.00
    CHARGE:  cpu time    0.10: real time    0.10
    MIXING:  cpu time    0.00: real time    0.00
    --------------------------------------------
      LOOP:  cpu time    3.51: real time    3.52

 eigenvalue-minimisations  :  1076
 total energy-change (2. order) : 0.9332902E+01  (-0.8683613E+00)
 number of electron     385.0000742 magnetization      23.5456367
 augmentation part      184.9304700 magnetization      16.2192766

 Broyden mixing:
  rms(total) = 0.11443E+01    rms(broyden)= 0.11443E+01
  rms(prec ) = 0.11575E+01
  weight for this iteration     100.00

 eigenvalues of (default mixing * dielectric matrix)
  average eigenvalue GAMMA=   1.0075
  0.7618  1.2533

 Free energy of the ion-electron system (eV)
  ---------------------------------------------------
  alpha Z        PSCENC =        95.40011616
  Ewald energy   TEWEN  =     86655.07816497
  -Hartree energ DENC   =   -121449.84936957
  -exchange      EXHF   =         0.00000000
  -V(xc)+E(xc)   XCENC  =      -353.32197931
  PAW double counting   =     37037.99969773   -35467.36810544
  entropy T*S    EENTRO =         0.00000000
  eigenvalues    EBANDS =     -2839.21207723
  atomic energy  EATOM  =     36301.95205302
  ---------------------------------------------------
  free energy    TOTEN  =       -19.32149967 eV

  energy without entropy =      -19.32149967  energy(sigma->0) =      -19.32149967


--------------------------------------------------------------------------------------------------------




----------------------------------------- Iteration    1(   8)  ---------------------------------------


    POTLOK:  cpu time    0.21: real time    0.21
    SETDIJ:  cpu time    0.01: real time    0.01
     EDDAV:  cpu time    3.15: real time    3.15
       DOS:  cpu time    0.00: real time    0.00
    CHARGE:  cpu time    0.10: real time    0.10
    MIXING:  cpu time    0.01: real time    0.00
    --------------------------------------------
      LOOP:  cpu time    3.48: real time    3.48

 eigenvalue-minimisations  :  1060
 total energy-change (2. order) :-0.6945152E+00  (-0.2449731E+00)
 number of electron     385.0000742 magnetization      20.3961893
 augmentation part      184.7106163 magnetization      13.3090948

 Broyden mixing:
  rms(total) = 0.64021E+00    rms(broyden)= 0.64020E+00
  rms(prec ) = 0.64391E+00
  weight for this iteration     100.00

 eigenvalues of (default mixing * dielectric matrix)
  average eigenvalue GAMMA=   1.2604
  2.2611  0.9044  0.6157

 Free energy of the ion-electron system (eV)
  ---------------------------------------------------
  alpha Z        PSCENC =        95.40011616
  Ewald energy   TEWEN  =     86655.07816497
  -Hartree energ DENC   =   -121557.00007131
  -exchange      EXHF   =         0.00000000
  -V(xc)+E(xc)   XCENC  =      -353.33180309
  PAW double counting   =     37908.33010323   -36355.79545367
  entropy T*S    EENTRO =        -0.00000000
  eigenvalues    EBANDS =     -2714.64912414
  atomic energy  EATOM  =     36301.95205302
  ---------------------------------------------------
  free energy    TOTEN  =       -20.01601484 eV

  energy without entropy =      -20.01601484  energy(sigma->0) =      -20.01601484


--------------------------------------------------------------------------------------------------------




----------------------------------------- Iteration    1(   9)  ---------------------------------------


    POTLOK:  cpu time    0.21: real time    0.21
    SETDIJ:  cpu time    0.01: real time    0.01
     EDDAV:  cpu time    3.24: real time    3.24
       DOS:  cpu time    0.00: real time    0.00
    CHARGE:  cpu time    0.10: real time    0.10
    MIXING:  cpu time    0.01: real time    0.00
    --------------------------------------------
      LOOP:  cpu time    3.57: real time    4.58

 eigenvalue-minimisations  :  1096
 total energy-change (2. order) :-0.4712524E+01  (-0.1081482E+00)
 number of electron     385.0000741 magnetization      16.9835659
 augmentation part      184.6321123 magnetization      10.1417881

 Broyden mixing:
  rms(total) = 0.40309E+00    rms(broyden)= 0.40309E+00
  rms(prec ) = 0.40685E+00
  weight for this iteration     100.00

 eigenvalues of (default mixing * dielectric matrix)
  average eigenvalue GAMMA=   1.2457
  2.2873  0.6165  0.8099  1.2688

 Free energy of the ion-electron system (eV)
  ---------------------------------------------------
  alpha Z        PSCENC =        95.40011616
  Ewald energy   TEWEN  =     86655.07816497
  -Hartree energ DENC   =   -121595.61299671
  -exchange      EXHF   =         0.00000000
  -V(xc)+E(xc)   XCENC  =      -356.44371701
  PAW double counting   =     38233.45682438   -36687.51039825
  entropy T*S    EENTRO =         0.00000000
  eigenvalues    EBANDS =     -2671.04858546
  atomic energy  EATOM  =     36301.95205302
  ---------------------------------------------------
  free energy    TOTEN  =       -24.72853889 eV

  energy without entropy =      -24.72853889  energy(sigma->0) =      -24.72853889


--------------------------------------------------------------------------------------------------------




----------------------------------------- Iteration    1(  10)  ---------------------------------------


    POTLOK:  cpu time    0.21: real time    0.21
    SETDIJ:  cpu time    0.01: real time    0.01
     EDDAV:  cpu time    3.06: real time    3.07
       DOS:  cpu time    0.00: real time    0.00
    CHARGE:  cpu time    0.10: real time    0.10
    MIXING:  cpu time    0.00: real time    0.01
    --------------------------------------------
      LOOP:  cpu time    3.39: real time    3.42

 eigenvalue-minimisations  :  1024
 total energy-change (2. order) :-0.1203772E+02  (-0.3943366E+00)
 number of electron     385.0000741 magnetization      12.1715199
 augmentation part      184.6210219 magnetization       5.8590251

 Broyden mixing:
  rms(total) = 0.28532E+00    rms(broyden)= 0.28531E+00
  rms(prec ) = 0.28732E+00
  weight for this iteration     100.00

 eigenvalues of (default mixing * dielectric matrix)
  average eigenvalue GAMMA=   1.5255
  3.0483  2.1192  0.9143  0.9143  0.6313

 Free energy of the ion-electron system (eV)
  ---------------------------------------------------
  alpha Z        PSCENC =        95.40011616
  Ewald energy   TEWEN  =     86655.07816497
  -Hartree energ DENC   =   -121596.22494789
  -exchange      EXHF   =         0.00000000
  -V(xc)+E(xc)   XCENC  =      -365.34768291
  PAW double counting   =     38229.26292199   -36683.44946850
  entropy T*S    EENTRO =         0.00000000
  eigenvalues    EBANDS =     -2673.43741103
  atomic energy  EATOM  =     36301.95205302
  ---------------------------------------------------
  free energy    TOTEN  =       -36.76625418 eV

  energy without entropy =      -36.76625418  energy(sigma->0) =      -36.76625418


--------------------------------------------------------------------------------------------------------




----------------------------------------- Iteration    1(  11)  ---------------------------------------


    POTLOK:  cpu time    0.21: real time    0.21
    SETDIJ:  cpu time    0.01: real time    0.01
     EDDAV:  cpu time    3.11: real time    3.11
       DOS:  cpu time    0.00: real time    0.00
    CHARGE:  cpu time    0.10: real time    0.10
    MIXING:  cpu time    0.01: real time    0.01
    --------------------------------------------
      LOOP:  cpu time    3.44: real time    3.46

 eigenvalue-minimisations  :  1040
 total energy-change (2. order) :-0.1700028E+02  (-0.9285526E+00)
 number of electron     385.0000741 magnetization      11.3366027
 augmentation part      184.5882009 magnetization       7.5539947

 Broyden mixing:
  rms(total) = 0.24400E+00    rms(broyden)= 0.24382E+00
  rms(prec ) = 0.25854E+00
  weight for this iteration     100.00

 eigenvalues of (default mixing * dielectric matrix)
  average eigenvalue GAMMA=   1.3465
  3.2436  2.1263  0.6307  0.9073  0.9073  0.2637

 Free energy of the ion-electron system (eV)
  ---------------------------------------------------
  alpha Z        PSCENC =        95.40011616
  Ewald energy   TEWEN  =     86655.07816497
  -Hartree energ DENC   =   -121591.42184890
  -exchange      EXHF   =         0.00000000
  -V(xc)+E(xc)   XCENC  =      -377.94711359
  PAW double counting   =     38180.29104708   -36634.21261763
  entropy T*S    EENTRO =        -0.00000000
  eigenvalues    EBANDS =     -2682.90633661
  atomic energy  EATOM  =     36301.95205302
  ---------------------------------------------------
  free energy    TOTEN  =       -53.76653551 eV

  energy without entropy =      -53.76653551  energy(sigma->0) =      -53.76653551


--------------------------------------------------------------------------------------------------------




----------------------------------------- Iteration    1(  12)  ---------------------------------------


    POTLOK:  cpu time    0.21: real time    0.21
    SETDIJ:  cpu time    0.01: real time    0.01
     EDDAV:  cpu time    3.53: real time    3.54
       DOS:  cpu time    0.00: real time    0.00
    CHARGE:  cpu time    0.10: real time    0.10
    MIXING:  cpu time    0.01: real time    0.01
    --------------------------------------------
      LOOP:  cpu time    3.86: real time    4.79

 eigenvalue-minimisations  :  1224
 total energy-change (2. order) :-0.1766015E+01  (-0.4119883E-01)
 number of electron     385.0000742 magnetization      10.4483391
 augmentation part      184.5545183 magnetization       6.8113404

 Broyden mixing:
  rms(total) = 0.21403E+00    rms(broyden)= 0.21394E+00
  rms(prec ) = 0.22250E+00
  weight for this iteration     100.00

 eigenvalues of (default mixing * dielectric matrix)
  average eigenvalue GAMMA=   1.2210
  3.3218  2.1501  0.9125  0.9125  0.6301  0.3101  0.3101

 Free energy of the ion-electron system (eV)
  ---------------------------------------------------
  alpha Z        PSCENC =        95.40011616
  Ewald energy   TEWEN  =     86655.07816497
  -Hartree energ DENC   =   -121589.57867030
  -exchange      EXHF   =         0.00000000
  -V(xc)+E(xc)   XCENC  =      -379.23811912
  PAW double counting   =     38171.37207478   -36625.30523539
  entropy T*S    EENTRO =        -0.00000000
  eigenvalues    EBANDS =     -2685.21293466
  atomic energy  EATOM  =     36301.95205302
  ---------------------------------------------------
  free energy    TOTEN  =       -55.53255054 eV

  energy without entropy =      -55.53255054  energy(sigma->0) =      -55.53255054


--------------------------------------------------------------------------------------------------------




----------------------------------------- Iteration    1(  13)  ---------------------------------------


    POTLOK:  cpu time    0.21: real time    0.21
    SETDIJ:  cpu time    0.01: real time    0.01
     EDDAV:  cpu time    3.14: real time    3.15
       DOS:  cpu time    0.00: real time    0.00
    CHARGE:  cpu time    0.10: real time    0.10
    MIXING:  cpu time    0.01: real time    0.01
    --------------------------------------------
      LOOP:  cpu time    3.47: real time    3.94

 eigenvalue-minimisations  :  1056
 total energy-change (2. order) :-0.2272452E+01  (-0.2997144E-01)
 number of electron     385.0000742 magnetization      10.1799711
 augmentation part      184.5405132 magnetization       8.5587769

 Broyden mixing:
  rms(total) = 0.24491E+00    rms(broyden)= 0.24483E+00
  rms(prec ) = 0.25628E+00
  weight for this iteration     100.00

 eigenvalues of (default mixing * dielectric matrix)
  average eigenvalue GAMMA=   1.0910
  3.3550  2.1516  0.9115  0.9115  0.6298  0.3286  0.3286  0.1112

 Free energy of the ion-electron system (eV)
  ---------------------------------------------------
  alpha Z        PSCENC =        95.40011616
  Ewald energy   TEWEN  =     86655.07816497
  -Hartree energ DENC   =   -121584.54589419
  -exchange      EXHF   =         0.00000000
  -V(xc)+E(xc)   XCENC  =      -380.99351089
  PAW double counting   =     38144.59562071   -36598.36953821
  entropy T*S    EENTRO =         0.00000000
  eigenvalues    EBANDS =     -2690.92201451
  atomic energy  EATOM  =     36301.95205302
  ---------------------------------------------------
  free energy    TOTEN  =       -57.80500294 eV

  energy without entropy =      -57.80500294  energy(sigma->0) =      -57.80500294


--------------------------------------------------------------------------------------------------------




----------------------------------------- Iteration    1(  14)  ---------------------------------------


    POTLOK:  cpu time    0.21: real time    0.21
    SETDIJ:  cpu time    0.01: real time    0.01
     EDDAV:  cpu time    3.38: real time    3.38
       DOS:  cpu time    0.00: real time    0.00
    CHARGE:  cpu time    0.10: real time    0.10
    MIXING:  cpu time    0.01: real time    0.01
    --------------------------------------------
      LOOP:  cpu time    3.70: real time    3.72

 eigenvalue-minimisations  :  1160
 total energy-change (2. order) :-0.3241436E+00  (-0.2272883E-02)
 number of electron     385.0000742 magnetization       6.6361718
 augmentation part      184.5403586 magnetization       5.0488689

 Broyden mixing:
  rms(total) = 0.23321E+00    rms(broyden)= 0.23320E+00
  rms(prec ) = 0.24419E+00
  weight for this iteration     100.00

 eigenvalues of (default mixing * dielectric matrix)
  average eigenvalue GAMMA=   1.2651
  4.2632  2.2177  1.0466  0.9452  0.7425  0.7425  0.6346  0.5348  0.2591

 Free energy of the ion-electron system (eV)
  ---------------------------------------------------
  alpha Z        PSCENC =        95.40011616
  Ewald energy   TEWEN  =     86655.07816497
  -Hartree energ DENC   =   -121583.87858028
  -exchange      EXHF   =         0.00000000
  -V(xc)+E(xc)   XCENC  =      -381.22405835
  PAW double counting   =     38140.57286225   -36594.36617329
  entropy T*S    EENTRO =         0.00000000
  eigenvalues    EBANDS =     -2691.66353102
  atomic energy  EATOM  =     36301.95205302
  ---------------------------------------------------
  free energy    TOTEN  =       -58.12914653 eV

  energy without entropy =      -58.12914653  energy(sigma->0) =      -58.12914653


--------------------------------------------------------------------------------------------------------




----------------------------------------- Iteration    1(  15)  ---------------------------------------


    POTLOK:  cpu time    0.21: real time    0.21
    SETDIJ:  cpu time    0.01: real time    0.01
     EDDAV:  cpu time    3.11: real time    3.12
       DOS:  cpu time    0.00: real time    0.00
    CHARGE:  cpu time    0.10: real time    0.10
    MIXING:  cpu time    0.00: real time    0.01
    --------------------------------------------
      LOOP:  cpu time    3.44: real time    3.71

 eigenvalue-minimisations  :  1040
 total energy-change (2. order) :-0.6149829E+01  (-0.2422273E+00)
 number of electron     385.0000742 magnetization       3.5314264
 augmentation part      184.5798039 magnetization       2.2639360

 Broyden mixing:
  rms(total) = 0.13961E+00    rms(broyden)= 0.13960E+00
  rms(prec ) = 0.14522E+00
  weight for this iteration     100.00

 eigenvalues of (default mixing * dielectric matrix)
  average eigenvalue GAMMA=   1.4164
  5.8789  2.1019  1.7547  0.9488  0.6589  0.6589  0.7128  0.5968  0.5968  0.2556

 Free energy of the ion-electron system (eV)
  ---------------------------------------------------
  alpha Z        PSCENC =        95.40011616
  Ewald energy   TEWEN  =     86655.07816497
  -Hartree energ DENC   =   -121568.09781481
  -exchange      EXHF   =         0.00000000
  -V(xc)+E(xc)   XCENC  =      -386.25834684
  PAW double counting   =     38045.46795743   -36499.06147470
  entropy T*S    EENTRO =         0.00000000
  eigenvalues    EBANDS =     -2708.75963027
  atomic energy  EATOM  =     36301.95205302
  ---------------------------------------------------
  free energy    TOTEN  =       -64.27897504 eV

  energy without entropy =      -64.27897504  energy(sigma->0) =      -64.27897504


--------------------------------------------------------------------------------------------------------




----------------------------------------- Iteration    1(  16)  ---------------------------------------


    POTLOK:  cpu time    0.21: real time    0.21
    SETDIJ:  cpu time    0.01: real time    0.01
     EDDAV:  cpu time    3.08: real time    3.09
       DOS:  cpu time    0.00: real time    0.00
    CHARGE:  cpu time    0.10: real time    0.10
    MIXING:  cpu time    0.00: real time    0.01
    --------------------------------------------
      LOOP:  cpu time    3.42: real time    3.44

 eigenvalue-minimisations  :  1028
 total energy-change (2. order) :-0.4358419E+01  (-0.1415880E+00)
 number of electron     385.0000742 magnetization       2.8260573
 augmentation part      184.5967947 magnetization       1.7770594

 Broyden mixing:
  rms(total) = 0.98126E-01    rms(broyden)= 0.98112E-01
  rms(prec ) = 0.10516E+00
  weight for this iteration     100.00

 eigenvalues of (default mixing * dielectric matrix)
  average eigenvalue GAMMA=   1.5010
  6.9073  2.1212  2.1212  0.7706  0.7706  1.0183  0.8474  0.6335  0.5318  0.5318
  0.2568

 Free energy of the ion-electron system (eV)
  ---------------------------------------------------
  alpha Z        PSCENC =        95.40011616
  Ewald energy   TEWEN  =     86655.07816497
  -Hartree energ DENC   =   -121549.82731671
  -exchange      EXHF   =         0.00000000
  -V(xc)+E(xc)   XCENC  =      -390.15955278
  PAW double counting   =     37977.51552299   -36430.95076076
  entropy T*S    EENTRO =        -0.00000000
  eigenvalues    EBANDS =     -2727.64562138
  atomic energy  EATOM  =     36301.95205302
  ---------------------------------------------------
  free energy    TOTEN  =       -68.63739448 eV

  energy without entropy =      -68.63739448  energy(sigma->0) =      -68.63739448


--------------------------------------------------------------------------------------------------------




----------------------------------------- Iteration    1(  17)  ---------------------------------------


    POTLOK:  cpu time    0.21: real time    0.21
    SETDIJ:  cpu time    0.01: real time    0.01
     EDDAV:  cpu time    3.13: real time    3.13
       DOS:  cpu time    0.00: real time    0.00
    CHARGE:  cpu time    0.10: real time    0.10
    MIXING:  cpu time    0.01: real time    0.01
    --------------------------------------------
      LOOP:  cpu time    3.46: real time    3.47

 eigenvalue-minimisations  :  1048
 total energy-change (2. order) :-0.1657112E+01  (-0.2193646E-01)
 number of electron     385.0000742 magnetization       2.7929675
 augmentation part      184.5735318 magnetization       1.7714646

 Broyden mixing:
  rms(total) = 0.76106E-01    rms(broyden)= 0.76100E-01
  rms(prec ) = 0.84085E-01
  weight for this iteration     100.00

 eigenvalues of (default mixing * dielectric matrix)
  average eigenvalue GAMMA=   1.5316
  7.1810  2.8255  1.6374  1.1286  0.9218  0.9218  0.7846  0.7846  0.7264  0.6051
  0.6051  0.2568

 Free energy of the ion-electron system (eV)
  ---------------------------------------------------
  alpha Z        PSCENC =        95.40011616
  Ewald energy   TEWEN  =     86655.07816497
  -Hartree energ DENC   =   -121538.99325073
  -exchange      EXHF   =         0.00000000
  -V(xc)+E(xc)   XCENC  =      -391.72890230
  PAW double counting   =     37969.76721935   -36422.88293425
  entropy T*S    EENTRO =         0.00000000
  eigenvalues    EBANDS =     -2738.88697225
  atomic energy  EATOM  =     36301.95205302
  ---------------------------------------------------
  free energy    TOTEN  =       -70.29450604 eV

  energy without entropy =      -70.29450604  energy(sigma->0) =      -70.29450604


--------------------------------------------------------------------------------------------------------




----------------------------------------- Iteration    1(  18)  ---------------------------------------


    POTLOK:  cpu time    0.21: real time    0.21
    SETDIJ:  cpu time    0.01: real time    0.01
     EDDAV:  cpu time    3.13: real time    3.14
       DOS:  cpu time    0.00: real time    0.00
    CHARGE:  cpu time    0.10: real time    0.10
    MIXING:  cpu time    0.01: real time    0.01
    --------------------------------------------
      LOOP:  cpu time    3.46: real time    3.66

 eigenvalue-minimisations  :  1048
 total energy-change (2. order) :-0.1619088E+01  (-0.1580077E-01)
 number of electron     385.0000742 magnetization       2.4154626
 augmentation part      184.5757136 magnetization       1.3532443

 Broyden mixing:
  rms(total) = 0.47639E-01    rms(broyden)= 0.47628E-01
  rms(prec ) = 0.54428E-01
  weight for this iteration     100.00

 eigenvalues of (default mixing * dielectric matrix)
  average eigenvalue GAMMA=   1.5752
  7.5481  3.1439  1.8385  1.5596  0.7870  0.7870  0.9485  0.9485  0.8417  0.6370
  0.5907  0.5907  0.2568

 Free energy of the ion-electron system (eV)
  ---------------------------------------------------
  alpha Z        PSCENC =        95.40011616
  Ewald energy   TEWEN  =     86655.07816497
  -Hartree energ DENC   =   -121517.36453748
  -exchange      EXHF   =         0.00000000
  -V(xc)+E(xc)   XCENC  =      -393.43147563
  PAW double counting   =     37970.28893895   -36422.63797305
  entropy T*S    EENTRO =         0.00000000
  eigenvalues    EBANDS =     -2761.19888129
  atomic energy  EATOM  =     36301.95205302
  ---------------------------------------------------
  free energy    TOTEN  =       -71.91359434 eV

  energy without entropy =      -71.91359434  energy(sigma->0) =      -71.91359434


--------------------------------------------------------------------------------------------------------




----------------------------------------- Iteration    1(  19)  ---------------------------------------


    POTLOK:  cpu time    0.22: real time    0.22
    SETDIJ:  cpu time    0.01: real time    0.01
     EDDAV:  cpu time    3.19: real time    3.19
       DOS:  cpu time    0.00: real time    0.00
    CHARGE:  cpu time    0.10: real time    0.10
    MIXING:  cpu time    0.01: real time    0.01
    --------------------------------------------
      LOOP:  cpu time    3.53: real time    3.58

 eigenvalue-minimisations  :  1072
 total energy-change (2. order) :-0.9429523E+00  (-0.4803706E-02)
 number of electron     385.0000742 magnetization       1.8736966
 augmentation part      184.5897821 magnetization       0.8085444

 Broyden mixing:
  rms(total) = 0.37430E-01    rms(broyden)= 0.37423E-01
  rms(prec ) = 0.41876E-01
  weight for this iteration     100.00

 eigenvalues of (default mixing * dielectric matrix)
  average eigenvalue GAMMA=   1.6159
  8.2176  3.3150  2.3306  1.2171  1.2171  0.7874  0.7874  1.0297  0.8128  0.8128
  0.6380  0.6003  0.6003  0.2568

 Free energy of the ion-electron system (eV)
  ---------------------------------------------------
  alpha Z        PSCENC =        95.40011616
  Ewald energy   TEWEN  =     86655.07816497
  -Hartree energ DENC   =   -121497.71000871
  -exchange      EXHF   =         0.00000000
  -V(xc)+E(xc)   XCENC  =      -394.52327721
  PAW double counting   =     37982.39964313   -36434.68834537
  entropy T*S    EENTRO =         0.00000000
  eigenvalues    EBANDS =     -2780.76489259
  atomic energy  EATOM  =     36301.95205302
  ---------------------------------------------------
  free energy    TOTEN  =       -72.85654661 eV

  energy without entropy =      -72.85654661  energy(sigma->0) =      -72.85654661


--------------------------------------------------------------------------------------------------------




----------------------------------------- Iteration    1(  20)  ---------------------------------------


    POTLOK:  cpu time    0.21: real time    0.21
    SETDIJ:  cpu time    0.01: real time    0.01
     EDDAV:  cpu time    3.14: real time    3.14
       DOS:  cpu time    0.00: real time    0.00
    CHARGE:  cpu time    0.10: real time    0.10
    MIXING:  cpu time    0.01: real time    0.01
    --------------------------------------------
      LOOP:  cpu time    3.47: real time    3.48

 eigenvalue-minimisations  :  1048
 total energy-change (2. order) :-0.5361764E+00  (-0.2189252E-02)
 number of electron     385.0000742 magnetization       1.4762951
 augmentation part      184.6033717 magnetization       0.4267582

 Broyden mixing:
  rms(total) = 0.24802E-01    rms(broyden)= 0.24797E-01
  rms(prec ) = 0.27567E-01
  weight for this iteration     100.00

 eigenvalues of (default mixing * dielectric matrix)
  average eigenvalue GAMMA=   1.6887
  8.7244  3.9055  2.4084  1.3170  1.3170  1.2567  1.2567  0.7729  0.7729  0.8469
  0.6676  0.6392  0.5939  0.5939  0.2568

 Free energy of the ion-electron system (eV)
  ---------------------------------------------------
  alpha Z        PSCENC =        95.40011616
  Ewald energy   TEWEN  =     86655.07816497
  -Hartree energ DENC   =   -121484.29592769
  -exchange      EXHF   =         0.00000000
  -V(xc)+E(xc)   XCENC  =      -395.16742107
  PAW double counting   =     37984.79211089   -36437.13458094
  entropy T*S    EENTRO =         0.00000000
  eigenvalues    EBANDS =     -2794.01723833
  atomic energy  EATOM  =     36301.95205302
  ---------------------------------------------------
  free energy    TOTEN  =       -73.39272299 eV

  energy without entropy =      -73.39272299  energy(sigma->0) =      -73.39272299


--------------------------------------------------------------------------------------------------------




----------------------------------------- Iteration    1(  21)  ---------------------------------------


    POTLOK:  cpu time    0.21: real time    0.21
    SETDIJ:  cpu time    0.01: real time    0.01
     EDDAV:  cpu time    3.19: real time    3.19
       DOS:  cpu time    0.00: real time    0.00
    CHARGE:  cpu time    0.10: real time    0.10
    MIXING:  cpu time    0.01: real time    0.01
    --------------------------------------------
      LOOP:  cpu time    3.52: real time    3.55

 eigenvalue-minimisations  :  1060
 total energy-change (2. order) :-0.2524352E+00  (-0.8333579E-03)
 number of electron     385.0000742 magnetization       1.2028155
 augmentation part      184.6071040 magnetization       0.1694894

 Broyden mixing:
  rms(total) = 0.12110E-01    rms(broyden)= 0.12107E-01
  rms(prec ) = 0.14350E-01
  weight for this iteration     100.00

 eigenvalues of (default mixing * dielectric matrix)
  average eigenvalue GAMMA=   1.7086
  9.2284  3.8958  2.4876  2.0143  1.3271  1.3271  0.7763  0.7763  0.9333  0.9333
  0.8850  0.5938  0.5938  0.6714  0.6374  0.2568

 Free energy of the ion-electron system (eV)
  ---------------------------------------------------
  alpha Z        PSCENC =        95.40011616
  Ewald energy   TEWEN  =     86655.07816497
  -Hartree energ DENC   =   -121475.59476667
  -exchange      EXHF   =         0.00000000
  -V(xc)+E(xc)   XCENC  =      -395.47885812
  PAW double counting   =     37987.08190229   -36439.47287773
  entropy T*S    EENTRO =         0.00000000
  eigenvalues    EBANDS =     -2802.61089210
  atomic energy  EATOM  =     36301.95205302
  ---------------------------------------------------
  free energy    TOTEN  =       -73.64515818 eV

  energy without entropy =      -73.64515818  energy(sigma->0) =      -73.64515818


--------------------------------------------------------------------------------------------------------




----------------------------------------- Iteration    1(  22)  ---------------------------------------


    POTLOK:  cpu time    0.22: real time    0.21
    SETDIJ:  cpu time    0.01: real time    0.01
     EDDAV:  cpu time    3.15: real time    3.15
       DOS:  cpu time    0.00: real time    0.00
    CHARGE:  cpu time    0.10: real time    0.10
    MIXING:  cpu time    0.01: real time    0.01
    --------------------------------------------
      LOOP:  cpu time    3.48: real time    3.56

 eigenvalue-minimisations  :  1052
 total energy-change (2. order) :-0.1223675E+00  (-0.3559158E-03)
 number of electron     385.0000742 magnetization       1.1350958
 augmentation part      184.6102393 magnetization       0.1100390

 Broyden mixing:
  rms(total) = 0.62792E-02    rms(broyden)= 0.62775E-02
  rms(prec ) = 0.80851E-02
  weight for this iteration     100.00

 eigenvalues of (default mixing * dielectric matrix)
  average eigenvalue GAMMA=   1.7409
  9.4366  3.9723  3.0935  2.2123  1.4552  1.4552  0.7782  0.7782  0.9850  0.9850
  0.9805  0.2568  0.7370  0.5921  0.5921  0.6503  0.6344

 Free energy of the ion-electron system (eV)
  ---------------------------------------------------
  alpha Z        PSCENC =        95.40011616
  Ewald energy   TEWEN  =     86655.07816497
  -Hartree energ DENC   =   -121469.49039217
  -exchange      EXHF   =         0.00000000
  -V(xc)+E(xc)   XCENC  =      -395.63217523
  PAW double counting   =     37992.63528224   -36445.07060732
  entropy T*S    EENTRO =        -0.00000000
  eigenvalues    EBANDS =     -2808.63996735
  atomic energy  EATOM  =     36301.95205302
  ---------------------------------------------------
  free energy    TOTEN  =       -73.76752567 eV

  energy without entropy =      -73.76752567  energy(sigma->0) =      -73.76752567


--------------------------------------------------------------------------------------------------------




----------------------------------------- Iteration    1(  23)  ---------------------------------------


    POTLOK:  cpu time    0.21: real time    0.21
    SETDIJ:  cpu time    0.01: real time    0.01
     EDDAV:  cpu time    2.68: real time    2.69
       DOS:  cpu time    0.00: real time    0.00
    CHARGE:  cpu time    0.10: real time    0.10
    MIXING:  cpu time    0.01: real time    0.01
    --------------------------------------------
      LOOP:  cpu time    3.02: real time    3.02

 eigenvalue-minimisations  :   840
 total energy-change (2. order) :-0.4468590E-01  (-0.1261237E-03)
 number of electron     385.0000742 magnetization       1.0407947
 augmentation part      184.6064111 magnetization       0.0148593

 Broyden mixing:
  rms(total) = 0.40989E-02    rms(broyden)= 0.40984E-02
  rms(prec ) = 0.54537E-02
  weight for this iteration     100.00

 eigenvalues of (default mixing * dielectric matrix)
  average eigenvalue GAMMA=   1.7548
  9.6540  3.8977  3.4949  2.5136  1.4570  1.4570  0.7764  0.7764  1.1458  1.0479
  1.0479  0.9283  0.2568  0.5948  0.5948  0.6529  0.6529  0.6367

 Free energy of the ion-electron system (eV)
  ---------------------------------------------------
  alpha Z        PSCENC =        95.40011616
  Ewald energy   TEWEN  =     86655.07816497
  -Hartree energ DENC   =   -121466.45898684
  -exchange      EXHF   =         0.00000000
  -V(xc)+E(xc)   XCENC  =      -395.68019808
  PAW double counting   =     37998.64421071   -36451.11214480
  entropy T*S    EENTRO =         0.00000000
  eigenvalues    EBANDS =     -2811.63542672
  atomic energy  EATOM  =     36301.95205302
  ---------------------------------------------------
  free energy    TOTEN  =       -73.81221157 eV

  energy without entropy =      -73.81221157  energy(sigma->0) =      -73.81221157


--------------------------------------------------------------------------------------------------------




----------------------------------------- Iteration    1(  24)  ---------------------------------------


    POTLOK:  cpu time    0.21: real time    0.21
    SETDIJ:  cpu time    0.01: real time    0.01
     EDDAV:  cpu time    2.43: real time    2.44
       DOS:  cpu time    0.00: real time    0.00
    CHARGE:  cpu time    0.10: real time    0.10
    MIXING:  cpu time    0.01: real time    0.01
    --------------------------------------------
      LOOP:  cpu time    2.76: real time    2.86

 eigenvalue-minimisations  :   720
 total energy-change (2. order) :-0.7544695E-02  (-0.7352814E-04)
 number of electron     385.0000742 magnetization       1.0220127
 augmentation part      184.6090917 magnetization      -0.0005621

 Broyden mixing:
  rms(total) = 0.27344E-02    rms(broyden)= 0.27340E-02
  rms(prec ) = 0.36486E-02
  weight for this iteration     100.00

 eigenvalues of (default mixing * dielectric matrix)
  average eigenvalue GAMMA=   1.7459
  9.6518  4.1452  3.6878  2.5132  1.6258  1.3770  1.3770  0.7767  0.7767  0.2568
  1.0029  1.0029  1.0659  0.5919  0.5919  0.7666  0.7084  0.6336  0.6196

 Free energy of the ion-electron system (eV)
  ---------------------------------------------------
  alpha Z        PSCENC =        95.40011616
  Ewald energy   TEWEN  =     86655.07816497
  -Hartree energ DENC   =   -121463.31043255
  -exchange      EXHF   =         0.00000000
  -V(xc)+E(xc)   XCENC  =      -395.70217203
  PAW double counting   =     37997.69362317   -36450.14563690
  entropy T*S    EENTRO =         0.00000000
  eigenvalues    EBANDS =     -2814.78547211
  atomic energy  EATOM  =     36301.95205302
  ---------------------------------------------------
  free energy    TOTEN  =       -73.81975627 eV

  energy without entropy =      -73.81975627  energy(sigma->0) =      -73.81975627


--------------------------------------------------------------------------------------------------------




----------------------------------------- Iteration    1(  25)  ---------------------------------------


    POTLOK:  cpu time    0.21: real time    0.21
    SETDIJ:  cpu time    0.01: real time    0.01
     EDDAV:  cpu time    2.37: real time    2.38
       DOS:  cpu time    0.00: real time    0.00
    CHARGE:  cpu time    0.10: real time    0.10
    MIXING:  cpu time    0.01: real time    0.01
    --------------------------------------------
      LOOP:  cpu time    2.71: real time    2.79

 eigenvalue-minimisations  :   700
 total energy-change (2. order) :-0.7573319E-02  (-0.2719313E-04)
 number of electron     385.0000742 magnetization       1.0066545
 augmentation part      184.6078466 magnetization      -0.0157343

 Broyden mixing:
  rms(total) = 0.18072E-02    rms(broyden)= 0.18070E-02
  rms(prec ) = 0.24738E-02
  weight for this iteration     100.00

 eigenvalues of (default mixing * dielectric matrix)
  average eigenvalue GAMMA=   1.7551
  9.6665  4.4187  3.6758  2.5438  2.2659  1.3954  1.3954  0.7768  0.7768  1.0840
  1.0840  1.0487  0.2568  0.8083  0.8083  0.5936  0.5936  0.6550  0.6314  0.6226

 Free energy of the ion-electron system (eV)
  ---------------------------------------------------
  alpha Z        PSCENC =        95.40011616
  Ewald energy   TEWEN  =     86655.07816497
  -Hartree energ DENC   =   -121461.69475588
  -exchange      EXHF   =         0.00000000
  -V(xc)+E(xc)   XCENC  =      -395.71159074
  PAW double counting   =     37999.01832869   -36451.49263796
  entropy T*S    EENTRO =         0.00000000
  eigenvalues    EBANDS =     -2816.37700784
  atomic energy  EATOM  =     36301.95205302
  ---------------------------------------------------
  free energy    TOTEN  =       -73.82732958 eV

  energy without entropy =      -73.82732958  energy(sigma->0) =      -73.82732958


--------------------------------------------------------------------------------------------------------




----------------------------------------- Iteration    1(  26)  ---------------------------------------


    POTLOK:  cpu time    0.21: real time    0.21
    SETDIJ:  cpu time    0.01: real time    0.01
     EDDAV:  cpu time    2.46: real time    2.46
       DOS:  cpu time    0.00: real time    0.00
    CHARGE:  cpu time    0.10: real time    0.10
    MIXING:  cpu time    0.01: real time    0.01
    --------------------------------------------
      LOOP:  cpu time    2.79: real time    2.83

 eigenvalue-minimisations  :   736
 total energy-change (2. order) :-0.5211452E-02  (-0.2048054E-04)
 number of electron     385.0000742 magnetization       1.0116239
 augmentation part      184.6083119 magnetization      -0.0108263

 Broyden mixing:
  rms(total) = 0.14053E-02    rms(broyden)= 0.14051E-02
  rms(prec ) = 0.17623E-02
  weight for this iteration     100.00

 eigenvalues of (default mixing * dielectric matrix)
  average eigenvalue GAMMA=   1.7694
  9.6441  4.8830  3.3173  3.0809  2.5256  1.4128  1.4128  1.2511  1.2511  0.7767
  0.7767  0.2568  1.0219  0.8490  0.8490  0.7835  0.5940  0.5940  0.6316  0.6227
  0.6227

 Free energy of the ion-electron system (eV)
  ---------------------------------------------------
  alpha Z        PSCENC =        95.40011616
  Ewald energy   TEWEN  =     86655.07816497
  -Hartree energ DENC   =   -121459.87249743
  -exchange      EXHF   =         0.00000000
  -V(xc)+E(xc)   XCENC  =      -395.72347232
  PAW double counting   =     37998.92436567   -36451.40056455
  entropy T*S    EENTRO =         0.00000000
  eigenvalues    EBANDS =     -2818.19070655
  atomic energy  EATOM  =     36301.95205302
  ---------------------------------------------------
  free energy    TOTEN  =       -73.83254104 eV

  energy without entropy =      -73.83254104  energy(sigma->0) =      -73.83254104


--------------------------------------------------------------------------------------------------------




----------------------------------------- Iteration    1(  27)  ---------------------------------------


    POTLOK:  cpu time    0.21: real time    0.21
    SETDIJ:  cpu time    0.01: real time    0.01
     EDDAV:  cpu time    2.39: real time    2.39
       DOS:  cpu time    0.00: real time    0.00
    CHARGE:  cpu time    0.10: real time    0.10
    MIXING:  cpu time    0.01: real time    0.01
    --------------------------------------------
      LOOP:  cpu time    2.72: real time    2.74

 eigenvalue-minimisations  :   704
 total energy-change (2. order) :-0.3074744E-02  (-0.5926294E-05)
 number of electron     385.0000742 magnetization       1.0159313
 augmentation part      184.6084988 magnetization      -0.0071228

 Broyden mixing:
  rms(total) = 0.98536E-03    rms(broyden)= 0.98525E-03
  rms(prec ) = 0.11812E-02
  weight for this iteration     100.00

 eigenvalues of (default mixing * dielectric matrix)
  average eigenvalue GAMMA=   1.8064
  9.5611  5.7938  3.3609  3.3609  2.7132  1.7490  1.3750  1.3750  0.7769  0.7769
  0.2568  1.0515  1.0515  1.0483  0.8713  0.8713  0.5939  0.5939  0.6749  0.6393
  0.6393  0.6063

 Free energy of the ion-electron system (eV)
  ---------------------------------------------------
  alpha Z        PSCENC =        95.40011616
  Ewald energy   TEWEN  =     86655.07816497
  -Hartree energ DENC   =   -121458.71370397
  -exchange      EXHF   =         0.00000000
  -V(xc)+E(xc)   XCENC  =      -395.73134423
  PAW double counting   =     37998.87364151   -36451.34619562
  entropy T*S    EENTRO =         0.00000000
  eigenvalues    EBANDS =     -2819.34834762
  atomic energy  EATOM  =     36301.95205302
  ---------------------------------------------------
  free energy    TOTEN  =       -73.83561578 eV

  energy without entropy =      -73.83561578  energy(sigma->0) =      -73.83561578


--------------------------------------------------------------------------------------------------------




----------------------------------------- Iteration    1(  28)  ---------------------------------------


    POTLOK:  cpu time    0.21: real time    0.21
    SETDIJ:  cpu time    0.01: real time    0.01
     EDDAV:  cpu time    2.36: real time    2.36
       DOS:  cpu time    0.00: real time    0.00
    CHARGE:  cpu time    0.10: real time    0.10
    MIXING:  cpu time    0.01: real time    0.01
    --------------------------------------------
      LOOP:  cpu time    2.70: real time    2.70

 eigenvalue-minimisations  :   684
 total energy-change (2. order) :-0.1294202E-02  (-0.1978343E-05)
 number of electron     385.0000742 magnetization       1.0077044
 augmentation part      184.6087939 magnetization      -0.0159084

 Broyden mixing:
  rms(total) = 0.83354E-03    rms(broyden)= 0.83347E-03
  rms(prec ) = 0.94895E-03
  weight for this iteration     100.00

 eigenvalues of (default mixing * dielectric matrix)
  average eigenvalue GAMMA=   1.8191
  9.5811  6.2798  3.2855  3.2855  2.9916  1.8613  1.3617  1.3617  1.3687  1.3687
  0.7769  0.7769  0.2568  0.9434  0.9434  0.8952  0.7242  0.7242  0.5936  0.5936
  0.6372  0.6142  0.6142

 Free energy of the ion-electron system (eV)
  ---------------------------------------------------
  alpha Z        PSCENC =        95.40011616
  Ewald energy   TEWEN  =     86655.07816497
  -Hartree energ DENC   =   -121458.05896903
  -exchange      EXHF   =         0.00000000
  -V(xc)+E(xc)   XCENC  =      -395.73576967
  PAW double counting   =     37998.97589113   -36451.44562894
  entropy T*S    EENTRO =         0.00000000
  eigenvalues    EBANDS =     -2820.00276763
  atomic energy  EATOM  =     36301.95205302
  ---------------------------------------------------
  free energy    TOTEN  =       -73.83690998 eV

  energy without entropy =      -73.83690998  energy(sigma->0) =      -73.83690998


--------------------------------------------------------------------------------------------------------




----------------------------------------- Iteration    1(  29)  ---------------------------------------


    POTLOK:  cpu time    0.21: real time    0.21
    SETDIJ:  cpu time    0.01: real time    0.01
     EDDAV:  cpu time    2.29: real time    2.29
       DOS:  cpu time    0.00: real time    0.00
    CHARGE:  cpu time    0.10: real time    0.10
    MIXING:  cpu time    0.01: real time    0.01
    --------------------------------------------
      LOOP:  cpu time    2.62: real time    2.79

 eigenvalue-minimisations  :   656
 total energy-change (2. order) :-0.5072507E-03  (-0.8620984E-06)
 number of electron     385.0000742 magnetization       1.0037222
 augmentation part      184.6091522 magnetization      -0.0194999

 Broyden mixing:
  rms(total) = 0.38499E-03    rms(broyden)= 0.38495E-03
  rms(prec ) = 0.48870E-03
  weight for this iteration     100.00

 eigenvalues of (default mixing * dielectric matrix)
  average eigenvalue GAMMA=   1.8672
  9.5703  7.0313  4.0503  2.9962  2.9962  2.2432  1.7365  1.3684  1.3684  1.3880
  0.7769  0.7769  0.2568  0.9868  0.9868  0.8887  0.8887  0.7644  0.5937  0.5937
  0.6701  0.6517  0.6145  0.6145

 Free energy of the ion-electron system (eV)
  ---------------------------------------------------
  alpha Z        PSCENC =        95.40011616
  Ewald energy   TEWEN  =     86655.07816497
  -Hartree energ DENC   =   -121457.72619769
  -exchange      EXHF   =         0.00000000
  -V(xc)+E(xc)   XCENC  =      -395.73828176
  PAW double counting   =     37998.85107551   -36451.31999774
  entropy T*S    EENTRO =         0.00000000
  eigenvalues    EBANDS =     -2820.33434970
  atomic energy  EATOM  =     36301.95205302
  ---------------------------------------------------
  free energy    TOTEN  =       -73.83741723 eV

  energy without entropy =      -73.83741723  energy(sigma->0) =      -73.83741723


--------------------------------------------------------------------------------------------------------




----------------------------------------- Iteration    1(  30)  ---------------------------------------


    POTLOK:  cpu time    0.22: real time    0.22
    SETDIJ:  cpu time    0.01: real time    0.01
     EDDAV:  cpu time    2.36: real time    2.36
       DOS:  cpu time    0.00: real time    0.00
    CHARGE:  cpu time    0.10: real time    0.10
    MIXING:  cpu time    0.01: real time    0.01
    --------------------------------------------
      LOOP:  cpu time    2.70: real time    2.72

 eigenvalue-minimisations  :   688
 total energy-change (2. order) :-0.3052243E-03  (-0.5761710E-06)
 number of electron     385.0000742 magnetization       1.0016220
 augmentation part      184.6090654 magnetization      -0.0214492

 Broyden mixing:
  rms(total) = 0.24877E-03    rms(broyden)= 0.24872E-03
  rms(prec ) = 0.30735E-03
  weight for this iteration     100.00

 eigenvalues of (default mixing * dielectric matrix)
  average eigenvalue GAMMA=   1.8849
  9.5509  7.6637  4.3255  3.0689  3.0689  2.5048  1.6500  1.6500  1.3613  1.3613
  0.7769  0.7769  1.0470  0.9842  0.9842  0.2568  0.8788  0.7807  0.5938  0.5938
  0.7300  0.6427  0.6427  0.6144  0.6144

 Free energy of the ion-electron system (eV)
  ---------------------------------------------------
  alpha Z        PSCENC =        95.40011616
  Ewald energy   TEWEN  =     86655.07816497
  -Hartree energ DENC   =   -121457.59252251
  -exchange      EXHF   =         0.00000000
  -V(xc)+E(xc)   XCENC  =      -395.73865310
  PAW double counting   =     37998.95028645   -36451.41990016
  entropy T*S    EENTRO =         0.00000000
  eigenvalues    EBANDS =     -2820.46726730
  atomic energy  EATOM  =     36301.95205302
  ---------------------------------------------------
  free energy    TOTEN  =       -73.83772246 eV

  energy without entropy =      -73.83772246  energy(sigma->0) =      -73.83772246


--------------------------------------------------------------------------------------------------------




[...]
 total charge-density along one line
 
 pseudopotential strength for first ion, spin component:           1
-10.296   0.004   0.005  -0.001   0.003 -10.271   0.004   0.005
  0.004 -10.301  -0.000  -0.008   0.003   0.004 -10.276  -0.000
  0.005  -0.000 -10.301   0.002  -0.003   0.005  -0.000 -10.275
 -0.001  -0.008   0.002 -10.290   0.004  -0.001  -0.007   0.002
  0.003   0.003  -0.003   0.004 -10.296   0.003   0.003  -0.003
-10.271   0.004   0.005  -0.001   0.003 -10.222   0.003   0.005
  0.004 -10.276  -0.000  -0.007   0.003   0.003 -10.226  -0.000
  0.005  -0.000 -10.275   0.002  -0.003   0.005  -0.000 -10.226
 -0.001  -0.007   0.002 -10.265   0.004  -0.001  -0.007   0.002
  0.003   0.003  -0.003   0.004 -10.271   0.003   0.003  -0.003
  0.005   0.001   0.003  -0.002  -0.004   0.005   0.001   0.003
  0.009   0.001   0.004  -0.003  -0.007   0.009   0.001   0.004
  0.006  -0.003   0.001  -0.000   0.002   0.006  -0.003   0.001
 -0.000  -0.002  -0.003   0.006   0.000  -0.000  -0.002  -0.003
 -0.003  -0.000  -0.004  -0.003   0.006  -0.003  -0.000  -0.004
  0.007  -0.003   0.002  -0.000   0.002   0.007  -0.003   0.002
 -0.000  -0.002  -0.003   0.007   0.000  -0.000  -0.002  -0.003
 -0.003  -0.000  -0.004  -0.003   0.008  -0.003  -0.000  -0.004
 pseudopotential strength for first ion, spin component:           2
-10.297   0.004   0.005  -0.001   0.003 -10.272   0.004   0.005
  0.004 -10.302  -0.000  -0.008   0.003   0.004 -10.277  -0.000
  0.005  -0.000 -10.301   0.002  -0.003   0.005  -0.000 -10.276
 -0.001  -0.008   0.002 -10.291   0.004  -0.001  -0.007   0.002
  0.003   0.003  -0.003   0.004 -10.296   0.003   0.003  -0.003
-10.272   0.004   0.005  -0.001   0.003 -10.222   0.003   0.005
  0.004 -10.277  -0.000  -0.007   0.003   0.003 -10.227  -0.000
  0.005  -0.000 -10.276   0.002  -0.003   0.005  -0.000 -10.227
 -0.001  -0.007   0.002 -10.266   0.004  -0.001  -0.007   0.002
  0.003   0.003  -0.003   0.004 -10.271   0.003   0.003  -0.003
  0.005   0.001   0.002  -0.002  -0.004   0.005   0.001   0.002
  0.009   0.001   0.004  -0.004  -0.007   0.009   0.001   0.004
  0.006  -0.003   0.001  -0.000   0.002   0.005  -0.003   0.001
 -0.000  -0.002  -0.003   0.006   0.000  -0.000  -0.002  -0.003
 -0.003  -0.000  -0.004  -0.003   0.006  -0.003  -0.000  -0.004
  0.007  -0.003   0.002  -0.000   0.002   0.007  -0.003   0.002
 -0.000  -0.003  -0.004   0.007   0.000  -0.000  -0.002  -0.004
 -0.003  -0.000  -0.004  -0.003   0.008  -0.003  -0.000  -0.004
 total augmentation occupancy for first ion, spin component:           1
  2.892  -0.025  -0.057  -0.017  -0.105  -0.859   0.037   0.094   0.019   0.144  -0.497   0.071   0.101   0.004   0.009  -0.003
 -0.025   3.073  -0.010   0.127   0.028   0.037  -1.114   0.013  -0.199  -0.006   0.000   0.011   0.003  -0.050   0.024  -0.003
 -0.057  -0.010   3.128   0.039   0.050   0.094   0.013  -1.172  -0.030  -0.079  -0.295   0.040   0.014   0.074  -0.051   0.000
 -0.017   0.127   0.039   2.844   0.028   0.019  -0.199  -0.030  -0.763  -0.008   0.147  -0.019   0.003   0.101  -0.001  -0.000
 -0.105   0.028   0.050   0.028   2.876   0.144  -0.006  -0.079  -0.008  -0.831   0.413  -0.060   0.073  -0.005   0.070  -0.004
 -0.859   0.037   0.094   0.019   0.144   0.791  -0.047  -0.126  -0.020  -0.177   0.459  -0.073  -0.103  -0.004   0.002   0.007
  0.037  -1.114   0.013  -0.199  -0.006  -0.047   1.110  -0.016   0.260  -0.010   0.001  -0.008   0.001   0.050  -0.019   0.000
  0.094   0.013  -1.172  -0.030  -0.079  -0.126  -0.016   1.170   0.022   0.105   0.279  -0.046  -0.018  -0.062   0.056   0.001
  0.019  -0.199  -0.030  -0.763  -0.008  -0.020   0.260   0.022   0.655  -0.008  -0.120   0.012  -0.003  -0.100   0.004   0.000
  0.144  -0.006  -0.079  -0.008  -0.831  -0.177  -0.010   0.105  -0.008   0.752  -0.384   0.063  -0.071   0.004  -0.079   0.006
 -0.497   0.000  -0.295   0.147   0.413   0.459   0.001   0.279  -0.120  -0.384   1.937  -0.307   0.040   0.007  -0.088  -0.004
  0.071   0.011   0.040  -0.019  -0.060  -0.073  -0.008  -0.046   0.012   0.063  -0.307   0.069  -0.013   0.005   0.030   0.001
  0.101   0.003   0.014   0.003   0.073  -0.103   0.001  -0.018  -0.003  -0.071   0.040  -0.013   0.133   0.005   0.036  -0.008
  0.004  -0.050   0.074   0.101  -0.005  -0.004   0.050  -0.062  -0.100   0.004   0.007   0.005   0.005   0.142  -0.006  -0.000
  0.009   0.024  -0.051  -0.001   0.070   0.002  -0.019   0.056   0.004  -0.079  -0.088   0.030   0.036  -0.006   0.067  -0.002
 -0.003  -0.003   0.000  -0.000  -0.004   0.007   0.000   0.001   0.000   0.006  -0.004   0.001  -0.008  -0.000  -0.002   0.001
 -0.000   0.002  -0.006  -0.004   0.000   0.000  -0.003   0.003   0.007  -0.000  -0.000  -0.000  -0.000  -0.009   0.000   0.000
 -0.003  -0.001   0.000  -0.002  -0.001   0.001   0.001  -0.003  -0.000   0.005   0.010  -0.002  -0.002   0.000  -0.005   0.000
 total augmentation occupancy for first ion, spin component:           2
 -0.013  -0.002   0.001   0.004  -0.001   0.007   0.001  -0.001  -0.003   0.001  -0.006  -0.000  -0.000  -0.002  -0.002   0.000
 -0.002  -0.010   0.001   0.002  -0.001   0.001   0.005  -0.000  -0.001   0.001  -0.001   0.000  -0.001  -0.000  -0.000   0.000
  0.001   0.001  -0.009   0.006  -0.001  -0.001  -0.000   0.004  -0.005   0.001  -0.010  -0.001  -0.000  -0.003  -0.003  -0.000
  0.004   0.002   0.006  -0.003  -0.008  -0.003  -0.002  -0.005  -0.001   0.006  -0.018  -0.003  -0.001  -0.004  -0.004   0.000
 -0.001  -0.001  -0.001  -0.008  -0.012   0.001   0.001   0.001   0.006   0.006   0.008   0.001  -0.000   0.003   0.003   0.000
  0.007   0.001  -0.001  -0.003   0.001  -0.001  -0.000   0.001   0.003  -0.001   0.005  -0.000   0.001   0.001   0.002  -0.000
  0.001   0.005  -0.000  -0.002   0.001  -0.000   0.001   0.000   0.001  -0.001   0.001  -0.000   0.001   0.000   0.000  -0.000
 -0.001  -0.000   0.004  -0.005   0.001   0.001   0.000   0.001   0.004  -0.001   0.008   0.001   0.000   0.003   0.002   0.000
 -0.003  -0.001  -0.005  -0.001   0.006   0.003   0.001   0.004   0.005  -0.005   0.016   0.002   0.001   0.004   0.004  -0.000
  0.001   0.001   0.001   0.006   0.006  -0.001  -0.001  -0.001  -0.005  -0.001  -0.007  -0.001   0.000  -0.002  -0.002  -0.000
 -0.006  -0.001  -0.010  -0.018   0.008   0.005   0.001   0.008   0.016  -0.007   0.030   0.001   0.001   0.007   0.008  -0.000
 -0.000   0.000  -0.001  -0.003   0.001  -0.000  -0.000   0.001   0.002  -0.001   0.001   0.001   0.000   0.000   0.001   0.000
 -0.000  -0.001  -0.000  -0.001  -0.000   0.001   0.001   0.000   0.001   0.000   0.001   0.000   0.000   0.000   0.000  -0.000
 -0.002  -0.000  -0.003  -0.004   0.003   0.001   0.000   0.003   0.004  -0.002   0.007   0.000   0.000   0.002   0.002  -0.000
 -0.002  -0.000  -0.003  -0.004   0.003   0.002   0.000   0.002   0.004  -0.002   0.008   0.001   0.000   0.002   0.002  -0.000
  0.000   0.000  -0.000   0.000   0.000  -0.000  -0.000   0.000  -0.000  -0.000  -0.000   0.000  -0.000  -0.000  -0.000   0.000
  0.000   0.000   0.000   0.000  -0.000  -0.000  -0.000  -0.000  -0.000   0.000  -0.000  -0.000  -0.000  -0.000  -0.000   0.000
  0.000   0.000   0.000   0.000  -0.000  -0.000  -0.000  -0.000  -0.000   0.000  -0.000  -0.000  -0.000  -0.000  -0.000   0.000


------------------------ aborting loop because EDIFF is reached ----------------------------------------


    CHARGE:  cpu time    0.10: real time    0.10
    FORLOC:  cpu time    0.01: real time    0.01
    FORNL :  cpu time    2.09: real time    2.09
    STRESS:  cpu time    2.42: real time    2.42
    FORCOR:  cpu time    0.22: real time    0.21
    FORHAR:  cpu time    0.03: real time    0.03
    MIXING:  cpu time    0.00: real time    0.00
    OFIELD:  cpu time    0.00: real time    0.00

  FORCE on cell =-STRESS in cart. coord.  units (eV):
  Direction    XX          YY          ZZ          XY          YZ          ZX
  --------------------------------------------------------------------------------------
  Alpha Z    95.40012    95.40012    95.40012
  Ewald   23174.60162 26391.28797 35439.14891 -1865.72460 -1875.14303  -737.37736
  Hartree 34993.62945 38064.51084 46766.55030 -1788.04793 -1735.01513  -648.58619
  E(xc)   -2029.86255 -2029.77661 -2029.55504     0.07133    -0.22070    -0.20264
  Local  -63887.13285-70175.70538-87930.78891  3657.16155  3608.63117  1382.58725
  n-local  -366.43435  -365.94659  -363.83874    -1.09872     0.15952     0.77141
  augment  3215.24930  3215.42672  3216.49450    -0.69979     0.38704     0.80398
  Kinetic  4791.33953  4791.48957  4793.40449    -1.64425     1.28479     2.15069
  Fock        0.00000     0.00000     0.00000     0.00000     0.00000     0.00000
  -------------------------------------------------------------------------------------
  Total     -13.20974   -13.31336   -13.18436     0.01759     0.08366     0.14714
  in kB      -1.93777    -1.95298    -1.93405     0.00258     0.01227     0.02158
  external pressure =       -1.94 kB  Pullay stress =        0.00 kB


 VOLUME and BASIS-vectors are now :
 -----------------------------------------------------------------------------
  energy-cutoff  :      249.84
  volume of cell :    10921.98
      direct lattice vectors                 reciprocal lattice vectors
    22.187095634  0.000000000  0.000000000     0.045071244  0.000000000  0.000000000
     0.000000000 22.187095634  0.000000000     0.000000000  0.045071244  0.000000000
     0.000000000  0.000000000 22.187095634     0.000000000  0.000000000  0.045071244

  length of vectors
    22.187095634 22.187095634 22.187095634     0.045071244  0.045071244  0.045071244


 FORCES acting on ions
    electron-ion (+dipol)            ewald-force                    non-local-force                 convergence-correction
 -----------------------------------------------------------------------------------------------
   -.125E+04 0.600E+03 0.280E+03   0.125E+04 -.599E+03 -.279E+03   0.792E+00 -.403E+00 -.838E+00   -.101E-01 0.434E-02 0.115E-02
   -.107E+04 0.206E+02 0.113E+04   0.107E+04 -.211E+02 -.112E+04   0.361E+01 0.515E+00 -.346E+01   0.177E-02 0.563E-03 0.177E-02
   -.618E+03 -.748E+03 0.119E+04   0.617E+03 0.746E+03 -.119E+04   0.111E+01 0.134E+01 -.218E+01   -.122E-02 -.573E-03 0.448E-03
   -.639E+03 0.872E+03 0.112E+04   0.636E+03 -.869E+03 -.112E+04   0.222E+01 -.302E+01 -.316E+01   0.275E-02 -.365E-02 0.172E-02
   -.144E+04 -.775E+02 -.449E+03   0.144E+04 0.768E+02 0.448E+03   0.257E+01 0.710E+00 0.902E+00   -.752E-03 0.278E-02 -.104E-02
   -.323E+02 0.995E+02 0.136E+04   0.314E+02 -.989E+02 -.136E+04   0.823E+00 -.593E+00 -.695E+00   -.951E-03 -.129E-02 -.231E-02
   -.151E+04 -.447E+03 0.259E+03   0.150E+04 0.446E+03 -.258E+03   0.451E+01 0.147E+01 -.752E+00   0.344E-02 -.381E-02 0.325E-02
   -.148E+03 -.135E+04 0.755E+03   0.147E+03 0.135E+04 -.753E+03   0.111E+01 0.427E+01 -.239E+01   0.114E-02 -.175E-02 0.562E-02
   -.951E+03 -.128E+04 0.245E+02   0.948E+03 0.128E+04 -.244E+02   0.297E+01 0.380E+01 -.985E-01   -.765E-03 0.205E-02 0.827E-02
   -.550E+03 0.145E+04 0.316E+03   0.550E+03 -.145E+04 -.314E+03   0.659E+00 -.434E+01 -.165E+01   -.227E-02 -.628E-02 0.820E-03
   0.376E+03 0.106E+04 0.112E+04   -.375E+03 -.106E+04 -.112E+04   -.105E+01 -.352E+01 -.246E+01   -.303E-02 0.264E-02 -.202E-02
   0.409E+03 -.555E+03 0.119E+04   -.408E+03 0.554E+03 -.119E+04   -.351E+00 0.115E+01 -.262E+00   -.128E-02 0.886E-03 -.309E-02
   0.475E+02 0.618E+03 0.252E+03   -.477E+02 -.617E+03 -.251E+03   0.173E+00 -.126E+01 -.549E+00   0.380E-02 -.697E-03 -.188E-02
   -.422E+03 -.350E+03 0.236E+03   0.421E+03 0.349E+03 -.235E+03   0.978E+00 0.914E+00 -.919E+00   0.135E-02 0.156E-02 -.243E-02
   -.943E+03 0.109E+04 -.424E+03   0.942E+03 -.108E+04 0.423E+03   0.696E+00 -.167E+01 0.157E+00   0.286E-02 -.231E-02 0.196E-02
   0.925E+03 0.300E+03 0.116E+04   -.925E+03 -.301E+03 -.116E+04   -.748E+00 0.160E-01 -.195E+01   -.375E-03 -.255E-02 -.326E-02
   0.103E+04 0.121E+04 0.362E+03   -.102E+04 -.120E+04 -.362E+03   -.253E+01 -.395E+01 0.107E+00   0.347E-02 0.104E-02 0.521E-02
   -.106E+04 0.462E+03 -.857E+03   0.106E+04 -.462E+03 0.855E+03   0.179E+01 -.575E+00 0.217E+01   0.286E-02 0.197E-02 -.243E-02
   0.244E+03 0.155E+04 -.307E+03   -.243E+03 -.155E+04 0.307E+03   -.648E+00 -.399E+01 0.546E+00   -.700E-03 0.439E-03 0.463E-02
   -.770E+03 -.108E+04 -.724E+03   0.768E+03 0.108E+04 0.723E+03   0.187E+01 0.171E+01 0.118E+01   -.259E-02 0.738E-03 0.176E-02
   -.131E+03 0.660E+02 -.562E+03   0.131E+03 -.656E+02 0.562E+03   -.417E+00 -.388E+00 0.420E+00   0.211E-02 0.303E-02 0.390E-03
   0.856E+02 -.138E+04 -.265E+03   -.854E+02 0.138E+04 0.265E+03   -.237E+00 0.109E+01 -.417E+00   -.215E-02 -.114E-01 -.260E-02
   0.627E+03 -.241E+03 0.189E+02   -.626E+03 0.241E+03 -.188E+02   -.116E+01 0.732E+00 -.161E-01   -.151E-02 0.152E-02 -.352E-02
   0.136E+04 -.413E+03 0.728E+03   -.135E+04 0.412E+03 -.727E+03   -.412E+01 0.103E+01 -.122E+01   0.151E-02 -.587E-02 -.364E-02
   0.115E+03 0.117E+04 -.976E+03   -.115E+03 -.116E+04 0.975E+03   -.457E+00 -.277E+01 0.129E+01   0.213E-02 0.212E-02 0.420E-02
   0.783E+03 -.123E+04 0.554E+03   -.780E+03 0.122E+04 -.553E+03   -.252E+01 0.405E+01 -.121E+01   -.346E-02 0.151E-02 0.226E-02
   0.156E+04 0.396E+03 0.139E+03   -.156E+04 -.395E+03 -.140E+03   -.450E+01 -.104E+01 0.889E+00   0.366E-02 -.472E-02 0.169E-02
   0.101E+04 0.842E+03 -.599E+03   -.101E+04 -.842E+03 0.598E+03   -.621E+00 -.566E+00 0.555E+00   0.171E-01 0.849E-02 -.137E-02
   -.754E+03 -.198E+03 -.107E+04   0.750E+03 0.196E+03 0.106E+04   0.488E+01 0.204E+01 0.449E+01   0.241E-02 0.460E-02 -.425E-02
   -.236E+03 -.766E+03 -.118E+04   0.235E+03 0.765E+03 0.118E+04   0.719E+00 0.100E+01 0.260E+01   -.367E-02 0.550E-02 -.212E-03
   0.925E+02 0.451E+03 -.137E+04   -.914E+02 -.449E+03 0.137E+04   -.114E+01 -.190E+01 0.420E+01   0.192E-02 0.261E-02 0.482E-03
   0.475E+03 -.102E+04 -.994E+03   -.473E+03 0.102E+04 0.993E+03   -.117E+01 0.108E+01 0.906E+00   -.823E-02 0.888E-03 0.224E-02
   0.114E+04 -.105E+04 -.373E+03   -.114E+04 0.105E+04 0.373E+03   -.394E+01 0.249E+01 0.228E+00   -.943E-02 -.277E-02 0.186E-02
   0.843E+03 0.909E+02 -.126E+04   -.841E+03 -.909E+02 0.126E+04   -.231E+01 0.154E-03 0.204E+01   0.906E-03 -.125E-02 0.273E-02
   0.140E+04 -.164E+03 -.779E+03   -.140E+04 0.164E+03 0.777E+03   -.365E+01 0.470E+00 0.175E+01   -.641E-03 -.844E-02 -.627E-03
 -----------------------------------------------------------------------------------------------
   0.132E+00 0.136E+00 -.215E+00   0.318E-11 0.313E-12 0.171E-11   -.808E-01 -.813E-01 0.213E+00   0.193E-02 -.815E-02 0.178E-01
 
 
 POSITION                                       TOTAL-FORCE (eV/Angst)
 -----------------------------------------------------------------------------------
     14.22594      9.81134      9.98483        -0.016628      0.003506     -0.003813
     14.61438     11.12211      7.51575        -0.004267     -0.000899     -0.000316
     13.13883     13.47677      7.99060        -0.005732     -0.003885     -0.000462
     13.41704      8.61087      7.53087         0.000281     -0.002703      0.000515
     14.42396     11.35083     12.38045         0.001100      0.004016     -0.002085
     11.83567     10.89804      7.86677         0.000172     -0.003983     -0.003711
     15.07862     12.51850      9.91547         0.003712      0.001349      0.007079
     11.56634     15.67653      8.77198        -0.003059     -0.004573      0.002529
     13.55940     14.78684     10.54704         0.004010     -0.002111      0.011623
     12.76481      7.39989      9.99180        -0.001740     -0.002845      0.002818
     10.70893      8.28935      8.11321        -0.003074      0.010877     -0.003438
     10.30835     13.17759      8.47504        -0.003395      0.001583     -0.003628
     11.19906      9.68806     10.55336         0.004646     -0.005187     -0.000726
     12.35743     12.26059     10.50919        -0.003379      0.000416     -0.005192
     13.29151      8.70331     12.44918         0.000627      0.000573      0.002265
      9.10362     10.58065      8.65522         0.002062     -0.000294     -0.006732
      8.81725      8.22971     10.19370         0.005667     -0.000503      0.003783
     13.68242     10.17016     14.81338         0.002896      0.005135      0.002860
     10.81683      7.28641     12.03830         0.001033      0.003951      0.005281
     12.86064     13.67517     13.02106        -0.001640      0.003982      0.001928
     11.62497     11.07267     13.04318        -0.000782      0.002560     -0.001239
     10.84301     14.84143     11.36572        -0.009122     -0.014974     -0.005064
      9.63207     12.01374     11.18657        -0.003624      0.003521      0.000514
      7.61776     12.90120      9.36988         0.008454     -0.011190     -0.008562
     11.23921      8.61758     14.49194         0.005252      0.000893      0.005215
      8.86717     15.39844      9.39234        -0.004386     -0.002395      0.000665
      7.28668     10.50295     10.81774         0.005284     -0.003991      0.000522
      9.09223      9.43610     12.78008         0.016227      0.011144     -0.009099
     14.01301     11.54122     17.19733         0.002838      0.009995     -0.008525
     12.09909     12.53073     15.46117        -0.003775      0.002852      0.004699
     11.69553     10.09294     16.82673         0.007207      0.006497      0.004156
     10.08146     13.48378     13.75745        -0.005586     -0.000952      0.002439
      8.12372     14.29980     11.88029        -0.004785     -0.005363      0.000151
      9.65002     10.97491     15.13473         0.002774      0.002210      0.005099
      7.71903     11.88570     13.29691         0.000733     -0.009214     -0.001548
 -----------------------------------------------------------------------------------
    total drift:                                0.052651      0.046409      0.015491


--------------------------------------------------------------------------------------------------------



  FREE ENERGIE OF THE ION-ELECTRON SYSTEM (eV)
  ---------------------------------------------------
  free  energy   TOTEN  =       -74.51355832 eV

  energy  without entropy=      -74.51355832  energy(sigma->0) =      -74.51355832
 
 d Force =-0.2470936E-05[-0.498E-05, 0.366E-07]  d Energy =-0.2208368E-04 0.196E-04
 d Force = 0.1160057E+00[ 0.116E+00, 0.116E+00]  d Ewald  = 0.1160057E+00-0.208E-08


--------------------------------------------------------------------------------------------------------


    POTLOK:  cpu time    0.23: real time    0.23


--------------------------------------------------------------------------------------------------------




--------------------------------------------------------------------------------------------------------


  
 reached required accuracy - stopping structural energy minimisation
     LOOP+:  cpu time   10.24: real time   10.47
    4ORBIT:  cpu time    0.00: real time    0.00

 total amount of memory used by VASP on root node    53721. kBytes
========================================================================

   base      :      30000. kBytes
   nonl-proj :       2154. kBytes
   fftplans  :       4332. kBytes
   grid      :      10964. kBytes
   one-center:         46. kBytes
   wavefun   :       6225. kBytes
 
  
  
 General timing and accounting informations for this job:
 ========================================================
  
                  Total CPU time used (sec):      636.192
                            User time (sec):      631.495
                          System time (sec):        4.696
                         Elapsed time (sec):      694.954
  
                   Maximum memory used (kb):       65964.
                   Average memory used (kb):           0.
  
                          Minor page faults:       408487
                          Major page faults:            0
                 Voluntary context switches:        24398
