       N       E                     dE             d eps       ncg     rms          rms(c)
DAV:   1     0.186825241762E+04    0.18683E+04   -0.35057E+04   544   0.569E+02
DAV:   2     0.537011066336E+03   -0.13312E+04   -0.11816E+04   984   0.124E+02
DAV:   3     0.309313442824E+01   -0.53392E+03   -0.49224E+03   752   0.909E+01
DAV:   4    -0.367739302806E+02   -0.39867E+02   -0.39162E+02   592   0.276E+01
DAV:   5    -0.373628798610E+02   -0.58895E+00   -0.58806E+00   608   0.402E+00    0.249E+01
DAV:   6    -0.118680847542E+02    0.25495E+02   -0.79547E+01   552   0.162E+01    0.128E+01
DAV:   7    -0.984632182316E+01    0.20218E+01   -0.41969E+00   584   0.575E+00    0.724E+00
DAV:   8    -0.114856810411E+02   -0.16394E+01   -0.15562E+00   568   0.287E+00    0.365E+00
DAV:   9    -0.147041935622E+02   -0.32185E+01   -0.72851E-01   608   0.162E+00    0.208E+00
DAV:  10    -0.203102295660E+02   -0.56060E+01   -0.15945E+00   560   0.214E+00    0.259E+00
DAV:  11    -0.205039581779E+02   -0.19373E+00   -0.39091E-02   656   0.419E-01    0.246E+00
DAV:  12    -0.225564953950E+02   -0.20525E+01   -0.48324E-01   560   0.150E+00    0.203E+00
DAV:  13    -0.288624652883E+02   -0.63060E+01   -0.34996E+00   560   0.345E+00    0.220E+00
DAV:  14    -0.293774177153E+02   -0.51495E+00   -0.12050E-01   632   0.764E-01    0.188E+00
DAV:  15    -0.308444316474E+02   -0.14670E+01   -0.27925E-01   576   0.933E-01    0.153E+00
DAV:  16    -0.337751348207E+02   -0.29307E+01   -0.12187E+00   560   0.163E+00    0.689E-01
DAV:  17    -0.349335130948E+02   -0.11584E+01   -0.31003E-01   544   0.105E+00    0.495E-01
DAV:  18    -0.355384577470E+02   -0.60494E+00   -0.63178E-02   584   0.410E-01    0.321E-01
DAV:  19    -0.363817996356E+02   -0.84334E+00   -0.67527E-02   568   0.363E-01    0.186E-01
DAV:  20    -0.365905709405E+02   -0.20877E+00   -0.60528E-03   592   0.156E-01    0.131E-01
DAV:  21    -0.367254438250E+02   -0.13487E+00   -0.44590E-03   576   0.997E-02    0.715E-02
DAV:  22    -0.367857476885E+02   -0.60304E-01   -0.30634E-03   576   0.734E-02    0.554E-02
DAV:  23    -0.367918627404E+02   -0.61151E-02   -0.55644E-04   384   0.705E-02    0.305E-02
DAV:  24    -0.367950460995E+02   -0.31834E-02   -0.34363E-04   392   0.362E-02    0.156E-02
DAV:  25    -0.367960617188E+02   -0.10156E-02   -0.32055E-04   392   0.206E-02    0.148E-02
DAV:  26    -0.367980251435E+02   -0.19634E-02   -0.89466E-05   400   0.235E-02    0.119E-02
DAV:  27    -0.367990448585E+02   -0.10197E-02   -0.34572E-05   376   0.124E-02    0.642E-03
DAV:  28    -0.368000405245E+02   -0.99567E-03   -0.26715E-05   368   0.121E-02    0.349E-03
DAV:  29    -0.368004220363E+02   -0.38151E-03   -0.11030E-05   360   0.506E-03    0.191E-03
DAV:  30    -0.368004575147E+02   -0.35478E-04   -0.45035E-06   376   0.312E-03
   1 F= -.36800458E+02 E0= -.36800458E+02  d E =-.368005E+02  mag=     1.0003
       N       E                     dE             d eps       ncg     rms          rms(c)
DAV:   1    -0.368318921484E+02   -0.31470E-01   -0.22655E+00   576   0.348E+00    0.108E-01
DAV:   2    -0.368329473380E+02   -0.10552E-02   -0.10781E-02   576   0.334E-01    0.748E-02
DAV:   3    -0.368329499887E+02   -0.26507E-05   -0.18757E-04   352   0.521E-02
   2 F= -.36832950E+02 E0= -.36832950E+02  d E =-.324925E-01  mag=     1.0001
       N       E                     dE             d eps       ncg     rms          rms(c)
DAV:   1    -0.369070515199E+02   -0.74104E-01   -0.20439E+01   544   0.105E+01    0.312E-01
DAV:   2    -0.369162391309E+02   -0.91876E-02   -0.96868E-02   576   0.100E+00    0.222E-01
DAV:   3    -0.369161364773E+02    0.10265E-03   -0.17888E-03   592   0.152E-01    0.144E-01
DAV:   4    -0.369159902894E+02    0.14619E-03   -0.64127E-04   584   0.704E-02    0.314E-02
DAV:   5    -0.369159867653E+02    0.35241E-05   -0.22151E-05   360   0.208E-02
   3 F= -.36915987E+02 E0= -.36915987E+02  d E =-.115529E+00  mag=     1.0001
       N       E                     dE             d eps       ncg     rms          rms(c)
DAV:   1    -0.369847558130E+02   -0.68766E-01   -0.81763E+01   544   0.210E+01    0.557E-01
DAV:   2    -0.370219521736E+02   -0.37196E-01   -0.38674E-01   576   0.201E+00    0.418E-01
DAV:   3    -0.370216509213E+02    0.30125E-03   -0.68284E-03   576   0.286E-01    0.283E-01
DAV:   4    -0.370209995332E+02    0.65139E-03   -0.24559E-03   584   0.132E-01    0.807E-02
DAV:   5    -0.370210028207E+02   -0.32875E-05   -0.12630E-04   368   0.441E-02
   4 F= -.37021003E+02 E0= -.37021003E+02  d E =-.220545E+00  mag=     1.0000
       N       E                     dE             d eps       ncg     rms          rms(c)
DAV:   1    -0.368551425591E+02    0.16586E+00   -0.32996E+02   544   0.425E+01    0.104E+00
DAV:   2    -0.370103101325E+02   -0.15517E+00   -0.15814E+00   584   0.412E+00    0.791E-01
DAV:   3    -0.370100379337E+02    0.27220E-03   -0.26756E-02   584   0.549E-01    0.548E-01
DAV:   4    -0.370074115618E+02    0.26264E-02   -0.75170E-03   584   0.235E-01    0.219E-01
DAV:   5    -0.370074351049E+02   -0.23543E-04   -0.12474E-03   584   0.105E-01    0.631E-02
DAV:   6    -0.370075125617E+02   -0.77457E-04   -0.18998E-04   384   0.333E-02
   5 F= -.37007513E+02 E0= -.37007513E+02  d E =-.207055E+00  mag=     1.0000
       N       E                     dE             d eps       ncg     rms          rms(c)
DAV:   1    -0.370064664492E+02    0.96866E-03   -0.92490E+01   544   0.223E+01    0.572E-01
DAV:   2    -0.370509715545E+02   -0.44505E-01   -0.44719E-01   584   0.215E+00    0.364E-01
DAV:   3    -0.370508598089E+02    0.11175E-03   -0.79865E-03   592   0.300E-01    0.244E-01
DAV:   4    -0.370506292714E+02    0.23054E-03   -0.23390E-03   584   0.133E-01    0.723E-02
DAV:   5    -0.370507740537E+02   -0.14478E-03   -0.14518E-04   392   0.441E-02    0.242E-02
DAV:   6    -0.370508238164E+02   -0.49763E-04   -0.44579E-05   376   0.167E-02
   6 F= -.37050824E+02 E0= -.37050824E+02  d E =-.250366E+00  mag=     1.0000
       N       E                     dE             d eps       ncg     rms          rms(c)
DAV:   1    -0.370708707234E+02   -0.20097E-01   -0.80326E+00   576   0.653E+00    0.112E-01
DAV:   2    -0.370747335096E+02   -0.38628E-02   -0.37331E-02   568   0.622E-01    0.102E-01
DAV:   3    -0.370747160312E+02    0.17478E-04   -0.57473E-04   584   0.750E-02
   7 F= -.37074716E+02 E0= -.37074716E+02  d E =-.238922E-01  mag=     1.0000
       N       E                     dE             d eps       ncg     rms          rms(c)
DAV:   1    -0.370943631396E+02   -0.19630E-01   -0.72586E+01   544   0.197E+01    0.356E-01
DAV:   2    -0.371291206416E+02   -0.34758E-01   -0.33815E-01   584   0.188E+00    0.321E-01
DAV:   3    -0.371287902634E+02    0.33038E-03   -0.52353E-03   592   0.226E-01    0.235E-01
DAV:   4    -0.371277574939E+02    0.10328E-02   -0.21289E-03   584   0.117E-01    0.114E-01
DAV:   5    -0.371276897557E+02    0.67738E-04   -0.82331E-04   608   0.731E-02
   8 F= -.37127690E+02 E0= -.37127690E+02  d E =-.768659E-01  mag=     1.0000
       N       E                     dE             d eps       ncg     rms          rms(c)
DAV:   1    -0.370098103243E+02    0.11795E+00   -0.29378E+02   544   0.399E+01    0.763E-01
DAV:   2    -0.371530194315E+02   -0.14321E+00   -0.14103E+00   592   0.387E+00    0.614E-01
DAV:   3    -0.371518902702E+02    0.11292E-02   -0.22240E-02   584   0.475E-01    0.427E-01
DAV:   4    -0.371486115286E+02    0.32787E-02   -0.58147E-03   592   0.198E-01    0.230E-01
DAV:   5    -0.371482648416E+02    0.34669E-03   -0.30747E-03   592   0.138E-01    0.742E-02
DAV:   6    -0.371483501841E+02   -0.85342E-04   -0.11226E-04   400   0.271E-02
   9 F= -.37148350E+02 E0= -.37148350E+02  d E =-.975264E-01  mag=     1.0000
       N       E                     dE             d eps       ncg     rms          rms(c)
DAV:   1    -0.371433744243E+02    0.48904E-02   -0.22939E+01   544   0.111E+01    0.184E-01
DAV:   2    -0.371545507162E+02   -0.11176E-01   -0.10649E-01   592   0.105E+00    0.159E-01
DAV:   3    -0.371545560799E+02   -0.53638E-05   -0.16564E-03   600   0.128E-01    0.118E-01
DAV:   4    -0.371544960230E+02    0.60057E-04   -0.53689E-04   576   0.592E-02
  10 F= -.37154496E+02 E0= -.37154496E+02  d E =-.103672E+00  mag=     1.0000
       N       E                     dE             d eps       ncg     rms          rms(c)
DAV:   1    -0.371725763732E+02   -0.18020E-01   -0.25343E+01   568   0.116E+01    0.199E-01
DAV:   2    -0.371847893347E+02   -0.12213E-01   -0.11831E-01   576   0.111E+00    0.172E-01
DAV:   3    -0.371846712283E+02    0.11811E-03   -0.18051E-03   608   0.131E-01    0.127E-01
DAV:   4    -0.371843566080E+02    0.31462E-03   -0.76634E-04   584   0.683E-02    0.575E-02
DAV:   5    -0.371843845046E+02   -0.27897E-04   -0.24716E-04   440   0.416E-02
  11 F= -.37184385E+02 E0= -.37184385E+02  d E =-.298885E-01  mag=     1.0000
       N       E                     dE             d eps       ncg     rms          rms(c)
DAV:   1    -0.371717686773E+02    0.12588E-01   -0.10528E+02   544   0.237E+01    0.457E-01
DAV:   2    -0.372242283521E+02   -0.52460E-01   -0.50234E-01   576   0.228E+00    0.346E-01
DAV:   3    -0.372238890247E+02    0.33933E-03   -0.78552E-03   608   0.276E-01    0.240E-01
DAV:   4    -0.372227364410E+02    0.11526E-02   -0.27850E-03   576   0.133E-01    0.104E-01
DAV:   5    -0.372227586789E+02   -0.22238E-04   -0.75984E-04   600   0.722E-02
  12 F= -.37222759E+02 E0= -.37222759E+02  d E =-.682627E-01  mag=     1.0000
       N       E                     dE             d eps       ncg     rms          rms(c)
DAV:   1    -0.370038782215E+02    0.21886E+00   -0.42877E+02   544   0.484E+01    0.117E+00
DAV:   2    -0.372248462242E+02   -0.22097E+00   -0.21163E+00   584   0.472E+00    0.705E-01
DAV:   3    -0.372227023285E+02    0.21439E-02   -0.34317E-02   568   0.593E-01    0.462E-01
DAV:   4    -0.372187183610E+02    0.39840E-02   -0.96641E-03   592   0.251E-01    0.205E-01
DAV:   5    -0.372187177786E+02    0.58239E-06   -0.22869E-03   584   0.126E-01    0.606E-02
DAV:   6    -0.372187664649E+02   -0.48686E-04   -0.20241E-04   416   0.363E-02
  13 F= -.37218766E+02 E0= -.37218766E+02  d E =-.642704E-01  mag=     1.0000
       N       E                     dE             d eps       ncg     rms          rms(c)
DAV:   1    -0.371786847872E+02    0.40033E-01   -0.11694E+02   544   0.250E+01    0.419E-01
DAV:   2    -0.372361906388E+02   -0.57506E-01   -0.54673E-01   584   0.239E+00    0.406E-01
DAV:   3    -0.372360591931E+02    0.13145E-03   -0.83288E-03   600   0.281E-01    0.308E-01
DAV:   4    -0.372346237586E+02    0.14354E-02   -0.27459E-03   568   0.132E-01    0.167E-01
DAV:   5    -0.372346459544E+02   -0.22196E-04   -0.17623E-03   600   0.104E-01    0.596E-02
DAV:   6    -0.372346668359E+02   -0.20881E-04   -0.45825E-05   384   0.177E-02
  14 F= -.37234667E+02 E0= -.37234667E+02  d E =-.801708E-01  mag=     1.0000
       N       E                     dE             d eps       ncg     rms          rms(c)
DAV:   1    -0.372433996915E+02   -0.87537E-02   -0.70133E+01   544   0.192E+01    0.312E-01
DAV:   2    -0.372777884928E+02   -0.34389E-01   -0.32807E-01   576   0.184E+00    0.265E-01
DAV:   3    -0.372775327529E+02    0.25574E-03   -0.50262E-03   600   0.228E-01    0.194E-01
DAV:   4    -0.372767252375E+02    0.80752E-03   -0.11982E-03   576   0.864E-02    0.107E-01
DAV:   5    -0.372765976065E+02    0.12763E-03   -0.11132E-03   592   0.804E-02    0.329E-02
DAV:   6    -0.372766149615E+02   -0.17355E-04   -0.21827E-05   360   0.125E-02
  15 F= -.37276615E+02 E0= -.37276615E+02  d E =-.419481E-01  mag=     1.0000
       N       E                     dE             d eps       ncg     rms          rms(c)
DAV:   1    -0.370079050207E+02    0.26869E+00   -0.65594E+02   544   0.600E+01    0.143E+00
DAV:   2    -0.373407963807E+02   -0.33289E+00   -0.32808E+00   576   0.594E+00    0.882E-01
DAV:   3    -0.373381610631E+02    0.26353E-02   -0.53020E-02   584   0.767E-01    0.568E-01
DAV:   4    -0.373326575878E+02    0.55035E-02   -0.84408E-03   584   0.238E-01    0.343E-01
DAV:   5    -0.373316502571E+02    0.10073E-02   -0.67629E-03   568   0.200E-01    0.878E-02
DAV:   6    -0.373318272552E+02   -0.17700E-03   -0.11265E-04   408   0.328E-02    0.554E-02
DAV:   7    -0.373320001007E+02   -0.17285E-03   -0.40403E-05   376   0.157E-02    0.222E-02
DAV:   8    -0.373321170367E+02   -0.11694E-03   -0.14289E-05   400   0.100E-02    0.664E-03
DAV:   9    -0.373321990105E+02   -0.81974E-04   -0.40593E-06   376   0.486E-03
  16 F= -.37332199E+02 E0= -.37332199E+02  d E =-.975322E-01  mag=     1.0000
       N       E                     dE             d eps       ncg     rms          rms(c)
DAV:   1    -0.373347685110E+02   -0.26515E-02   -0.83568E+01   544   0.210E+01    0.362E-01
DAV:   2    -0.373753727988E+02   -0.40604E-01   -0.39668E-01   568   0.202E+00    0.289E-01
DAV:   3    -0.373751456896E+02    0.22711E-03   -0.60103E-03   608   0.240E-01    0.211E-01
DAV:   4    -0.373743378307E+02    0.80786E-03   -0.16603E-03   584   0.102E-01    0.100E-01
DAV:   5    -0.373743499806E+02   -0.12150E-04   -0.83042E-04   592   0.725E-02
  17 F= -.37374350E+02 E0= -.37374350E+02  d E =-.421510E-01  mag=     1.0000
       N       E                     dE             d eps       ncg     rms          rms(c)
DAV:   1    -0.373046911504E+02    0.69647E-01   -0.18781E+02   544   0.316E+01    0.604E-01
DAV:   2    -0.373982965944E+02   -0.93605E-01   -0.90773E-01   584   0.306E+00    0.442E-01
DAV:   3    -0.373981236255E+02    0.17297E-03   -0.13994E-02   600   0.368E-01    0.311E-01
DAV:   4    -0.373965354772E+02    0.15881E-02   -0.34233E-03   576   0.148E-01    0.150E-01
DAV:   5    -0.373965568547E+02   -0.21377E-04   -0.15511E-03   584   0.100E-01    0.466E-02
DAV:   6    -0.373966007067E+02   -0.43852E-04   -0.63501E-05   392   0.213E-02
  18 F= -.37396601E+02 E0= -.37396601E+02  d E =-.644017E-01  mag=     1.0000
       N       E                     dE             d eps       ncg     rms          rms(c)
DAV:   1    -0.373731244244E+02    0.23432E-01   -0.12819E+02   544   0.261E+01    0.416E-01
DAV:   2    -0.374346379345E+02   -0.61514E-01   -0.60012E-01   568   0.248E+00    0.341E-01
DAV:   3    -0.374340621227E+02    0.57581E-03   -0.89718E-03   608   0.292E-01    0.252E-01
DAV:   4    -0.374325927073E+02    0.14694E-02   -0.22677E-03   560   0.119E-01    0.129E-01
DAV:   5    -0.374324071449E+02    0.18556E-03   -0.16590E-03   576   0.100E-01    0.403E-02
DAV:   6    -0.374324629263E+02   -0.55781E-04   -0.29155E-05   376   0.153E-02
  19 F= -.37432463E+02 E0= -.37432463E+02  d E =-.358622E-01  mag=     1.0000
       N       E                     dE             d eps       ncg     rms          rms(c)
DAV:   1    -0.373889062325E+02    0.43501E-01   -0.10408E+02   544   0.235E+01    0.377E-01
DAV:   2    -0.374385904653E+02   -0.49684E-01   -0.48604E-01   576   0.224E+00    0.306E-01
DAV:   3    -0.374381340980E+02    0.45637E-03   -0.72918E-03   608   0.264E-01    0.225E-01
DAV:   4    -0.374369505573E+02    0.11835E-02   -0.19400E-03   568   0.110E-01    0.112E-01
DAV:   5    -0.374368522936E+02    0.98264E-04   -0.12837E-03   576   0.889E-02    0.359E-02
DAV:   6    -0.374369093587E+02   -0.57065E-04   -0.25871E-05   384   0.140E-02
  20 F= -.37436909E+02 E0= -.37436909E+02  d E =-.403087E-01  mag=     1.0000
       N       E                     dE             d eps       ncg     rms          rms(c)
DAV:   1    -0.373755068328E+02    0.61345E-01   -0.17075E+02   544   0.303E+01    0.510E-01
DAV:   2    -0.374584356334E+02   -0.82929E-01   -0.78337E-01   568   0.287E+00    0.435E-01
DAV:   3    -0.374577209547E+02    0.71468E-03   -0.12354E-02   616   0.357E-01    0.317E-01
DAV:   4    -0.374556141623E+02    0.21068E-02   -0.32004E-03   584   0.141E-01    0.173E-01
DAV:   5    -0.374553395489E+02    0.27461E-03   -0.26704E-03   584   0.127E-01    0.524E-02
DAV:   6    -0.374554102808E+02   -0.70732E-04   -0.42954E-05   384   0.183E-02
  21 F= -.37455410E+02 E0= -.37455410E+02  d E =-.185009E-01  mag=     1.0000
       N       E                     dE             d eps       ncg     rms          rms(c)
DAV:   1    -0.374548515758E+02    0.48797E-03   -0.29169E+00   568   0.394E+00    0.601E-02
DAV:   2    -0.374563014403E+02   -0.14499E-02   -0.12959E-02   600   0.369E-01    0.564E-02
DAV:   3    -0.374563154907E+02   -0.14050E-04   -0.18381E-04   384   0.458E-02
  22 F= -.37456315E+02 E0= -.37456315E+02  d E =-.194061E-01  mag=     1.0000
       N       E                     dE             d eps       ncg     rms          rms(c)
DAV:   1    -0.374426771951E+02    0.13624E-01   -0.68940E+01   544   0.192E+01    0.393E-01
DAV:   2    -0.374767063460E+02   -0.34029E-01   -0.33150E-01   568   0.189E+00    0.351E-01
DAV:   3    -0.374765080800E+02    0.19827E-03   -0.57416E-03   608   0.253E-01    0.235E-01
DAV:   4    -0.374756805380E+02    0.82754E-03   -0.18201E-03   568   0.109E-01    0.122E-01
DAV:   5    -0.374757135083E+02   -0.32970E-04   -0.75630E-04   592   0.716E-02
  23 F= -.37475714E+02 E0= -.37475714E+02  d E =-.193980E-01  mag=     1.0000
       N       E                     dE             d eps       ncg     rms          rms(c)
DAV:   1    -0.374749160197E+02    0.76452E-03   -0.18184E+00   568   0.311E+00    0.738E-02
DAV:   2    -0.374758060392E+02   -0.89002E-03   -0.88275E-03   592   0.304E-01    0.614E-02
DAV:   3    -0.374758129404E+02   -0.69012E-05   -0.13660E-04   352   0.412E-02
  24 F= -.37475813E+02 E0= -.37475813E+02  d E =-.194974E-01  mag=     1.0000
       N       E                     dE             d eps       ncg     rms          rms(c)
DAV:   1    -0.374714502168E+02    0.43558E-02   -0.22508E+01   544   0.110E+01    0.286E-01
DAV:   2    -0.374819313172E+02   -0.10481E-01   -0.10398E-01   568   0.104E+00    0.224E-01
DAV:   3    -0.374818067340E+02    0.12458E-03   -0.18323E-03   608   0.132E-01    0.143E-01
DAV:   4    -0.374816203010E+02    0.18643E-03   -0.76783E-04   584   0.762E-02    0.436E-02
DAV:   5    -0.374816412644E+02   -0.20963E-04   -0.38996E-05   376   0.258E-02
  25 F= -.37481641E+02 E0= -.37481641E+02  d E =-.582832E-02  mag=     1.0000
       N       E                     dE             d eps       ncg     rms          rms(c)
DAV:   1    -0.374816504752E+02   -0.30174E-04   -0.13061E+00   560   0.265E+00    0.696E-02
DAV:   2    -0.374822964758E+02   -0.64600E-03   -0.60030E-03   608   0.251E-01    0.551E-02
DAV:   3    -0.374823015036E+02   -0.50278E-05   -0.98093E-05   384   0.318E-02
  26 F= -.37482302E+02 E0= -.37482302E+02  d E =-.648856E-02  mag=     1.0000
       N       E                     dE             d eps       ncg     rms          rms(c)
DAV:   1    -0.374806563503E+02    0.16401E-02   -0.18563E+01   544   0.998E+00    0.175E-01
DAV:   2    -0.374895857524E+02   -0.89294E-02   -0.85751E-02   568   0.949E-01    0.159E-01
DAV:   3    -0.374894769501E+02    0.10880E-03   -0.13096E-03   616   0.114E-01    0.118E-01
DAV:   4    -0.374891846746E+02    0.29228E-03   -0.61350E-04   576   0.610E-02    0.543E-02
DAV:   5    -0.374891815279E+02    0.31467E-05   -0.20797E-04   392   0.393E-02
  27 F= -.37489182E+02 E0= -.37489182E+02  d E =-.688002E-02  mag=     1.0000
       N       E                     dE             d eps       ncg     rms          rms(c)
DAV:   1    -0.374851595011E+02    0.40252E-02   -0.11838E+01   544   0.797E+00    0.142E-01
DAV:   2    -0.374908360549E+02   -0.56766E-02   -0.54851E-02   560   0.758E-01    0.125E-01
DAV:   3    -0.374907745657E+02    0.61489E-04   -0.83170E-04   608   0.907E-02
  28 F= -.37490775E+02 E0= -.37490775E+02  d E =-.847306E-02  mag=     1.0000
       N       E                     dE             d eps       ncg     rms          rms(c)
DAV:   1    -0.374914360416E+02   -0.59999E-03   -0.90051E+00   544   0.697E+00    0.119E-01
DAV:   2    -0.374956557013E+02   -0.42197E-02   -0.40762E-02   568   0.658E-01    0.120E-01
DAV:   3    -0.374956051693E+02    0.50532E-04   -0.60662E-04   592   0.762E-02
  29 F= -.37495605E+02 E0= -.37495605E+02  d E =-.483060E-02  mag=     1.0000
       N       E                     dE             d eps       ncg     rms          rms(c)
DAV:   1    -0.374636257670E+02    0.32030E-01   -0.81188E+01   544   0.210E+01    0.346E-01
DAV:   2    -0.375019087062E+02   -0.38283E-01   -0.36973E-01   560   0.198E+00    0.344E-01
DAV:   3    -0.375014227100E+02    0.48600E-03   -0.55258E-03   624   0.232E-01    0.263E-01
DAV:   4    -0.374999395984E+02    0.14831E-02   -0.26686E-03   576   0.127E-01    0.139E-01
DAV:   5    -0.374998776113E+02    0.61987E-04   -0.15388E-03   608   0.990E-02    0.543E-02
DAV:   6    -0.374999054336E+02   -0.27822E-04   -0.36837E-05   392   0.162E-02
  30 F= -.37499905E+02 E0= -.37499905E+02  d E =-.913087E-02  mag=     1.0000
       N       E                     dE             d eps       ncg     rms          rms(c)
DAV:   1    -0.374986447421E+02    0.12329E-02   -0.13694E+01   576   0.858E+00    0.113E-01
DAV:   2    -0.375051454952E+02   -0.65008E-02   -0.62560E-02   584   0.813E-01    0.125E-01
DAV:   3    -0.375050989214E+02    0.46574E-04   -0.92189E-04   608   0.945E-02
  31 F= -.37505099E+02 E0= -.37505099E+02  d E =-.519349E-02  mag=     1.0000
       N       E                     dE             d eps       ncg     rms          rms(c)
DAV:   1    -0.374559231159E+02    0.49222E-01   -0.12401E+02   544   0.259E+01    0.379E-01
DAV:   2    -0.375132801528E+02   -0.57357E-01   -0.55919E-01   568   0.244E+00    0.405E-01
DAV:   3    -0.375124609715E+02    0.81918E-03   -0.81763E-03   624   0.278E-01    0.324E-01
DAV:   4    -0.375098993129E+02    0.25617E-02   -0.34160E-03   576   0.143E-01    0.191E-01
DAV:   5    -0.375094612088E+02    0.43810E-03   -0.35021E-03   584   0.143E-01    0.756E-02
DAV:   6    -0.375095099250E+02   -0.48716E-04   -0.47598E-05   376   0.197E-02
  32 F= -.37509510E+02 E0= -.37509510E+02  d E =-.960449E-02  mag=     1.0000
       N       E                     dE             d eps       ncg     rms          rms(c)
DAV:   1    -0.375125270820E+02   -0.30659E-02   -0.72669E+00   568   0.623E+00    0.120E-01
DAV:   2    -0.375159018521E+02   -0.33748E-02   -0.33604E-02   568   0.596E-01    0.104E-01
DAV:   3    -0.375158744020E+02    0.27450E-04   -0.54150E-04   600   0.755E-02
  33 F= -.37515874E+02 E0= -.37515874E+02  d E =-.636448E-02  mag=     1.0000
       N       E                     dE             d eps       ncg     rms          rms(c)
DAV:   1    -0.375148233779E+02    0.10785E-02   -0.77419E+00   552   0.643E+00    0.142E-01
DAV:   2    -0.375183217202E+02   -0.34983E-02   -0.35246E-02   584   0.610E-01    0.121E-01
DAV:   3    -0.375182514708E+02    0.70249E-04   -0.57131E-04   600   0.762E-02
  34 F= -.37518251E+02 E0= -.37518251E+02  d E =-.874155E-02  mag=     1.0000
       N       E                     dE             d eps       ncg     rms          rms(c)
DAV:   1    -0.375182292836E+02    0.92437E-04   -0.10153E+01   552   0.737E+00    0.140E-01
DAV:   2    -0.375228200062E+02   -0.45907E-02   -0.46039E-02   576   0.699E-01    0.120E-01
DAV:   3    -0.375227429921E+02    0.77014E-04   -0.74825E-04   624   0.898E-02
  35 F= -.37522743E+02 E0= -.37522743E+02  d E =-.449152E-02  mag=     1.0000
       N       E                     dE             d eps       ncg     rms          rms(c)
DAV:   1    -0.375222321330E+02    0.58787E-03   -0.20874E+00   568   0.334E+00    0.859E-02
DAV:   2    -0.375231349484E+02   -0.90282E-03   -0.92072E-03   584   0.313E-01    0.694E-02
DAV:   3    -0.375231049095E+02    0.30039E-04   -0.14230E-04   360   0.406E-02
  36 F= -.37523105E+02 E0= -.37523105E+02  d E =-.485344E-02  mag=     1.0000
       N       E                     dE             d eps       ncg     rms          rms(c)
DAV:   1    -0.375227959257E+02    0.33902E-03   -0.21965E+00   568   0.343E+00    0.931E-02
DAV:   2    -0.375238217058E+02   -0.10258E-02   -0.10176E-02   608   0.324E-01    0.692E-02
DAV:   3    -0.375238391257E+02   -0.17420E-04   -0.16889E-04   400   0.427E-02
  37 F= -.37523839E+02 E0= -.37523839E+02  d E =-.734216E-03  mag=     1.0000
       N       E                     dE             d eps       ncg     rms          rms(c)
DAV:   1    -0.375238354184E+02   -0.13713E-04   -0.32834E-01   568   0.132E+00    0.300E-02
DAV:   2    -0.375240042333E+02   -0.16881E-03   -0.15222E-03   592   0.127E-01    0.247E-02
DAV:   3    -0.375240113386E+02   -0.71052E-05   -0.24777E-05   344   0.167E-02
  38 F= -.37524011E+02 E0= -.37524011E+02  d E =-.906429E-03  mag=     1.0000
