15
Energy = -65.20870611 eV
As 10.322500966176513 6.007223177737902 10.892903152246289
As 9.982266150553738 8.968226903949635 8.573135735225357
As 9.175025485728344 5.5280705800718755 8.856278741403202
As 8.56379950290891 11.545637808676982 10.998522948209946
As 7.978276745160008 9.745503433535257 7.291689500826541
As 8.639683573624126 11.968939221508847 6.695001440469334
As 8.12248606862821 7.374724289686995 6.195501796869636
As 6.949004271614605 6.65924487877621 8.285523033532177
As 6.266497608767668 9.036705554111812 9.024897523254872
As 10.420800393127948 6.941164001959471 7.209673303475329
As 7.343708072726892 9.280990548042071 11.199260865557259
As 11.503886893740349 10.890806106939095 8.951959984793007
As 9.68388948067519 8.319875626921739 10.973206961797267
As 10.85927998434957 10.641376986680323 11.400574280088954
As 9.572024825923835 12.47464092881449 8.835000684838377
