18
Energy = -81.12881552 eV
As 13.137496054095047 16.322031855861606 15.280567543952179
As 13.583348420492007 17.59978177669609 13.221730760515593
As 11.359969790035024 16.62411268254242 13.561864803891183
As 14.709221153107594 14.62485501870481 14.352979481449758
As 14.320287848459854 15.230557743642494 11.99141581294289
As 13.71179089355513 12.3174083527237 14.2089639834256
As 11.862069841758922 14.819553418067166 11.896683726887188
As 14.936289193543018 12.401305319957366 12.071673159108803
As 11.44916045103221 13.219381156043271 13.723100806355959
As 11.061425819452875 11.165222179475803 12.320166263359397
As 11.440431732454607 11.790760230792246 10.001592066205973
As 12.415019852581574 9.142498641194246 12.872250664150757
As 13.922747611732328 11.331464898109354 10.172351137941996
As 8.875297048221748 9.938486896063349 12.348749749603325
As 10.248737001054948 7.848894185098802 12.688792539551583
As 13.363889933428434 8.843001754968896 10.651074351630587
As 11.397040266101694 9.424636756050472 9.240679979422714
As 9.429840026221951 8.46035042936208 10.446264696821473
