19
Energy = -85.45005413 eV
As 16.65264478503267 12.42143878232754 13.828754317358062
As 14.503710104939973 11.486939067168896 14.60156254136559
As 13.138057447706728 13.578401130671255 14.828000263847157
As 13.71892791335174 10.21167674411966 12.619307541265968
As 17.475071333794034 10.774337555450135 12.165309071528094
As 16.464229811358575 12.9117986955599 11.406463945135469
As 11.108757115215736 12.399518751535139 14.136300581921775
As 11.72880935637151 11.602092277954654 11.883121211467284
As 15.365872585322425 10.767078410531594 10.861194724779685
As 13.679483255110327 15.04491157358825 12.87981718537331
As 10.051391392290853 9.60743056837546 12.523508614615306
As 12.964393045285886 13.73347891897558 10.934085642259793
As 10.088285999612454 12.556676434927338 9.714597055449707
As 9.810326312108277 14.31385874987412 13.285305241570999
As 11.477231778348505 15.471629794076765 11.81199879567979
As 9.122108267879666 10.62647496612852 8.839381408039117
As 8.335257615617335 9.347362284627287 10.80501732860161
As 8.016229905128132 10.9560222432093 12.672557056813464
As 8.492776339141901 13.125756798903376 11.470801002913593
