13
Energy = -58.17487621 eV
As 11.988976833675403 12.142269529507312 13.99864684044811
As 10.127792826036087 10.586995022020142 13.415231396060674
As 9.81034389505065 13.073668747677072 13.274350071007525
As 12.215120443975394 10.605602394844743 12.07406784340287
As 12.002532472113652 12.333261045066594 10.310443082704378
As 10.620382010235765 7.542947558913105 10.223120421983138
As 9.777143845013391 13.296358458697604 10.796248350293872
As 8.430038342197339 11.256521907531281 10.766869906435424
As 12.298237485730127 8.829669304094132 8.92660291090468
As 10.802783407929997 7.226281789531099 7.773083448354391
As 11.378098827671728 11.017488778784557 8.262777993006498
As 8.742149607249283 8.20155968551387 8.749735239331155
As 8.928750896259546 10.653222022260833 8.463153529561263
