23
Energy = -101.96341785 eV
As 14.211173727505338 17.44898414430044 16.026240920308283
As 18.961856342874395 12.391024588162532 8.341789819704438
As 13.66380171142739 16.24578980601382 13.935702607810379
As 18.782237340031035 14.139209175614429 10.059582334209368
As 18.168190669900195 11.82310438150831 10.598470790448602
As 11.216790505480715 16.206677468669934 14.566409536112193
As 14.68114916139624 14.412633173587638 15.260434384806647
As 13.779146347176825 15.391233543696753 17.35186798026693
As 11.312418877118114 15.676950338597774 16.98649427948055
As 16.74969788846857 13.151581004215009 9.095666999505193
As 14.416173198526387 12.129880035709729 12.725659880152595
As 13.510751133016196 12.249508606185392 14.839797490762173
As 8.258358086329299 16.143725393072817 13.718794513203571
As 7.909986234707939 14.012015999370348 12.957266419235827
As 10.889587958289951 13.900640454559722 15.31842243132814
As 10.752654712751758 10.733543666141244 9.911580781282275
As 13.117312503104232 10.110451518175882 9.922628244978249
As 11.834180596275033 9.363897732987235 13.478528310236161
As 8.344594527244935 14.272492096872941 15.350353764823605
As 9.918138470685337 10.249906170663552 12.241564609107646
As 13.894494595246536 9.765873235277294 12.219721954566097
As 11.455059046776581 8.341248619651559 9.64806223331298
As 10.598795728727785 7.8465047938943435 12.009622704996351
