24
Energy = -107.73442773 eV
As 15.338921789893037 7.733211075130383 9.720701217416288
As 15.84578773654433 9.156268727396595 11.70963988812407
As 13.121004000823241 10.59973152363896 9.674722367288755
As 15.490480848689765 12.81252053285697 11.017739421726056
As 14.795315744995206 14.82759411500062 12.278174521473929
As 14.117621036192306 10.937470185346372 11.903349543401307
As 14.171805258394102 7.320644921588451 11.835979259961526
As 12.87825268534609 8.131318919429997 9.854153793572184
As 13.77654147597219 14.363195648440218 10.059344634208587
As 13.206894245596574 14.457747791314754 14.200486816255808
As 10.952472141026833 11.310504555262737 10.686947972671378
As 11.769894104276096 12.464177358159832 14.118068268621156
As 8.667444675495478 8.011475245358286 10.428017182433496
As 11.406032689378863 13.794518163873704 10.557562542814363
As 7.312279408667555 9.885793570403706 11.466503830850906
As 11.028859113929231 14.487807451286718 12.960761555645892
As 11.295144088027362 15.769625595950986 16.33650618619049
As 5.926610753779697 10.055766938256651 9.379773611687328
As 7.285101413700653 8.176668212012386 8.34358795709233
As 7.551017555494148 11.78848078835722 9.942194273871287
As 9.597836230606589 8.95889989312458 8.365655321428159
As 9.565881728731032 11.39857484568804 8.593292986474138
As 9.304011367547517 15.208755403926203 15.3136695534979
As 10.632293876054415 13.386752507358933 16.290671262454328
