28
Energy = -125.59118153 eV
As 15.621228737293672 11.23691880521979 15.150670863679974
As 15.82080708257496 10.50577610616439 12.719234759390549
As 13.788166198801555 9.171030820989762 13.448417318228636
As 12.598750644994738 6.814950090595566 10.830431478974566
As 13.120757702130534 10.846273750699446 15.171872671371332
As 16.101068708686057 12.88625143211792 13.412939900844286
As 10.803171328687723 7.733666387717647 12.903399486330027
As 11.52169384659434 7.561987317179971 8.767172363775517
As 13.20115376290504 8.953207956117346 9.904512777944815
As 8.435941989656667 8.752285699735172 13.12443793959778
As 8.814656937190582 6.803348737412368 11.669001982234487
As 14.143241981777672 14.415152548117835 13.454912604840944
As 11.64556723132038 11.987575708663934 13.466553304109688
As 11.878851180056731 9.828574423505847 11.981446229076921
As 13.043002068514053 13.098992797171546 11.694508537156826
As 9.023440352155117 7.497062727715433 9.335492290760833
As 15.057367727270828 16.030415141423504 11.789685025289005
As 7.459321212149684 10.426626428202933 11.588517778547851
As 8.867664739013842 12.461927710749686 11.594735508550858
As 10.488660229332037 11.88903163062173 9.843527060862387
As 7.622161787607918 9.542006013548317 9.234390797125995
As 13.267731372965788 16.425050047039207 10.43158696430334
As 11.421867603781271 14.962562402990251 11.243725886476588
As 9.060029578588084 11.130775297181449 8.004711318363778
As 10.881664339554925 14.136428907976372 8.929522886994093
As 7.155630032015395 13.720796516367201 10.32174656688092
As 7.321065083237182 12.911487217068766 7.989000255108056
As 8.53010315953643 14.964603996099497 8.688612061573778
