33
Energy = -147.90771703 eV
As 16.763397991636833 12.381197640105201 12.787289861240035
As 15.030153947154433 13.1073710566929 14.461874882031362
As 15.860709572145078 10.057963564871434 13.230007481445925
As 15.638965678121082 12.481367641027683 10.488285347266098
As 14.246821051809532 14.515844256734429 11.012451785678135
As 12.840317887727597 10.720171219824179 16.122770792481294
As 13.67219564688774 11.143552498035106 13.81045607553874
As 13.568191935760892 14.829163333851648 13.397850629111044
As 15.05638917653252 10.077474363758197 10.823944940255904
As 12.546747449017946 10.469540129937826 10.881080970649926
As 11.544996328068862 12.849627522970861 16.000017919730375
As 14.020622101966419 11.08662821059599 7.89206868426607
As 11.469591831112337 8.93207595645439 12.547052678098929
As 11.9413516674974 14.844137347076018 10.184631661716908
As 11.571757546048543 13.302898614135728 13.504924778827904
As 10.378671815806568 10.701598313839419 15.763974764735414
As 12.657043438567275 9.224597672796996 8.702852140804566
As 9.591946085270946 14.792121342173159 13.728864121161271
As 9.666338267737553 10.669443882055194 13.231320769579435
As 12.564284076726441 12.490360634425036 6.594821470684682
As 11.815146910214885 14.697129786690619 7.723381473354829
As 7.928678322769587 9.05675215142192 14.026989477054746
As 10.243023716426809 7.50304792510664 11.029679362066902
As 10.500793785093366 12.804743873992816 10.443781854437894
As 8.078638100242014 12.8347228859614 13.565288908132985
As 8.59677557582852 14.125928983307464 11.553405216777882
As 10.521072353078432 9.407886373570694 7.51850683399413
As 8.190278547478002 7.185540906140668 12.42898001834172
As 9.580973063341125 13.584056443038348 8.215278571304168
As 10.21192968786196 11.716348617266842 6.652202972856205
As 8.340572441614999 10.691318336261816 10.720464675447364
As 8.866589455583284 8.804675950414024 9.340964118117896
As 6.72099227469777 9.136670295291777 11.840492492636347
