30
Energy = -136.29641447 eV
As 14.818950522266341 9.529011074950086 8.07822933103569
As 12.441658751549403 8.862292482061099 8.343891574568126
As 14.983646863190053 11.832860289190519 9.024001481696049
As 12.598833117036408 12.392609789344693 8.95315919772029
As 14.058798127217893 15.471506039331235 9.388291001446307
As 16.217612094719005 15.63610336044159 10.54552777579014
As 14.200962777508568 8.021527840309613 9.941892992349818
As 11.610887637984016 10.460221605174082 10.08350979610562
As 14.501872236680526 17.448428127150894 10.901286991940054
As 12.533005947961268 14.088435249858858 10.809660549302608
As 15.23571136442516 11.170082583629748 11.38806408591391
As 13.364640637965627 9.626127868203012 11.670879395341217
As 15.330761906056606 14.881045342284422 12.737550804764743
As 13.89074721665482 12.905181775516468 12.540225387772448
As 13.708406334503142 16.604345713416716 13.116410997032158
As 18.309836870182355 16.450955544545987 14.847535417615811
As 17.28872434053048 14.27541438681407 14.170623941377233
As 14.486277863200998 17.409983151959278 16.32207958338522
As 16.93781506489364 17.678942599514116 16.470694072364775
As 11.983816933726436 17.810051758138595 19.037953057664172
As 14.111709695623867 14.938435470801211 16.220401347903227
As 14.408655318196308 17.932240984639506 18.79070539867529
As 16.322193866304875 13.85063276781481 16.412721069440273
As 17.9398363930458 15.595568249917315 17.245013702228263
As 11.428451827742126 15.372600179372233 18.82369079847677
As 12.075748212012133 17.577889935642098 21.521471250297928
As 13.578092267463555 14.24730863544905 18.550066839998156
As 15.102958824355566 15.77159698510851 19.72462483511691
As 11.520819497753154 15.120640098478278 21.304697488445754
As 13.830490688689128 15.859883310380251 21.8570630336701
