35
Energy = -153.24094154 eV
As 9.247930262369643 11.968268390141162 10.25526159506734
As 14.904952667455085 9.255954105872508 12.184896301964342
As 14.310091509768856 16.886114893283512 8.008054809045586
As 12.835197068679548 18.52949515010246 9.086956911276623
As 17.959397040080894 11.118376561058081 19.40673550811397
As 11.290807794736349 16.303087230899923 16.935715303713156
As 14.616948639534085 9.988721509043302 19.847858122529956
As 16.76016575593551 17.40507461907994 17.596052178306415
As 16.570572582795496 9.415166284950875 18.34778275138634
As 14.617310558279188 12.327189571168924 18.955060570658517
As 15.802380208717322 8.648507628868975 9.92717429303793
As 14.485785869562774 14.706729212097533 13.35833199669601
As 13.357311296984589 9.07586761700114 10.271224533302762
As 14.234574418472082 12.947597241504733 11.890135983530282
As 12.882404076892374 9.937602476424086 16.245870349543857
As 12.645044229982291 13.035900232427949 9.55743474527563
As 10.338387164397023 13.071238053753559 8.403320219214034
As 16.139659276758863 11.390891405771304 11.916645633810841
As 11.635899718346645 11.99767120573472 11.559657344512436
As 13.80819422371508 10.958757317312337 8.718618904365446
As 15.566827056083635 15.694636521130422 17.177588683089603
As 12.926440718409284 8.857834106046706 18.475254283270303
As 16.59758581010061 11.755529138058133 17.483584578378668
As 14.548221470758147 19.27617498845413 7.484681462651818
As 12.071993707316345 17.065084449796988 14.364380982660705
As 12.584657968072264 15.823255987469969 12.2586749913142
As 12.941026233959441 12.240408972476235 17.160550169570506
As 9.327057567207447 14.44157548289807 10.23444189899303
As 15.211119819032408 18.427267076502194 9.695517077046416
As 11.252612348406501 10.616629568137906 17.974398513745257
As 16.17811667757943 11.138206434075926 9.436786842752486
As 10.659062598008887 14.143211162296087 12.353321277837273
As 11.356599215240959 19.302534070870806 13.759169263197338
As 9.423571315139483 17.475481802536795 16.781144556061857
As 9.703701888652883 17.682156754999156 14.126125382875424
