38
Energy = -167.09915879 eV
As 18.959523855472394 14.62355748189466 20.869951229289157
As 12.589577680950635 10.818162533307646 14.497495305733565
As 18.672407664771637 22.537314834119478 22.508801657786105
As 17.108483305456595 16.99235724342894 10.892384357433178
As 15.441631331507189 15.11453110620552 21.03957118298542
As 14.775519690356695 13.466838035136684 15.359069544876734
As 11.582081571944727 14.565652386388894 20.746251245247663
As 15.818958202961843 18.969090007491555 11.062061485438337
As 1.358649714394153 0.37777790250320886 15.742773505390026
As 20.44087981074458 22.500717305274154 19.469811370645257
As 11.087394857249285 14.728235140545886 18.246930211616284
As 17.64218510530399 20.777667456329862 21.04263098247351
As 17.697771278811604 20.718755039583616 17.1569551648188
As 19.01826808818195 21.706463217441183 15.291840442145068
As 13.379120323238894 15.790560599867456 17.951592167147872
As 13.401357339212188 16.23889497051892 20.41187118533066
As 19.224125926202174 20.384893471890237 19.1532828189656
As 15.073879370276382 12.861907777221345 20.29793001306869
As 1.0323724115681159 22.864492537516675 17.98392584409065
As 14.847202377343397 12.482604703213564 11.596446503536908
As 14.96239264469828 10.970276446036351 15.22106077244429
As 14.300235908498136 13.451830173732152 17.878502029194294
As 16.272313991777864 20.09989514819513 13.034638021978829
As 16.191993591102456 11.030664297995315 13.098224861213343
As 19.412354729111254 20.2067749641219 22.688800618824907
As 12.318715102948913 13.191021331717069 15.260962949741698
As 20.998989423488844 21.95442892749878 21.831996211090637
As 19.80540329106366 13.110227091780366 19.63554677986608
As 14.707845884390283 10.023939587194711 11.385684203744193
As 12.727580990099597 12.386755212185978 20.618481011500432
As 19.27447976541452 19.313595905493695 15.832017235557517
As 18.466472981298935 16.735078681980532 12.755440325023685
As 17.730388037453753 18.556180732741247 14.035598729357293
As 22.129026993928353 21.46989638349453 17.891236165342047
As 20.943214371371145 22.926117720217754 16.298895590227747
As 12.0192015050733 12.435565849652885 17.815297988172457
As 22.521825467401722 23.08244777722804 14.46670937659983
As 12.717550518106046 11.31607609238515 12.09288657539369
