4
Energy = -15.264664 eV
As 6.053784320506359 8.83790095264617 7.650232813252216
As 9.294919239018242 5.177462975958122 7.601869955677434
As 6.226792681993324 9.117260808554681 5.550270942031343
As 7.486336443216388 5.973011247360936 8.385603416587774
