4
Energy = -16.2778726 eV
As 8.223760334939927 9.724899846595893 8.06183182384505
As 8.01614442341608 7.8252363229122315 6.53918426836898
As 8.9021550554845 7.514207403069498 8.862899384980876
As 6.646437614259901 6.776731925499211 8.276788738009198
