40
Energy = -177.21796314 eV
As 13.333268647169858 11.80838161763662 8.409424471547451
As 11.452765485585376 15.203706445340737 9.349399794356913
As 9.650057926605419 13.689504153470152 8.66472742471307
As 10.8415739655752 11.500992052505236 8.346968417791672
As 14.42292096917834 13.806287644012844 9.46564787677287
As 16.361226312992706 9.979906710994499 9.854272580848773
As 18.459375354048642 15.053160750592976 10.25612577889891
As 18.20657403446839 12.694530138696809 10.956715687055826
As 13.23330707010288 10.779130397017239 10.769828077503274
As 10.729813253344002 10.558358083711937 10.705907189001206
As 12.611275690277042 13.923161894087038 11.191910808070483
As 8.073510470564319 13.506803595617729 10.573759696449551
As 10.23281319033761 16.78775974434448 10.781406305552597
As 15.744456866731753 12.12486583832521 10.8933841329083
As 14.391252071067928 8.759553239509941 10.035714897680641
As 9.33128127408264 12.662759727550732 12.634908405568082
As 10.642661943508923 8.108402149732603 10.725194283671087
As 17.524846768485304 16.41099126852587 11.861669660069309
As 8.245241208851033 15.777916812749137 11.431771925028675
As 12.528579293223721 15.975229898932248 12.76390645560755
As 11.583658651820954 7.743647836122664 12.832926602198794
As 18.343552752175537 13.317460448652183 13.413086599044036
As 12.331327246482438 10.012624198518132 13.338275960834565
As 11.40297243609572 14.280068865693547 14.219801571112253
As 7.582933237582086 10.910041697670685 13.287050252482233
As 8.899118826610186 14.585904125233004 14.251671134910913
As 16.298661505770685 14.639119742314117 13.04366950609424
As 14.885327915681938 11.875942437752306 14.11971823731681
As 13.837351694747385 16.348055668952824 15.00637035175593
As 8.730396447914572 9.64054065429606 15.091797241982079
As 13.915130582052214 9.853028315209073 15.23669140775566
As 16.072760812103375 15.368964689749118 15.410972204960439
As 17.27066807562985 11.506397487652059 14.719216761058265
As 10.564482945654667 11.373967770959833 14.994594701706655
As 12.197773942219346 15.117331777761231 16.41242095365021
As 7.147117531215237 11.508142849252694 15.642982472997016
As 13.288023865745387 13.133573468652326 17.39096208796797
As 9.049162423575066 13.047001988941451 16.209198904717187
As 15.724414471894544 13.011314287102683 16.22615038572977
As 12.214573861892848 10.971680549224404 16.836009815692503
