41
Energy = -183.08850055 eV
As 12.508576407084131 10.083660448283172 7.133464971525595
As 12.498348633488439 12.601756777466711 7.211375927901792
As 12.736699375934695 9.538704749792188 9.542920433715038
As 12.101524862214486 15.50378811250727 8.728919915188838
As 14.974618271557556 8.38766206200865 9.710070932205218
As 10.355485905531406 16.749379538454598 10.006184968418067
As 10.049490555369657 9.778400275998393 7.048176227894466
As 14.824984980210854 12.438919577055207 8.19034798248741
As 11.289683228905572 7.522652260198013 9.604870360660362
As 10.034133185356819 7.324368361745483 7.459195571195976
As 9.130526832903175 13.454616918262793 8.346504838564435
As 8.301633600180065 15.370629916351485 9.628498793118712
As 11.359232226846304 13.200622863080383 9.343834524398524
As 13.886564357542484 15.98424905195848 10.39217799990256
As 15.551917742401345 14.151240065974417 9.845312580477902
As 9.214865961630263 8.835614024617692 9.215746688149045
As 9.779264159561668 14.939288600111988 11.624393716345633
As 14.318451058274512 12.099001324183114 10.589028663063798
As 16.10379981719963 10.311284596135236 10.863495634849473
As 14.503827704308812 8.945748199460946 12.10373613021897
As 11.723628088170798 17.375478019634254 12.938372191883907
As 9.363999957909426 16.65627982395552 13.408368976049625
As 10.167769661002078 11.869140395102319 13.33466418324202
As 15.08989019213461 7.842665087054537 14.445236222411335
As 16.651430802963713 8.970009914584914 15.866182298050605
As 12.73679613884862 15.106129467471932 12.43948269234801
As 9.55659802903017 10.093499435627303 14.952619892325082
As 12.972270831569904 9.138440577028863 14.831096365178166
As 12.117021309529227 12.63868927964012 14.663591564404552
As 14.018260272603143 11.267334991686601 13.997589083237852
As 12.883154036110977 17.67245047705326 15.136698992797937
As 14.310412174433754 15.749500836351764 14.29302403750472
As 9.831258008535439 15.373210109807617 15.485371199038735
As 8.688300012690515 13.300837021984707 14.804863450239953
As 12.486311720394552 15.272516081179509 15.88784158305829
As 15.410683750531284 12.292523955601212 15.85021281974445
As 15.417955434561108 10.339219530620557 17.441143326058352
As 8.908799255064016 11.636891301346239 16.609784293544077
As 13.039976011654192 9.588914006836681 17.228094134469995
As 11.873499841933539 11.84003804795386 17.02312435219385
As 13.850603508952629 13.376891820957741 17.3966293870619
