42
Energy = -189.0840347 eV
As 11.084829733125082 15.283242716879801 8.707737261134458
As 13.393946461020233 9.73207586712024 7.577519797625743
As 11.778233304714194 11.547558925510568 8.022855951373211
As 13.238213399089663 15.228136909292857 7.436285031486965
As 15.374744974811525 10.49522115536728 8.937186472322535
As 15.263275371247753 14.386074400946931 8.586556983844984
As 9.809560782683292 10.075056418866982 7.591371677862105
As 7.890962706958736 10.841350187150038 9.043991733834593
As 11.348382694865233 14.247668130975754 10.955335183703788
As 9.77358656779933 7.7643105815790765 8.5973072938116
As 13.335862223926158 7.75038608310783 9.189214625681187
As 15.946131607540051 16.062983871802743 10.333577579817696
As 8.904608998235652 13.703398378240543 11.131841361836512
As 12.231536198816265 11.939200134513799 10.469015679347175
As 14.659996897575379 12.532758243862293 10.189175333526723
As 12.562784505280536 17.30456699399555 8.576901797529162
As 7.529736569859592 8.382732729048533 9.543080860635575
As 9.120008280293293 11.205926494763846 11.14645323239798
As 13.981041783590399 15.408449059902827 11.70382717679927
As 11.272247487815124 7.26444815419937 10.487838280701647
As 11.39374028554761 9.106156761888185 12.212076734537353
As 14.0403214720367 17.620332281375376 10.565270928039935
As 9.514169771933522 7.962884130047791 13.440231320067245
As 8.668716099984335 13.541800248948908 13.612299789617262
As 10.27541570718635 11.680183624732187 14.476048114904522
As 14.150146147573938 9.360361599624138 10.857670547337987
As 7.1621620445311445 10.675426507506554 12.613760026569405
As 7.42134867582957 8.244522434195128 12.047226451088507
As 15.083706016063228 7.9490379530074335 12.637402253180463
As 14.38689178509567 15.977419767730352 14.132304696384772
As 12.98680801536944 7.72481476821391 13.587477664385181
As 9.675851136222347 13.037846664535463 16.47891682751455
As 10.071712923036639 15.039829336529445 15.03765593316211
As 15.69149683530192 13.828523993026412 14.234954373180736
As 13.637496509292658 12.565586671426264 13.49702823280525
As 8.494529476192417 9.943047516471491 14.643678254480378
As 12.526211223898212 14.40867566514229 14.793175861776808
As 14.30951214173174 10.999835753573848 15.343632245734472
As 11.740798839165162 12.320340376976928 17.819516275220394
As 15.269013389205284 12.935463666248575 16.608502869740416
As 12.344388370999138 10.314417833415 16.55010405803404
As 13.226677508809175 14.178751932511458 17.15479815121977
