43
Energy = -193.01655377 eV
As 12.134855132099764 13.49303784835252 7.66927459866401
As 12.802660521492115 9.855090918843455 7.147116805478957
As 12.891718579048682 11.521497560439055 8.943452892998698
As 9.653001217022133 13.42137968395179 8.152123073398775
As 12.820794020027146 14.868166921442917 9.642227060315331
As 10.408034060199025 9.2361331362288 7.6074074516781245
As 15.354584306795662 11.974713990887809 8.906103887923457
As 8.94242970921664 11.052797006370866 8.50921330772455
As 15.299780446708096 14.456247345970356 9.431380954843698
As 13.451304519437723 7.915592796343892 8.6554824578306
As 9.903211257037286 12.375134251870929 10.403081960784975
As 11.085528164607757 7.748104102129835 9.534333519416085
As 7.789947619098526 14.960625174943713 12.706496965066352
As 13.023874986482415 13.31150602012584 11.71077444695131
As 9.559297672820584 16.05511890864774 11.432033748163851
As 15.124410846163235 11.09050318649084 11.224790502824378
As 14.084114229168692 8.762488821444457 10.96185245631177
As 7.788319015422491 12.674980651586997 11.776300865140598
As 11.466075199031115 15.143111601835077 12.83467772387299
As 11.716829280635853 9.492580883016283 11.248222869061697
As 14.81210544607315 15.033579862388319 11.852577298131946
As 16.4551596780732 14.545060265760378 13.680552478471393
As 14.766675030683054 9.258670431671476 15.133936889773027
As 17.325536320801106 10.560678569963363 12.013476185526317
As 12.593958672930448 17.326624865543895 12.48985385717716
As 9.635296125208368 11.842847321692306 13.329312657686033
As 11.40723343303172 8.442746516489892 13.542647740880415
As 10.134813363030586 17.859473995614902 13.138803041185872
As 13.143423310104152 14.503893588792641 15.701520866488869
As 16.803410003437172 10.607449929972505 14.366641367322158
As 15.22804073607785 15.87666453106229 15.45016720992981
As 9.157945084294068 9.434046514013811 13.75625271902093
As 12.85668087909761 10.447883476677918 13.996284279572249
As 15.246734167498479 12.55589484058515 14.544295756206743
As 13.626488883039228 17.741582733481813 14.71530399313057
As 9.23573290884797 11.026620559959834 15.657200007583013
As 10.096893697077583 16.01908614574738 14.80241114597113
As 11.631030479503005 11.772702784730726 15.702765071636154
As 14.93808739410631 10.363522668099836 17.358058412215055
As 15.935578937666829 12.668248737282768 16.936176958536358
As 11.991158584599841 16.66876347045182 16.285795299399528
As 13.793696037944752 13.562450569143387 17.93784241570875
As 12.673535910363714 11.262682675956047 17.90176266600228
