4
Energy = -15.25252602 eV
As 10.342087057120626 6.753708893721026 10.12105601183866
As 9.859470822056961 12.34008071695519 8.870528305810387
As 8.50940906053536 10.700822562661894 8.823941747197832
As 8.46015914480503 7.376513911180001 9.35560001967136
