50
Energy = -224.24498364 eV
As 9.378480857530393 9.332399477979761 5.431066973180237
As 11.75650600812987 7.041751411322898 6.239456254462064
As 12.850079235635823 9.131624418053473 5.446407642923028
As 10.386981557702128 12.513489669524416 5.542250812815486
As 13.88262306552994 12.789331812852884 6.951838940745555
As 4.908186463568206 9.110333307844206 7.827602911463484
As 8.229936696268126 5.867928994604787 6.626512912027355
As 8.009646649420176 13.153327599017711 5.928052551753055
As 9.639799896732157 7.780408404805757 7.396841341718365
As 7.76937349917308 10.73994077356329 6.75572498897763
As 14.904042316671399 7.7501499211084885 6.097843483277992
As 13.58601899932427 6.429159502154972 7.848661839064041
As 11.959964589014747 14.248725939818824 6.310590803325539
As 7.490370638642105 13.98165412771126 8.253435892643063
As 4.293794188082389 8.033703225213651 10.013732054415135
As 13.216105622353604 10.437871744630046 7.589352770189329
As 15.630399906981657 9.837139058357877 7.278328497407646
As 6.6846370138976505 8.504846813004395 9.439198125454844
As 9.490732651587322 4.4492105406449785 8.22700586554696
As 9.470896284171463 14.44068410499555 9.73454792135232
As 4.43647359745908 11.433263032791793 8.73796267412365
As 6.607080389051931 6.1510702627608715 8.557722756913416
As 11.027241050750668 12.46764021107433 9.833316037013601
As 13.53159402768164 8.072950963150143 9.743081081773441
As 15.953521045283843 8.607258370736862 9.40492589417092
As 13.01061148677878 10.135564050659932 12.316054481921405
As 5.986090968761044 7.082161329483989 14.591796860074075
As 6.754551867844815 11.912188669195249 9.503167838078632
As 3.439451211246284 10.254409432144309 10.740380238285931
As 12.594163636922744 14.069399466722045 8.689490485405766
As 16.22927093086538 10.244087205309606 11.243049416786535
As 12.201582627376908 13.330512670802467 11.897001753713914
As 10.207922471053172 10.76738433913854 7.315460369042526
As 5.966367033365232 13.721334258302347 11.108432581770261
As 8.307229700112005 14.088924442431422 11.944033797331013
As 14.473329062709915 12.021438427758742 12.02305381244215
As 4.329452160597801 10.570585085894864 13.058395604893438
As 8.194907193748088 11.565303394406751 12.20208132490227
As 8.288914924742945 5.192784746088856 10.063124611489043
As 6.348296700958101 9.101948382706203 13.177149544320711
As 9.420869638330284 8.539452825744581 13.122032290345187
As 15.073414841543052 8.768891662588217 12.922037667866247
As 14.48285404349619 6.667455736600535 11.632070722357259
As 8.375306031115901 7.523912119875007 15.204761405302827
As 6.045629881375619 12.403925615657348 13.22828340340735
As 11.79136282021324 11.765668967811266 13.827195691789788
As 12.019123789192852 6.543782964088851 11.863444179952477
As 6.615823883653605 9.215551778929624 15.653239735672104
As 9.504051644381567 10.830025291840276 14.209356670616643
As 11.734308741379245 7.866816990503555 13.738818027904994
