53
Energy = -236.85889365 eV
As 7.48560246710242 9.149755852042851 15.366531605976594
As 7.92202117413048 6.990330775650634 13.108056263978401
As 5.3099643531595095 9.962860090945263 12.290929364882693
As 9.464656063537381 7.631885798749906 14.97183479119043
As 4.85726005897103 12.003338555256903 13.70470400016986
As 8.353913173310842 11.327945982990332 16.144234817926733
As 7.110914693672632 7.658168579759375 9.786082162284828
As 10.947751162660339 5.265106451056211 10.698471717252794
As 7.689330125660889 9.500912213095791 12.91789533474244
As 9.25160371740764 7.148376255351189 11.042540895107603
As 5.588487402709654 11.217697398559709 10.13007220968282
As 6.232187161531318 12.579507144986188 15.782539573986403
As 11.81172106857877 5.543901354220492 12.93607794070027
As 5.995396878134678 13.985792281275124 12.633864278627781
As 11.37558526361315 8.736260153180593 13.742751522625877
As 14.585577427824386 6.484248340341684 9.917096135825417
As 7.367507061316058 12.729601783333433 11.017944386211624
As 12.146379432867828 6.396418329553847 7.278644887580292
As 7.728496815923789 6.956188848181791 7.474521303086063
As 7.696749075758375 10.082770443027323 9.24249437791812
As 9.241278044264726 12.19319903882206 13.953260358819911
As 12.576828328801174 7.17975230155078 11.324259588308703
As 10.798911077136362 9.13083906078365 11.388801840967787
As 11.296200065583637 12.898770213220866 15.18949110322447
As 14.293834267563737 8.562464587121573 12.917536955989826
As 12.477701136561487 10.66310455604439 15.04198969660504
As 7.739152927164965 14.172815971109964 14.46323383447483
As 12.941762557001395 12.422942302311268 11.68884296582099
As 9.759560335690217 8.364199049052875 7.61339268459296
As 10.93037408475785 14.039908614067013 9.844169359975705
As 11.54811518150825 15.96570403536596 12.725472439451442
As 7.607333313798329 9.399271774237077 6.818994691037518
As 12.835754968614982 14.041103537232697 13.606130265438768
As 14.28858046218945 11.02197939751711 13.355802199864529
As 11.251825383471738 8.048074380255295 5.624227739150753
As 16.01670990566894 8.180905500154713 11.105282910008714
As 14.010352155074203 7.674084153940577 7.840989915189747
As 8.114793165871854 12.716248858295426 7.521037481533977
As 7.236265508334152 14.396028699098025 9.143131048160674
As 9.637329049385025 14.663807361040773 11.943752601771635
As 15.273323916221148 10.085299415204686 9.703798994987869
As 12.72252606569903 15.780209344171732 10.24478584930555
As 13.822569531435759 12.31911768920961 7.999508118912998
As 10.915489135556836 11.78723743840759 5.556994269042521
As 14.580851898305333 14.241726884536511 10.929459092641821
As 9.199217230281825 15.845226784855877 9.780815094725863
As 17.256845816074733 11.596988859785778 9.729885443805854
As 12.13765534778871 10.05842295940709 6.880060856496237
As 16.981365688336837 9.952640433086776 7.915330780976941
As 10.242084508802519 13.582583323562883 7.148866944540494
As 16.324996457507876 12.333772029558725 7.545108694151749
As 14.383217439425882 14.680097679803097 8.486017234848442
As 13.403725747807092 11.778924826781328 5.561836942504216
