5
Energy = -19.94061451 eV
As 10.803632885627737 6.847452426001492 9.050761615521626
As 8.590842889810304 11.971704622443287 9.719080976304594
As 10.230095875504484 9.006840594765691 8.579937782367612
As 8.221266818741597 9.5903904436839 10.050916109014167
As 10.30085138622649 10.725531043490525 10.74312032721044
