7
Energy = -26.38853684 eV
As 9.466249179767608 7.665343854329538 6.755480348056375
As 7.772714014617442 9.455621112529515 6.7778312889568255
As 8.530165253842704 5.717665542331362 7.940225721001513
As 6.860406027079756 6.901838262703735 5.987280132132816
As 8.25141740394141 8.199513595311833 9.255152845789208
As 6.2497374025283685 6.2961604139625535 8.674748897356512
As 5.7811378607899835 8.606104419518724 7.95458438662855
