8
Energy = -35.4287166 eV
As 8.206831309264544 6.394236110963548 5.908962478615826
As 8.59896847871184 5.476421094131531 8.106006575937204
As 9.887549810203966 10.509191417669076 8.892088631634714
As 7.66728234037111 8.336465088684065 7.462521974788687
As 9.249924279133946 7.99979224696191 9.309304698369354
As 7.619203092641686 10.927138195875251 8.12294875823944
As 6.351052108911808 6.185252598965687 7.535680737112603
As 8.021007461044741 10.022509524930038 10.36532081512868
