5
Energy = -7.03069104 eV
Ag 9.231687409996098 8.920797210069367 12.103820063061445
Ag 8.53310456090158 9.750860994317042 7.025469744249906
Ag 9.442827216710645 8.309490262247063 9.36908599265237
Ag 9.538576288312983 7.3601149960046 6.854775789349995
Ag 8.489792931260787 10.902863179884838 9.907195692021975
