 vasp.5.3.5 31Mar14 (build Feb 01 2018 12:10:03) gamma-only                     
  
 executed on             LinuxIFC date 2019.03.20  17:33:01
 running on   32 total cores
 distrk:  each k-point on   32 cores,    1 groups
 distr:  one band on NCORES_PER_BAND=   8 cores,    4 groups


--------------------------------------------------------------------------------------------------------


 INCAR:
 POTCAR:    PAW_PBE Ag 02Apr2005                  
 POTCAR:    PAW_PBE Ag 02Apr2005                  
   VRHFIN =Ag : s1 d10                                                          
   LEXCH  = PE                                                                  
   EATOM  =  1037.2675 eV,   76.2370 Ry                                         
                                                                                
   TITEL  = PAW_PBE Ag 02Apr2005                                                
   LULTRA =        F    use ultrasoft PP ?                                      
   IUNSCR =        1    unscreen: 0-lin 1-nonlin 2-no                           
   RPACOR =    2.000    partial core radius                                     
   POMASS =  107.868; ZVAL   =   11.000    mass and valenz                      
   RCORE  =    2.500    outmost cutoff radius                                   
   RWIGS  =    2.840; RWIGS  =    1.503    wigner-seitz radius (au A)           
   ENMAX  =  249.844; ENMIN  =  187.383 eV                                      
   ICORE  =        3    local potential                                         
   LCOR   =        T    correct aug charges                                     
   LPAW   =        T    paw PP                                                  
   EAUG   =  412.496                                                            
   DEXC   =    0.000                                                            
   RMAX   =    2.560    core radius for proj-oper                               
   RAUG   =    1.300    factor for augmentation sphere                          
   RDEP   =    2.576    radius for radial grids                                 
   RDEPT  =    2.072    core radius for aug-charge                              
                                                                                
   Atomic configuration                                                         
   12 entries                                                                   
     n  l   j            E        occ.                                          
     1  0  0.50    -25324.9161   2.0000                                         
     2  0  0.50     -3728.5341   2.0000                                         
     2  1  1.50     -3344.0404   6.0000                                         
     3  0  0.50      -683.5581   2.0000                                         
     3  1  1.50      -557.3225   6.0000                                         
     3  2  2.50      -358.3853  10.0000                                         
     4  0  0.50       -95.0341   2.0000                                         
     4  1  1.50       -58.5511   6.0000                                         
     4  2  2.50        -7.4440  10.0000                                         
     5  0  0.50        -4.4045   1.0000                                         
     5  1  0.50        -1.3606   0.0000                                         
     4  3  2.50        -1.3606   0.0000                                         
   Description                                                                  
     l       E           TYP  RCUT    TYP  RCUT                                 
     2     -7.4439781     23  2.400                                             
     2     -8.8045607     23  2.400                                             
     0     -4.4044681     23  2.400                                             
     0      1.9520038     23  2.400                                             
     1     -1.3605826     23  2.500                                             
     1     27.2116520     23  2.500                                             
     3     -4.0817478     23  2.400                                             
  local pseudopotential read in
  partial core-charges read in
  partial kinetic energy density read in
  atomic valenz-charges read in
  non local Contribution for L=           2  read in
    real space projection operators read in
  non local Contribution for L=           2  read in
    real space projection operators read in
  non local Contribution for L=           0  read in
    real space projection operators read in
  non local Contribution for L=           0  read in
    real space projection operators read in
  non local Contribution for L=           1  read in
    real space projection operators read in
  non local Contribution for L=           1  read in
    real space projection operators read in
    PAW grid and wavefunctions read in
 
   number of l-projection  operators is LMAX  =           6
   number of lm-projection operators is LMMAX =          18
 
  PAW_PBE Ag 02Apr2005                  :
 energy of atom  1       EATOM=-1037.2675
 kinetic energy error for atom=    0.0689 (will be added to EATOM!!)
 
 
 POSCAR: Pt5, -17.10017795 <s> Ag </s>           
  positions in direct lattice
  No initial velocities read in
 exchange correlation table for  LEXCH =        8
   RHO(1)=    0.500       N(1)  =     2000
   RHO(2)=  100.500       N(2)  =     4000
 


--------------------------------------------------------------------------------------------------------


 ion  position               nearest neighbor table
   1  0.563  0.468  0.679-   3 2.42
   2  0.524  0.570  0.413-   5 2.59   4 2.60   3 2.63
   3  0.529  0.505  0.550-   1 2.42   4 2.58   5 2.61   2 2.63
   4  0.527  0.421  0.428-   3 2.58   2 2.60
   5  0.452  0.631  0.527-   2 2.59   3 2.61
 
  LATTYP: Found a simple cubic cell.
 ALAT       =    17.4318994503
  
  Lattice vectors:
  
 A1 = (  17.4318994503,   0.0000000000,   0.0000000000)
 A2 = (   0.0000000000,  17.4318994503,   0.0000000000)
 A3 = (   0.0000000000,   0.0000000000,  17.4318994503)


Analysis of symmetry for initial positions (statically):
=====================================================================
 Subroutine PRICEL returns:
 Original cell was already a primitive cell.
 

 Routine SETGRP: Setting up the symmetry group for a 
 simple cubic supercell.


 Subroutine GETGRP returns: Found  1 space group operations
 (whereof  1 operations were pure point group operations)
 out of a pool of 48 trial point group operations.


The static configuration has the point symmetry C_1 .


Analysis of symmetry for dynamics (positions and initial velocities):
=====================================================================
 Subroutine PRICEL returns:
 Original cell was already a primitive cell.
 

 Routine SETGRP: Setting up the symmetry group for a 
 simple cubic supercell.


 Subroutine GETGRP returns: Found  1 space group operations
 (whereof  1 operations were pure point group operations)
 out of a pool of 48 trial point group operations.


The dynamic configuration has the point symmetry C_1 .


Analysis of magnetic symmetry:
=====================================================================
 Subroutine PRICEL returns:
 Original cell was already a primitive cell.
 

 Subroutine MAGSYM returns: Found  1 space group operations
 (whereof  1 operations were pure point group operations)
 out of a pool of  1 trial space group operations
 (whereof  1 operations were pure point group operations)
 and found also     1 'primitive' translations


The magnetic configuration has the point symmetry C_1 .
 
 
 KPOINTS: Gamma-point only                        
  k-points in reciprocal lattice
Space group operators:
 irot       det(A)        alpha          n_x          n_y          n_z        tau_x        tau_y        tau_z
    1     1.000000     0.000000     1.000000     0.000000     0.000000     0.000000     0.000000     0.000000


--------------------------------------------------------------------------------------------------------




 Dimension of arrays:
   k-points           NKPTS =      1   k-points in BZ     NKDIM =      1   number of bands    NBANDS=     36
   number of dos      NEDOS =    301   number of ions     NIONS =      5
   non local maximal  LDIM  =      6   non local SUM 2l+1 LMDIM =     18
   total plane-waves  NPLWV = 343000
   max r-space proj   IRMAX =      1   max aug-charges    IRDMAX=   3383
   dimension x,y,z NGX =    70 NGY =   70 NGZ =   70
   dimension x,y,z NGXF=   140 NGYF=  140 NGZF=  140
   support grid    NGXF=   140 NGYF=  140 NGZF=  140
   ions per type =               5
 NGX,Y,Z   is equivalent  to a cutoff of   6.68,  6.68,  6.68 a.u.
 NGXF,Y,Z  is equivalent  to a cutoff of  13.35, 13.35, 13.35 a.u.


 I would recommend the setting:
   dimension x,y,z NGX =    67 NGY =   67 NGZ =   67
 SYSTEM =  unknown system                          
 POSCAR =  Pt5, -17.10017795 <s> Ag </s>           

 Startparameter for this run:
   NWRITE =      2    write-flag & timer
   PREC   = normal    normal or accurate (medium, high low for compatibility)
   ISTART =      0    job   : 0-new  1-cont  2-samecut
   ICHARG =      2    charge: 1-file 2-atom 10-const
   ISPIN  =      2    spin polarized calculation?
   LNONCOLLINEAR =      F non collinear calculations
   LSORBIT =      F    spin-orbit coupling
   INIWAV =      1    electr: 0-lowe 1-rand  2-diag
   LASPH  =      F    aspherical Exc in radial PAW
   METAGGA=      F    non-selfconsistent MetaGGA calc.

 Electronic Relaxation 1
   ENCUT  =  249.8 eV  18.36 Ry    4.29 a.u.  22.47 22.47 22.47*2*pi/ulx,y,z
   ENINI  =  249.8     initial cutoff
   ENAUG  =  412.5 eV  augmentation charge cutoff
   NELM   =     60;   NELMIN=  2; NELMDL= -5     # of ELM steps 
   EDIFF  = 0.1E-03   stopping-criterion for ELM
   LREAL  =      F    real-space projection
   NLSPLINE    = F    spline interpolate recip. space projectors
   LCOMPAT=      F    compatible to vasp.4.4
   GGA_COMPAT  = T    GGA compatible to vasp.4.4-vasp.4.6
   LMAXPAW     = -100 max onsite density
   LMAXMIX     =    2 max onsite mixed and CHGCAR
   VOSKOWN=      0    Vosko Wilk Nusair interpolation
   ROPT   =    0.00000
 Ionic relaxation
   EDIFFG = 0.1E-02   stopping-criterion for IOM
   NSW    =   1000    number of steps for IOM
   NBLOCK =      1;   KBLOCK =   1000    inner block; outer block 
   IBRION =      2    ionic relax: 0-MD 1-quasi-New 2-CG
   NFREE  =      1    steps in history (QN), initial steepest desc. (CG)
   ISIF   =      2    stress and relaxation
   IWAVPR =     11    prediction:  0-non 1-charg 2-wave 3-comb
   ISYM   =      2    0-nonsym 1-usesym 2-fastsym
   LCORR  =      T    Harris-Foulkes like correction to forces

   POTIM  = 0.1000    time-step for ionic-motion
   TEIN   =    0.0    initial temperature
   TEBEG  =    0.0;   TEEND  =   0.0 temperature during run
   SMASS  =  -3.00    Nose mass-parameter (am)
   estimated Nose-frequenzy (Omega)   =  0.10E-29 period in steps =****** mass=  -0.694E-26a.u.
   SCALEE = 1.0000    scale energy and forces
   NPACO  =    256;   APACO  = 16.0  distance and # of slots for P.C.
   PSTRESS=    0.0 pullay stress

  Mass of Ions in am
   POMASS = 107.87
  Ionic Valenz
   ZVAL   =  11.00
  Atomic Wigner-Seitz radii
   RWIGS  =  -1.00
  virtual crystal weights 
   VCA    =   1.00
   NELECT =      55.0000    total number of electrons
   NUPDOWN=      -1.0000    fix difference up-down

 DOS related values:
   EMIN   =  10.00;   EMAX   =-10.00  energy-range for DOS
   EFERMI =   0.00
   ISMEAR =     0;   SIGMA  =   0.00  broadening in eV -4-tet -1-fermi 0-gaus

 Electronic relaxation 2 (details)
   IALGO  =     38    algorithm
   LDIAG  =      T    sub-space diagonalisation (order eigenvalues)
   LSUBROT=      F    optimize rotation matrix (better conditioning)
   TURBO    =      0    0=normal 1=particle mesh
   IRESTART =      0    0=no restart 2=restart with 2 vectors
   NREBOOT  =      0    no. of reboots
   NMIN     =      0    reboot dimension
   EREF     =   0.00    reference energy to select bands
   IMIX   =      4    mixing-type and parameters
     AMIX     =   0.40;   BMIX     =  1.00
     AMIX_MAG =   1.60;   BMIX_MAG =  1.00
     AMIN     =   0.10
     WC   =   100.;   INIMIX=   1;  MIXPRE=   1;  MAXMIX= -45

 Intra band minimization:
   WEIMIN = 0.0010     energy-eigenvalue tresh-hold
   EBREAK =  0.69E-06  absolut break condition
   DEPER  =   0.30     relativ break condition  

   TIME   =   0.40     timestep for ELM

  volume/ion in A,a.u.               =    1059.41      7149.25
  Fermi-wavevector in a.u.,A,eV,Ry     =   0.357150  0.674916  1.735509  0.127556
  Thomas-Fermi vector in A             =   1.274323
 
 Write flags
   LWAVE  =      F    write WAVECAR
   LCHARG =      F    write CHGCAR
   LVTOT  =      F    write LOCPOT, total local potential
   LVHAR  =      F    write LOCPOT, Hartree potential only
   LELF   =      F    write electronic localiz. function (ELF)
   LORBIT =      0    0 simple, 1 ext, 2 COOP (PROOUT)


 Dipole corrections
   LMONO  =      F    monopole corrections only (constant potential shift)
   LDIPOL =      F    correct potential (dipole corrections)
   IDIPOL =      0    1-x, 2-y, 3-z, 4-all directions 
   EPSILON=  1.0000000 bulk dielectric constant

 Exchange correlation treatment:
   GGA     =    PE    GGA type
   LEXCH   =     8    internal setting for exchange type
   VOSKOWN=      0    Vosko Wilk Nusair interpolation
   LHFCALC =     F    Hartree Fock is set to
   LHFONE  =     F    Hartree Fock one center treatment
   AEXX    =    0.0000 exact exchange contribution

 Linear response parameters
   LEPSILON=     F    determine dielectric tensor
   LRPA    =     F    only Hartree local field effects (RPA)
   LNABLA  =     F    use nabla operator in PAW spheres
   LVEL    =     F    velocity operator in full k-point grid
   LINTERFAST=   F  fast interpolation
   KINTER  =     0    interpolate to denser k-point grid
   CSHIFT  =0.1000    complex shift for real part using Kramers Kronig
   OMEGAMAX=  -1.0    maximum frequency
   DEG_THRESHOLD= 0.2000000E-02 threshold for treating states as degnerate
   RTIME   =    0.100 relaxation time in fs

 Orbital magnetization related:
   ORBITALMAG=     F  switch on orbital magnetization
   LCHIMAG   =     F  perturbation theory with respect to B field
   DQ        =  0.001000  dq finite difference perturbation B field



--------------------------------------------------------------------------------------------------------


 conjugate gradient relaxation of ions
 charge density and potential will be updated during run
 spin polarized calculation
 Variant of blocked Davidson
 Davidson routine will perform the subspace rotation
 perform sub-space diagonalisation
    after iterative eigenvector-optimisation
 modified Broyden-mixing scheme, WC =      100.0
 initial mixing is a Kerker type mixing with AMIX =  0.4000 and BMIX =      1.0000
 Hartree-type preconditioning will be used
 using additional bands            8
 reciprocal scheme for non local part
 use partial core corrections
 calculate Harris-corrections to forces 
   (improved forces if not selfconsistent)
 use gradient corrections 
 use of overlap-Matrix (Vanderbilt PP)
 Gauss-broadening in eV      SIGMA  =   0.00


--------------------------------------------------------------------------------------------------------


  energy-cutoff  :      249.84
  volume of cell :     5297.05
      direct lattice vectors                 reciprocal lattice vectors
    17.431899450  0.000000000  0.000000000     0.057366095  0.000000000  0.000000000
     0.000000000 17.431899450  0.000000000     0.000000000  0.057366095  0.000000000
     0.000000000  0.000000000 17.431899450     0.000000000  0.000000000  0.057366095

  length of vectors
    17.431899450 17.431899450 17.431899450     0.057366095  0.057366095  0.057366095


 
 k-points in units of 2pi/SCALE and weight: Gamma-point only                        
   0.00000000  0.00000000  0.00000000       1.000
 
 k-points in reciprocal lattice and weights: Gamma-point only                        
   0.00000000  0.00000000  0.00000000       1.000
 
 position of ions in fractional coordinates (direct lattice) 
   0.56314763  0.46811237  0.67879608
   0.52448114  0.56963114  0.41314256
   0.52899911  0.50522458  0.54963551
   0.52668312  0.42120827  0.42761878
   0.45170100  0.63130251  0.52721646
 
 position of ions in cartesian coordinates  (Angst):
   9.81673287  8.16008776 11.83270495
   9.14270257  9.92975270  7.20185950
   9.22145931  8.80702415  9.58119093
   9.18108721  7.34246020  7.45420752
   7.87400644 11.00480183  9.19038437
 


--------------------------------------------------------------------------------------------------------


 use parallel FFT for wavefunctions z direction half grid
 k-point  1 :   0.0000 0.0000 0.0000  plane waves:   23701

 maximum and minimum number of plane-waves per node :      2967     2958

 maximum number of plane-waves:     23701
 maximum index in each direction: 
   IXMAX=   22   IYMAX=   22   IZMAX=   22
   IXMIN=  -22   IYMIN=  -22   IZMIN=    0

 WARNING: aliasing errors must be expected set NGX to  90 to avoid them
 WARNING: aliasing errors must be expected set NGY to  90 to avoid them
 WARNING: aliasing errors must be expected set NGZ to  90 to avoid them
 aliasing errors are usually negligible using standard VASP settings
 and one can safely disregard these warnings

 parallel 3D FFT for wavefunctions:
    minimum data exchange during FFTs selected (reduces bandwidth)
 parallel 3D FFT for charge:
    minimum data exchange during FFTs selected (reduces bandwidth)


 total amount of memory used by VASP on root node    46419. kBytes
========================================================================

   base      :      30000. kBytes
   nonl-proj :        663. kBytes
   fftplans  :       4203. kBytes
   grid      :      10682. kBytes
   one-center:         15. kBytes
   wavefun   :        856. kBytes
 
     INWAV:  cpu time    0.00: real time    0.00
 Broyden mixing: mesh for mixing (old mesh)
   NGX = 45   NGY = 45   NGZ = 45
  (NGX  =140   NGY  =140   NGZ  =140)
  gives a total of  91125 points

 initial charge density was supplied:
 charge density of overlapping atoms calculated
 number of electron      55.0000000 magnetization       5.0000000
 keeping initial charge density in first step


--------------------------------------------------------------------------------------------------------


 Maximum index for augmentation-charges          256 (set IRDMAX)


--------------------------------------------------------------------------------------------------------


 First call to EWALD:  gamma=   0.102
 Maximum number of real-space cells 3x 3x 3
 Maximum number of reciprocal cells 3x 3x 3

 FEWALD executed in parallel
    FEWALD:  cpu time    0.00: real time    0.00


----------------------------------------- Iteration    1(   1)  ---------------------------------------


    POTLOK:  cpu time    0.16: real time    0.16
    SETDIJ:  cpu time    0.00: real time    0.01
     EDDAV:  cpu time    0.20: real time    0.20
       DOS:  cpu time    0.00: real time    0.00
    --------------------------------------------
      LOOP:  cpu time    0.36: real time    0.38

 eigenvalue-minimisations  :   144
 total energy-change (2. order) : 0.4708016E+03  (-0.7133995E+03)
 number of electron      55.0000000 magnetization       5.0000000
 augmentation part       55.0000000 magnetization       5.0000000

 Free energy of the ion-electron system (eV)
  ---------------------------------------------------
  alpha Z        PSCENC =         4.01439454
  Ewald energy   TEWEN  =      2154.32179681
  -Hartree energ DENC   =     -7107.37920493
  -exchange      EXHF   =         0.00000000
  -V(xc)+E(xc)   XCENC  =       -57.05720098
  PAW double counting   =      5016.86089035    -4786.32304439
  entropy T*S    EENTRO =         0.00000000
  eigenvalues    EBANDS =        60.37083988
  atomic energy  EATOM  =      5185.99315043
  ---------------------------------------------------
  free energy    TOTEN  =       470.80162171 eV

  energy without entropy =      470.80162171  energy(sigma->0) =      470.80162171


--------------------------------------------------------------------------------------------------------




----------------------------------------- Iteration    1(   2)  ---------------------------------------


     EDDAV:  cpu time    0.33: real time    0.34
       DOS:  cpu time    0.00: real time    0.00
    --------------------------------------------
      LOOP:  cpu time    0.34: real time    0.93

 eigenvalue-minimisations  :   288
 total energy-change (2. order) :-0.2307768E+03  (-0.2116080E+03)
 number of electron      55.0000000 magnetization       5.0000000
 augmentation part       55.0000000 magnetization       5.0000000

 Free energy of the ion-electron system (eV)
  ---------------------------------------------------
  alpha Z        PSCENC =         4.01439454
  Ewald energy   TEWEN  =      2154.32179681
  -Hartree energ DENC   =     -7107.37920493
  -exchange      EXHF   =         0.00000000
  -V(xc)+E(xc)   XCENC  =       -57.05720098
  PAW double counting   =      5016.86089035    -4786.32304439
  entropy T*S    EENTRO =         0.00000000
  eigenvalues    EBANDS =      -170.40596453
  atomic energy  EATOM  =      5185.99315043
  ---------------------------------------------------
  free energy    TOTEN  =       240.02481730 eV

  energy without entropy =      240.02481730  energy(sigma->0) =      240.02481730


--------------------------------------------------------------------------------------------------------




----------------------------------------- Iteration    1(   3)  ---------------------------------------


     EDDAV:  cpu time    0.30: real time    0.30
       DOS:  cpu time    0.00: real time    0.00
    --------------------------------------------
      LOOP:  cpu time    0.30: real time    0.31

 eigenvalue-minimisations  :   256
 total energy-change (2. order) :-0.2079638E+03  (-0.1990273E+03)
 number of electron      55.0000000 magnetization       5.0000000
 augmentation part       55.0000000 magnetization       5.0000000

 Free energy of the ion-electron system (eV)
  ---------------------------------------------------
  alpha Z        PSCENC =         4.01439454
  Ewald energy   TEWEN  =      2154.32179681
  -Hartree energ DENC   =     -7107.37920493
  -exchange      EXHF   =         0.00000000
  -V(xc)+E(xc)   XCENC  =       -57.05720098
  PAW double counting   =      5016.86089035    -4786.32304439
  entropy T*S    EENTRO =         0.00000000
  eigenvalues    EBANDS =      -378.36980797
  atomic energy  EATOM  =      5185.99315043
  ---------------------------------------------------
  free energy    TOTEN  =        32.06097386 eV

  energy without entropy =       32.06097386  energy(sigma->0) =       32.06097386


--------------------------------------------------------------------------------------------------------




----------------------------------------- Iteration    1(   4)  ---------------------------------------


     EDDAV:  cpu time    0.23: real time    0.23
       DOS:  cpu time    0.00: real time    0.00
    --------------------------------------------
      LOOP:  cpu time    0.23: real time    0.36

 eigenvalue-minimisations  :   184
 total energy-change (2. order) :-0.3745894E+02  (-0.3709679E+02)
 number of electron      55.0000000 magnetization       5.0000000
 augmentation part       55.0000000 magnetization       5.0000000

 Free energy of the ion-electron system (eV)
  ---------------------------------------------------
  alpha Z        PSCENC =         4.01439454
  Ewald energy   TEWEN  =      2154.32179681
  -Hartree energ DENC   =     -7107.37920493
  -exchange      EXHF   =         0.00000000
  -V(xc)+E(xc)   XCENC  =       -57.05720098
  PAW double counting   =      5016.86089035    -4786.32304439
  entropy T*S    EENTRO =         0.00000000
  eigenvalues    EBANDS =      -415.82874938
  atomic energy  EATOM  =      5185.99315043
  ---------------------------------------------------
  free energy    TOTEN  =        -5.39796755 eV

  energy without entropy =       -5.39796755  energy(sigma->0) =       -5.39796755


--------------------------------------------------------------------------------------------------------




----------------------------------------- Iteration    1(   5)  ---------------------------------------


     EDDAV:  cpu time    0.20: real time    0.20
       DOS:  cpu time    0.00: real time    0.00
    CHARGE:  cpu time    0.02: real time    0.02
    MIXING:  cpu time    0.00: real time    0.00
    --------------------------------------------
      LOOP:  cpu time    0.23: real time    0.24

 eigenvalue-minimisations  :   152
 total energy-change (2. order) :-0.1009609E+01  (-0.1008493E+01)
 number of electron      55.0000074 magnetization       4.2641264
 augmentation part       26.1692080 magnetization       3.3705765

 Broyden mixing:
  rms(total) = 0.12026E+01    rms(broyden)= 0.12024E+01
  rms(prec ) = 0.12311E+01
  weight for this iteration     100.00

 Free energy of the ion-electron system (eV)
  ---------------------------------------------------
  alpha Z        PSCENC =         4.01439454
  Ewald energy   TEWEN  =      2154.32179681
  -Hartree energ DENC   =     -7107.37920493
  -exchange      EXHF   =         0.00000000
  -V(xc)+E(xc)   XCENC  =       -57.05720098
  PAW double counting   =      5016.86089035    -4786.32304439
  entropy T*S    EENTRO =         0.00000000
  eigenvalues    EBANDS =      -416.83835789
  atomic energy  EATOM  =      5185.99315043
  ---------------------------------------------------
  free energy    TOTEN  =        -6.40757606 eV

  energy without entropy =       -6.40757606  energy(sigma->0) =       -6.40757606


--------------------------------------------------------------------------------------------------------




----------------------------------------- Iteration    1(   6)  ---------------------------------------


    POTLOK:  cpu time    0.15: real time    0.15
    SETDIJ:  cpu time    0.01: real time    0.01
     EDDAV:  cpu time    0.21: real time    0.21
       DOS:  cpu time    0.00: real time    0.00
    CHARGE:  cpu time    0.02: real time    0.02
    MIXING:  cpu time    0.00: real time    0.00
    --------------------------------------------
      LOOP:  cpu time    0.40: real time    0.40

 eigenvalue-minimisations  :   164
 total energy-change (2. order) : 0.5915286E+01  (-0.1554056E+01)
 number of electron      55.0000075 magnetization       3.7094137
 augmentation part       26.5179351 magnetization       2.3820949

 Broyden mixing:
  rms(total) = 0.57691E+00    rms(broyden)= 0.57687E+00
  rms(prec ) = 0.59444E+00
  weight for this iteration     100.00

 eigenvalues of (default mixing * dielectric matrix)
  average eigenvalue GAMMA=   0.8362
  0.8362

 Free energy of the ion-electron system (eV)
  ---------------------------------------------------
  alpha Z        PSCENC =         4.01439454
  Ewald energy   TEWEN  =      2154.32179681
  -Hartree energ DENC   =     -7097.53668949
  -exchange      EXHF   =         0.00000000
  -V(xc)+E(xc)   XCENC  =       -53.78052862
  PAW double counting   =      5174.08663901    -4946.74547447
  entropy T*S    EENTRO =         0.00000000
  eigenvalues    EBANDS =      -420.84557841
  atomic energy  EATOM  =      5185.99315043
  ---------------------------------------------------
  free energy    TOTEN  =        -0.49229019 eV

  energy without entropy =       -0.49229019  energy(sigma->0) =       -0.49229019


--------------------------------------------------------------------------------------------------------




----------------------------------------- Iteration    1(   7)  ---------------------------------------


    POTLOK:  cpu time    0.15: real time    0.15
    SETDIJ:  cpu time    0.00: real time    0.01
     EDDAV:  cpu time    0.22: real time    0.22
       DOS:  cpu time    0.00: real time    0.00
    CHARGE:  cpu time    0.02: real time    0.02
    MIXING:  cpu time    0.01: real time    0.00
    --------------------------------------------
      LOOP:  cpu time    0.40: real time    0.41

 eigenvalue-minimisations  :   164
 total energy-change (2. order) : 0.2252047E+01  (-0.9538369E-01)
 number of electron      55.0000075 magnetization       3.0813823
 augmentation part       26.4815512 magnetization       1.8418632

 Broyden mixing:
  rms(total) = 0.32819E+00    rms(broyden)= 0.32818E+00
  rms(prec ) = 0.33927E+00
  weight for this iteration     100.00

 eigenvalues of (default mixing * dielectric matrix)
  average eigenvalue GAMMA=   0.8655
  0.6826  1.0485

 Free energy of the ion-electron system (eV)
  ---------------------------------------------------
  alpha Z        PSCENC =         4.01439454
  Ewald energy   TEWEN  =      2154.32179681
  -Hartree energ DENC   =     -7107.74056963
  -exchange      EXHF   =         0.00000000
  -V(xc)+E(xc)   XCENC  =       -51.48198959
  PAW double counting   =      5268.75476326    -5043.45930220
  entropy T*S    EENTRO =         0.00000000
  eigenvalues    EBANDS =      -408.64248668
  atomic energy  EATOM  =      5185.99315043
  ---------------------------------------------------
  free energy    TOTEN  =         1.75975695 eV

  energy without entropy =        1.75975695  energy(sigma->0) =        1.75975695


--------------------------------------------------------------------------------------------------------




----------------------------------------- Iteration    1(   8)  ---------------------------------------


    POTLOK:  cpu time    0.15: real time    0.15
    SETDIJ:  cpu time    0.00: real time    0.01
     EDDAV:  cpu time    0.22: real time    0.22
       DOS:  cpu time    0.00: real time    0.00
    CHARGE:  cpu time    0.02: real time    0.02
    MIXING:  cpu time    0.00: real time    0.00
    --------------------------------------------
      LOOP:  cpu time    0.40: real time    0.42

 eigenvalue-minimisations  :   168
 total energy-change (2. order) :-0.2378146E+01  (-0.1225067E+00)
 number of electron      55.0000075 magnetization       2.5351808
 augmentation part       26.4220375 magnetization       1.3631890

 Broyden mixing:
  rms(total) = 0.15476E+00    rms(broyden)= 0.15475E+00
  rms(prec ) = 0.16038E+00
  weight for this iteration     100.00

 eigenvalues of (default mixing * dielectric matrix)
  average eigenvalue GAMMA=   1.1238
  0.6122  0.9332  1.8261

 Free energy of the ion-electron system (eV)
  ---------------------------------------------------
  alpha Z        PSCENC =         4.01439454
  Ewald energy   TEWEN  =      2154.32179681
  -Hartree energ DENC   =     -7116.27325556
  -exchange      EXHF   =         0.00000000
  -V(xc)+E(xc)   XCENC  =       -53.04850207
  PAW double counting   =      5355.78753308    -5132.12011685
  entropy T*S    EENTRO =         0.00000000
  eigenvalues    EBANDS =      -399.29338969
  atomic energy  EATOM  =      5185.99315043
  ---------------------------------------------------
  free energy    TOTEN  =        -0.61838931 eV

  energy without entropy =       -0.61838931  energy(sigma->0) =       -0.61838931


--------------------------------------------------------------------------------------------------------




----------------------------------------- Iteration    1(   9)  ---------------------------------------


    POTLOK:  cpu time    0.15: real time    0.15
    SETDIJ:  cpu time    0.00: real time    0.01
     EDDAV:  cpu time    0.20: real time    0.20
       DOS:  cpu time    0.00: real time    0.00
    CHARGE:  cpu time    0.02: real time    0.02
    MIXING:  cpu time    0.00: real time    0.00
    --------------------------------------------
      LOOP:  cpu time    0.39: real time    0.40

 eigenvalue-minimisations  :   148
 total energy-change (2. order) :-0.2121119E+01  (-0.7867142E-01)
 number of electron      55.0000075 magnetization       2.0786893
 augmentation part       26.4254865 magnetization       0.9514051

 Broyden mixing:
  rms(total) = 0.76970E-01    rms(broyden)= 0.76962E-01
  rms(prec ) = 0.82216E-01
  weight for this iteration     100.00

 eigenvalues of (default mixing * dielectric matrix)
  average eigenvalue GAMMA=   1.2208
  2.1339  0.6226  0.8193  1.3075

 Free energy of the ion-electron system (eV)
  ---------------------------------------------------
  alpha Z        PSCENC =         4.01439454
  Ewald energy   TEWEN  =      2154.32179681
  -Hartree energ DENC   =     -7117.77228641
  -exchange      EXHF   =         0.00000000
  -V(xc)+E(xc)   XCENC  =       -54.70065735
  PAW double counting   =      5400.06875497    -5177.18559737
  entropy T*S    EENTRO =         0.00000000
  eigenvalues    EBANDS =      -397.47906373
  atomic energy  EATOM  =      5185.99315043
  ---------------------------------------------------
  free energy    TOTEN  =        -2.73950810 eV

  energy without entropy =       -2.73950810  energy(sigma->0) =       -2.73950810


--------------------------------------------------------------------------------------------------------




----------------------------------------- Iteration    1(  10)  ---------------------------------------


    POTLOK:  cpu time    0.15: real time    0.15
    SETDIJ:  cpu time    0.00: real time    0.01
     EDDAV:  cpu time    0.20: real time    0.20
       DOS:  cpu time    0.00: real time    0.00
    CHARGE:  cpu time    0.02: real time    0.02
    MIXING:  cpu time    0.00: real time    0.00
    --------------------------------------------
      LOOP:  cpu time    0.39: real time    0.40

 eigenvalue-minimisations  :   152
 total energy-change (2. order) :-0.1584540E+01  (-0.5282570E-01)
 number of electron      55.0000075 magnetization       1.7630615
 augmentation part       26.4535881 magnetization       0.6707602

 Broyden mixing:
  rms(total) = 0.52399E-01    rms(broyden)= 0.52393E-01
  rms(prec ) = 0.55782E-01
  weight for this iteration     100.00

 eigenvalues of (default mixing * dielectric matrix)
  average eigenvalue GAMMA=   1.2300
  2.4505  1.3004  0.6261  0.8866  0.8866

 Free energy of the ion-electron system (eV)
  ---------------------------------------------------
  alpha Z        PSCENC =         4.01439454
  Ewald energy   TEWEN  =      2154.32179681
  -Hartree energ DENC   =     -7115.41919187
  -exchange      EXHF   =         0.00000000
  -V(xc)+E(xc)   XCENC  =       -56.06710775
  PAW double counting   =      5403.58332839    -5180.80398520
  entropy T*S    EENTRO =         0.00000000
  eigenvalues    EBANDS =      -399.94643361
  atomic energy  EATOM  =      5185.99315043
  ---------------------------------------------------
  free energy    TOTEN  =        -4.32404826 eV

  energy without entropy =       -4.32404826  energy(sigma->0) =       -4.32404826


--------------------------------------------------------------------------------------------------------




----------------------------------------- Iteration    1(  11)  ---------------------------------------


    POTLOK:  cpu time    0.15: real time    0.15
    SETDIJ:  cpu time    0.00: real time    0.01
     EDDAV:  cpu time    0.20: real time    0.20
       DOS:  cpu time    0.00: real time    0.00
    CHARGE:  cpu time    0.02: real time    0.02
    MIXING:  cpu time    0.00: real time    0.00
    --------------------------------------------
      LOOP:  cpu time    0.39: real time    0.40

 eigenvalue-minimisations  :   152
 total energy-change (2. order) :-0.7251815E+00  (-0.1451038E-01)
 number of electron      55.0000075 magnetization       1.4393331
 augmentation part       26.4541283 magnetization       0.3614604

 Broyden mixing:
  rms(total) = 0.33327E-01    rms(broyden)= 0.33325E-01
  rms(prec ) = 0.36638E-01
  weight for this iteration     100.00

 eigenvalues of (default mixing * dielectric matrix)
  average eigenvalue GAMMA=   1.3586
  2.7323  1.5695  1.5695  0.9347  0.7108  0.6348

 Free energy of the ion-electron system (eV)
  ---------------------------------------------------
  alpha Z        PSCENC =         4.01439454
  Ewald energy   TEWEN  =      2154.32179681
  -Hartree energ DENC   =     -7114.76931111
  -exchange      EXHF   =         0.00000000
  -V(xc)+E(xc)   XCENC  =       -56.70380784
  PAW double counting   =      5400.10780911    -5177.34309821
  entropy T*S    EENTRO =         0.00000000
  eigenvalues    EBANDS =      -400.67016347
  atomic energy  EATOM  =      5185.99315043
  ---------------------------------------------------
  free energy    TOTEN  =        -5.04922974 eV

  energy without entropy =       -5.04922974  energy(sigma->0) =       -5.04922974


--------------------------------------------------------------------------------------------------------




----------------------------------------- Iteration    1(  12)  ---------------------------------------


    POTLOK:  cpu time    0.15: real time    0.15
    SETDIJ:  cpu time    0.00: real time    0.01
     EDDAV:  cpu time    0.20: real time    0.20
       DOS:  cpu time    0.00: real time    0.00
    CHARGE:  cpu time    0.02: real time    0.02
    MIXING:  cpu time    0.00: real time    0.01
    --------------------------------------------
      LOOP:  cpu time    0.39: real time    0.40

 eigenvalue-minimisations  :   152
 total energy-change (2. order) :-0.6330628E+00  (-0.9617788E-02)
 number of electron      55.0000075 magnetization       1.2159173
 augmentation part       26.4625348 magnetization       0.1489161

 Broyden mixing:
  rms(total) = 0.17768E-01    rms(broyden)= 0.17763E-01
  rms(prec ) = 0.19846E-01
  weight for this iteration     100.00

 eigenvalues of (default mixing * dielectric matrix)
  average eigenvalue GAMMA=   1.4436
  3.2565  2.2900  1.2246  1.2246  0.6414  0.6414  0.8265

 Free energy of the ion-electron system (eV)
  ---------------------------------------------------
  alpha Z        PSCENC =         4.01439454
  Ewald energy   TEWEN  =      2154.32179681
  -Hartree energ DENC   =     -7113.13167278
  -exchange      EXHF   =         0.00000000
  -V(xc)+E(xc)   XCENC  =       -57.32636111
  PAW double counting   =      5387.70885452    -5164.79939544
  entropy T*S    EENTRO =         0.00000000
  eigenvalues    EBANDS =      -402.46305954
  atomic energy  EATOM  =      5185.99315043
  ---------------------------------------------------
  free energy    TOTEN  =        -5.68229257 eV

  energy without entropy =       -5.68229257  energy(sigma->0) =       -5.68229257


--------------------------------------------------------------------------------------------------------




----------------------------------------- Iteration    1(  13)  ---------------------------------------


    POTLOK:  cpu time    0.15: real time    0.15
    SETDIJ:  cpu time    0.00: real time    0.01
     EDDAV:  cpu time    0.20: real time    0.20
       DOS:  cpu time    0.00: real time    0.00
    CHARGE:  cpu time    0.02: real time    0.02
    MIXING:  cpu time    0.00: real time    0.01
    --------------------------------------------
      LOOP:  cpu time    0.38: real time    0.39

 eigenvalue-minimisations  :   144
 total energy-change (2. order) :-0.4260870E+00  (-0.4252948E-02)
 number of electron      55.0000075 magnetization       1.0956682
 augmentation part       26.4675567 magnetization       0.0346179

 Broyden mixing:
  rms(total) = 0.97247E-02    rms(broyden)= 0.97192E-02
  rms(prec ) = 0.11216E-01
  weight for this iteration     100.00

 eigenvalues of (default mixing * dielectric matrix)
  average eigenvalue GAMMA=   1.4995
  3.8359  2.3831  1.5273  1.2997  0.9291  0.7561  0.6323  0.6323

 Free energy of the ion-electron system (eV)
  ---------------------------------------------------
  alpha Z        PSCENC =         4.01439454
  Ewald energy   TEWEN  =      2154.32179681
  -Hartree energ DENC   =     -7111.99468359
  -exchange      EXHF   =         0.00000000
  -V(xc)+E(xc)   XCENC  =       -57.76306617
  PAW double counting   =      5380.59322392    -5157.58798580
  entropy T*S    EENTRO =         0.00000000
  eigenvalues    EBANDS =      -403.68520975
  atomic energy  EATOM  =      5185.99315043
  ---------------------------------------------------
  free energy    TOTEN  =        -6.10837960 eV

  energy without entropy =       -6.10837960  energy(sigma->0) =       -6.10837960


--------------------------------------------------------------------------------------------------------




----------------------------------------- Iteration    1(  14)  ---------------------------------------


    POTLOK:  cpu time    0.15: real time    0.15
    SETDIJ:  cpu time    0.01: real time    0.01
     EDDAV:  cpu time    0.20: real time    0.20
       DOS:  cpu time    0.00: real time    0.00
    CHARGE:  cpu time    0.02: real time    0.02
    MIXING:  cpu time    0.01: real time    0.01
    --------------------------------------------
      LOOP:  cpu time    0.39: real time    0.67

 eigenvalue-minimisations  :   144
 total energy-change (2. order) :-0.1518805E+00  (-0.8311497E-03)
 number of electron      55.0000075 magnetization       1.0268745
 augmentation part       26.4663098 magnetization      -0.0312054

 Broyden mixing:
  rms(total) = 0.55262E-02    rms(broyden)= 0.55241E-02
  rms(prec ) = 0.66885E-02
  weight for this iteration     100.00

 eigenvalues of (default mixing * dielectric matrix)
  average eigenvalue GAMMA=   1.5786
  4.3989  2.5556  1.8796  1.5249  0.9948  0.8819  0.6277  0.6277  0.7161

 Free energy of the ion-electron system (eV)
  ---------------------------------------------------
  alpha Z        PSCENC =         4.01439454
  Ewald energy   TEWEN  =      2154.32179681
  -Hartree energ DENC   =     -7111.57288696
  -exchange      EXHF   =         0.00000000
  -V(xc)+E(xc)   XCENC  =       -57.92149188
  PAW double counting   =      5379.61676517    -5156.58735033
  entropy T*S    EENTRO =         0.00000000
  eigenvalues    EBANDS =      -404.12463786
  atomic energy  EATOM  =      5185.99315043
  ---------------------------------------------------
  free energy    TOTEN  =        -6.26026008 eV

  energy without entropy =       -6.26026008  energy(sigma->0) =       -6.26026008


--------------------------------------------------------------------------------------------------------




----------------------------------------- Iteration    1(  15)  ---------------------------------------


    POTLOK:  cpu time    0.16: real time    0.15
    SETDIJ:  cpu time    0.00: real time    0.01
     EDDAV:  cpu time    0.18: real time    0.19
       DOS:  cpu time    0.00: real time    0.00
    CHARGE:  cpu time    0.02: real time    0.02
    MIXING:  cpu time    0.01: real time    0.01
    --------------------------------------------
      LOOP:  cpu time    0.38: real time    0.38

 eigenvalue-minimisations  :   132
 total energy-change (2. order) :-0.5466219E-01  (-0.3755170E-03)
 number of electron      55.0000075 magnetization       1.0091706
 augmentation part       26.4676506 magnetization      -0.0482354

 Broyden mixing:
  rms(total) = 0.20667E-02    rms(broyden)= 0.20655E-02
  rms(prec ) = 0.31127E-02
  weight for this iteration     100.00

 eigenvalues of (default mixing * dielectric matrix)
  average eigenvalue GAMMA=   1.6091
  4.9972  2.7560  1.9843  1.5965  1.1047  0.8461  0.8461  0.6237  0.6237  0.7125

 Free energy of the ion-electron system (eV)
  ---------------------------------------------------
  alpha Z        PSCENC =         4.01439454
  Ewald energy   TEWEN  =      2154.32179681
  -Hartree energ DENC   =     -7111.08376865
  -exchange      EXHF   =         0.00000000
  -V(xc)+E(xc)   XCENC  =       -57.98614703
  PAW double counting   =      5379.74618694    -5156.69836927
  entropy T*S    EENTRO =         0.00000000
  eigenvalues    EBANDS =      -404.62216605
  atomic energy  EATOM  =      5185.99315043
  ---------------------------------------------------
  free energy    TOTEN  =        -6.31492228 eV

  energy without entropy =       -6.31492228  energy(sigma->0) =       -6.31492228


--------------------------------------------------------------------------------------------------------




----------------------------------------- Iteration    1(  16)  ---------------------------------------


    POTLOK:  cpu time    0.15: real time    0.15
    SETDIJ:  cpu time    0.01: real time    0.01
     EDDAV:  cpu time    0.17: real time    0.17
       DOS:  cpu time    0.00: real time    0.00
    CHARGE:  cpu time    0.02: real time    0.02
    MIXING:  cpu time    0.00: real time    0.01
    --------------------------------------------
      LOOP:  cpu time    0.36: real time    0.37

 eigenvalue-minimisations  :   120
 total energy-change (2. order) :-0.9012059E-02  (-0.4629435E-04)
 number of electron      55.0000075 magnetization       0.9984507
 augmentation part       26.4675981 magnetization      -0.0586469

 Broyden mixing:
  rms(total) = 0.12474E-02    rms(broyden)= 0.12470E-02
  rms(prec ) = 0.21495E-02
  weight for this iteration     100.00

 eigenvalues of (default mixing * dielectric matrix)
  average eigenvalue GAMMA=   1.6016
  5.2365  2.8207  2.0868  1.7407  1.1911  0.9663  0.8177  0.8177  0.6102  0.6289
  0.7011

 Free energy of the ion-electron system (eV)
  ---------------------------------------------------
  alpha Z        PSCENC =         4.01439454
  Ewald energy   TEWEN  =      2154.32179681
  -Hartree energ DENC   =     -7110.91684809
  -exchange      EXHF   =         0.00000000
  -V(xc)+E(xc)   XCENC  =       -57.99822040
  PAW double counting   =      5379.81682506    -5156.76742696
  entropy T*S    EENTRO =         0.00000000
  eigenvalues    EBANDS =      -404.78760573
  atomic energy  EATOM  =      5185.99315043
  ---------------------------------------------------
  free energy    TOTEN  =        -6.32393434 eV

  energy without entropy =       -6.32393434  energy(sigma->0) =       -6.32393434


--------------------------------------------------------------------------------------------------------




----------------------------------------- Iteration    1(  17)  ---------------------------------------


    POTLOK:  cpu time    0.15: real time    0.15
    SETDIJ:  cpu time    0.00: real time    0.01
     EDDAV:  cpu time    0.16: real time    0.16
       DOS:  cpu time    0.00: real time    0.00
    CHARGE:  cpu time    0.02: real time    0.02
    MIXING:  cpu time    0.00: real time    0.01
    --------------------------------------------
      LOOP:  cpu time    0.35: real time    0.36

 eigenvalue-minimisations  :   108
 total energy-change (2. order) :-0.1625433E-02  (-0.3352382E-04)
 number of electron      55.0000075 magnetization       0.9976684
 augmentation part       26.4680086 magnetization      -0.0593315

 Broyden mixing:
  rms(total) = 0.93375E-03    rms(broyden)= 0.93357E-03
  rms(prec ) = 0.14803E-02
  weight for this iteration     100.00

 eigenvalues of (default mixing * dielectric matrix)
  average eigenvalue GAMMA=   1.6125
  5.3017  2.9212  2.4087  1.7726  1.5339  1.0603  0.8730  0.8730  0.7349  0.6378
  0.6378  0.5950

 Free energy of the ion-electron system (eV)
  ---------------------------------------------------
  alpha Z        PSCENC =         4.01439454
  Ewald energy   TEWEN  =      2154.32179681
  -Hartree energ DENC   =     -7110.75555352
  -exchange      EXHF   =         0.00000000
  -V(xc)+E(xc)   XCENC  =       -58.00223429
  PAW double counting   =      5380.11502049    -5157.07063656
  entropy T*S    EENTRO =         0.00000000
  eigenvalues    EBANDS =      -404.94149766
  atomic energy  EATOM  =      5185.99315043
  ---------------------------------------------------
  free energy    TOTEN  =        -6.32555977 eV

  energy without entropy =       -6.32555977  energy(sigma->0) =       -6.32555977


--------------------------------------------------------------------------------------------------------




----------------------------------------- Iteration    1(  18)  ---------------------------------------


    POTLOK:  cpu time    0.15: real time    0.15
    SETDIJ:  cpu time    0.01: real time    0.01
     EDDAV:  cpu time    0.16: real time    0.16
       DOS:  cpu time    0.00: real time    0.00
    CHARGE:  cpu time    0.02: real time    0.02
    MIXING:  cpu time    0.01: real time    0.01
    --------------------------------------------
      LOOP:  cpu time    0.35: real time    0.37

 eigenvalue-minimisations  :   104
 total energy-change (2. order) :-0.8786080E-03  (-0.1270713E-04)
 number of electron      55.0000075 magnetization       0.9974582
 augmentation part       26.4678214 magnetization      -0.0594827

 Broyden mixing:
  rms(total) = 0.48767E-03    rms(broyden)= 0.48761E-03
  rms(prec ) = 0.91543E-03
  weight for this iteration     100.00

 eigenvalues of (default mixing * dielectric matrix)
  average eigenvalue GAMMA=   1.6443
  5.3674  3.5110  2.5715  1.9333  1.6731  1.1120  0.9092  0.9092  0.8347  0.6958
  0.6340  0.6340  0.5911

 Free energy of the ion-electron system (eV)
  ---------------------------------------------------
  alpha Z        PSCENC =         4.01439454
  Ewald energy   TEWEN  =      2154.32179681
  -Hartree energ DENC   =     -7110.68854409
  -exchange      EXHF   =         0.00000000
  -V(xc)+E(xc)   XCENC  =       -58.00333290
  PAW double counting   =      5380.22898035    -5157.18911784
  entropy T*S    EENTRO =         0.00000000
  eigenvalues    EBANDS =      -405.00376567
  atomic energy  EATOM  =      5185.99315043
  ---------------------------------------------------
  free energy    TOTEN  =        -6.32643838 eV

  energy without entropy =       -6.32643838  energy(sigma->0) =       -6.32643838


--------------------------------------------------------------------------------------------------------




----------------------------------------- Iteration    1(  19)  ---------------------------------------


    POTLOK:  cpu time    0.15: real time    0.15
    SETDIJ:  cpu time    0.00: real time    0.01
     EDDAV:  cpu time    0.15: real time    0.15
       DOS:  cpu time    0.00: real time    0.00
    CHARGE:  cpu time    0.02: real time    0.02
    MIXING:  cpu time    0.01: real time    0.01
    --------------------------------------------
      LOOP:  cpu time    0.34: real time    0.43

 eigenvalue-minimisations  :   100
 total energy-change (2. order) :-0.6674790E-03  (-0.6668531E-05)
 number of electron      55.0000075 magnetization       0.9979175
 augmentation part       26.4679110 magnetization      -0.0590043

 Broyden mixing:
  rms(total) = 0.32586E-03    rms(broyden)= 0.32581E-03
  rms(prec ) = 0.60170E-03
  weight for this iteration     100.00

 eigenvalues of (default mixing * dielectric matrix)
  average eigenvalue GAMMA=   1.6788
  5.4193  4.0126  2.5896  2.2222  1.7553  1.3444  0.9627  0.9627  0.8870  0.8002
  0.6854  0.5984  0.6315  0.6315

 Free energy of the ion-electron system (eV)
  ---------------------------------------------------
  alpha Z        PSCENC =         4.01439454
  Ewald energy   TEWEN  =      2154.32179681
  -Hartree energ DENC   =     -7110.61240688
  -exchange      EXHF   =         0.00000000
  -V(xc)+E(xc)   XCENC  =       -58.00512833
  PAW double counting   =      5380.10429371    -5157.06360389
  entropy T*S    EENTRO =         0.00000000
  eigenvalues    EBANDS =      -405.07960224
  atomic energy  EATOM  =      5185.99315043
  ---------------------------------------------------
  free energy    TOTEN  =        -6.32710586 eV

  energy without entropy =       -6.32710586  energy(sigma->0) =       -6.32710586


--------------------------------------------------------------------------------------------------------




----------------------------------------- Iteration    1(  20)  ---------------------------------------


    POTLOK:  cpu time    0.15: real time    0.15
    SETDIJ:  cpu time    0.00: real time    0.01
     EDDAV:  cpu time    0.15: real time    0.15
       DOS:  cpu time    0.00: real time    0.00
    CHARGE:  cpu time    0.02: real time    0.02
    MIXING:  cpu time    0.00: real time    0.01
    --------------------------------------------
      LOOP:  cpu time    0.34: real time    0.35

 eigenvalue-minimisations  :   100
 total energy-change (2. order) :-0.6752847E-03  (-0.4003650E-05)
 number of electron      55.0000075 magnetization       0.9989663
 augmentation part       26.4681185 magnetization      -0.0579400

 Broyden mixing:
  rms(total) = 0.20124E-03    rms(broyden)= 0.20120E-03
  rms(prec ) = 0.35190E-03
  weight for this iteration     100.00

 eigenvalues of (default mixing * dielectric matrix)
  average eigenvalue GAMMA=   1.7164
  5.5491  4.5453  2.6896  2.4474  1.9095  1.4635  1.0531  1.0531  0.8586  0.8586
  0.8050  0.6630  0.6360  0.6242  0.5895

 Free energy of the ion-electron system (eV)
  ---------------------------------------------------
  alpha Z        PSCENC =         4.01439454
  Ewald energy   TEWEN  =      2154.32179681
  -Hartree energ DENC   =     -7110.54317023
  -exchange      EXHF   =         0.00000000
  -V(xc)+E(xc)   XCENC  =       -58.00713089
  PAW double counting   =      5379.90888753    -5156.86509456
  entropy T*S    EENTRO =         0.00000000
  eigenvalues    EBANDS =      -405.15061477
  atomic energy  EATOM  =      5185.99315043
  ---------------------------------------------------
  free energy    TOTEN  =        -6.32778114 eV

  energy without entropy =       -6.32778114  energy(sigma->0) =       -6.32778114


--------------------------------------------------------------------------------------------------------




----------------------------------------- Iteration    1(  21)  ---------------------------------------


    POTLOK:  cpu time    0.15: real time    0.15
    SETDIJ:  cpu time    0.00: real time    0.01
     EDDAV:  cpu time    0.17: real time    0.17
       DOS:  cpu time    0.00: real time    0.00
    CHARGE:  cpu time    0.02: real time    0.02
    MIXING:  cpu time    0.01: real time    0.01
    --------------------------------------------
      LOOP:  cpu time    0.35: real time    0.37

 eigenvalue-minimisations  :   112
 total energy-change (2. order) :-0.2481901E-03  (-0.1433938E-05)
 number of electron      55.0000075 magnetization       0.9995736
 augmentation part       26.4681425 magnetization      -0.0573097

 Broyden mixing:
  rms(total) = 0.12276E-03    rms(broyden)= 0.12272E-03
  rms(prec ) = 0.22268E-03
  weight for this iteration     100.00

 eigenvalues of (default mixing * dielectric matrix)
  average eigenvalue GAMMA=   1.7699
  6.0185  5.0820  2.8407  2.5955  1.9620  1.6124  1.3150  1.0738  0.8786  0.8501
  0.8501  0.7350  0.5975  0.6237  0.6396  0.6439

 Free energy of the ion-electron system (eV)
  ---------------------------------------------------
  alpha Z        PSCENC =         4.01439454
  Ewald energy   TEWEN  =      2154.32179681
  -Hartree energ DENC   =     -7110.52336700
  -exchange      EXHF   =         0.00000000
  -V(xc)+E(xc)   XCENC  =       -58.00765455
  PAW double counting   =      5379.93190194    -5156.88760701
  entropy T*S    EENTRO =         0.00000000
  eigenvalues    EBANDS =      -405.17064449
  atomic energy  EATOM  =      5185.99315043
  ---------------------------------------------------
  free energy    TOTEN  =        -6.32802933 eV

  energy without entropy =       -6.32802933  energy(sigma->0) =       -6.32802933


--------------------------------------------------------------------------------------------------------




----------------------------------------- Iteration    1(  22)  ---------------------------------------


    POTLOK:  cpu time    0.15: real time    0.15
    SETDIJ:  cpu time    0.00: real time    0.01
     EDDAV:  cpu time    0.16: real time    0.16
       DOS:  cpu time    0.00: real time    0.00
    --------------------------------------------
      LOOP:  cpu time    0.32: real time    0.33

 eigenvalue-minimisations  :   108
 total energy-change (2. order) :-0.3603791E-04  (-0.3011139E-06)
 number of electron      55.0000075 magnetization       0.9995736
 augmentation part       26.4681425 magnetization      -0.0573097

 Free energy of the ion-electron system (eV)
  ---------------------------------------------------
  alpha Z        PSCENC =         4.01439454
  Ewald energy   TEWEN  =      2154.32179681
  -Hartree energ DENC   =     -7110.51794659
  -exchange      EXHF   =         0.00000000
  -V(xc)+E(xc)   XCENC  =       -58.00772538
  PAW double counting   =      5379.97485855    -5156.93063280
  entropy T*S    EENTRO =         0.00000000
  eigenvalues    EBANDS =      -405.17596093
  atomic energy  EATOM  =      5185.99315043
  ---------------------------------------------------
  free energy    TOTEN  =        -6.32806537 eV

  energy without entropy =       -6.32806537  energy(sigma->0) =       -6.32806537


--------------------------------------------------------------------------------------------------------




 average (electrostatic) potential at core
  the test charge radii are     1.1249
  (the norm of the test charge is              1.0000)
       1 -81.5782       2 -82.6169       3 -82.5069       4 -82.4562       5 -82.5087
 
 
 
 E-fermi :  -4.3748     XC(G=0):  -0.5528     alpha+bet : -0.2167


 spin component 1

 k-point     1 :       0.0000    0.0000    0.0000
  band No.  band energies     occupation 
      1      -9.4408      1.00000
      2      -9.2778      1.00000
      3      -8.7604      1.00000
      4      -8.6190      1.00000
      5      -8.5855      1.00000
      6      -8.4982      1.00000
      7      -8.3497      1.00000
      8      -7.8943      1.00000
      9      -7.8762      1.00000
     10      -7.8091      1.00000
     11      -7.6657      1.00000
     12      -7.6048      1.00000
     13      -7.4197      1.00000
     14      -7.3956      1.00000
     15      -7.3732      1.00000
     16      -7.1697      1.00000
     17      -7.1530      1.00000
     18      -7.1167      1.00000
     19      -6.9857      1.00000
     20      -6.9032      1.00000
     21      -6.6616      1.00000
     22      -6.5975      1.00000
     23      -6.5882      1.00000
     24      -6.3759      1.00000
     25      -6.3457      1.00000
     26      -6.1688      1.00000
     27      -4.5297      1.00000
     28      -4.4465      1.00000
     29      -2.8401      0.00000
     30      -2.3389      0.00000
     31      -1.7341      0.00000
     32      -1.2677      0.00000
     33      -0.7797      0.00000
     34      -0.6128      0.00000
     35      -0.2667      0.00000
     36      -0.0838      0.00000

 spin component 2

 k-point     1 :       0.0000    0.0000    0.0000
  band No.  band energies     occupation 
      1      -9.4134      1.00000
      2      -9.2024      1.00000
      3      -8.6790      1.00000
      4      -8.5763      1.00000
      5      -8.5107      1.00000
      6      -8.4261      1.00000
      7      -8.2828      1.00000
      8      -7.8468      1.00000
      9      -7.8133      1.00000
     10      -7.7513      1.00000
     11      -7.5726      1.00000
     12      -7.5345      1.00000
     13      -7.3578      1.00000
     14      -7.3535      1.00000
     15      -7.3297      1.00000
     16      -7.1035      1.00000
     17      -7.0930      1.00000
     18      -7.0532      1.00000
     19      -6.9173      1.00000
     20      -6.8684      1.00000
     21      -6.5898      1.00000
     22      -6.5817      1.00000
     23      -6.5291      1.00000
     24      -6.3413      1.00000
     25      -6.3051      1.00000
     26      -6.1419      1.00000
     27      -4.3893      1.00000
     28      -4.2026      0.00000
     29      -2.6666      0.00000
     30      -2.1585      0.00000
     31      -1.5236      0.00000
     32      -1.0319      0.00000
     33      -0.5648      0.00000
     34      -0.4824      0.00000
     35      -0.2158      0.00000
     36       0.0967      0.00000


--------------------------------------------------------------------------------------------------------


 soft charge-density along one line, spin component           1
         0         1         2         3         4         5         6         7         8         9
 total charge-density along one line
 
 soft charge-density along one line, spin component           2
         0         1         2         3         4         5         6         7         8         9
 total charge-density along one line
 
 pseudopotential strength for first ion, spin component:           1
 -9.951  -0.015  -0.005   0.014  -0.000  -9.941  -0.014  -0.005
 -0.015 -10.004   0.008   0.007  -0.014  -0.014  -9.992   0.008
 -0.005   0.008 -10.024  -0.011  -0.002  -0.005   0.008 -10.011
  0.014   0.007  -0.011  -9.997  -0.012   0.013   0.007  -0.010
 -0.000  -0.014  -0.002  -0.012  -9.951  -0.000  -0.013  -0.002
 -9.941  -0.014  -0.005   0.013  -0.000  -9.906  -0.014  -0.005
 -0.014  -9.992   0.008   0.007  -0.013  -0.014  -9.955   0.007
 -0.005   0.008 -10.011  -0.010  -0.002  -0.005   0.007  -9.974
  0.013   0.007  -0.010  -9.985  -0.012   0.013   0.007  -0.010
 -0.000  -0.013  -0.002  -0.012  -9.941  -0.000  -0.013  -0.002
 -0.003  -0.006   0.014   0.007  -0.001  -0.003  -0.006   0.014
 -0.005  -0.010   0.023   0.011  -0.002  -0.005  -0.010   0.022
  0.010   0.029   0.007   0.001   0.010   0.010   0.028   0.007
  0.001  -0.008   0.029   0.008   0.000   0.001  -0.007   0.028
 -0.010   0.001  -0.007   0.029   0.010  -0.010   0.001  -0.007
  0.012   0.034   0.008   0.001   0.012   0.012   0.032   0.008
  0.001  -0.009   0.034   0.010   0.000   0.001  -0.009   0.033
 -0.012   0.001  -0.009   0.034   0.013  -0.011   0.001  -0.008
 pseudopotential strength for first ion, spin component:           2
 -9.946  -0.012  -0.003   0.013   0.000  -9.936  -0.012  -0.003
 -0.012  -9.994   0.013   0.006  -0.012  -0.012  -9.982   0.013
 -0.003   0.013 -10.015  -0.012  -0.001  -0.003   0.013 -10.002
  0.013   0.006  -0.012  -9.992  -0.013   0.013   0.006  -0.012
  0.000  -0.012  -0.001  -0.013  -9.946   0.000  -0.012  -0.001
 -9.936  -0.012  -0.003   0.013   0.000  -9.901  -0.011  -0.003
 -0.012  -9.982   0.013   0.006  -0.012  -0.011  -9.946   0.012
 -0.003   0.013 -10.002  -0.012  -0.001  -0.003   0.012  -9.965
  0.013   0.006  -0.012  -9.980  -0.012   0.012   0.006  -0.011
  0.000  -0.012  -0.001  -0.012  -9.936   0.000  -0.011  -0.001
 -0.002  -0.007   0.013   0.007  -0.000  -0.002  -0.007   0.013
 -0.004  -0.012   0.020   0.011  -0.001  -0.004  -0.012   0.020
  0.011   0.030   0.007   0.001   0.010   0.010   0.028   0.007
  0.001  -0.007   0.030   0.008  -0.000   0.001  -0.007   0.028
 -0.010   0.001  -0.007   0.030   0.010  -0.010   0.001  -0.007
  0.013   0.035   0.009   0.001   0.012   0.012   0.033   0.009
  0.001  -0.009   0.035   0.010  -0.000   0.001  -0.008   0.034
 -0.012   0.001  -0.009   0.035   0.013  -0.012   0.001  -0.009
 total augmentation occupancy for first ion, spin component:           1
  2.174   0.078  -0.032  -0.079   0.001  -0.137  -0.114   0.030   0.115  -0.002   0.172  -0.027   0.017  -0.019  -0.016   0.005
  0.078   2.434  -0.209  -0.105   0.055  -0.115  -0.523   0.260   0.134  -0.089   0.545  -0.088   0.061  -0.080  -0.021   0.013
 -0.032  -0.209   2.714   0.182  -0.004   0.030   0.260  -0.888  -0.237   0.003  -0.961   0.164  -0.029   0.171   0.028   0.008
 -0.079  -0.105   0.182   2.410   0.044   0.115   0.133  -0.236  -0.490  -0.072  -0.527   0.082  -0.021   0.073   0.053   0.002
  0.001   0.055  -0.004   0.044   2.187  -0.002  -0.089   0.003  -0.072  -0.137   0.018  -0.004   0.010  -0.002   0.007   0.006
 -0.137  -0.115   0.030   0.115  -0.002   0.093   0.145  -0.032  -0.148   0.002  -0.136   0.016  -0.025   0.022   0.025   0.002
 -0.114  -0.523   0.260   0.133  -0.089   0.145   0.590  -0.312  -0.160   0.117  -0.457   0.060  -0.091   0.100   0.024   0.007
  0.030   0.260  -0.888  -0.236   0.003  -0.032  -0.312   1.034   0.288  -0.004   0.816  -0.110   0.031  -0.225  -0.030  -0.003
  0.115   0.134  -0.237  -0.490  -0.072  -0.148  -0.160   0.288   0.551   0.097   0.437  -0.054   0.024  -0.092  -0.082  -0.002
 -0.002  -0.089   0.003  -0.072  -0.137   0.002   0.117  -0.004   0.097   0.080  -0.012   0.002  -0.019   0.002  -0.015   0.001
  0.172   0.545  -0.961  -0.527   0.018  -0.136  -0.457   0.816   0.437  -0.012   1.770  -0.131   0.074  -0.246  -0.071  -0.005
 -0.027  -0.088   0.164   0.082  -0.004   0.016   0.060  -0.110  -0.054   0.002  -0.131   0.020  -0.008   0.027   0.007   0.000
  0.017   0.061  -0.029  -0.021   0.010  -0.025  -0.091   0.031   0.024  -0.019   0.074  -0.008   0.015  -0.013  -0.004  -0.001
 -0.019  -0.080   0.171   0.073  -0.002   0.022   0.100  -0.225  -0.092   0.002  -0.246   0.027  -0.013   0.056   0.012   0.001
 -0.016  -0.021   0.028   0.053   0.007   0.025   0.024  -0.030  -0.082  -0.015  -0.071   0.007  -0.004   0.012   0.013   0.000
  0.005   0.013   0.008   0.002   0.006   0.002   0.007  -0.003  -0.002   0.001  -0.005   0.000  -0.001   0.001   0.000   0.000
  0.002   0.003   0.002  -0.002   0.000  -0.002  -0.008   0.019   0.008  -0.000   0.017  -0.002   0.001  -0.005  -0.001  -0.000
 -0.005   0.002  -0.007   0.013   0.006  -0.002  -0.002   0.003   0.007   0.001   0.005  -0.000   0.000  -0.001  -0.001  -0.000
 total augmentation occupancy for first ion, spin component:           2
  0.013   0.029   0.025  -0.005   0.007  -0.009  -0.019  -0.016   0.003  -0.005  -0.009  -0.002   0.005   0.003  -0.002  -0.000
  0.029   0.072   0.065  -0.014   0.015  -0.019  -0.047  -0.043   0.009  -0.010  -0.035   0.000   0.011   0.007  -0.004  -0.000
  0.025   0.065   0.071  -0.013   0.014  -0.016  -0.043  -0.048   0.008  -0.009  -0.041   0.002   0.012   0.009  -0.004  -0.000
 -0.005  -0.014  -0.013   0.010  -0.005   0.003   0.009   0.008  -0.006   0.003   0.004   0.001  -0.002  -0.001   0.000   0.000
  0.007   0.015   0.014  -0.005   0.005  -0.005  -0.010  -0.009   0.003  -0.003  -0.004  -0.002   0.004   0.002  -0.001   0.000
 -0.009  -0.019  -0.016   0.003  -0.005   0.005   0.013   0.011  -0.003   0.003   0.008  -0.000  -0.003  -0.002   0.001   0.000
 -0.019  -0.047  -0.043   0.009  -0.010   0.013   0.029   0.029  -0.006   0.007   0.024  -0.001  -0.007  -0.005   0.002   0.000
 -0.016  -0.043  -0.048   0.008  -0.009   0.011   0.029   0.032  -0.005   0.006   0.028  -0.002  -0.008  -0.007   0.002   0.000
  0.003   0.009   0.008  -0.006   0.003  -0.003  -0.006  -0.005   0.002  -0.002  -0.003  -0.000   0.001   0.000  -0.001  -0.000
 -0.005  -0.010  -0.009   0.003  -0.003   0.003   0.007   0.006  -0.002   0.002   0.004  -0.000  -0.002  -0.001   0.001   0.000
 -0.009  -0.035  -0.041   0.004  -0.004   0.008   0.024   0.028  -0.003   0.004  -0.000  -0.002  -0.008  -0.007   0.002   0.000
 -0.002   0.000   0.002   0.001  -0.002  -0.000  -0.001  -0.002  -0.000  -0.000  -0.002   0.000   0.000   0.000  -0.000  -0.000
  0.005   0.011   0.012  -0.002   0.004  -0.003  -0.007  -0.008   0.001  -0.002  -0.008   0.000   0.002   0.001  -0.001  -0.000
  0.003   0.007   0.009  -0.001   0.002  -0.002  -0.005  -0.007   0.000  -0.001  -0.007   0.000   0.001   0.002  -0.000  -0.000
 -0.002  -0.004  -0.004   0.000  -0.001   0.001   0.002   0.002  -0.001   0.001   0.002  -0.000  -0.001  -0.000   0.000   0.000
 -0.000  -0.000  -0.000   0.000   0.000   0.000   0.000   0.000  -0.000   0.000   0.000  -0.000  -0.000  -0.000   0.000   0.000
 -0.000  -0.000  -0.000   0.000  -0.000   0.000   0.000   0.000  -0.000   0.000   0.000  -0.000  -0.000  -0.000   0.000   0.000
 -0.000  -0.000  -0.000   0.000  -0.000  -0.000  -0.000   0.000  -0.000  -0.000  -0.000   0.000  -0.000  -0.000  -0.000  -0.000


------------------------ aborting loop because EDIFF is reached ----------------------------------------


    CHARGE:  cpu time    0.02: real time    0.02
    FORLOC:  cpu time    0.00: real time    0.00
    FORNL :  cpu time    0.05: real time    0.05
    STRESS:  cpu time    0.06: real time    0.06
    FORCOR:  cpu time    0.15: real time    0.15
    FORHAR:  cpu time    0.02: real time    0.02
    MIXING:  cpu time    0.01: real time    0.01
    OFIELD:  cpu time    0.00: real time    0.00

  FORCE on cell =-STRESS in cart. coord.  units (eV):
  Direction    XX          YY          ZZ          XY          YZ          ZX
  --------------------------------------------------------------------------------------
  Alpha Z     4.01439     4.01439     4.01439
  Ewald    -685.40917  1023.67368  1816.05573  -688.93527  -105.35903   130.28051
  Hartree  1253.67280  2598.34017  3258.50825  -542.10364   -87.44209   118.52013
  E(xc)    -291.01779  -289.77946  -289.44450    -0.48949    -0.05043     0.01448
  Local   -1382.75721 -4423.08208 -5871.21590  1225.88591   191.51118  -248.50790
  n-local   -54.74320   -55.06264   -52.13402     0.00515     0.08852     0.18148
  augment   461.17485   457.29835   455.39714     1.50274     0.29268    -0.05685
  Kinetic   694.05362   685.85461   683.99252     3.11181     0.43275     0.09227
  Fock        0.00000     0.00000     0.00000     0.00000     0.00000     0.00000
  -------------------------------------------------------------------------------------
  Total      -1.01170     1.25702     5.17362    -1.02279    -0.52642     0.52411
  in kB      -0.30601     0.38020     1.56484    -0.30936    -0.15923     0.15853
  external pressure =        0.55 kB  Pullay stress =        0.00 kB


 VOLUME and BASIS-vectors are now :
 -----------------------------------------------------------------------------
  energy-cutoff  :      249.84
  volume of cell :     5297.05
      direct lattice vectors                 reciprocal lattice vectors
    17.431899450  0.000000000  0.000000000     0.057366095  0.000000000  0.000000000
     0.000000000 17.431899450  0.000000000     0.000000000  0.057366095  0.000000000
     0.000000000  0.000000000 17.431899450     0.000000000  0.000000000  0.057366095

  length of vectors
    17.431899450 17.431899450 17.431899450     0.057366095  0.057366095  0.057366095


 FORCES acting on ions
    electron-ion (+dipol)            ewald-force                    non-local-force                 convergence-correction
 -----------------------------------------------------------------------------------------------
   -.134E+03 0.146E+03 -.467E+03   0.132E+03 -.144E+03 0.461E+03   0.221E+01 -.223E+01 0.737E+01   0.237E-03 -.363E-03 0.501E-03
   -.107E+03 -.279E+03 0.506E+03   0.105E+03 0.275E+03 -.502E+03   0.226E+01 0.395E+01 -.541E+01   0.264E-03 0.466E-03 -.120E-02
   -.696E+02 0.934E+02 -.197E+03   0.695E+02 -.936E+02 0.199E+03   0.102E+00 0.240E+00 -.254E+01   0.829E-04 -.297E-03 0.133E-02
   -.160E+02 0.497E+03 0.302E+03   0.163E+02 -.491E+03 -.301E+03   -.267E+00 -.677E+01 -.169E+01   0.410E-03 -.111E-02 -.110E-02
   0.327E+03 -.457E+03 -.145E+03   -.323E+03 0.453E+03 0.142E+03   -.410E+01 0.419E+01 0.306E+01   -.110E-02 0.142E-02 0.253E-03
 -----------------------------------------------------------------------------------------------
   -.183E+00 0.625E+00 -.767E+00   0.000E+00 0.000E+00 0.284E-13   0.209E+00 -.621E+00 0.793E+00   -.103E-03 0.116E-03 -.212E-03
 
 
 POSITION                                       TOTAL-FORCE (eV/Angst)
 -----------------------------------------------------------------------------------
      9.81673      8.16009     11.83270         0.285656     -0.356896      1.472110
      9.14270      9.92975      7.20186         0.123586      0.380768     -1.039229
      9.22146      8.80702      9.58119        -0.039311      0.069999     -0.201738
      9.18109      7.34246      7.45421         0.029589     -0.664643     -0.577208
      7.87401     11.00480      9.19038        -0.399519      0.570773      0.346064
 -----------------------------------------------------------------------------------
    total drift:                                0.025346      0.003953      0.026104


--------------------------------------------------------------------------------------------------------



  FREE ENERGIE OF THE ION-ELECTRON SYSTEM (eV)
  ---------------------------------------------------
  free  energy   TOTEN  =        -6.32806537 eV

  energy  without entropy=       -6.32806537  energy(sigma->0) =       -6.32806537
 


--------------------------------------------------------------------------------------------------------


    POTLOK:  cpu time    0.16: real time    0.16


--------------------------------------------------------------------------------------------------------




--------------------------------------------------------------------------------------------------------


    WAVPRE:  cpu time    0.01: real time    0.01
 FEWALD executed in parallel
    FEWALD:  cpu time    0.00: real time    0.00
    ORTHCH:  cpu time    0.01: real time    0.01
     LOOP+:  cpu time    8.30: real time    9.58


----------------------------------------- Iteration    2(   1)  ---------------------------------------


    POTLOK:  cpu time    0.15: real time    0.15
    SETDIJ:  cpu time    0.00: real time    0.01
     EDDAV:  cpu time    0.20: real time    0.20
       DOS:  cpu time    0.00: real time    0.00
    CHARGE:  cpu time    0.02: real time    0.02
    MIXING:  cpu time    0.01: real time    0.01
    --------------------------------------------
      LOOP:  cpu time    0.39: real time    0.40

 eigenvalue-minimisations  :   148
 total energy-change (2. order) :-0.4431925E-01  (-0.3279311E+00)
 number of electron      55.0000070 magnetization       0.9999319
 augmentation part       26.4773946 magnetization      -0.0580539

 Broyden mixing:
  rms(total) = 0.22333E-01    rms(broyden)= 0.22285E-01
  rms(prec ) = 0.22568E-01
  weight for this iteration     100.00

 Free energy of the ion-electron system (eV)
  ---------------------------------------------------
  alpha Z        PSCENC =         4.01439454
  Ewald energy   TEWEN  =      2132.26955957
  -Hartree energ DENC   =     -7088.74261515
  -exchange      EXHF   =         0.00000000
  -V(xc)+E(xc)   XCENC  =       -58.07919679
  PAW double counting   =      5380.00366982    -5156.95948778
  entropy T*S    EENTRO =        -0.00000000
  eigenvalues    EBANDS =      -404.87182323
  atomic energy  EATOM  =      5185.99315043
  ---------------------------------------------------
  free energy    TOTEN  =        -6.37234858 eV

  energy without entropy =       -6.37234858  energy(sigma->0) =       -6.37234858


--------------------------------------------------------------------------------------------------------




----------------------------------------- Iteration    2(   2)  ---------------------------------------


    POTLOK:  cpu time    0.16: real time    0.15
    SETDIJ:  cpu time    0.00: real time    0.01
     EDDAV:  cpu time    0.20: real time    0.20
       DOS:  cpu time    0.00: real time    0.00
    CHARGE:  cpu time    0.02: real time    0.02
    MIXING:  cpu time    0.00: real time    0.00
    --------------------------------------------
      LOOP:  cpu time    0.39: real time    0.39

 eigenvalue-minimisations  :   152
 total energy-change (2. order) :-0.1467352E-02  (-0.1587084E-02)
 number of electron      55.0000070 magnetization       0.9999490
 augmentation part       26.4745240 magnetization      -0.0582331

 Broyden mixing:
  rms(total) = 0.14787E-01    rms(broyden)= 0.14784E-01
  rms(prec ) = 0.14922E-01
  weight for this iteration     100.00

 eigenvalues of (default mixing * dielectric matrix)
  average eigenvalue GAMMA=   1.3678
  1.3678

 Free energy of the ion-electron system (eV)
  ---------------------------------------------------
  alpha Z        PSCENC =         4.01439454
  Ewald energy   TEWEN  =      2132.26955957
  -Hartree energ DENC   =     -7088.96058904
  -exchange      EXHF   =         0.00000000
  -V(xc)+E(xc)   XCENC  =       -58.06964675
  PAW double counting   =      5375.39620451    -5152.28260445
  entropy T*S    EENTRO =         0.00000000
  eigenvalues    EBANDS =      -404.73428475
  atomic energy  EATOM  =      5185.99315043
  ---------------------------------------------------
  free energy    TOTEN  =        -6.37381593 eV

  energy without entropy =       -6.37381593  energy(sigma->0) =       -6.37381593


--------------------------------------------------------------------------------------------------------




----------------------------------------- Iteration    2(   3)  ---------------------------------------


    POTLOK:  cpu time    0.15: real time    0.15
    SETDIJ:  cpu time    0.00: real time    0.01
     EDDAV:  cpu time    0.21: real time    0.21
       DOS:  cpu time    0.00: real time    0.00
    --------------------------------------------
      LOOP:  cpu time    0.37: real time    0.37

 eigenvalue-minimisations  :   156
 total energy-change (2. order) : 0.3320323E-04  (-0.3523468E-04)
 number of electron      55.0000070 magnetization       0.9999490
 augmentation part       26.4745240 magnetization      -0.0582331

 Free energy of the ion-electron system (eV)
  ---------------------------------------------------
  alpha Z        PSCENC =         4.01439454
  Ewald energy   TEWEN  =      2132.26955957
  -Hartree energ DENC   =     -7089.13885144
  -exchange      EXHF   =         0.00000000
  -V(xc)+E(xc)   XCENC  =       -58.06684889
  PAW double counting   =      5371.66827806    -5148.49034470
  entropy T*S    EENTRO =        -0.00000000
  eigenvalues    EBANDS =      -404.62312030
  atomic energy  EATOM  =      5185.99315043
  ---------------------------------------------------
  free energy    TOTEN  =        -6.37378273 eV

  energy without entropy =       -6.37378273  energy(sigma->0) =       -6.37378273


--------------------------------------------------------------------------------------------------------




 average (electrostatic) potential at core
  the test charge radii are     1.1249
  (the norm of the test charge is              1.0000)
       1 -81.5713       2 -82.6092       3 -82.4920       4 -82.4499       5 -82.5052
 
 
 
 E-fermi :  -4.3850     XC(G=0):  -0.5448     alpha+bet : -0.2167


 spin component 1

 k-point     1 :       0.0000    0.0000    0.0000
  band No.  band energies     occupation 
      1      -9.3935      1.00000
      2      -9.2400      1.00000
      3      -8.7333      1.00000
      4      -8.5887      1.00000
      5      -8.5592      1.00000
      6      -8.4754      1.00000
      7      -8.3287      1.00000
      8      -7.8777      1.00000
      9      -7.8554      1.00000
     10      -7.7950      1.00000
     11      -7.6602      1.00000
     12      -7.5939      1.00000
     13      -7.4040      1.00000
     14      -7.3909      1.00000
     15      -7.3675      1.00000
     16      -7.1727      1.00000
     17      -7.1552      1.00000
     18      -7.1181      1.00000
     19      -6.9873      1.00000
     20      -6.9028      1.00000
     21      -6.6515      1.00000
     22      -6.5961      1.00000
     23      -6.5871      1.00000
     24      -6.3861      1.00000
     25      -6.3563      1.00000
     26      -6.1837      1.00000
     27      -4.5318      1.00000
     28      -4.4433      1.00000
     29      -2.8497      0.00000
     30      -2.3462      0.00000
     31      -1.7317      0.00000
     32      -1.2676      0.00000
     33      -0.7845      0.00000
     34      -0.6236      0.00000
     35      -0.2706      0.00000
     36      -0.0911      0.00000

 spin component 2

 k-point     1 :       0.0000    0.0000    0.0000
  band No.  band energies     occupation 
      1      -9.3656      1.00000
      2      -9.1645      1.00000
      3      -8.6519      1.00000
      4      -8.5450      1.00000
      5      -8.4843      1.00000
      6      -8.4040      1.00000
[...]
    --------------------------------------------
      LOOP:  cpu time    0.35: real time    0.36

 eigenvalue-minimisations  :   104
 total energy-change (2. order) :-0.1390635E-03  (-0.6844899E-06)
 number of electron      54.9999957 magnetization       0.9999999
 augmentation part       26.5842169 magnetization      -0.0780693

 Broyden mixing:
  rms(total) = 0.16820E-03    rms(broyden)= 0.16819E-03
  rms(prec ) = 0.25528E-03
  weight for this iteration     100.00

 eigenvalues of (default mixing * dielectric matrix)
  average eigenvalue GAMMA=   1.5988
  7.2189  2.8642  2.7179  1.9929  1.9929  1.4895  1.2218  1.2218  1.2447  0.9629
  0.9629  0.8073  0.8073  0.7408  0.6666  0.6259  0.6259  0.6135

 Free energy of the ion-electron system (eV)
  ---------------------------------------------------
  alpha Z        PSCENC =         4.01439454
  Ewald energy   TEWEN  =      1860.96475936
  -Hartree energ DENC   =     -6830.10150235
  -exchange      EXHF   =         0.00000000
  -V(xc)+E(xc)   XCENC  =       -58.80334819
  PAW double counting   =      5221.42447009    -4995.46361970
  entropy T*S    EENTRO =         0.00000000
  eigenvalues    EBANDS =      -395.05891032
  atomic energy  EATOM  =      5185.99315043
  ---------------------------------------------------
  free energy    TOTEN  =        -7.03060614 eV

  energy without entropy =       -7.03060614  energy(sigma->0) =       -7.03060614


--------------------------------------------------------------------------------------------------------




----------------------------------------- Iteration   23(  20)  ---------------------------------------


    POTLOK:  cpu time    0.16: real time    0.16
    SETDIJ:  cpu time    0.00: real time    0.01
     EDDAV:  cpu time    0.16: real time    0.16
       DOS:  cpu time    0.00: real time    0.00
    --------------------------------------------
      LOOP:  cpu time    0.32: real time    0.34

 eigenvalue-minimisations  :   104
 total energy-change (2. order) :-0.8489623E-04  (-0.3790214E-06)
 number of electron      54.9999957 magnetization       0.9999999
 augmentation part       26.5842169 magnetization      -0.0780693

 Free energy of the ion-electron system (eV)
  ---------------------------------------------------
  alpha Z        PSCENC =         4.01439454
  Ewald energy   TEWEN  =      1860.96475936
  -Hartree energ DENC   =     -6830.10106112
  -exchange      EXHF   =         0.00000000
  -V(xc)+E(xc)   XCENC  =       -58.80359276
  PAW double counting   =      5221.38029456    -4995.41903344
  entropy T*S    EENTRO =         0.00000000
  eigenvalues    EBANDS =      -395.05960261
  atomic energy  EATOM  =      5185.99315043
  ---------------------------------------------------
  free energy    TOTEN  =        -7.03069104 eV

  energy without entropy =       -7.03069104  energy(sigma->0) =       -7.03069104


--------------------------------------------------------------------------------------------------------




 average (electrostatic) potential at core
  the test charge radii are     1.1249
  (the norm of the test charge is              1.0000)
       1 -82.0051       2 -82.2306       3 -82.3054       4 -82.2295       5 -82.0872
 
 
 
 E-fermi :  -3.9958     XC(G=0):  -0.5793     alpha+bet : -0.2167


 spin component 1

 k-point     1 :       0.0000    0.0000    0.0000
  band No.  band energies     occupation 
      1      -8.7031      1.00000
      2      -8.4657      1.00000
      3      -8.2263      1.00000
      4      -8.1178      1.00000
      5      -8.0411      1.00000
      6      -7.7943      1.00000
      7      -7.7565      1.00000
      8      -7.6932      1.00000
      9      -7.5836      1.00000
     10      -7.4581      1.00000
     11      -7.3757      1.00000
     12      -7.2943      1.00000
     13      -7.2276      1.00000
     14      -7.2033      1.00000
     15      -7.1509      1.00000
     16      -7.0396      1.00000
     17      -7.0194      1.00000
     18      -6.9878      1.00000
     19      -6.9740      1.00000
     20      -6.9507      1.00000
     21      -6.9103      1.00000
     22      -6.8720      1.00000
     23      -6.8316      1.00000
     24      -6.6536      1.00000
     25      -6.5600      1.00000
     26      -6.2938      1.00000
     27      -4.9957      1.00000
     28      -4.0189      1.00000
     29      -2.8148      0.00000
     30      -2.5495      0.00000
     31      -1.7425      0.00000
     32      -1.2645      0.00000
     33      -0.9084      0.00000
     34      -0.5969      0.00000
     35      -0.4632      0.00000
     36      -0.0851      0.00000

 spin component 2

 k-point     1 :       0.0000    0.0000    0.0000
  band No.  band energies     occupation 
      1      -8.6674      1.00000
      2      -8.4214      1.00000
      3      -8.1819      1.00000
      4      -8.0552      1.00000
      5      -8.0094      1.00000
      6      -7.7535      1.00000
      7      -7.6953      1.00000
      8      -7.6500      1.00000
      9      -7.5328      1.00000
     10      -7.4191      1.00000
     11      -7.3324      1.00000
     12      -7.2557      1.00000
     13      -7.1799      1.00000
     14      -7.1660      1.00000
     15      -7.1151      1.00000
     16      -6.9969      1.00000
     17      -6.9782      1.00000
     18      -6.9312      1.00000
     19      -6.9192      1.00000
     20      -6.9131      1.00000
     21      -6.8637      1.00000
     22      -6.8147      1.00000
     23      -6.8073      1.00000
     24      -6.6085      1.00000
     25      -6.5077      1.00000
     26      -6.1750      1.00000
     27      -4.9099      1.00000
     28      -3.6719      0.00000
     29      -2.6850      0.00000
     30      -2.3504      0.00000
     31      -1.6154      0.00000
     32      -0.9563      0.00000
     33      -0.7834      0.00000
     34      -0.4972      0.00000
     35      -0.2552      0.00000
     36       0.1134      0.00000


--------------------------------------------------------------------------------------------------------


 soft charge-density along one line, spin component           1
         0         1         2         3         4         5         6         7         8         9
 total charge-density along one line
 
 soft charge-density along one line, spin component           2
         0         1         2         3         4         5         6         7         8         9
 total charge-density along one line
 
 pseudopotential strength for first ion, spin component:           1
-10.208  -0.000  -0.003  -0.002  -0.000 -10.188  -0.000  -0.003
 -0.000 -10.236  -0.005   0.005   0.001  -0.000 -10.215  -0.005
 -0.003  -0.005 -10.238   0.002  -0.004  -0.003  -0.005 -10.217
 -0.002   0.005   0.002 -10.224   0.001  -0.002   0.005   0.002
 -0.000   0.001  -0.004   0.001 -10.209  -0.000   0.001  -0.004
-10.188  -0.000  -0.003  -0.002  -0.000 -10.143  -0.000  -0.003
 -0.000 -10.215  -0.005   0.005   0.001  -0.000 -10.169  -0.005
 -0.003  -0.005 -10.217   0.002  -0.004  -0.003  -0.005 -10.171
 -0.002   0.005   0.002 -10.203   0.001  -0.002   0.005   0.002
 -0.000   0.001  -0.004   0.001 -10.188  -0.000   0.001  -0.004
 -0.002   0.001   0.008  -0.000  -0.003  -0.002   0.001   0.007
 -0.004   0.001   0.012  -0.001  -0.004  -0.004   0.001   0.012
  0.002   0.039   0.003  -0.000   0.006   0.002   0.038   0.003
 -0.000  -0.006   0.045   0.002  -0.000  -0.000  -0.006   0.044
 -0.006  -0.000  -0.001   0.039   0.002  -0.006  -0.000  -0.001
  0.002   0.049   0.004  -0.000   0.007   0.002   0.047   0.004
 -0.000  -0.008   0.056   0.002  -0.000  -0.000  -0.008   0.054
 -0.007  -0.000  -0.001   0.049   0.002  -0.007  -0.000  -0.001
 pseudopotential strength for first ion, spin component:           2
-10.210   0.000  -0.003  -0.002  -0.000 -10.190   0.000  -0.003
  0.000 -10.235  -0.005   0.004   0.002   0.000 -10.213  -0.005
 -0.003  -0.005 -10.240   0.002  -0.004  -0.003  -0.005 -10.219
 -0.002   0.004   0.002 -10.226   0.001  -0.002   0.004   0.002
 -0.000   0.002  -0.004   0.001 -10.210  -0.000   0.001  -0.004
-10.190   0.000  -0.003  -0.002  -0.000 -10.145   0.000  -0.003
  0.000 -10.213  -0.005   0.004   0.001   0.000 -10.167  -0.004
 -0.003  -0.005 -10.219   0.002  -0.004  -0.003  -0.004 -10.173
 -0.002   0.004   0.002 -10.205   0.001  -0.002   0.003   0.002
 -0.000   0.001  -0.004   0.001 -10.190  -0.000   0.001  -0.004
 -0.002  -0.000   0.007   0.000  -0.002  -0.002  -0.000   0.007
 -0.003  -0.001   0.012   0.000  -0.004  -0.003  -0.001   0.012
  0.001   0.040   0.003  -0.000   0.005   0.001   0.039   0.003
 -0.000  -0.006   0.045   0.002  -0.000  -0.000  -0.006   0.044
 -0.005  -0.000  -0.001   0.040   0.001  -0.005  -0.000  -0.001
  0.002   0.050   0.004  -0.000   0.007   0.002   0.048   0.004
 -0.000  -0.007   0.056   0.002  -0.000  -0.000  -0.007   0.054
 -0.007  -0.000  -0.001   0.049   0.002  -0.007  -0.000  -0.001
 total augmentation occupancy for first ion, spin component:           1
  2.136   0.008  -0.036  -0.002   0.006  -0.091  -0.019   0.029   0.006  -0.010   0.145  -0.020   0.006  -0.015  -0.000   0.000
  0.008   2.176  -0.075  -0.013   0.006  -0.019  -0.229   0.029   0.035  -0.019   0.056  -0.013   0.022  -0.020  -0.010   0.022
 -0.036  -0.075   2.288   0.031  -0.044   0.029   0.029  -0.351  -0.014   0.035  -0.614   0.095  -0.014   0.070   0.006   0.003
 -0.002  -0.013   0.031   2.147  -0.002   0.006   0.035  -0.014  -0.147   0.007  -0.014   0.005  -0.010   0.009  -0.001   0.001
  0.006   0.006  -0.044  -0.002   2.172  -0.010  -0.019   0.035   0.007  -0.112   0.171  -0.024   0.003  -0.017  -0.003   0.003
 -0.091  -0.019   0.029   0.006  -0.010   0.042   0.027  -0.023  -0.008   0.014  -0.112   0.012  -0.009   0.016   0.004   0.001
 -0.019  -0.229   0.029   0.035  -0.019   0.027   0.259   0.008  -0.053   0.028  -0.039   0.014  -0.055   0.014   0.013   0.004
  0.029   0.029  -0.351  -0.014   0.035  -0.023   0.008   0.391  -0.000  -0.028   0.498  -0.066   0.003  -0.111  -0.002  -0.000
  0.006   0.035  -0.014  -0.147   0.007  -0.008  -0.053  -0.000   0.135  -0.011   0.010  -0.006   0.013  -0.006  -0.025  -0.001
 -0.010  -0.019   0.035   0.007  -0.112   0.014   0.028  -0.028  -0.011   0.047  -0.132   0.014  -0.010   0.019   0.003   0.001
  0.145   0.056  -0.614  -0.014   0.171  -0.112  -0.039   0.498   0.010  -0.132   1.490  -0.117   0.023  -0.190  -0.007  -0.003
 -0.020  -0.013   0.095   0.005  -0.024   0.012   0.014  -0.066  -0.006   0.014  -0.117   0.016  -0.005   0.023   0.002   0.000
  0.006   0.022  -0.014  -0.010   0.003  -0.009  -0.055   0.003   0.013  -0.010   0.023  -0.005   0.014  -0.006  -0.004  -0.001
 -0.015  -0.020   0.070   0.009  -0.017   0.016   0.014  -0.111  -0.006   0.019  -0.190   0.023  -0.006   0.038   0.002   0.000
 -0.000  -0.010   0.006  -0.001  -0.003   0.004   0.013  -0.002  -0.025   0.003  -0.007   0.002  -0.004   0.002   0.005   0.000
  0.000   0.022   0.003   0.001   0.003   0.001   0.004  -0.000  -0.001   0.001  -0.003   0.000  -0.001   0.000   0.000   0.000
  0.001  -0.002   0.019   0.000   0.001  -0.001  -0.001   0.010   0.000  -0.002   0.016  -0.001   0.000  -0.004  -0.000  -0.000
 -0.003   0.001  -0.001   0.023   0.001  -0.000  -0.001   0.000   0.001  -0.000   0.001  -0.000   0.000  -0.000  -0.001  -0.000
 total augmentation occupancy for first ion, spin component:           2
 -0.047   0.002  -0.001   0.005   0.000   0.024  -0.001   0.000  -0.003  -0.000  -0.004  -0.001   0.001   0.000  -0.003   0.000
  0.002   0.017   0.012  -0.023  -0.004  -0.001  -0.024  -0.009   0.017   0.003  -0.096  -0.007   0.017  -0.004  -0.006  -0.000
 -0.001   0.012  -0.047  -0.005  -0.001   0.000  -0.009   0.025   0.004   0.001  -0.005   0.001   0.005  -0.001  -0.002  -0.000
  0.005  -0.023  -0.005  -0.033  -0.004  -0.003   0.017   0.004   0.014   0.002   0.037   0.003  -0.006   0.002   0.004   0.000
  0.000  -0.004  -0.001  -0.004  -0.048  -0.000   0.003   0.001   0.002   0.025  -0.003  -0.001   0.002   0.000   0.001   0.000
  0.024  -0.001   0.000  -0.003  -0.000  -0.001   0.001   0.000   0.001  -0.000   0.003   0.000  -0.000  -0.000  -0.000   0.000
 -0.001  -0.024  -0.009   0.017   0.003   0.001   0.034   0.007  -0.013  -0.001   0.074   0.001  -0.012   0.000   0.005   0.000
  0.000  -0.009   0.025   0.004   0.001   0.000   0.007  -0.004  -0.003   0.000   0.003  -0.000  -0.003   0.001   0.001   0.000
 -0.003   0.017   0.004   0.014   0.002   0.001  -0.013  -0.003   0.005  -0.001  -0.029  -0.001   0.005  -0.000  -0.002  -0.000
 -0.000   0.003   0.001   0.002   0.025  -0.000  -0.001   0.000  -0.001  -0.002   0.002   0.000   0.000  -0.000  -0.000   0.000
 -0.004  -0.096  -0.005   0.037  -0.003   0.003   0.074   0.003  -0.029   0.002   0.137  -0.000  -0.031   0.005   0.012   0.001
 -0.001  -0.007   0.001   0.003  -0.001   0.000   0.001  -0.000  -0.001   0.000  -0.000   0.001  -0.000   0.000   0.000  -0.000
  0.001   0.017   0.005  -0.006   0.002  -0.000  -0.012  -0.003   0.005   0.000  -0.031  -0.000   0.004   0.000  -0.002  -0.000
  0.000  -0.004  -0.001   0.002   0.000  -0.000   0.000   0.001  -0.000  -0.000   0.005   0.000   0.000  -0.000  -0.000  -0.000
 -0.003  -0.006  -0.002   0.004   0.001  -0.000   0.005   0.001  -0.002  -0.000   0.012   0.000  -0.002  -0.000   0.001   0.000
  0.000  -0.000  -0.000   0.000   0.000   0.000   0.000   0.000  -0.000   0.000   0.001  -0.000  -0.000  -0.000   0.000   0.000
 -0.000  -0.001  -0.000   0.000  -0.000   0.000   0.000   0.000  -0.000   0.000   0.001  -0.000  -0.000   0.000   0.000   0.000
 -0.000   0.000   0.000  -0.000   0.000  -0.000  -0.000  -0.000   0.000   0.000  -0.000   0.000   0.000   0.000   0.000  -0.000


------------------------ aborting loop because EDIFF is reached ----------------------------------------


    CHARGE:  cpu time    0.02: real time    0.02
    FORLOC:  cpu time    0.00: real time    0.00
    FORNL :  cpu time    0.05: real time    0.05
    STRESS:  cpu time    0.07: real time    0.07
    FORCOR:  cpu time    0.15: real time    0.15
    FORHAR:  cpu time    0.02: real time    0.02
    MIXING:  cpu time    0.01: real time    0.01
    OFIELD:  cpu time    0.00: real time    0.00

  FORCE on cell =-STRESS in cart. coord.  units (eV):
  Direction    XX          YY          ZZ          XY          YZ          ZX
  --------------------------------------------------------------------------------------
  Alpha Z     4.01439     4.01439     4.01439
  Ewald    -920.71065   740.83118  2040.84258  -683.74010   351.32431    95.14649
  Hartree  1010.44608  2336.91162  3482.73544  -533.02621   288.08636    76.02117
  E(xc)    -290.26240  -288.96603  -288.45511    -0.59156     0.19050     0.08531
  Local    -896.66381 -3873.39914 -6317.82161  1211.40286  -637.76088  -170.63312
  n-local   -63.19324   -65.39566   -66.63780     1.06468     0.47597    -0.42894
  augment   460.96898   457.90497   457.37139     1.43167    -0.62786    -0.09990
  Kinetic   693.62243   685.66390   682.51417     3.67282    -1.29762    -0.48466
  Fock        0.00000     0.00000     0.00000     0.00000     0.00000     0.00000
  -------------------------------------------------------------------------------------
  Total      -1.77822    -2.43477    -5.43654     0.21415     0.39077    -0.39365
  in kB      -0.53785    -0.73643    -1.64437     0.06477     0.11820    -0.11906
  external pressure =       -0.97 kB  Pullay stress =        0.00 kB


 VOLUME and BASIS-vectors are now :
 -----------------------------------------------------------------------------
  energy-cutoff  :      249.84
  volume of cell :     5297.05
      direct lattice vectors                 reciprocal lattice vectors
    17.431899450  0.000000000  0.000000000     0.057366095  0.000000000  0.000000000
     0.000000000 17.431899450  0.000000000     0.000000000  0.057366095  0.000000000
     0.000000000  0.000000000 17.431899450     0.000000000  0.000000000  0.057366095

  length of vectors
    17.431899450 17.431899450 17.431899450     0.057366095  0.057366095  0.057366095


 FORCES acting on ions
    electron-ion (+dipol)            ewald-force                    non-local-force                 convergence-correction
 -----------------------------------------------------------------------------------------------
   -.337E+02 0.671E+02 -.451E+03   0.334E+02 -.663E+02 0.444E+03   0.142E+00 -.597E+00 0.617E+01   -.484E-04 0.330E-03 -.157E-02
   0.170E+03 -.283E+03 0.370E+03   -.168E+03 0.279E+03 -.366E+03   -.238E+01 0.430E+01 -.290E+01   -.735E-03 -.314E-03 0.130E-02
   -.146E+03 0.266E+03 -.134E+03   0.145E+03 -.264E+03 0.134E+03   0.112E+01 -.177E+01 0.557E+00   -.209E-03 0.172E-03 0.707E-03
   -.127E+03 0.390E+03 0.334E+03   0.126E+03 -.384E+03 -.329E+03   0.186E+01 -.565E+01 -.423E+01   -.287E-03 0.157E-02 0.195E-02
   0.137E+03 -.440E+03 -.119E+03   -.136E+03 0.435E+03 0.118E+03   -.129E+01 0.425E+01 0.813E+00   0.808E-03 -.154E-02 0.957E-03
 -----------------------------------------------------------------------------------------------
   0.503E+00 -.534E+00 -.400E+00   -.284E-13 0.568E-13 -.284E-13   -.549E+00 0.530E+00 0.408E+00   -.471E-03 0.214E-03 0.334E-02
 
 
 POSITION                                       TOTAL-FORCE (eV/Angst)
 -----------------------------------------------------------------------------------
      9.23169      8.92080     12.10382        -0.073254      0.273483     -0.813288
      8.53310      9.75086      7.02547        -0.046019      0.352976      0.662590
      9.44283      8.30949      9.36909        -0.197310      0.399224      0.236435
      9.53858      7.36011      6.85478         0.136345     -0.351344     -0.046302
      8.48979     10.90286      9.90720         0.180238     -0.674339     -0.039435
 -----------------------------------------------------------------------------------
    total drift:                               -0.047099     -0.003874      0.011077


--------------------------------------------------------------------------------------------------------



  FREE ENERGIE OF THE ION-ELECTRON SYSTEM (eV)
  ---------------------------------------------------
  free  energy   TOTEN  =        -7.03069104 eV

  energy  without entropy=       -7.03069104  energy(sigma->0) =       -7.03069104
 
 d Force = 0.1209227E+02[-0.239E+00, 0.244E+02]  d Energy = 0.6476027E+01 0.562E+01
 d Force = 0.1923294E+02[-0.270E+02, 0.655E+02]  d Ewald  = 0.9330737E+00 0.183E+02


--------------------------------------------------------------------------------------------------------


    POTLOK:  cpu time    0.16: real time    0.16


--------------------------------------------------------------------------------------------------------




--------------------------------------------------------------------------------------------------------


  
 reached required accuracy - stopping structural energy minimisation
     LOOP+:  cpu time    8.09: real time    8.21
    4ORBIT:  cpu time    0.00: real time    0.00

 total amount of memory used by VASP on root node    46419. kBytes
========================================================================

   base      :      30000. kBytes
   nonl-proj :        663. kBytes
   fftplans  :       4203. kBytes
   grid      :      10682. kBytes
   one-center:         15. kBytes
   wavefun   :        856. kBytes
 
  
  
 General timing and accounting informations for this job:
 ========================================================
  
                  Total CPU time used (sec):       89.202
                            User time (sec):       85.741
                          System time (sec):        3.460
                         Elapsed time (sec):       96.156
  
                   Maximum memory used (kb):       50676.
                   Average memory used (kb):           0.
  
                          Minor page faults:       548195
                          Major page faults:            0
                 Voluntary context switches:         6400
