 running on   32 total cores
 distrk:  each k-point on   32 cores,    1 groups
 distr:  one band on    8 cores,    4 groups
 using from now: INCAR     
 vasp.5.3.5 31Mar14 (build Feb 01 2018 12:10:03) gamma-only                     
  
 POSCAR found type information on POSCAR  Ag
 POSCAR found :  1 types and       9 ions
 scaLAPACK will be used
 LDA part: xc-table for Pade appr. of Perdew
 POSCAR, INCAR and KPOINTS ok, starting setup
 WARNING: small aliasing (wrap around) errors must be expected
 FFT: planning ...
 WAVECAR not read
 entering main loop
       N       E                     dE             d eps       ncg     rms          rms(c)
DAV:   1     0.867728940605E+03    0.86773E+03   -0.15278E+04   256   0.551E+02
DAV:   2     0.312435028650E+03   -0.55529E+03   -0.49332E+03   480   0.103E+02
DAV:   3     0.138439648579E+02   -0.29859E+03   -0.27763E+03   392   0.882E+01
DAV:   4    -0.151126989365E+02   -0.28957E+02   -0.28632E+02   280   0.331E+01
DAV:   5    -0.155710406106E+02   -0.45834E+00   -0.45780E+00   272   0.513E+00    0.153E+01
DAV:   6    -0.389670017432E+01    0.11674E+02   -0.32965E+01   256   0.135E+01    0.749E+00
DAV:   7     0.329237610535E+00    0.42259E+01   -0.19122E+00   280   0.372E+00    0.431E+00
DAV:   8    -0.283064269123E+01   -0.31599E+01   -0.14669E+00   272   0.302E+00    0.224E+00
DAV:   9    -0.643807746071E+01   -0.36074E+01   -0.14683E+00   264   0.254E+00    0.131E+00
DAV:  10    -0.106087489751E+02   -0.41707E+01   -0.20233E+00   272   0.304E+00    0.834E-01
DAV:  11    -0.127172744299E+02   -0.21085E+01   -0.76732E-01   280   0.142E+00    0.553E-01
DAV:  12    -0.145321457184E+02   -0.18149E+01   -0.50147E-01   256   0.124E+00    0.285E-01
DAV:  13    -0.151708546294E+02   -0.63871E+00   -0.94955E-02   272   0.526E-01    0.160E-01
DAV:  14    -0.153794863830E+02   -0.20863E+00   -0.97413E-03   264   0.181E-01    0.966E-02
DAV:  15    -0.154872853365E+02   -0.10780E+00   -0.46703E-03   256   0.103E-01    0.475E-02
DAV:  16    -0.155291902834E+02   -0.41905E-01   -0.30379E-03   248   0.772E-02    0.223E-02
DAV:  17    -0.155334873256E+02   -0.42970E-02   -0.96061E-04   216   0.418E-02    0.135E-02
DAV:  18    -0.155377456807E+02   -0.42584E-02   -0.62622E-04   184   0.321E-02    0.897E-03
DAV:  19    -0.155391190857E+02   -0.13734E-02   -0.25439E-04   200   0.227E-02    0.625E-03
DAV:  20    -0.155396576553E+02   -0.53857E-03   -0.76305E-05   176   0.134E-02    0.338E-03
DAV:  21    -0.155397200774E+02   -0.62422E-04   -0.18612E-05   176   0.788E-03
   1 F= -.15539720E+02 E0= -.15539720E+02  d E =-.155397E+02  mag=     1.0002
 curvature:   0.00 expect dE= 0.000E+00 dE for cont linesearch  0.000E+00
 trial: gam= 0.00000 g(F)=  0.104E-01 g(S)=  0.000E+00 ort = 0.000E+00 (trialstep = 0.100E+01)
 search vector abs. value=  0.104E-01
 bond charge predicted
       N       E                     dE             d eps       ncg     rms          rms(c)
DAV:   1    -0.155495413249E+02   -0.98837E-02   -0.70992E-01   256   0.284E+00    0.761E-02
DAV:   2    -0.155499364855E+02   -0.39516E-03   -0.35000E-03   272   0.272E-01    0.465E-02
DAV:   3    -0.155499769322E+02   -0.40447E-04   -0.64258E-05   168   0.341E-02
   2 F= -.15549977E+02 E0= -.15549977E+02  d E =-.102569E-01  mag=     1.0001
 ZBRENT: can't locate minimum, use default step
 trial-energy change:   -0.010257  1 .order   -0.009958   -0.010416   -0.009500
 step:   4.0000(harm= 11.3720)  dis= 0.01321  next Energy=   -15.598944 (dE=-0.592E-01)
 bond charge predicted
       N       E                     dE             d eps       ncg     rms          rms(c)
DAV:   1    -0.155732300538E+02   -0.23294E-01   -0.64009E+00   256   0.854E+00    0.241E-01
DAV:   2    -0.155762308510E+02   -0.30008E-02   -0.31873E-02   264   0.816E-01    0.141E-01
DAV:   3    -0.155761992566E+02    0.31594E-04   -0.64745E-04   280   0.103E-01
   3 F= -.15576199E+02 E0= -.15576199E+02  d E =-.364792E-01  mag=     1.0000
 curvature:  -2.81 expect dE=-0.155E-01 dE for cont linesearch -0.154E-01
 ZBRENT: increasing intervall
 opt :  10.0000  next Energy=   -15.609866 (dE=-0.701E-01)
 bond charge predicted
       N       E                     dE             d eps       ncg     rms          rms(c)
DAV:   1    -0.155971482781E+02   -0.20917E-01   -0.25609E+01   256   0.171E+01    0.527E-01
DAV:   2    -0.156091437426E+02   -0.11995E-01   -0.12944E-01   272   0.163E+00    0.289E-01
DAV:   3    -0.156089511806E+02    0.19256E-03   -0.27765E-03   272   0.211E-01    0.164E-01
DAV:   4    -0.156089676101E+02   -0.16430E-04   -0.46343E-04   272   0.878E-02
   4 F= -.15608968E+02 E0= -.15608968E+02  d E =-.692475E-01  mag=     1.0000
 curvature:  -6.14 expect dE=-0.644E-02 dE for cont linesearch -0.607E-02
 ZBRENT: increasing intervall
 opt :  22.0000  next Energy=   -15.595325 (dE=-0.556E-01)
 bond charge predicted
       N       E                     dE             d eps       ncg     rms          rms(c)
DAV:   1    -0.155355954554E+02    0.73356E-01   -0.10270E+02   256   0.344E+01    0.125E+00
DAV:   2    -0.155853598899E+02   -0.49764E-01   -0.53054E-01   272   0.329E+00    0.632E-01
DAV:   3    -0.155843515491E+02    0.10083E-02   -0.12189E-02   272   0.433E-01    0.347E-01
DAV:   4    -0.155844226275E+02   -0.71078E-04   -0.15567E-03   264   0.168E-01    0.613E-02
DAV:   5    -0.155844727806E+02   -0.50153E-04   -0.25964E-04   208   0.544E-02
   5 F= -.15584473E+02 E0= -.15584473E+02  d E =-.447527E-01  mag=     1.0000
 curvature:  13.80 expect dE= 0.831E-01 dE for cont linesearch  0.783E-01
 ZBRENT: bracketing found
 ZBRENT: interpolating
 opt :  13.5335  next Energy=   -15.614638 (dE=-0.749E-01)
 bond charge predicted
       N       E                     dE             d eps       ncg     rms          rms(c)
DAV:   1    -0.155927122213E+02   -0.82896E-02   -0.51112E+01   256   0.242E+01    0.749E-01
DAV:   2    -0.156156154961E+02   -0.22903E-01   -0.23924E-01   264   0.229E+00    0.551E-01
DAV:   3    -0.156153044332E+02    0.31106E-03   -0.49118E-03   272   0.297E-01    0.304E-01
DAV:   4    -0.156152000235E+02    0.10441E-03   -0.12829E-03   272   0.142E-01    0.426E-02
DAV:   5    -0.156151859592E+02    0.14064E-04   -0.12300E-04   176   0.398E-02
   6 F= -.15615186E+02 E0= -.15615186E+02  d E =-.754659E-01  mag=     1.0000
 curvature:  -1.00 expect dE=-0.113E-03 dE for cont linesearch -0.395E-05
 trial: gam=-0.00860 g(F)=  0.113E-03 g(S)=  0.000E+00 ort = 0.203E-03 (trialstep = 0.351E+01)
 search vector abs. value=  0.111E-03
 reached required accuracy - stopping structural energy minimisation
Application 91106366 resources: utime ~1112s, stime ~48s, Rss ~51620, inblocks ~81127, outblocks ~149847
