       N       E                     dE             d eps       ncg     rms          rms(c)
DAV:   1     0.476149960866E+04    0.47615E+04   -0.11816E+05  1520   0.617E+02
DAV:   2     0.770879520442E+03   -0.39906E+04   -0.35796E+04  2400   0.166E+02
DAV:   3    -0.804394077971E+02   -0.85132E+03   -0.78307E+03  1856   0.824E+01
DAV:   4    -0.113755229986E+03   -0.33316E+02   -0.33007E+02  1624   0.175E+01
DAV:   5    -0.114241311985E+03   -0.48608E+00   -0.48568E+00  1664   0.248E+00    0.415E+01
DAV:   6    -0.559300522968E+02    0.58311E+02   -0.18672E+02  1508   0.161E+01    0.224E+01
DAV:   7    -0.449053451018E+02    0.11025E+02   -0.11053E+01  1560   0.424E+00    0.139E+01
DAV:   8    -0.404119816920E+02    0.44934E+01   -0.28207E+00  1604   0.248E+00    0.805E+00
DAV:   9    -0.429933557689E+02   -0.25814E+01   -0.77505E-01  1608   0.114E+00    0.513E+00
DAV:  10    -0.564289179929E+02   -0.13436E+02   -0.36336E+00  1536   0.223E+00    0.431E+00
DAV:  11    -0.685952720104E+02   -0.12166E+02   -0.47553E+00  1552   0.290E+00    0.305E+00
DAV:  12    -0.845228189024E+02   -0.15928E+02   -0.71952E+00  1544   0.255E+00    0.295E+00
DAV:  13    -0.877751524933E+02   -0.32523E+01   -0.70734E-01  1648   0.120E+00    0.233E+00
DAV:  14    -0.949876242328E+02   -0.72125E+01   -0.20483E+00  1528   0.150E+00    0.223E+00
DAV:  15    -0.982410118456E+02   -0.32534E+01   -0.52263E-01  1568   0.849E-01    0.218E+00
DAV:  16    -0.100006258111E+03   -0.17652E+01   -0.18540E-01  1560   0.662E-01    0.167E+00
DAV:  17    -0.104672256920E+03   -0.46660E+01   -0.10387E+00  1496   0.107E+00    0.152E+00
DAV:  18    -0.105789464192E+03   -0.11172E+01   -0.12292E-01  1552   0.607E-01    0.109E+00
DAV:  19    -0.107490736357E+03   -0.17013E+01   -0.16573E-01  1536   0.500E-01    0.739E-01
DAV:  20    -0.110063109046E+03   -0.25724E+01   -0.22371E-01  1544   0.543E-01    0.410E-01
DAV:  21    -0.111158400883E+03   -0.10953E+01   -0.40045E-02  1576   0.222E-01    0.304E-01
DAV:  22    -0.111971601638E+03   -0.81320E+00   -0.22526E-02  1592   0.167E-01    0.182E-01
DAV:  23    -0.112278081558E+03   -0.30648E+00   -0.75243E-03  1580   0.104E-01    0.105E-01
DAV:  24    -0.112393756676E+03   -0.11568E+00   -0.19816E-03  1584   0.707E-02    0.707E-02
DAV:  25    -0.112429755436E+03   -0.35999E-01   -0.75561E-04  1088   0.400E-02    0.515E-02
DAV:  26    -0.112449281242E+03   -0.19526E-01   -0.48350E-04  1064   0.371E-02    0.337E-02
DAV:  27    -0.112463768668E+03   -0.14487E-01   -0.24763E-04  1064   0.228E-02    0.203E-02
DAV:  28    -0.112472791117E+03   -0.90224E-02   -0.11188E-04  1048   0.165E-02    0.166E-02
DAV:  29    -0.112480405083E+03   -0.76140E-02   -0.81694E-05  1020   0.828E-03    0.102E-02
DAV:  30    -0.112487278286E+03   -0.68732E-02   -0.84442E-05  1024   0.811E-03    0.599E-03
DAV:  31    -0.112489578101E+03   -0.22998E-02   -0.11436E-05  1000   0.360E-03    0.408E-03
DAV:  32    -0.112491008413E+03   -0.14303E-02   -0.90792E-06   976   0.352E-03    0.218E-03
DAV:  33    -0.112491343258E+03   -0.33485E-03   -0.25072E-06   944   0.176E-03    0.146E-03
DAV:  34    -0.112491519808E+03   -0.17655E-03   -0.94756E-07   936   0.115E-03    0.967E-04
DAV:  35    -0.112491678926E+03   -0.15912E-03   -0.94097E-07   936   0.101E-03    0.666E-04
DAV:  36    -0.112491745704E+03   -0.66779E-04   -0.35668E-07   936   0.639E-04
   1 F= -.11249175E+03 E0= -.11249175E+03  d E =-.112492E+03  mag=     0.0013
       N       E                     dE             d eps       ncg     rms          rms(c)
DAV:   1    -0.112532282257E+03   -0.40603E-01   -0.28886E+00  1528   0.240E+00    0.101E-01
DAV:   2    -0.112533542987E+03   -0.12607E-02   -0.12843E-02  1544   0.222E-01    0.766E-02
DAV:   3    -0.112533514800E+03    0.28187E-04   -0.21349E-04   968   0.295E-02
   2 F= -.11253351E+03 E0= -.11253351E+03  d E =-.417691E-01  mag=     0.0008
       N       E                     dE             d eps       ncg     rms          rms(c)
DAV:   1    -0.112632336053E+03   -0.98793E-01   -0.26052E+01  1488   0.720E+00    0.304E-01
DAV:   2    -0.112643594290E+03   -0.11258E-01   -0.11582E-01  1528   0.665E-01    0.227E-01
DAV:   3    -0.112643327924E+03    0.26637E-03   -0.20492E-03  1576   0.871E-02    0.148E-01
DAV:   4    -0.112643113649E+03    0.21427E-03   -0.99429E-04  1544   0.511E-02    0.330E-02
DAV:   5    -0.112643117769E+03   -0.41192E-05   -0.29236E-05   904   0.185E-02
   3 F= -.11264312E+03 E0= -.11264312E+03  d E =-.151372E+00  mag=     0.0004
       N       E                     dE             d eps       ncg     rms          rms(c)
DAV:   1    -0.112751744971E+03   -0.10863E+00   -0.10414E+02  1488   0.144E+01    0.566E-01
DAV:   2    -0.112797243074E+03   -0.45498E-01   -0.46518E-01  1528   0.134E+00    0.430E-01
DAV:   3    -0.112796188462E+03    0.10546E-02   -0.74930E-03  1544   0.170E-01    0.291E-01
DAV:   4    -0.112795207030E+03    0.98143E-03   -0.39552E-03  1536   0.100E-01    0.736E-02
DAV:   5    -0.112795233494E+03   -0.26464E-04   -0.15174E-04   968   0.370E-02
   4 F= -.11279523E+03 E0= -.11279523E+03  d E =-.303488E+00  mag=     0.0002
       N       E                     dE             d eps       ncg     rms          rms(c)
DAV:   1    -0.112664774381E+03    0.13043E+00   -0.41880E+02  1488   0.290E+01    0.111E+00
DAV:   2    -0.112850887055E+03   -0.18611E+00   -0.19000E+00  1528   0.271E+00    0.817E-01
DAV:   3    -0.112847251635E+03    0.36354E-02   -0.31972E-02  1560   0.351E-01    0.564E-01
DAV:   4    -0.112843130903E+03    0.41207E-02   -0.13752E-02  1536   0.186E-01    0.167E-01
DAV:   5    -0.112843257684E+03   -0.12678E-03   -0.97672E-04  1568   0.710E-02    0.648E-02
DAV:   6    -0.112843136099E+03    0.12159E-03   -0.30051E-04  1072   0.308E-02    0.290E-02
DAV:   7    -0.112843152345E+03   -0.16246E-04   -0.94788E-05   944   0.202E-02
   5 F= -.11284315E+03 E0= -.11284315E+03  d E =-.351407E+00  mag=     0.0001
       N       E                     dE             d eps       ncg     rms          rms(c)
DAV:   1    -0.112842820883E+03    0.31522E-03   -0.51137E+01  1488   0.101E+01    0.365E-01
DAV:   2    -0.112865230800E+03   -0.22410E-01   -0.22920E-01  1536   0.937E-01    0.284E-01
DAV:   3    -0.112864777096E+03    0.45370E-03   -0.36400E-03  1552   0.118E-01    0.193E-01
DAV:   4    -0.112864296362E+03    0.48073E-03   -0.17722E-03  1552   0.663E-02    0.582E-02
DAV:   5    -0.112864332436E+03   -0.36074E-04   -0.11845E-04   944   0.277E-02
   6 F= -.11286433E+03 E0= -.11286433E+03  d E =-.372587E+00  mag=     0.0000
       N       E                     dE             d eps       ncg     rms          rms(c)
DAV:   1    -0.112910075005E+03   -0.45779E-01   -0.23855E+01  1488   0.688E+00    0.214E-01
DAV:   2    -0.112920710246E+03   -0.10635E-01   -0.10688E-01  1536   0.649E-01    0.200E-01
DAV:   3    -0.112920523765E+03    0.18648E-03   -0.16607E-03  1568   0.804E-02    0.147E-01
DAV:   4    -0.112920130489E+03    0.39328E-03   -0.88904E-04  1536   0.452E-02    0.635E-02
DAV:   5    -0.112920130219E+03    0.27037E-06   -0.23175E-04   928   0.261E-02
   7 F= -.11292013E+03 E0= -.11292013E+03  d E =-.557978E-01  mag=     0.0000
       N       E                     dE             d eps       ncg     rms          rms(c)
DAV:   1    -0.112933021021E+03   -0.12891E-01   -0.21526E+02  1488   0.207E+01    0.608E-01
DAV:   2    -0.113029761752E+03   -0.96741E-01   -0.96723E-01  1552   0.196E+00    0.592E-01
DAV:   3    -0.113028493527E+03    0.12682E-02   -0.14762E-02  1568   0.238E-01    0.444E-01
DAV:   4    -0.113025155831E+03    0.33377E-02   -0.61033E-03  1536   0.120E-01    0.225E-01
DAV:   5    -0.113025037036E+03    0.11880E-03   -0.32076E-03  1552   0.888E-02    0.819E-02
DAV:   6    -0.113024956128E+03    0.80908E-04   -0.17003E-04   968   0.198E-02
   8 F= -.11302496E+03 E0= -.11302496E+03  d E =-.160624E+00  mag=     0.0000
       N       E                     dE             d eps       ncg     rms          rms(c)
DAV:   1    -0.112583821547E+03    0.44122E+00   -0.87081E+02  1488   0.420E+01    0.121E+00
DAV:   2    -0.112979496688E+03   -0.39568E+00   -0.39695E+00  1552   0.399E+00    0.118E+00
DAV:   3    -0.112974747215E+03    0.47495E-02   -0.60365E-02  1584   0.482E-01    0.878E-01
DAV:   4    -0.112962274398E+03    0.12473E-01   -0.19219E-02  1536   0.216E-01    0.501E-01
DAV:   5    -0.112960813439E+03    0.14610E-02   -0.13906E-02  1552   0.181E-01    0.167E-01
DAV:   6    -0.112960752227E+03    0.61211E-04   -0.44090E-04  1520   0.328E-02
   9 F= -.11296075E+03 E0= -.11296075E+03  d E =-.964198E-01  mag=     0.0000
       N       E                     dE             d eps       ncg     rms          rms(c)
DAV:   1    -0.112872932366E+03    0.87881E-01   -0.38810E+02  1488   0.279E+01    0.900E-01
DAV:   2    -0.113051721749E+03   -0.17879E+00   -0.17975E+00  1536   0.266E+00    0.708E-01
DAV:   3    -0.113048346881E+03    0.33749E-02   -0.28403E-02  1584   0.336E-01    0.494E-01
DAV:   4    -0.113043373199E+03    0.49737E-02   -0.11323E-02  1536   0.163E-01    0.207E-01
DAV:   5    -0.113043397772E+03   -0.24573E-04   -0.30712E-03  1568   0.887E-02    0.739E-02
DAV:   6    -0.113043285634E+03    0.11214E-03   -0.33333E-04  1104   0.274E-02    0.331E-02
DAV:   7    -0.113043301838E+03   -0.16204E-04   -0.77940E-05   928   0.165E-02
  10 F= -.11304330E+03 E0= -.11304330E+03  d E =-.178969E+00  mag=     0.0000
       N       E                     dE             d eps       ncg     rms          rms(c)
DAV:   1    -0.113069173914E+03   -0.25888E-01   -0.52228E+01  1488   0.102E+01    0.255E-01
DAV:   2    -0.113092162850E+03   -0.22989E-01   -0.22797E-01  1536   0.946E-01    0.251E-01
DAV:   3    -0.113091811868E+03    0.35098E-03   -0.33046E-03  1536   0.112E-01    0.193E-01
DAV:   4    -0.113090985599E+03    0.82627E-03   -0.13020E-03  1552   0.539E-02    0.101E-01
DAV:   5    -0.113090913022E+03    0.72577E-04   -0.10335E-03  1520   0.489E-02    0.380E-02
DAV:   6    -0.113090901778E+03    0.11244E-04   -0.30138E-05   912   0.926E-03
  11 F= -.11309090E+03 E0= -.11309090E+03  d E =-.475999E-01  mag=     0.0000
       N       E                     dE             d eps       ncg     rms          rms(c)
DAV:   1    -0.112953386120E+03    0.13753E+00   -0.47364E+02  1488   0.308E+01    0.814E-01
DAV:   2    -0.113164790817E+03   -0.21140E+00   -0.20924E+00  1552   0.288E+00    0.761E-01
DAV:   3    -0.113161263613E+03    0.35272E-02   -0.30409E-02  1536   0.339E-01    0.571E-01
DAV:   4    -0.113154078247E+03    0.71854E-02   -0.11031E-02  1552   0.158E-01    0.303E-01
DAV:   5    -0.113153223579E+03    0.85467E-03   -0.76394E-03  1552   0.133E-01    0.103E-01
DAV:   6    -0.113153208234E+03    0.15345E-04   -0.18278E-04  1040   0.245E-02
  12 F= -.11315321E+03 E0= -.11315321E+03  d E =-.109906E+00  mag=     0.0000
       N       E                     dE             d eps       ncg     rms          rms(c)
DAV:   1    -0.113165952570E+03   -0.12729E-01   -0.88376E+01  1488   0.133E+01    0.311E-01
DAV:   2    -0.113204879344E+03   -0.38927E-01   -0.38399E-01  1520   0.123E+00    0.306E-01
DAV:   3    -0.113204277109E+03    0.60223E-03   -0.58413E-03  1568   0.150E-01    0.235E-01
DAV:   4    -0.113202952156E+03    0.13250E-02   -0.16654E-03  1568   0.608E-02    0.134E-01
DAV:   5    -0.113202709171E+03    0.24299E-03   -0.22165E-03  1520   0.696E-02    0.458E-02
DAV:   6    -0.113202712319E+03   -0.31480E-05   -0.42433E-05   896   0.107E-02
  13 F= -.11320271E+03 E0= -.11320271E+03  d E =-.495041E-01  mag=     0.0000
       N       E                     dE             d eps       ncg     rms          rms(c)
DAV:   1    -0.113071175289E+03    0.13153E+00   -0.41356E+02  1488   0.288E+01    0.773E-01
DAV:   2    -0.113255082318E+03   -0.18391E+00   -0.18262E+00  1536   0.270E+00    0.665E-01
DAV:   3    -0.113251365365E+03    0.37170E-02   -0.28322E-02  1584   0.338E-01    0.487E-01
DAV:   4    -0.113245330825E+03    0.60345E-02   -0.87494E-03  1536   0.139E-01    0.254E-01
DAV:   5    -0.113244437391E+03    0.89343E-03   -0.66760E-03  1552   0.122E-01    0.783E-02
DAV:   6    -0.113244438382E+03   -0.99144E-06   -0.15686E-04   960   0.208E-02
  14 F= -.11324444E+03 E0= -.11324444E+03  d E =-.912301E-01  mag=     0.0000
       N       E                     dE             d eps       ncg     rms          rms(c)
DAV:   1    -0.113228013250E+03    0.16424E-01   -0.14738E+02  1488   0.171E+01    0.445E-01
DAV:   2    -0.113293228754E+03   -0.65216E-01   -0.64906E-01  1536   0.161E+00    0.415E-01
DAV:   3    -0.113291950216E+03    0.12785E-02   -0.98773E-03  1552   0.207E-01    0.309E-01
DAV:   4    -0.113289655129E+03    0.22951E-02   -0.32068E-03  1568   0.853E-02    0.167E-01
DAV:   5    -0.113289310243E+03    0.34489E-03   -0.31594E-03  1536   0.860E-02    0.546E-02
DAV:   6    -0.113289301529E+03    0.87146E-05   -0.73187E-05   928   0.166E-02
  15 F= -.11328930E+03 E0= -.11328930E+03  d E =-.448631E-01  mag=     0.0000
       N       E                     dE             d eps       ncg     rms          rms(c)
DAV:   1    -0.113215854526E+03    0.73456E-01   -0.21927E+02  1488   0.209E+01    0.576E-01
DAV:   2    -0.113313367292E+03   -0.97513E-01   -0.97117E-01  1552   0.197E+00    0.510E-01
DAV:   3    -0.113311256819E+03    0.21105E-02   -0.14970E-02  1552   0.259E-01    0.372E-01
DAV:   4    -0.113307891761E+03    0.33651E-02   -0.52020E-03  1568   0.109E-01    0.190E-01
DAV:   5    -0.113307491937E+03    0.39982E-03   -0.38688E-03  1536   0.971E-02    0.612E-02
DAV:   6    -0.113307474375E+03    0.17562E-04   -0.10519E-04   960   0.205E-02
  16 F= -.11330747E+03 E0= -.11330747E+03  d E =-.630360E-01  mag=     0.0000
       N       E                     dE             d eps       ncg     rms          rms(c)
DAV:   1    -0.113274424923E+03    0.33067E-01   -0.18941E+02  1488   0.194E+01    0.514E-01
DAV:   2    -0.113358985717E+03   -0.84561E-01   -0.84735E-01  1520   0.185E+00    0.490E-01
DAV:   3    -0.113357432672E+03    0.15530E-02   -0.14220E-02  1568   0.260E-01    0.359E-01
DAV:   4    -0.113354624015E+03    0.28087E-02   -0.34892E-03  1584   0.916E-02    0.211E-01
DAV:   5    -0.113353982130E+03    0.64189E-03   -0.48883E-03  1520   0.107E-01    0.649E-02
DAV:   6    -0.113353969682E+03    0.12448E-04   -0.93391E-05   976   0.182E-02
  17 F= -.11335397E+03 E0= -.11335397E+03  d E =-.464953E-01  mag=     0.0000
       N       E                     dE             d eps       ncg     rms          rms(c)
DAV:   1    -0.113282973340E+03    0.71009E-01   -0.20112E+02  1488   0.200E+01    0.541E-01
DAV:   2    -0.113372920363E+03   -0.89947E-01   -0.90103E-01  1520   0.191E+00    0.506E-01
DAV:   3    -0.113371314043E+03    0.16063E-02   -0.15191E-02  1568   0.270E-01    0.367E-01
DAV:   4    -0.113368340864E+03    0.29732E-02   -0.38477E-03  1568   0.966E-02    0.212E-01
DAV:   5    -0.113367716826E+03    0.62404E-03   -0.48745E-03  1520   0.108E-01    0.648E-02
DAV:   6    -0.113367704147E+03    0.12679E-04   -0.97955E-05   960   0.188E-02
  18 F= -.11336770E+03 E0= -.11336770E+03  d E =-.602298E-01  mag=     0.0000
       N       E                     dE             d eps       ncg     rms          rms(c)
DAV:   1    -0.113345408195E+03    0.22309E-01   -0.14798E+02  1488   0.171E+01    0.405E-01
DAV:   2    -0.113411560231E+03   -0.66152E-01   -0.66810E-01  1520   0.165E+00    0.440E-01
DAV:   3    -0.113410593743E+03    0.96649E-03   -0.11666E-02  1568   0.240E-01    0.323E-01
DAV:   4    -0.113408561452E+03    0.20323E-02   -0.17417E-03  1584   0.646E-02    0.225E-01
DAV:   5    -0.113407534377E+03    0.10271E-02   -0.57340E-03  1520   0.112E-01    0.672E-02
DAV:   6    -0.113407549929E+03   -0.15552E-04   -0.64831E-05   944   0.168E-02
  19 F= -.11340755E+03 E0= -.11340755E+03  d E =-.398458E-01  mag=     0.0000
       N       E                     dE             d eps       ncg     rms          rms(c)
DAV:   1    -0.113023214337E+03    0.38432E+00   -0.93425E+02  1488   0.435E+01    0.134E+00
DAV:   2    -0.113460768616E+03   -0.43755E+00   -0.44445E+00  1520   0.429E+00    0.114E+00
DAV:   3    -0.113452948847E+03    0.78198E-02   -0.79441E-02  1568   0.641E-01    0.770E-01
DAV:   4    -0.113441311587E+03    0.11637E-01   -0.12857E-02  1600   0.183E-01    0.504E-01
DAV:   5    -0.113436837573E+03    0.44740E-02   -0.18663E-02  1520   0.207E-01    0.139E-01
DAV:   6    -0.113436988337E+03   -0.15076E-03   -0.26009E-04  1072   0.342E-02    0.780E-02
DAV:   7    -0.113437091191E+03   -0.10285E-03   -0.89102E-05   960   0.206E-02    0.259E-02
DAV:   8    -0.113437146042E+03   -0.54851E-04   -0.30588E-05   976   0.105E-02
  20 F= -.11343715E+03 E0= -.11343715E+03  d E =-.694419E-01  mag=     0.0000
       N       E                     dE             d eps       ncg     rms          rms(c)
DAV:   1    -0.113378849972E+03    0.58241E-01   -0.23012E+02  1488   0.214E+01    0.510E-01
DAV:   2    -0.113482045759E+03   -0.10320E+00   -0.10302E+00  1520   0.204E+00    0.525E-01
DAV:   3    -0.113480492471E+03    0.15533E-02   -0.16977E-02  1568   0.277E-01    0.395E-01
DAV:   4    -0.113477270913E+03    0.32216E-02   -0.28940E-03  1584   0.824E-02    0.262E-01
DAV:   5    -0.113475831995E+03    0.14389E-02   -0.77163E-03  1520   0.129E-01    0.746E-02
DAV:   6    -0.113475867323E+03   -0.35328E-04   -0.81588E-05   976   0.179E-02
  21 F= -.11347587E+03 E0= -.11347587E+03  d E =-.387213E-01  mag=     0.0000
       N       E                     dE             d eps       ncg     rms          rms(c)
DAV:   1    -0.113294900525E+03    0.18093E+00   -0.44332E+02  1488   0.298E+01    0.766E-01
DAV:   2    -0.113496100323E+03   -0.20120E+00   -0.20082E+00  1520   0.285E+00    0.736E-01
DAV:   3    -0.113492971826E+03    0.31285E-02   -0.32815E-02  1568   0.381E-01    0.537E-01
DAV:   4    -0.113486755672E+03    0.62162E-02   -0.64214E-03  1568   0.122E-01    0.341E-01
DAV:   5    -0.113484569324E+03    0.21863E-02   -0.11178E-02  1536   0.156E-01    0.980E-02
DAV:   6    -0.113484635206E+03   -0.65882E-04   -0.13207E-04  1008   0.219E-02
  22 F= -.11348464E+03 E0= -.11348464E+03  d E =-.474892E-01  mag=     0.0000
       N       E                     dE             d eps       ncg     rms          rms(c)
DAV:   1    -0.113445289705E+03    0.39280E-01   -0.21875E+02  1488   0.209E+01    0.520E-01
DAV:   2    -0.113543801704E+03   -0.98512E-01   -0.97628E-01  1520   0.198E+00    0.498E-01
DAV:   3    -0.113542394639E+03    0.14071E-02   -0.15678E-02  1584   0.260E-01    0.376E-01
DAV:   4    -0.113539305407E+03    0.30892E-02   -0.35155E-03  1568   0.903E-02    0.223E-01
DAV:   5    -0.113538485204E+03    0.82020E-03   -0.58094E-03  1520   0.112E-01    0.677E-02
DAV:   6    -0.113538486311E+03   -0.11069E-05   -0.98136E-05   960   0.171E-02
  23 F= -.11353849E+03 E0= -.11353849E+03  d E =-.538511E-01  mag=     0.0000
       N       E                     dE             d eps       ncg     rms          rms(c)
DAV:   1    -0.113412018331E+03    0.12647E+00   -0.34878E+02  1488   0.264E+01    0.678E-01
DAV:   2    -0.113569073430E+03   -0.15706E+00   -0.15594E+00  1536   0.250E+00    0.626E-01
DAV:   3    -0.113566535872E+03    0.25376E-02   -0.24673E-02  1616   0.322E-01    0.469E-01
DAV:   4    -0.113561511850E+03    0.50240E-02   -0.60935E-03  1536   0.118E-01    0.268E-01
DAV:   5    -0.113560355544E+03    0.11563E-02   -0.77702E-03  1552   0.130E-01    0.804E-02
DAV:   6    -0.113560356689E+03   -0.11451E-05   -0.13895E-04   992   0.199E-02
  24 F= -.11356036E+03 E0= -.11356036E+03  d E =-.757215E-01  mag=     0.0000
       N       E                     dE             d eps       ncg     rms          rms(c)
DAV:   1    -0.113492866248E+03    0.67489E-01   -0.33405E+02  1488   0.258E+01    0.644E-01
DAV:   2    -0.113645879271E+03   -0.15301E+00   -0.15203E+00  1552   0.247E+00    0.645E-01
DAV:   3    -0.113644037986E+03    0.18413E-02   -0.23657E-02  1600   0.314E-01    0.477E-01
DAV:   4    -0.113639301487E+03    0.47365E-02   -0.53513E-03  1552   0.112E-01    0.297E-01
DAV:   5    -0.113638037623E+03    0.12639E-02   -0.85469E-03  1536   0.136E-01    0.954E-02
DAV:   6    -0.113638037685E+03   -0.61416E-07   -0.14490E-04  1024   0.199E-02
  25 F= -.11363804E+03 E0= -.11363804E+03  d E =-.776810E-01  mag=     0.0000
       N       E                     dE             d eps       ncg     rms          rms(c)
DAV:   1    -0.113510548037E+03    0.12749E+00   -0.34172E+02  1488   0.261E+01    0.661E-01
DAV:   2    -0.113666985288E+03   -0.15644E+00   -0.15532E+00  1568   0.249E+00    0.643E-01
DAV:   3    -0.113664938825E+03    0.20465E-02   -0.23822E-02  1568   0.313E-01    0.476E-01
DAV:   4    -0.113660061939E+03    0.48769E-02   -0.58639E-03  1568   0.117E-01    0.286E-01
DAV:   5    -0.113658925084E+03    0.11369E-02   -0.79216E-03  1520   0.131E-01    0.926E-02
DAV:   6    -0.113658924174E+03    0.90976E-06   -0.14687E-04  1024   0.197E-02
  26 F= -.11365892E+03 E0= -.11365892E+03  d E =-.985675E-01  mag=     0.0000
       N       E                     dE             d eps       ncg     rms          rms(c)
DAV:   1    -0.113573631380E+03    0.85294E-01   -0.33479E+02  1488   0.258E+01    0.653E-01
DAV:   2    -0.113725497587E+03   -0.15187E+00   -0.15095E+00  1536   0.246E+00    0.627E-01
DAV:   3    -0.113723300284E+03    0.21973E-02   -0.23826E-02  1600   0.314E-01    0.463E-01
DAV:   4    -0.113718475817E+03    0.48245E-02   -0.56618E-03  1568   0.114E-01    0.278E-01
DAV:   5    -0.113717307461E+03    0.11684E-02   -0.77369E-03  1552   0.130E-01    0.886E-02
DAV:   6    -0.113717316319E+03   -0.88578E-05   -0.13066E-04   960   0.191E-02
  27 F= -.11371732E+03 E0= -.11371732E+03  d E =-.583921E-01  mag=    -0.0000
       N       E                     dE             d eps       ncg     rms          rms(c)
DAV:   1    -0.113633272232E+03    0.84035E-01   -0.22015E+02  1488   0.209E+01    0.524E-01
DAV:   2    -0.113732935938E+03   -0.99664E-01   -0.98797E-01  1536   0.199E+00    0.505E-01
DAV:   3    -0.113731521362E+03    0.14146E-02   -0.15504E-02  1600   0.252E-01    0.376E-01
DAV:   4    -0.113728310771E+03    0.32106E-02   -0.39334E-03  1568   0.953E-02    0.221E-01
DAV:   5    -0.113727635529E+03    0.67524E-03   -0.51412E-03  1536   0.106E-01    0.730E-02
DAV:   6    -0.113727634162E+03    0.13670E-05   -0.99683E-05   944   0.164E-02
  28 F= -.11372763E+03 E0= -.11372763E+03  d E =-.687100E-01  mag=    -0.0000
       N       E                     dE             d eps       ncg     rms          rms(c)
DAV:   1    -0.113665465905E+03    0.62170E-01   -0.29257E+02  1488   0.242E+01    0.590E-01
DAV:   2    -0.113796134019E+03   -0.13067E+00   -0.12874E+00  1536   0.226E+00    0.552E-01
DAV:   3    -0.113794100172E+03    0.20338E-02   -0.19644E-02  1584   0.277E-01    0.418E-01
DAV:   4    -0.113789860271E+03    0.42399E-02   -0.52550E-03  1536   0.109E-01    0.235E-01
DAV:   5    -0.113788976632E+03    0.88364E-03   -0.62055E-03  1552   0.117E-01    0.737E-02
DAV:   6    -0.113788991826E+03   -0.15193E-04   -0.96492E-05   944   0.170E-02
  29 F= -.11378899E+03 E0= -.11378899E+03  d E =-.613577E-01  mag=    -0.0000
       N       E                     dE             d eps       ncg     rms          rms(c)
DAV:   1    -0.113680992334E+03    0.10798E+00   -0.28999E+02  1488   0.241E+01    0.598E-01
DAV:   2    -0.113811118684E+03   -0.13013E+00   -0.12765E+00  1552   0.225E+00    0.548E-01
DAV:   3    -0.113809044839E+03    0.20738E-02   -0.19477E-02  1584   0.276E-01    0.413E-01
DAV:   4    -0.113804838099E+03    0.42067E-02   -0.54810E-03  1536   0.111E-01    0.225E-01
DAV:   5    -0.113804055781E+03    0.78232E-03   -0.57121E-03  1536   0.112E-01    0.713E-02
DAV:   6    -0.113804064256E+03   -0.84757E-05   -0.10114E-04   944   0.172E-02
  30 F= -.11380406E+03 E0= -.11380406E+03  d E =-.764301E-01  mag=    -0.0000
       N       E                     dE             d eps       ncg     rms          rms(c)
DAV:   1    -0.113736837889E+03    0.67218E-01   -0.29628E+02  1488   0.243E+01    0.570E-01
DAV:   2    -0.113869311595E+03   -0.13247E+00   -0.13020E+00  1536   0.227E+00    0.561E-01
DAV:   3    -0.113867443257E+03    0.18683E-02   -0.19772E-02  1584   0.277E-01    0.430E-01
DAV:   4    -0.113863067736E+03    0.43755E-02   -0.49736E-03  1552   0.107E-01    0.256E-01
DAV:   5    -0.113861921037E+03    0.11467E-02   -0.71996E-03  1536   0.127E-01    0.817E-02
DAV:   6    -0.113861958739E+03   -0.37703E-04   -0.88003E-05   944   0.174E-02
  31 F= -.11386196E+03 E0= -.11386196E+03  d E =-.578945E-01  mag=    -0.0000
       N       E                     dE             d eps       ncg     rms          rms(c)
DAV:   1    -0.113701287009E+03    0.16063E+00   -0.41784E+02  1488   0.289E+01    0.714E-01
DAV:   2    -0.113887660931E+03   -0.18637E+00   -0.18429E+00  1536   0.271E+00    0.670E-01
DAV:   3    -0.113884663054E+03    0.29979E-02   -0.28201E-02  1584   0.334E-01    0.502E-01
DAV:   4    -0.113878615935E+03    0.60471E-02   -0.73166E-03  1536   0.130E-01    0.292E-01
DAV:   5    -0.113877188978E+03    0.14270E-02   -0.87347E-03  1536   0.140E-01    0.909E-02
DAV:   6    -0.113877238405E+03   -0.49428E-04   -0.11889E-04   976   0.202E-02
  32 F= -.11387724E+03 E0= -.11387724E+03  d E =-.731741E-01  mag=    -0.0000
       N       E                     dE             d eps       ncg     rms          rms(c)
DAV:   1    -0.113756507144E+03    0.12068E+00   -0.44568E+02  1488   0.299E+01    0.732E-01
DAV:   2    -0.113955377642E+03   -0.19887E+00   -0.19667E+00  1536   0.279E+00    0.696E-01
DAV:   3    -0.113952178713E+03    0.31989E-02   -0.29996E-02  1616   0.341E-01    0.524E-01
DAV:   4    -0.113945642030E+03    0.65367E-02   -0.75851E-03  1520   0.132E-01    0.310E-01
DAV:   5    -0.113943944612E+03    0.16974E-02   -0.94871E-03  1536   0.146E-01    0.946E-02
DAV:   6    -0.113944023124E+03   -0.78512E-04   -0.11130E-04   992   0.197E-02
  33 F= -.11394402E+03 E0= -.11394402E+03  d E =-.667847E-01  mag=    -0.0000
       N       E                     dE             d eps       ncg     rms          rms(c)
DAV:   1    -0.113820298730E+03    0.12365E+00   -0.31763E+02  1488   0.252E+01    0.609E-01
DAV:   2    -0.113961092898E+03   -0.14079E+00   -0.13962E+00  1536   0.235E+00    0.589E-01
DAV:   3    -0.113958878600E+03    0.22143E-02   -0.21349E-02  1616   0.289E-01    0.444E-01
DAV:   4    -0.113954189766E+03    0.46888E-02   -0.55033E-03  1520   0.113E-01    0.263E-01
DAV:   5    -0.113953042384E+03    0.11474E-02   -0.71809E-03  1536   0.127E-01    0.826E-02
DAV:   6    -0.113953092908E+03   -0.50524E-04   -0.91541E-05   960   0.173E-02
  34 F= -.11395309E+03 E0= -.11395309E+03  d E =-.758545E-01  mag=    -0.0000
       N       E                     dE             d eps       ncg     rms          rms(c)
DAV:   1    -0.113854278790E+03    0.98764E-01   -0.39166E+02  1488   0.280E+01    0.713E-01
DAV:   2    -0.114029789549E+03   -0.17551E+00   -0.17318E+00  1536   0.261E+00    0.660E-01
DAV:   3    -0.114027060742E+03    0.27288E-02   -0.26429E-02  1616   0.317E-01    0.496E-01
DAV:   4    -0.114021313349E+03    0.57474E-02   -0.80090E-03  1536   0.135E-01    0.270E-01
DAV:   5    -0.114020430526E+03    0.88282E-03   -0.72609E-03  1568   0.128E-01    0.880E-02
DAV:   6    -0.114020452523E+03   -0.21997E-04   -0.13240E-04   992   0.194E-02
  35 F= -.11402045E+03 E0= -.11402045E+03  d E =-.673596E-01  mag=    -0.0000
       N       E                     dE             d eps       ncg     rms          rms(c)
DAV:   1    -0.113988363431E+03    0.32067E-01   -0.89974E+01  1488   0.134E+01    0.317E-01
DAV:   2    -0.114028505669E+03   -0.40142E-01   -0.39494E-01  1520   0.125E+00    0.314E-01
DAV:   3    -0.114028004996E+03    0.50067E-03   -0.60145E-03  1584   0.151E-01    0.242E-01
DAV:   4    -0.114026677488E+03    0.13275E-02   -0.17574E-03  1552   0.636E-02    0.138E-01
DAV:   5    -0.114026472890E+03    0.20460E-03   -0.21756E-03  1520   0.696E-02    0.480E-02
DAV:   6    -0.114026486596E+03   -0.13705E-04   -0.38687E-05   928   0.102E-02
  36 F= -.11402649E+03 E0= -.11402649E+03  d E =-.733937E-01  mag=    -0.0000
       N       E                     dE             d eps       ncg     rms          rms(c)
DAV:   1    -0.113951619121E+03    0.74854E-01   -0.29843E+02  1488   0.244E+01    0.659E-01
DAV:   2    -0.114086995732E+03   -0.13538E+00   -0.13367E+00  1520   0.229E+00    0.585E-01
DAV:   3    -0.114084907512E+03    0.20882E-02   -0.20604E-02  1616   0.280E-01    0.434E-01
DAV:   4    -0.114080584163E+03    0.43233E-02   -0.73527E-03  1536   0.128E-01    0.212E-01
DAV:   5    -0.114080275325E+03    0.30884E-03   -0.43407E-03  1552   0.100E-01    0.742E-02
DAV:   6    -0.114080248289E+03    0.27036E-04   -0.14879E-04   992   0.196E-02
  37 F= -.11408025E+03 E0= -.11408025E+03  d E =-.537617E-01  mag=    -0.0000
       N       E                     dE             d eps       ncg     rms          rms(c)
DAV:   1    -0.114070349131E+03    0.99262E-02   -0.26585E+01  1488   0.726E+00    0.183E-01
DAV:   2    -0.114082272605E+03   -0.11923E-01   -0.11804E-01  1520   0.679E-01    0.175E-01
DAV:   3    -0.114082104630E+03    0.16798E-03   -0.17278E-03  1584   0.809E-02    0.133E-01
DAV:   4    -0.114081720249E+03    0.38438E-03   -0.65373E-04  1536   0.382E-02    0.679E-02
DAV:   5    -0.114081711325E+03    0.89242E-05   -0.49970E-04  1536   0.337E-02
  38 F= -.11408171E+03 E0= -.11408171E+03  d E =-.552247E-01  mag=    -0.0000
       N       E                     dE             d eps       ncg     rms          rms(c)
DAV:   1    -0.113999025734E+03    0.82695E-01   -0.28313E+02  1488   0.238E+01    0.589E-01
DAV:   2    -0.114126467397E+03   -0.12744E+00   -0.12553E+00  1520   0.223E+00    0.569E-01
DAV:   3    -0.114124694274E+03    0.17731E-02   -0.19230E-02  1616   0.272E-01    0.430E-01
DAV:   4    -0.114120446083E+03    0.42482E-02   -0.55959E-03  1536   0.113E-01    0.245E-01
DAV:   5    -0.114119696750E+03    0.74933E-03   -0.61459E-03  1536   0.117E-01    0.834E-02
DAV:   6    -0.114119692939E+03    0.38112E-05   -0.11584E-04   976   0.178E-02
  39 F= -.11411969E+03 E0= -.11411969E+03  d E =-.379816E-01  mag=    -0.0000
       N       E                     dE             d eps       ncg     rms          rms(c)
DAV:   1    -0.114111318640E+03    0.83781E-02   -0.19459E+01  1488   0.622E+00    0.144E-01
DAV:   2    -0.114120006894E+03   -0.86883E-02   -0.85674E-02  1536   0.581E-01    0.149E-01
DAV:   3    -0.114119901201E+03    0.10569E-03   -0.12434E-03  1552   0.690E-02    0.115E-01
DAV:   4    -0.114119609573E+03    0.29163E-03   -0.37347E-04  1344   0.297E-02    0.684E-02
DAV:   5    -0.114119574228E+03    0.35346E-04   -0.57757E-04  1504   0.366E-02
  40 F= -.11411957E+03 E0= -.11411957E+03  d E =-.378629E-01  mag=     0.0000
       N       E                     dE             d eps       ncg     rms          rms(c)
DAV:   1    -0.114038337929E+03    0.81272E-01   -0.25413E+02  1488   0.225E+01    0.568E-01
DAV:   2    -0.114154101328E+03   -0.11576E+00   -0.11416E+00  1536   0.213E+00    0.556E-01
DAV:   3    -0.114152580744E+03    0.15206E-02   -0.17680E-02  1616   0.263E-01    0.419E-01
DAV:   4    -0.114148690504E+03    0.38902E-02   -0.51414E-03  1536   0.108E-01    0.239E-01
DAV:   5    -0.114148033227E+03    0.65728E-03   -0.56444E-03  1520   0.112E-01    0.829E-02
DAV:   6    -0.114148015614E+03    0.17612E-04   -0.11839E-04   976   0.176E-02
  41 F= -.11414802E+03 E0= -.11414802E+03  d E =-.284414E-01  mag=     0.0000
       N       E                     dE             d eps       ncg     rms          rms(c)
DAV:   1    -0.114144398441E+03    0.36348E-02   -0.79922E+00  1488   0.398E+00    0.950E-02
DAV:   2    -0.114148000351E+03   -0.36019E-02   -0.35597E-02  1552   0.374E-01    0.982E-02
DAV:   3    -0.114147961530E+03    0.38821E-04   -0.51933E-04  1520   0.447E-02
  42 F= -.11414796E+03 E0= -.11414796E+03  d E =-.283873E-01  mag=     0.0000
       N       E                     dE             d eps       ncg     rms          rms(c)
DAV:   1    -0.114069525594E+03    0.78475E-01   -0.25740E+02  1488   0.227E+01    0.558E-01
DAV:   2    -0.114185162090E+03   -0.11564E+00   -0.11444E+00  1520   0.214E+00    0.572E-01
DAV:   3    -0.114183487901E+03    0.16742E-02   -0.18166E-02  1600   0.272E-01    0.433E-01
DAV:   4    -0.114179297250E+03    0.41907E-02   -0.48584E-03  1520   0.106E-01    0.263E-01
DAV:   5    -0.114178251630E+03    0.10456E-02   -0.69781E-03  1520   0.124E-01    0.889E-02
DAV:   6    -0.114178263389E+03   -0.11759E-04   -0.10972E-04  1024   0.176E-02
  43 F= -.11417826E+03 E0= -.11417826E+03  d E =-.303019E-01  mag=     0.0000
       N       E                     dE             d eps       ncg     rms          rms(c)
DAV:   1    -0.114158833353E+03    0.19418E-01   -0.48766E+01  1488   0.984E+00    0.228E-01
DAV:   2    -0.114180624976E+03   -0.21792E-01   -0.21557E-01  1536   0.928E-01    0.242E-01
DAV:   3    -0.114180374417E+03    0.25056E-03   -0.33891E-03  1584   0.117E-01    0.185E-01
DAV:   4    -0.114179636298E+03    0.73812E-03   -0.81315E-04  1520   0.436E-02    0.117E-01
DAV:   5    -0.114179451261E+03    0.18504E-03   -0.15366E-03  1536   0.582E-02    0.415E-02
DAV:   6    -0.114179456757E+03   -0.54956E-05   -0.25608E-05   912   0.841E-03
  44 F= -.11417946E+03 E0= -.11417946E+03  d E =-.314952E-01  mag=     0.0000
       N       E                     dE             d eps       ncg     rms          rms(c)
DAV:   1    -0.114145401237E+03    0.34050E-01   -0.13556E+02  1488   0.164E+01    0.376E-01
DAV:   2    -0.114206228491E+03   -0.60827E-01   -0.60323E-01  1520   0.155E+00    0.399E-01
DAV:   3    -0.114205437983E+03    0.79051E-03   -0.95177E-03  1584   0.196E-01    0.305E-01
DAV:   4    -0.114203383712E+03    0.20543E-02   -0.19978E-03  1536   0.682E-02    0.198E-01
DAV:   5    -0.114202666500E+03    0.71721E-03   -0.43921E-03  1504   0.976E-02    0.663E-02
DAV:   6    -0.114202676379E+03   -0.98787E-05   -0.56228E-05   944   0.129E-02
  45 F= -.11420268E+03 E0= -.11420268E+03  d E =-.232196E-01  mag=     0.0000
       N       E                     dE             d eps       ncg     rms          rms(c)
DAV:   1    -0.114132542592E+03    0.70124E-01   -0.17936E+02  1488   0.189E+01    0.449E-01
DAV:   2    -0.114212488308E+03   -0.79946E-01   -0.79940E-01  1520   0.179E+00    0.463E-01
DAV:   3    -0.114211326774E+03    0.11615E-02   -0.12683E-02  1600   0.229E-01    0.348E-01
DAV:   4    -0.114208616353E+03    0.27104E-02   -0.28185E-03  1520   0.808E-02    0.220E-01
DAV:   5    -0.114207775335E+03    0.84102E-03   -0.52409E-03  1536   0.107E-01    0.733E-02
DAV:   6    -0.114207785598E+03   -0.10264E-04   -0.73750E-05   928   0.146E-02
  46 F= -.11420779E+03 E0= -.11420779E+03  d E =-.283288E-01  mag=    -0.0000
       N       E                     dE             d eps       ncg     rms          rms(c)
DAV:   1    -0.114203140840E+03    0.46345E-02   -0.66564E+01  1488   0.115E+01    0.281E-01
DAV:   2    -0.114232176524E+03   -0.29036E-01   -0.28910E-01  1536   0.107E+00    0.271E-01
DAV:   3    -0.114231711982E+03    0.46454E-03   -0.44594E-03  1536   0.131E-01    0.207E-01
DAV:   4    -0.114230697932E+03    0.10140E-02   -0.14091E-03  1568   0.565E-02    0.111E-01
DAV:   5    -0.114230568926E+03    0.12901E-03   -0.14808E-03  1536   0.577E-02    0.402E-02
DAV:   6    -0.114230563359E+03    0.55672E-05   -0.40229E-05   928   0.101E-02
  47 F= -.11423056E+03 E0= -.11423056E+03  d E =-.227778E-01  mag=    -0.0000
       N       E                     dE             d eps       ncg     rms          rms(c)
DAV:   1    -0.114213388908E+03    0.17180E-01   -0.57856E+01  1488   0.107E+01    0.263E-01
DAV:   2    -0.114238571106E+03   -0.25182E-01   -0.25106E-01  1552   0.994E-01    0.253E-01
DAV:   3    -0.114238154298E+03    0.41681E-03   -0.38747E-03  1536   0.122E-01    0.194E-01
DAV:   4    -0.114237265157E+03    0.88914E-03   -0.12604E-03  1568   0.533E-02    0.102E-01
DAV:   5    -0.114237159692E+03    0.10546E-03   -0.12587E-03  1520   0.533E-02    0.373E-02
DAV:   6    -0.114237152448E+03    0.72448E-05   -0.36404E-05   912   0.960E-03
  48 F= -.11423715E+03 E0= -.11423715E+03  d E =-.293668E-01  mag=    -0.0000
       N       E                     dE             d eps       ncg     rms          rms(c)
DAV:   1    -0.114234678990E+03    0.24807E-02   -0.51455E+01  1488   0.101E+01    0.255E-01
DAV:   2    -0.114257281199E+03   -0.22602E-01   -0.22437E-01  1536   0.939E-01    0.242E-01
DAV:   3    -0.114256954887E+03    0.32631E-03   -0.34565E-03  1584   0.115E-01    0.183E-01
DAV:   4    -0.114256192616E+03    0.76227E-03   -0.11883E-03  1552   0.518E-02    0.947E-02
DAV:   5    -0.114256129025E+03    0.63591E-04   -0.95550E-04  1536   0.469E-02
  49 F= -.11425613E+03 E0= -.11425613E+03  d E =-.189766E-01  mag=    -0.0000
       N       E                     dE             d eps       ncg     rms          rms(c)
DAV:   1    -0.114233770473E+03    0.22422E-01   -0.66272E+01  1488   0.115E+01    0.299E-01
DAV:   2    -0.114263070414E+03   -0.29300E-01   -0.29051E-01  1552   0.107E+00    0.274E-01
DAV:   3    -0.114262657499E+03    0.41291E-03   -0.44923E-03  1568   0.131E-01    0.203E-01
DAV:   4    -0.114261731506E+03    0.92599E-03   -0.15315E-03  1568   0.590E-02    0.103E-01
DAV:   5    -0.114261674634E+03    0.56871E-04   -0.10789E-03  1552   0.502E-02    0.378E-02
DAV:   6    -0.114261670480E+03    0.41540E-05   -0.36588E-05   928   0.968E-03
  50 F= -.11426167E+03 E0= -.11426167E+03  d E =-.245180E-01  mag=     0.0000
       N       E                     dE             d eps       ncg     rms          rms(c)
DAV:   1    -0.114256884805E+03    0.47898E-02   -0.43916E+01  1488   0.933E+00    0.206E-01
DAV:   2    -0.114276320931E+03   -0.19436E-01   -0.19178E-01  1552   0.868E-01    0.214E-01
DAV:   3    -0.114276075121E+03    0.24581E-03   -0.28969E-03  1552   0.105E-01    0.168E-01
DAV:   4    -0.114275432490E+03    0.64263E-03   -0.68901E-04  1568   0.398E-02    0.103E-01
DAV:   5    -0.114275261521E+03    0.17097E-03   -0.13132E-03  1552   0.540E-02    0.351E-02
DAV:   6    -0.114275270694E+03   -0.91733E-05   -0.17844E-05   896   0.728E-03
  51 F= -.11427527E+03 E0= -.11427527E+03  d E =-.136002E-01  mag=     0.0000
       N       E                     dE             d eps       ncg     rms          rms(c)
DAV:   1    -0.114233778473E+03    0.41483E-01   -0.11472E+02  1488   0.151E+01    0.347E-01
DAV:   2    -0.114284653560E+03   -0.50875E-01   -0.50284E-01  1568   0.141E+00    0.347E-01
DAV:   3    -0.114283932714E+03    0.72085E-03   -0.76100E-03  1568   0.171E-01    0.268E-01
DAV:   4    -0.114282224006E+03    0.17087E-02   -0.19499E-03  1584   0.667E-02    0.158E-01
DAV:   5    -0.114281814179E+03    0.40983E-03   -0.29728E-03  1584   0.815E-02    0.531E-02
DAV:   6    -0.114281822504E+03   -0.83250E-05   -0.44286E-05   896   0.115E-02
  52 F= -.11428182E+03 E0= -.11428182E+03  d E =-.201520E-01  mag=     0.0000
       N       E                     dE             d eps       ncg     rms          rms(c)
DAV:   1    -0.114278315401E+03    0.34988E-02   -0.32869E+01  1488   0.808E+00    0.202E-01
DAV:   2    -0.114292979094E+03   -0.14664E-01   -0.14613E-01  1584   0.760E-01    0.208E-01
DAV:   3    -0.114292791157E+03    0.18794E-03   -0.21943E-03  1552   0.934E-02    0.158E-01
DAV:   4    -0.114292272602E+03    0.51855E-03   -0.69749E-04  1584   0.404E-02    0.923E-02
DAV:   5    -0.114292204122E+03    0.68480E-04   -0.83038E-04  1552   0.435E-02
  53 F= -.11429220E+03 E0= -.11429220E+03  d E =-.103816E-01  mag=     0.0000
       N       E                     dE             d eps       ncg     rms          rms(c)
DAV:   1    -0.114286313989E+03    0.59586E-02   -0.17638E+01  1488   0.592E+00    0.153E-01
DAV:   2    -0.114294233887E+03   -0.79199E-02   -0.79038E-02  1552   0.558E-01    0.151E-01
DAV:   3    -0.114294154888E+03    0.78998E-04   -0.12475E-03  1568   0.703E-02    0.111E-01
DAV:   4    -0.114293913757E+03    0.24113E-03   -0.34621E-04  1296   0.294E-02    0.647E-02
DAV:   5    -0.114293896991E+03    0.16766E-04   -0.43493E-04  1536   0.327E-02
  54 F= -.11429390E+03 E0= -.11429390E+03  d E =-.120745E-01  mag=     0.0000
       N       E                     dE             d eps       ncg     rms          rms(c)
DAV:   1    -0.114287812327E+03    0.61014E-02   -0.35229E+01  1488   0.837E+00    0.204E-01
DAV:   2    -0.114303683738E+03   -0.15871E-01   -0.15707E-01  1584   0.787E-01    0.206E-01
DAV:   3    -0.114303498385E+03    0.18535E-03   -0.23536E-03  1552   0.968E-02    0.156E-01
DAV:   4    -0.114302984976E+03    0.51341E-03   -0.66174E-04  1568   0.396E-02    0.915E-02
DAV:   5    -0.114302900518E+03    0.84458E-04   -0.88611E-04  1584   0.444E-02
  55 F= -.11430290E+03 E0= -.11430290E+03  d E =-.900353E-02  mag=     0.0000
       N       E                     dE             d eps       ncg     rms          rms(c)
DAV:   1    -0.114297892346E+03    0.50926E-02   -0.13774E+01  1504   0.523E+00    0.131E-01
DAV:   2    -0.114304079645E+03   -0.61873E-02   -0.61734E-02  1536   0.493E-01    0.127E-01
DAV:   3    -0.114304016063E+03    0.63582E-04   -0.96969E-04  1568   0.620E-02
  56 F= -.11430402E+03 E0= -.11430402E+03  d E =-.101191E-01  mag=     0.0000
       N       E                     dE             d eps       ncg     rms          rms(c)
DAV:   1    -0.114296783292E+03    0.72964E-02   -0.33800E+01  1488   0.820E+00    0.185E-01
DAV:   2    -0.114311333596E+03   -0.14550E-01   -0.14561E-01  1520   0.759E-01    0.209E-01
DAV:   3    -0.114311137566E+03    0.19603E-03   -0.21904E-03  1584   0.897E-02    0.170E-01
DAV:   4    -0.114310487264E+03    0.65030E-03   -0.72176E-04  1520   0.407E-02    0.105E-01
DAV:   5    -0.114310343204E+03    0.14406E-03   -0.13235E-03  1552   0.538E-02    0.416E-02
DAV:   6    -0.114310344954E+03   -0.17508E-05   -0.19100E-05   896   0.741E-03
  57 F= -.11431034E+03 E0= -.11431034E+03  d E =-.632889E-02  mag=     0.0000
       N       E                     dE             d eps       ncg     rms          rms(c)
DAV:   1    -0.114303922502E+03    0.64207E-02   -0.18083E+01  1496   0.599E+00    0.133E-01
DAV:   2    -0.114311908482E+03   -0.79860E-02   -0.79211E-02  1536   0.559E-01    0.140E-01
DAV:   3    -0.114311814898E+03    0.93584E-04   -0.11996E-03  1552   0.679E-02    0.110E-01
DAV:   4    -0.114311545658E+03    0.26924E-03   -0.26048E-04   912   0.257E-02    0.703E-02
DAV:   5    -0.114311478145E+03    0.67514E-04   -0.69187E-04  1568   0.408E-02
  58 F= -.11431148E+03 E0= -.11431148E+03  d E =-.746208E-02  mag=    -0.0000
       N       E                     dE             d eps       ncg     rms          rms(c)
DAV:   1    -0.114307448337E+03    0.40973E-02   -0.24291E+01  1488   0.696E+00    0.166E-01
DAV:   2    -0.114318051572E+03   -0.10603E-01   -0.10552E-01  1504   0.644E-01    0.164E-01
DAV:   3    -0.114317909166E+03    0.14241E-03   -0.15865E-03  1584   0.770E-02    0.125E-01
DAV:   4    -0.114317539986E+03    0.36918E-03   -0.51205E-04  1520   0.342E-02    0.697E-02
DAV:   5    -0.114317493549E+03    0.46438E-04   -0.54038E-04  1536   0.350E-02
  59 F= -.11431749E+03 E0= -.11431749E+03  d E =-.601540E-02  mag=     0.0000
       N       E                     dE             d eps       ncg     rms          rms(c)
DAV:   1    -0.114311702463E+03    0.58375E-02   -0.16644E+01  1488   0.576E+00    0.140E-01
DAV:   2    -0.114318975170E+03   -0.72727E-02   -0.72535E-02  1504   0.533E-01    0.136E-01
DAV:   3    -0.114318879509E+03    0.95662E-04   -0.10972E-03  1552   0.640E-02    0.102E-01
DAV:   4    -0.114318635077E+03    0.24443E-03   -0.34880E-04  1344   0.287E-02    0.566E-02
DAV:   5    -0.114318612981E+03    0.22097E-04   -0.37304E-04  1488   0.302E-02
  60 F= -.11431861E+03 E0= -.11431861E+03  d E =-.713484E-02  mag=     0.0000
       N       E                     dE             d eps       ncg     rms          rms(c)
DAV:   1    -0.114313657181E+03    0.49779E-02   -0.23394E+01  1488   0.683E+00    0.150E-01
DAV:   2    -0.114323687628E+03   -0.10030E-01   -0.99162E-02  1520   0.621E-01    0.148E-01
DAV:   3    -0.114323521135E+03    0.16649E-03   -0.14278E-03  1600   0.714E-02    0.119E-01
DAV:   4    -0.114323135836E+03    0.38530E-03   -0.50893E-04  1536   0.335E-02    0.619E-02
DAV:   5    -0.114323077998E+03    0.57838E-04   -0.55003E-04  1552   0.352E-02
  61 F= -.11432308E+03 E0= -.11432308E+03  d E =-.446502E-02  mag=     0.0000
       N       E                     dE             d eps       ncg     rms          rms(c)
DAV:   1    -0.114316625413E+03    0.65104E-02   -0.17850E+01  1488   0.597E+00    0.133E-01
DAV:   2    -0.114324307032E+03   -0.76816E-02   -0.75908E-02  1536   0.543E-01    0.129E-01
DAV:   3    -0.114324184981E+03    0.12205E-03   -0.10975E-03  1584   0.627E-02    0.102E-01
DAV:   4    -0.114323904046E+03    0.28093E-03   -0.38829E-04  1456   0.294E-02    0.525E-02
DAV:   5    -0.114323870334E+03    0.33712E-04   -0.39970E-04  1536   0.303E-02
  62 F= -.11432387E+03 E0= -.11432387E+03  d E =-.525735E-02  mag=     0.0000
       N       E                     dE             d eps       ncg     rms          rms(c)
DAV:   1    -0.114319609239E+03    0.42948E-02   -0.19214E+01  1488   0.619E+00    0.136E-01
DAV:   2    -0.114328111584E+03   -0.85023E-02   -0.83921E-02  1504   0.575E-01    0.146E-01
DAV:   3    -0.114328017648E+03    0.93937E-04   -0.12585E-03  1584   0.681E-02    0.116E-01
DAV:   4    -0.114327712464E+03    0.30518E-03   -0.32517E-04  1136   0.282E-02    0.724E-02
DAV:   5    -0.114327648103E+03    0.64361E-04   -0.69047E-04  1520   0.405E-02
  63 F= -.11432765E+03 E0= -.11432765E+03  d E =-.377777E-02  mag=     0.0000
       N       E                     dE             d eps       ncg     rms          rms(c)
DAV:   1    -0.114316400281E+03    0.11312E-01   -0.28732E+01  1488   0.756E+00    0.170E-01
DAV:   2    -0.114329144283E+03   -0.12744E-01   -0.12568E-01  1504   0.703E-01    0.179E-01
DAV:   3    -0.114329003218E+03    0.14106E-03   -0.18781E-03  1584   0.833E-02    0.140E-01
DAV:   4    -0.114328553474E+03    0.44974E-03   -0.53833E-04  1520   0.353E-02    0.846E-02
DAV:   5    -0.114328465781E+03    0.87694E-04   -0.82965E-04  1552   0.428E-02
  64 F= -.11432847E+03 E0= -.11432847E+03  d E =-.459545E-02  mag=     0.0000
       N       E                     dE             d eps       ncg     rms          rms(c)
DAV:   1    -0.114323678655E+03    0.48748E-02   -0.17653E+01  1488   0.593E+00    0.132E-01
DAV:   2    -0.114331539161E+03   -0.78605E-02   -0.77107E-02  1520   0.549E-01    0.136E-01
DAV:   3    -0.114331447789E+03    0.91372E-04   -0.11389E-03  1584   0.640E-02    0.107E-01
DAV:   4    -0.114331171322E+03    0.27647E-03   -0.33577E-04  1216   0.283E-02    0.622E-02
DAV:   5    -0.114331129080E+03    0.42243E-04   -0.52937E-04  1536   0.355E-02
  65 F= -.11433113E+03 E0= -.11433113E+03  d E =-.266330E-02  mag=     0.0000
       N       E                     dE             d eps       ncg     rms          rms(c)
DAV:   1    -0.114325059506E+03    0.61118E-02   -0.15484E+01  1488   0.555E+00    0.124E-01
DAV:   2    -0.114331901282E+03   -0.68418E-02   -0.67490E-02  1520   0.514E-01    0.127E-01
DAV:   3    -0.114331815475E+03    0.85807E-04   -0.99157E-04  1584   0.599E-02
  66 F= -.11433182E+03 E0= -.11433182E+03  d E =-.334969E-02  mag=     0.0000
       N       E                     dE             d eps       ncg     rms          rms(c)
DAV:   1    -0.114329388398E+03    0.25129E-02   -0.12592E+01  1488   0.501E+00    0.123E-01
DAV:   2    -0.114334504510E+03   -0.51161E-02   -0.51752E-02  1504   0.453E-01    0.133E-01
DAV:   3    -0.114334388695E+03    0.11581E-03   -0.74963E-04  1584   0.510E-02    0.111E-01
DAV:   4    -0.114334052940E+03    0.33576E-03   -0.51853E-04  1504   0.334E-02    0.560E-02
DAV:   5    -0.114334029685E+03    0.23255E-04   -0.40684E-04  1488   0.305E-02
  67 F= -.11433403E+03 E0= -.11433403E+03  d E =-.221421E-02  mag=     0.0000
       N       E                     dE             d eps       ncg     rms          rms(c)
DAV:   1    -0.114329716191E+03    0.43367E-02   -0.11855E+01  1488   0.486E+00    0.109E-01
DAV:   2    -0.114334857667E+03   -0.51415E-02   -0.50648E-02  1504   0.445E-01    0.109E-01
DAV:   3    -0.114334787591E+03    0.70077E-04   -0.74137E-04  1552   0.520E-02
  68 F= -.11433479E+03 E0= -.11433479E+03  d E =-.297212E-02  mag=     0.0000
       N       E                     dE             d eps       ncg     rms          rms(c)
DAV:   1    -0.114331424840E+03    0.34328E-02   -0.13329E+01  1488   0.516E+00    0.125E-01
DAV:   2    -0.114336936735E+03   -0.55119E-02   -0.55764E-02  1504   0.469E-01    0.135E-01
DAV:   3    -0.114336828466E+03    0.10827E-03   -0.82158E-04  1568   0.535E-02    0.112E-01
DAV:   4    -0.114336507020E+03    0.32145E-03   -0.47031E-04  1520   0.322E-02    0.585E-02
DAV:   5    -0.114336479865E+03    0.27154E-04   -0.43102E-04  1504   0.309E-02
  69 F= -.11433648E+03 E0= -.11433648E+03  d E =-.169227E-02  mag=     0.0000
       N       E                     dE             d eps       ncg     rms          rms(c)
DAV:   1    -0.114335851808E+03    0.65521E-03   -0.14809E+00  1488   0.172E+00    0.444E-02
DAV:   2    -0.114336507892E+03   -0.65608E-03   -0.65206E-03  1536   0.159E-01    0.387E-02
DAV:   3    -0.114336502504E+03    0.53880E-05   -0.87659E-05   896   0.191E-02
  70 F= -.11433650E+03 E0= -.11433650E+03  d E =-.171491E-02  mag=     0.0000
       N       E                     dE             d eps       ncg     rms          rms(c)
DAV:   1    -0.114335732837E+03    0.77505E-03   -0.35174E+00  1488   0.265E+00    0.900E-02
DAV:   2    -0.114337262229E+03   -0.15294E-02   -0.15679E-02  1504   0.244E-01    0.691E-02
DAV:   3    -0.114337235653E+03    0.26576E-04   -0.24273E-04   992   0.301E-02
  71 F= -.11433724E+03 E0= -.11433724E+03  d E =-.733149E-03  mag=     0.0000
       N       E                     dE             d eps       ncg     rms          rms(c)
DAV:   1    -0.114337200037E+03    0.62192E-04   -0.33672E-01  1504   0.817E-01    0.212E-02
DAV:   2    -0.114337354642E+03   -0.15460E-03   -0.15229E-03  1536   0.770E-02    0.189E-02
DAV:   3    -0.114337352690E+03    0.19523E-05   -0.23205E-05   928   0.971E-03
  72 F= -.11433735E+03 E0= -.11433735E+03  d E =-.850186E-03  mag=    -0.0000
