<?xml version="1.0" encoding="ISO-8859-1"?>
<modeling>
 <generator>
  <i name="program" type="string">vasp </i>
  <i name="version" type="string">5.3.5  </i>
  <i name="subversion" type="string">31Mar14 (build Feb 01 2018 12:10:03) gamma-only                       parallel </i>
  <i name="platform" type="string">LinuxIFC </i>
  <i name="date" type="string">2019 03 20 </i>
  <i name="time" type="string">17:27:23 </i>
 </generator>
 <incar>
  <i type="string" name="PREC">normal</i>
  <i type="int" name="ISPIN">     2</i>
  <i type="int" name="IBRION">     2</i>
  <i type="int" name="NSW">  1000</i>
  <i type="int" name="ISIF">     2</i>
  <i name="POTIM">      0.10000000</i>
  <i type="logical" name="LPLANE"> T  </i>
  <i type="int" name="ISMEAR">     0</i>
  <i name="SIGMA">      0.00010000</i>
  <i type="logical" name="LWAVE"> F  </i>
  <i type="logical" name="LCHARG"> F  </i>
  <i type="logical" name="LVTOT"> F  </i>
  <i type="string" name="GGA"> PE</i>
 </incar>
 <kpoints>
  <varray name="kpointlist" >
   <v>       0.00000000       0.00000000       0.00000000 </v>
  </varray>
  <varray name="weights" >
   <v>       1.00000000 </v>
  </varray>
 </kpoints>
 <parameters>
  <separator name="general" >
   <i type="string" name="SYSTEM">unknown system</i>
   <i type="logical" name="LCOMPAT"> F  </i>
  </separator>
  <separator name="electronic" >
   <i type="string" name="PREC">normal</i>
   <i name="ENMAX">    249.84400000</i>
   <i name="ENAUG">    412.49600000</i>
   <i name="EDIFF">      0.00010000</i>
   <i type="int" name="IALGO">    38</i>
   <i type="int" name="IWAVPR">    11</i>
   <i type="int" name="NBANDS">    36</i>
   <i name="NELECT">     55.00000000</i>
   <i type="int" name="TURBO">     0</i>
   <i type="int" name="IRESTART">     0</i>
   <i type="int" name="NREBOOT">     0</i>
   <i type="int" name="NMIN">     0</i>
   <i name="EREF">      0.00000000</i>
   <separator name="electronic smearing" >
    <i type="int" name="ISMEAR">     0</i>
    <i name="SIGMA">      0.00010000</i>
    <i name="KSPACING">      0.50000000</i>
    <i type="logical" name="KGAMMA"> T  </i>
   </separator>
   <separator name="electronic projectors" >
    <i type="logical" name="LREAL"> F  </i>
    <v name="ROPT">      0.00000000</v>
    <i type="int" name="LMAXPAW">  -100</i>
    <i type="int" name="LMAXMIX">     2</i>
    <i type="logical" name="NLSPLINE"> F  </i>
   </separator>
   <separator name="electronic startup" >
    <i type="int" name="ISTART">     0</i>
    <i type="int" name="ICHARG">     2</i>
    <i type="int" name="INIWAV">     1</i>
   </separator>
   <separator name="electronic spin" >
    <i type="int" name="ISPIN">     2</i>
    <i type="logical" name="LNONCOLLINEAR"> F  </i>
    <v name="MAGMOM">      1.00000000      1.00000000      1.00000000      1.00000000      1.00000000</v>
    <i name="NUPDOWN">     -1.00000000</i>
    <i type="logical" name="LSORBIT"> F  </i>
    <v name="SAXIS">      0.00000000      0.00000000      1.00000000</v>
    <i type="logical" name="LSPIRAL"> F  </i>
    <v name="QSPIRAL">      0.00000000      0.00000000      0.00000000</v>
    <i type="logical" name="LZEROZ"> F  </i>
   </separator>
   <separator name="electronic exchange-correlation" >
    <i type="logical" name="LASPH"> F  </i>
    <i type="logical" name="LMETAGGA"> F  </i>
   </separator>
   <separator name="electronic convergence" >
    <i type="int" name="NELM">    60</i>
    <i type="int" name="NELMDL">    -5</i>
    <i type="int" name="NELMIN">     2</i>
    <i name="ENINI">    249.84400000</i>
    <separator name="electronic convergence detail" >
     <i type="logical" name="LDIAG"> T  </i>
     <i type="logical" name="LSUBROT"> F  </i>
     <i name="WEIMIN">      0.00100000</i>
     <i name="EBREAK">      0.00000069</i>
     <i name="DEPER">      0.30000000</i>
     <i type="int" name="NRMM">     4</i>
     <i name="TIME">      0.40000000</i>
    </separator>
   </separator>
   <separator name="electronic mixer" >
    <i name="AMIX">      0.40000000</i>
    <i name="BMIX">      1.00000000</i>
    <i name="AMIN">      0.10000000</i>
    <i name="AMIX_MAG">      1.60000000</i>
    <i name="BMIX_MAG">      1.00000000</i>
    <separator name="electronic mixer details" >
     <i type="int" name="IMIX">     4</i>
     <i type="int" name="MAXMIX">   -45</i>
     <i name="WC">    100.00000000</i>
     <i type="int" name="INIMIX">     1</i>
     <i type="int" name="MIXPRE">     1</i>
     <i type="int" name="MREMOVE">     5</i>
    </separator>
   </separator>
   <separator name="electronic dipolcorrection" >
    <i type="logical" name="LDIPOL"> F  </i>
    <i type="logical" name="LMONO"> F  </i>
    <i type="int" name="IDIPOL">     0</i>
    <i name="EPSILON">      1.00000000</i>
    <v name="DIPOL">   -100.00000000   -100.00000000   -100.00000000</v>
    <i name="EFIELD">      0.00000000</i>
   </separator>
  </separator>
  <separator name="grids" >
   <i type="int" name="NGX">    70</i>
   <i type="int" name="NGY">    70</i>
   <i type="int" name="NGZ">    70</i>
   <i type="int" name="NGXF">   140</i>
   <i type="int" name="NGYF">   140</i>
   <i type="int" name="NGZF">   140</i>
   <i type="logical" name="ADDGRID"> F  </i>
  </separator>
  <separator name="ionic" >
   <i type="int" name="NSW">  1000</i>
   <i type="int" name="IBRION">     2</i>
   <i type="int" name="ISIF">     2</i>
   <i name="PSTRESS">      0.00000000</i>
   <i name="EDIFFG">      0.00100000</i>
   <i type="int" name="NFREE">     1</i>
   <i name="POTIM">      0.10000000</i>
   <i name="SMASS">     -3.00000000</i>
   <i name="SCALEE">      1.00000000</i>
  </separator>
  <separator name="ionic md" >
   <i name="TEBEG">      0.00010000</i>
   <i name="TEEND">      0.00010000</i>
   <i type="int" name="NBLOCK">     1</i>
   <i type="int" name="KBLOCK">  1000</i>
   <i type="int" name="NPACO">   256</i>
   <i name="APACO">     16.00000000</i>
  </separator>
  <separator name="symmetry" >
   <i type="int" name="ISYM">     2</i>
   <i name="SYMPREC">      0.00001000</i>
  </separator>
  <separator name="dos" >
   <i type="logical" name="LORBIT"> F  </i>
   <v name="RWIGS">     -1.00000000</v>
   <i type="int" name="NEDOS">   301</i>
   <i name="EMIN">     10.00000000</i>
   <i name="EMAX">    -10.00000000</i>
   <i name="EFERMI">      0.00000000</i>
  </separator>
  <separator name="writing" >
   <i type="int" name="NWRITE">     2</i>
   <i type="logical" name="LWAVE"> F  </i>
   <i type="logical" name="LCHARG"> F  </i>
   <i type="logical" name="LPARD"> F  </i>
   <i type="logical" name="LVTOT"> F  </i>
   <i type="logical" name="LVHAR"> F  </i>
   <i type="logical" name="LELF"> F  </i>
   <i type="logical" name="LOPTICS"> F  </i>
   <v name="STM">      0.00000000      0.00000000      0.00000000      0.00000000      0.00000000      0.00000000      0.00000000</v>
  </separator>
  <separator name="performance" >
   <i type="int" name="NPAR">     4</i>
   <i type="int" name="NSIM">     4</i>
   <i type="int" name="NBLK">    -1</i>
   <i type="logical" name="LPLANE"> T  </i>
   <i type="logical" name="LSCALAPACK"> T  </i>
   <i type="logical" name="LSCAAWARE"> F  </i>
   <i type="logical" name="LSCALU"> F  </i>
   <i type="logical" name="LASYNC"> F  </i>
   <i type="logical" name="LORBITALREAL"> F  </i>
  </separator>
  <separator name="miscellaneous" >
   <i type="int" name="IDIOT">     3</i>
   <i type="logical" name="LMUSIC"> F  </i>
   <v name="POMASS">    107.86800000</v>
   <v name="DARWINR">      0.00000000</v>
   <v name="DARWINV">      1.00000000</v>
   <i type="logical" name="LCORR"> T  </i>
  </separator>
  <i type="logical" name="GGA_COMPAT"> T  </i>
  <i type="logical" name="LBERRY"> F  </i>
  <i type="int" name="ICORELEVEL">     0</i>
  <i type="logical" name="LDAU"> F  </i>
  <i type="int" name="I_CONSTRAINED_M">     0</i>
  <separator name="electronic exchange-correlation" >
   <i type="string" name="GGA">PE</i>
   <i type="int" name="VOSKOWN">     0</i>
   <i type="logical" name="LHFCALC"> F  </i>
   <i type="string" name="PRECFOCK"></i>
   <i type="logical" name="LSYMGRAD"> F  </i>
   <i type="logical" name="LHFONE"> F  </i>
   <i type="logical" name="LRHFCALC"> F  </i>
   <i type="logical" name="LTHOMAS"> F  </i>
   <i type="logical" name="LMODELHF"> F  </i>
   <i name="ENCUT4O">     -1.00000000</i>
   <i type="int" name="EXXOEP">     0</i>
   <i type="int" name="FOURORBIT">     0</i>
   <i name="AEXX">      0.00000000</i>
   <i name="HFALPHA">      0.00000000</i>
   <i name="MCALPHA">      0.00000000</i>
   <i name="ALDAX">      1.00000000</i>
   <i name="AGGAX">      1.00000000</i>
   <i name="ALDAC">      1.00000000</i>
   <i name="AGGAC">      1.00000000</i>
   <i type="int" name="NKREDX">     1</i>
   <i type="int" name="NKREDY">     1</i>
   <i type="int" name="NKREDZ">     1</i>
   <i type="logical" name="SHIFTRED"> F  </i>
   <i type="logical" name="ODDONLY"> F  </i>
   <i type="logical" name="EVENONLY"> F  </i>
   <i type="int" name="LMAXFOCK">     0</i>
   <i type="int" name="NMAXFOCKAE">     0</i>
   <i type="logical" name="LFOCKAEDFT"> F  </i>
   <i name="HFSCREEN">      0.00000000</i>
   <i name="HFSCREENC">      0.00000000</i>
   <i type="int" name="NBANDSGWLOW">     0</i>
  </separator>
  <separator name="vdW DFT" >
   <i type="logical" name="LUSE_VDW"> F  </i>
   <i name="Zab_VDW">     -0.84910000</i>
   <i name="PARAM1">      0.12340000</i>
   <i name="PARAM2">      1.00000000</i>
   <i name="PARAM3">      0.00000000</i>
  </separator>
  <separator name="model GW" >
   <i type="int" name="MODEL_GW">     0</i>
   <i name="MODEL_EPS0">    667.18521888</i>
   <i name="MODEL_ALPHA">      1.00000000</i>
  </separator>
  <separator name="linear response parameters" >
   <i type="logical" name="LEPSILON"> F  </i>
   <i type="logical" name="LRPA"> F  </i>
   <i type="logical" name="LNABLA"> F  </i>
   <i type="logical" name="LVEL"> F  </i>
   <i type="int" name="KINTER">     0</i>
   <i name="CSHIFT">      0.10000000</i>
   <i name="OMEGAMAX">     -1.00000000</i>
   <i name="DEG_THRESHOLD">      0.00200000</i>
  </separator>
  <separator name="orbital magnetization" >
   <i type="logical" name="NUCIND"> F  </i>
   <v name="MAGPOS">      0.00000000      0.00000000      0.00000000</v>
   <i type="logical" name="LNICSALL"> T  </i>
   <i type="logical" name="ORBITALMAG"> F  </i>
   <i type="logical" name="LMAGBLOCH"> F  </i>
   <i type="logical" name="LCHIMAG"> F  </i>
   <i type="logical" name="LGAUGE"> T  </i>
   <i type="int" name="MAGATOM">     0</i>
   <v name="MAGDIPOL">      0.00000000      0.00000000      0.00000000</v>
   <v name="AVECCONST">      0.00000000      0.00000000      0.00000000</v>
  </separator>
  <separator name="response functions" >
   <i type="logical" name="LADDER"> F  </i>
   <i type="logical" name="LFXC"> F  </i>
   <i type="logical" name="LHARTREE"> T  </i>
   <i type="int" name="IBSE">     0</i>
   <i type="logical" name="LTCTE"> F  </i>
   <i type="logical" name="LTETE"> F  </i>
   <i type="logical" name="LTRIPLET"> F  </i>
   <i type="logical" name="LFXCEPS"> F  </i>
   <i type="logical" name="LFXHEG"> F  </i>
   <i type="logical" name="L2ORDER"> F  </i>
   <i type="logical" name="LUSEW"> F  </i>
   <i name="ENCUTGW">     -2.00000000</i>
   <i name="ENCUTGWSOFT">     -2.00000000</i>
   <i name="ENCUTLF">     -1.00000000</i>
   <i type="int" name="LMAXMP2">    -1</i>
   <i name="SCISSOR">      0.00000000</i>
   <i type="int" name="NOMEGA">     0</i>
   <i type="int" name="NOMEGAR">     0</i>
   <i type="int" name="NBANDSGW">    -1</i>
   <i type="int" name="NBANDSO">    -1</i>
   <i type="int" name="NBANDSV">    -1</i>
   <i type="int" name="NELM">     1</i>
   <i type="int" name="DIM">     3</i>
   <i type="int" name="ANTIRES">     0</i>
   <i name="OMEGAMAX">    -30.00000000</i>
   <i name="OMEGAMIN">    -30.00000000</i>
   <i name="OMEGATL">   -200.00000000</i>
   <i type="int" name="OMEGAGRID">     0</i>
   <i name="CSHIFT">     -0.10000000</i>
   <i type="logical" name="SELFENERGY"> F  </i>
   <i type="logical" name="LSPECTRAL"> F  </i>
   <i type="logical" name="ODDONLYGW"> F  </i>
   <i type="logical" name="EVENONLYGW"> F  </i>
   <i type="int" name="NKREDLFX">     1</i>
   <i type="int" name="NKREDLFY">     1</i>
   <i type="int" name="NKREDLFZ">     1</i>
   <i type="int" name="MAXMEM">  1800</i>
   <i type="int" name="TELESCOPE">     0</i>
   <i type="int" name="TAUPAR">     1</i>
  </separator>
  <separator name="External order field" >
   <i name="OFIELD_KAPPA">      0.00000000</i>
   <v name="OFIELD_K">      0.00000000      0.00000000      0.00000000</v>
   <i name="OFIELD_Q6_NEAR">      0.00000000</i>
   <i name="OFIELD_Q6_FAR">      0.00000000</i>
   <i name="OFIELD_A">      0.00000000</i>
  </separator>
 </parameters>
 <atominfo>
  <atoms>       5 </atoms>
  <types>       1 </types>
  <array name="atoms" >
   <dimension dim="1">ion</dimension>
   <field type="string">element</field>
   <field type="int">atomtype</field>
   <set>
    <rc><c>Ag</c><c>   1</c></rc>
    <rc><c>Ag</c><c>   1</c></rc>
    <rc><c>Ag</c><c>   1</c></rc>
    <rc><c>Ag</c><c>   1</c></rc>
    <rc><c>Ag</c><c>   1</c></rc>
   </set>
  </array>
  <array name="atomtypes" >
   <dimension dim="1">type</dimension>
   <field type="int">atomspertype</field>
   <field type="string">element</field>
   <field>mass</field>
   <field>valence</field>
   <field type="string">pseudopotential</field>
   <set>
    <rc><c>   5</c><c>Ag</c><c>    107.86800000</c><c>     11.00000000</c><c>  PAW_PBE Ag 02Apr2005                  </c></rc>
   </set>
  </array>
 </atominfo>
 <structure name="initialpos" >
  <crystal>
   <varray name="basis" >
    <v>      17.71556700       0.00000000       0.00000000 </v>
    <v>       0.00000000      17.71556700       0.00000000 </v>
    <v>       0.00000000       0.00000000      17.71556700 </v>
   </varray>
   <i name="volume">   5559.87682401 </i>
   <varray name="rec_basis" >
    <v>       0.05644753       0.00000000       0.00000000 </v>
    <v>       0.00000000       0.05644753       0.00000000 </v>
    <v>       0.00000000       0.00000000       0.05644753 </v>
   </varray>
  </crystal>
  <varray name="positions" >
   <v>       0.80550253       0.60841154       0.75947522 </v>
   <v>       0.53456524       0.63714285       0.53723662 </v>
   <v>       0.62714512       0.61391325       0.41320143 </v>
   <v>       0.51502399       0.65026930       0.68698834 </v>
   <v>       0.65223318       0.63885109       0.75061913 </v>
  </varray>
 </structure>
 <calculation>
  <scstep>
   <time name="dav">    0.20    0.20</time>
   <time name="total">    0.37    0.39</time>
   <energy>
    <i name="alphaZ">      3.82462641 </i>
    <i name="ewald">   1102.88825391 </i>
    <i name="hartreedc">  -6069.03340022 </i>
    <i name="XCdc">    -58.62149712 </i>
    <i name="pawpsdc">   5016.86089035 </i>
    <i name="pawaedc">  -4786.32304439 </i>
    <i name="eentropy">      0.00000000 </i>
    <i name="bandstr">     52.10900085 </i>
    <i name="atom">   5185.99315043 </i>
    <i name="e_fr_energy">    447.69798022 </i>
    <i name="e_wo_entrp">    447.69798022 </i>
    <i name="e_0_energy">    447.69798022 </i>
   </energy>
  </scstep>
  <scstep>
   <time name="dav">    0.31    0.31</time>
   <time name="total">    0.31    0.32</time>
   <energy>
    <i name="e_fr_energy">    257.29491650 </i>
    <i name="e_wo_entrp">    257.29491650 </i>
    <i name="e_0_energy">    257.29491650 </i>
   </energy>
  </scstep>
  <scstep>
   <time name="dav">    0.29    0.29</time>
   <time name="total">    0.29    0.29</time>
   <energy>
    <i name="e_fr_energy">     41.44129401 </i>
    <i name="e_wo_entrp">     41.44129401 </i>
    <i name="e_0_energy">     41.44129401 </i>
   </energy>
  </scstep>
  <scstep>
   <time name="dav">    0.23    0.23</time>
   <time name="total">    0.23    0.31</time>
   <energy>
    <i name="e_fr_energy">     -4.53773453 </i>
    <i name="e_wo_entrp">     -4.53773453 </i>
    <i name="e_0_energy">     -4.53773453 </i>
   </energy>
  </scstep>
  <scstep>
   <time name="dav">    0.21    0.21</time>
   <time name="total">    0.24    0.25</time>
   <energy>
    <i name="e_fr_energy">     -5.64876415 </i>
    <i name="e_wo_entrp">     -5.64876415 </i>
    <i name="e_0_energy">     -5.64876415 </i>
   </energy>
  </scstep>
  <scstep>
   <time name="dav">    0.20    0.20</time>
   <time name="total">    0.38    0.39</time>
   <energy>
    <i name="e_fr_energy">     -0.24810595 </i>
    <i name="e_wo_entrp">     -0.24810595 </i>
    <i name="e_0_energy">     -0.24810595 </i>
   </energy>
  </scstep>
  <scstep>
   <time name="dav">    0.21    0.21</time>
   <time name="total">    0.40    0.40</time>
   <energy>
    <i name="e_fr_energy">      1.75537579 </i>
    <i name="e_wo_entrp">      1.75537579 </i>
    <i name="e_0_energy">      1.75537579 </i>
   </energy>
  </scstep>
  <scstep>
   <time name="dav">    0.22    0.22</time>
   <time name="total">    0.40    0.41</time>
   <energy>
    <i name="e_fr_energy">     -0.08239781 </i>
    <i name="e_wo_entrp">     -0.08239781 </i>
    <i name="e_0_energy">     -0.08239781 </i>
   </energy>
  </scstep>
  <scstep>
   <time name="dav">    0.21    0.21</time>
   <time name="total">    0.40    0.40</time>
   <energy>
    <i name="e_fr_energy">     -2.51733228 </i>
    <i name="e_wo_entrp">     -2.51733228 </i>
    <i name="e_0_energy">     -2.51733228 </i>
   </energy>
  </scstep>
  <scstep>
   <time name="dav">    0.21    0.21</time>
   <time name="total">    0.40    0.40</time>
   <energy>
    <i name="e_fr_energy">     -4.24893292 </i>
    <i name="e_wo_entrp">     -4.24893292 </i>
    <i name="e_0_energy">     -4.24893292 </i>
   </energy>
  </scstep>
  <scstep>
   <time name="dav">    0.23    0.23</time>
   <time name="total">    0.42    0.43</time>
   <energy>
    <i name="e_fr_energy">     -4.73242570 </i>
    <i name="e_wo_entrp">     -4.73242570 </i>
    <i name="e_0_energy">     -4.73242570 </i>
   </energy>
  </scstep>
  <scstep>
   <time name="dav">    0.21    0.21</time>
   <time name="total">    0.40    0.40</time>
   <energy>
    <i name="e_fr_energy">     -5.43911015 </i>
    <i name="e_wo_entrp">     -5.43911015 </i>
    <i name="e_0_energy">     -5.43911015 </i>
   </energy>
  </scstep>
  <scstep>
   <time name="dav">    0.22    0.22</time>
   <time name="total">    0.40    0.41</time>
   <energy>
    <i name="e_fr_energy">     -5.78241392 </i>
    <i name="e_wo_entrp">     -5.78241392 </i>
    <i name="e_0_energy">     -5.78241392 </i>
   </energy>
  </scstep>
  <scstep>
   <time name="dav">    0.21    0.21</time>
   <time name="total">    0.40    0.41</time>
   <energy>
    <i name="e_fr_energy">     -5.92817370 </i>
    <i name="e_wo_entrp">     -5.92817370 </i>
    <i name="e_0_energy">     -5.92817370 </i>
   </energy>
  </scstep>
  <scstep>
   <time name="dav">    0.18    0.18</time>
   <time name="total">    0.37    0.38</time>
   <energy>
    <i name="e_fr_energy">     -5.95867529 </i>
    <i name="e_wo_entrp">     -5.95867529 </i>
    <i name="e_0_energy">     -5.95867529 </i>
   </energy>
  </scstep>
  <scstep>
   <time name="dav">    0.16    0.16</time>
   <time name="total">    0.35    0.36</time>
   <energy>
    <i name="e_fr_energy">     -5.97029515 </i>
    <i name="e_wo_entrp">     -5.97029515 </i>
    <i name="e_0_energy">     -5.97029515 </i>
   </energy>
  </scstep>
  <scstep>
   <time name="dav">    0.17    0.17</time>
   <time name="total">    0.36    0.67</time>
   <energy>
    <i name="e_fr_energy">     -5.97147762 </i>
    <i name="e_wo_entrp">     -5.97147762 </i>
    <i name="e_0_energy">     -5.97147762 </i>
   </energy>
  </scstep>
  <scstep>
   <time name="dav">    0.16    0.16</time>
   <time name="total">    0.35    0.35</time>
   <energy>
    <i name="e_fr_energy">     -5.97225780 </i>
    <i name="e_wo_entrp">     -5.97225780 </i>
    <i name="e_0_energy">     -5.97225780 </i>
   </energy>
  </scstep>
  <scstep>
   <time name="dav">    0.16    0.17</time>
   <time name="total">    0.36    0.36</time>
   <energy>
    <i name="e_fr_energy">     -5.97312762 </i>
    <i name="e_wo_entrp">     -5.97312762 </i>
    <i name="e_0_energy">     -5.97312762 </i>
   </energy>
  </scstep>
  <scstep>
   <time name="dav">    0.16    0.16</time>
   <time name="total">    0.35    0.36</time>
   <energy>
    <i name="e_fr_energy">     -5.97374863 </i>
    <i name="e_wo_entrp">     -5.97374863 </i>
    <i name="e_0_energy">     -5.97374863 </i>
   </energy>
  </scstep>
  <scstep>
   <time name="dav">    0.16    0.16</time>
   <time name="total">    0.35    0.37</time>
   <energy>
    <i name="e_fr_energy">     -5.97407003 </i>
    <i name="e_wo_entrp">     -5.97407003 </i>
    <i name="e_0_energy">     -5.97407003 </i>
   </energy>
  </scstep>
  <scstep>
   <time name="dav">    0.17    0.17</time>
   <time name="total">    0.33    0.33</time>
   <energy>
    <i name="alphaZ">      3.82462641 </i>
    <i name="ewald">   1102.88825391 </i>
    <i name="hartreedc">  -6074.94293282 </i>
    <i name="XCdc">    -59.27269270 </i>
    <i name="pawpsdc">   5184.31341773 </i>
    <i name="pawaedc">  -4957.28329090 </i>
    <i name="eentropy">      0.00000000 </i>
    <i name="bandstr">   -391.49463499 </i>
    <i name="atom">   5185.99315043 </i>
    <i name="e_fr_energy">     -5.97410292 </i>
    <i name="e_wo_entrp">     -5.97410292 </i>
    <i name="e_0_energy">     -5.97410292 </i>
   </energy>
  </scstep>
  <structure>
   <crystal>
    <varray name="basis" >
     <v>      17.71556700       0.00000000       0.00000000 </v>
     <v>       0.00000000      17.71556700       0.00000000 </v>
     <v>       0.00000000       0.00000000      17.71556700 </v>
    </varray>
    <i name="volume">   5559.87682401 </i>
    <varray name="rec_basis" >
     <v>       0.05644753       0.00000000       0.00000000 </v>
     <v>       0.00000000       0.05644753       0.00000000 </v>
     <v>       0.00000000       0.00000000       0.05644753 </v>
    </varray>
   </crystal>
   <varray name="positions" >
    <v>       0.80550253       0.60841154       0.75947522 </v>
    <v>       0.53456524       0.63714285       0.53723662 </v>
    <v>       0.62714512       0.61391325       0.41320143 </v>
    <v>       0.51502399       0.65026930       0.68698834 </v>
    <v>       0.65223318       0.63885109       0.75061913 </v>
   </varray>
  </structure>
  <varray name="forces" >
   <v>      -0.57235279       0.11833189      -0.01797854 </v>
   <v>       0.37191767      -0.06761439      -0.25376115 </v>
   <v>      -0.34176894       0.06456994       0.41911842 </v>
   <v>       0.07298597      -0.01791080      -0.04859017 </v>
   <v>       0.46921808      -0.09737665      -0.09878856 </v>
  </varray>
  <varray name="stress" >
   <v>      -1.11794675       0.13123158       0.13385937 </v>
   <v>       0.13123158      -0.48791866      -0.05421708 </v>
   <v>       0.13385937      -0.05421708      -0.86049772 </v>
  </varray>
  <energy>
   <i name="e_fr_energy">     -5.97410292 </i>
   <i name="e_wo_entrp">     -5.97410292 </i>
   <i name="e_0_energy">      0.00000000 </i>
  </energy>
  <time name="totalsc">    8.34    8.91</time>
 </calculation>
 <calculation>
  <scstep>
   <time name="dav">    0.20    0.20</time>
   <time name="total">    0.39    0.44</time>
   <energy>
    <i name="alphaZ">      3.82462641 </i>
    <i name="ewald">   1106.91344597 </i>
    <i name="hartreedc">  -6078.99657949 </i>
    <i name="XCdc">    -59.26058210 </i>
    <i name="pawpsdc">   5184.32214523 </i>
    <i name="pawaedc">  -4957.29203265 </i>
    <i name="eentropy">      0.00000000 </i>
    <i name="bandstr">   -391.48826233 </i>
    <i name="atom">   5185.99315043 </i>
    <i name="e_fr_energy">     -5.98408852 </i>
    <i name="e_wo_entrp">     -5.98408852 </i>
    <i name="e_0_energy">     -5.98408852 </i>
   </energy>
  </scstep>
  <scstep>
   <time name="dav">    0.21    0.21</time>
   <time name="total">    0.39    0.40</time>
   <energy>
    <i name="e_fr_energy">     -5.98441765 </i>
    <i name="e_wo_entrp">     -5.98441765 </i>
    <i name="e_0_energy">     -5.98441765 </i>
   </energy>
  </scstep>
  <scstep>
   <time name="dav">    0.17    0.17</time>
   <time name="total">    0.33    0.33</time>
   <energy>
    <i name="alphaZ">      3.82462641 </i>
    <i name="ewald">   1106.91344597 </i>
    <i name="hartreedc">  -6078.94323328 </i>
    <i name="XCdc">    -59.26289152 </i>
    <i name="pawpsdc">   5185.20517098 </i>
    <i name="pawaedc">  -4958.19128392 </i>
    <i name="eentropy">      0.00000000 </i>
    <i name="bandstr">   -391.52339151 </i>
    <i name="atom">   5185.99315043 </i>
    <i name="e_fr_energy">     -5.98440645 </i>
    <i name="e_wo_entrp">     -5.98440645 </i>
    <i name="e_0_energy">     -5.98440645 </i>
   </energy>
  </scstep>
  <structure>
   <crystal>
    <varray name="basis" >
     <v>      17.71556700       0.00000000       0.00000000 </v>
     <v>       0.00000000      17.71556700       0.00000000 </v>
     <v>       0.00000000       0.00000000      17.71556700 </v>
    </varray>
    <i name="volume">   5559.87682401 </i>
    <varray name="rec_basis" >
     <v>       0.05644753       0.00000000       0.00000000 </v>
     <v>       0.00000000       0.05644753       0.00000000 </v>
     <v>       0.00000000       0.00000000       0.05644753 </v>
    </varray>
   </crystal>
   <varray name="positions" >
    <v>       0.80519080       0.60847599       0.75946543 </v>
    <v>       0.53476780       0.63710602       0.53709841 </v>
    <v>       0.62695898       0.61394841       0.41342969 </v>
    <v>       0.51506374       0.65025954       0.68696188 </v>
    <v>       0.65248873       0.63879805       0.75056533 </v>
   </varray>
  </structure>
  <varray name="forces" >
   <v>      -0.54260761       0.11190504      -0.01655244 </v>
   <v>       0.35142277      -0.06285299      -0.22532121 </v>
   <v>      -0.32073591       0.06025764       0.39341695 </v>
   <v>       0.08232611      -0.01926965      -0.05044218 </v>
   <v>       0.42959463      -0.09004004      -0.10110111 </v>
  </varray>
  <varray name="stress" >
   <v>      -1.09611116       0.12547858       0.12247917 </v>
   <v>       0.12547858      -0.48818001      -0.05205047 </v>
   <v>       0.12247917      -0.05205047      -0.85764607 </v>
  </varray>
  <energy>
   <i name="e_fr_energy">     -5.98440645 </i>
   <i name="e_wo_entrp">     -5.98440645 </i>
   <i name="e_0_energy">      0.00000000 </i>
  </energy>
  <time name="totalsc">    1.62    1.77</time>
 </calculation>
 <calculation>
  <scstep>
   <time name="dav">    0.20    0.20</time>
   <time name="total">    0.39    0.41</time>
   <energy>
    <i name="alphaZ">      3.82462641 </i>
    <i name="ewald">   1119.20591703 </i>
    <i name="hartreedc">  -6091.28154498 </i>
    <i name="XCdc">    -59.22540414 </i>
    <i name="pawpsdc">   5185.53506070 </i>
    <i name="pawaedc">  -4958.52984857 </i>
    <i name="eentropy">     -0.00000000 </i>
    <i name="bandstr">   -391.53126252 </i>
    <i name="atom">   5185.99315043 </i>
    <i name="e_fr_energy">     -6.00930563 </i>
    <i name="e_wo_entrp">     -6.00930563 </i>
    <i name="e_0_energy">     -6.00930563 </i>
   </energy>
  </scstep>
  <scstep>
   <time name="dav">    0.21    0.21</time>
   <time name="total">    0.39    0.40</time>
   <energy>
    <i name="e_fr_energy">     -6.01199287 </i>
    <i name="e_wo_entrp">     -6.01199287 </i>
    <i name="e_0_energy">     -6.01199287 </i>
   </energy>
  </scstep>
  <scstep>
   <time name="dav">    0.22    0.22</time>
   <time name="total">    0.40    0.43</time>
   <energy>
    <i name="e_fr_energy">     -6.01181917 </i>
    <i name="e_wo_entrp">     -6.01181917 </i>
    <i name="e_0_energy">     -6.01181917 </i>
   </energy>
  </scstep>
  <scstep>
   <time name="dav">    0.16    0.16</time>
   <time name="total">    0.32    0.34</time>
   <energy>
    <i name="alphaZ">      3.82462641 </i>
    <i name="ewald">   1119.20591703 </i>
    <i name="hartreedc">  -6091.03542798 </i>
    <i name="XCdc">    -59.23431634 </i>
    <i name="pawpsdc">   5189.75304078 </i>
    <i name="pawaedc">  -4962.83164148 </i>
    <i name="eentropy">     -0.00000000 </i>
    <i name="bandstr">   -391.68715441 </i>
    <i name="atom">   5185.99315043 </i>
    <i name="e_fr_energy">     -6.01180556 </i>
    <i name="e_wo_entrp">     -6.01180556 </i>
    <i name="e_0_energy">     -6.01180556 </i>
   </energy>
  </scstep>
  <structure>
   <crystal>
    <varray name="basis" >
     <v>      17.71556700       0.00000000       0.00000000 </v>
     <v>       0.00000000      17.71556700       0.00000000 </v>
     <v>       0.00000000       0.00000000      17.71556700 </v>
    </varray>
    <i name="volume">   5559.87682401 </i>
    <varray name="rec_basis" >
     <v>       0.05644753       0.00000000       0.00000000 </v>
     <v>       0.00000000       0.05644753       0.00000000 </v>
     <v>       0.00000000       0.00000000       0.05644753 </v>
    </varray>
   </crystal>
   <varray name="positions" >
    <v>       0.80425563       0.60866933       0.75943605 </v>
    <v>       0.53537547       0.63699555       0.53668379 </v>
    <v>       0.62640056       0.61405392       0.41411449 </v>
    <v>       0.51518299       0.65023028       0.68688249 </v>
    <v>       0.65325539       0.63863895       0.75040392 </v>
   </varray>
  </structure>
  <varray name="forces" >
   <v>      -0.48029592       0.09884800      -0.01280194 </v>
   <v>       0.31883739      -0.05240446      -0.15666459 </v>
   <v>      -0.28327074       0.05135597       0.35018227 </v>
   <v>       0.11092742      -0.02437962      -0.06110653 </v>
   <v>       0.33380185      -0.07341990      -0.11960921 </v>
  </varray>
  <varray name="stress" >
   <v>      -1.02889032       0.11072005       0.09398305 </v>
   <v>       0.11072005      -0.47994070      -0.04643270 </v>
   <v>       0.09398304      -0.04643270      -0.83595683 </v>
  </varray>
  <energy>
   <i name="e_fr_energy">     -6.01180556 </i>
   <i name="e_wo_entrp">     -6.01180556 </i>
   <i name="e_0_energy">     -0.00000000 </i>
  </energy>
  <time name="totalsc">    2.01    2.11</time>
 </calculation>
 <calculation>
  <scstep>
   <time name="dav">    0.20    0.20</time>
   <time name="total">    0.38    0.40</time>
   <energy>
    <i name="alphaZ">      3.82462641 </i>
    <i name="ewald">   1144.79743344 </i>
    <i name="hartreedc">  -6116.68561227 </i>
    <i name="XCdc">    -59.15061895 </i>
    <i name="pawpsdc">   5190.10692270 </i>
    <i name="pawaedc">  -4963.19474195 </i>
    <i name="eentropy">      0.00000000 </i>
    <i name="bandstr">   -391.73075902 </i>
    <i name="atom">   5185.99315043 </i>
    <i name="e_fr_energy">     -6.03959921 </i>
    <i name="e_wo_entrp">     -6.03959921 </i>
    <i name="e_0_energy">     -6.03959921 </i>
   </energy>
  </scstep>
  <scstep>
   <time name="dav">    0.21    0.21</time>
   <time name="total">    0.39    0.40</time>
   <energy>
    <i name="e_fr_energy">     -6.05084642 </i>
    <i name="e_wo_entrp">     -6.05084642 </i>
    <i name="e_0_energy">     -6.05084642 </i>
   </energy>
  </scstep>
  <scstep>
   <time name="dav">    0.22    0.22</time>
   <time name="total">    0.40    0.42</time>
   <energy>
    <i name="e_fr_energy">     -6.05054391 </i>
    <i name="e_wo_entrp">     -6.05054391 </i>
    <i name="e_0_energy">     -6.05054391 </i>
   </energy>
  </scstep>
  <scstep>
   <time name="dav">    0.16    0.16</time>
   <time name="total">    0.35    0.35</time>
   <energy>
    <i name="e_fr_energy">     -6.05078118 </i>
    <i name="e_wo_entrp">     -6.05078118 </i>
    <i name="e_0_energy">     -6.05078118 </i>
   </energy>
  </scstep>
  <scstep>
   <time name="dav">    0.16    0.17</time>
   <time name="total">    0.35    0.37</time>
   <energy>
    <i name="e_fr_energy">     -6.05121833 </i>
    <i name="e_wo_entrp">     -6.05121833 </i>
    <i name="e_0_energy">     -6.05121833 </i>
   </energy>
  </scstep>
  <scstep>
   <time name="dav">    0.17    0.17</time>
   <time name="total">    0.36    0.36</time>
   <energy>
    <i name="e_fr_energy">     -6.05152871 </i>
    <i name="e_wo_entrp">     -6.05152871 </i>
    <i name="e_0_energy">     -6.05152871 </i>
   </energy>
  </scstep>
  <scstep>
   <time name="dav">    0.16    0.16</time>
   <time name="total">    0.35    0.36</time>
   <energy>
    <i name="e_fr_energy">     -6.05188023 </i>
    <i name="e_wo_entrp">     -6.05188023 </i>
    <i name="e_0_energy">     -6.05188023 </i>
   </energy>
  </scstep>
  <scstep>
   <time name="dav">    0.16    0.17</time>
   <time name="total">    0.35    0.42</time>
   <energy>
    <i name="e_fr_energy">     -6.05215896 </i>
    <i name="e_wo_entrp">     -6.05215896 </i>
    <i name="e_0_energy">     -6.05215896 </i>
   </energy>
  </scstep>
  <scstep>
   <time name="dav">    0.17    0.17</time>
   <time name="total">    0.36    0.37</time>
   <energy>
    <i name="e_fr_energy">     -6.05242352 </i>
    <i name="e_wo_entrp">     -6.05242352 </i>
    <i name="e_0_energy">     -6.05242352 </i>
   </energy>
  </scstep>
  <scstep>
   <time name="dav">    0.18    0.18</time>
   <time name="total">    0.36    0.39</time>
   <energy>
    <i name="e_fr_energy">     -6.05254209 </i>
    <i name="e_wo_entrp">     -6.05254209 </i>
    <i name="e_0_energy">     -6.05254209 </i>
   </energy>
  </scstep>
  <scstep>
   <time name="dav">    0.16    0.16</time>
   <time name="total">    0.35    0.36</time>
   <energy>
    <i name="e_fr_energy">     -6.05268464 </i>
    <i name="e_wo_entrp">     -6.05268464 </i>
    <i name="e_0_energy">     -6.05268464 </i>
   </energy>
  </scstep>
  <scstep>
   <time name="dav">    0.17    0.17</time>
   <time name="total">    0.33    0.33</time>
   <energy>
    <i name="alphaZ">      3.82462641 </i>
    <i name="ewald">   1144.79743344 </i>
    <i name="hartreedc">  -6116.15516943 </i>
    <i name="XCdc">    -59.17135565 </i>
    <i name="pawpsdc">   5200.60078256 </i>
    <i name="pawaedc">  -4973.89204079 </i>
    <i name="eentropy">      0.00000000 </i>
    <i name="bandstr">   -392.05014626 </i>
    <i name="atom">   5185.99315043 </i>
    <i name="e_fr_energy">     -6.05271929 </i>
    <i name="e_wo_entrp">     -6.05271929 </i>
    <i name="e_0_energy">     -6.05271929 </i>
   </energy>
  </scstep>
  <structure>
   <crystal>
    <varray name="basis" >
     <v>      17.71556700       0.00000000       0.00000000 </v>
     <v>       0.00000000      17.71556700       0.00000000 </v>
     <v>       0.00000000       0.00000000      17.71556700 </v>
    </varray>
    <i name="volume">   5559.87682401 </i>
    <varray name="rec_basis" >
     <v>       0.05644753       0.00000000       0.00000000 </v>
     <v>       0.00000000       0.05644753       0.00000000 </v>
     <v>       0.00000000       0.00000000       0.05644753 </v>
    </varray>
   </crystal>
   <varray name="positions" >
    <v>       0.80238529       0.60905602       0.75937730 </v>
    <v>       0.53659083       0.63677460       0.53585454 </v>
    <v>       0.62528372       0.61426492       0.41548409 </v>
    <v>       0.51542150       0.65017175       0.68672370 </v>
    <v>       0.65478871       0.63832074       0.75008109 </v>
   </varray>
  </structure>
  <varray name="forces" >
   <v>      -0.29447200       0.06633631      -0.00147403 </v>
   <v>       0.23138192      -0.02561017       0.01043611 </v>
   <v>      -0.17848462       0.02515778       0.21548459 </v>
   <v>       0.15727699      -0.03417805      -0.07740254 </v>
   <v>       0.08429771      -0.03170586      -0.14704413 </v>
  </varray>
  <varray name="stress" >
   <v>      -0.85848264       0.07076560       0.02530894 </v>
   <v>       0.07076560      -0.47630660      -0.03223488 </v>
   <v>       0.02530894      -0.03223488      -0.78677612 </v>
  </varray>
  <energy>
   <i name="e_fr_energy">     -6.05271929 </i>
   <i name="e_wo_entrp">     -6.05271929 </i>
   <i name="e_0_energy">      0.00000000 </i>
  </energy>
  <time name="totalsc">    4.85    5.74</time>
 </calculation>
 <calculation>
  <scstep>
   <time name="dav">    0.20    0.20</time>
   <time name="total">    0.39    0.40</time>
   <energy>
    <i name="alphaZ">      3.82462641 </i>
    <i name="ewald">   1200.28420900 </i>
    <i name="hartreedc">  -6171.43907862 </i>
    <i name="XCdc">    -58.96732547 </i>
    <i name="pawpsdc">   5200.60391939 </i>
    <i name="pawaedc">  -4973.89517797 </i>
    <i name="eentropy">      0.00000000 </i>
    <i name="bandstr">   -392.39754153 </i>
    <i name="atom">   5185.99315043 </i>
    <i name="e_fr_energy">     -5.99321836 </i>
    <i name="e_wo_entrp">     -5.99321836 </i>
    <i name="e_0_energy">     -5.99321836 </i>
   </energy>
  </scstep>
  <scstep>
   <time name="dav">    0.21    0.21</time>
   <time name="total">    0.40    0.40</time>
   <energy>
    <i name="e_fr_energy">     -6.04052924 </i>
    <i name="e_wo_entrp">     -6.04052924 </i>
    <i name="e_0_energy">     -6.04052924 </i>
   </energy>
  </scstep>
  <scstep>
   <time name="dav">    0.22    0.22</time>
   <time name="total">    0.40    0.41</time>
   <energy>
    <i name="e_fr_energy">     -6.03985277 </i>
    <i name="e_wo_entrp">     -6.03985277 </i>
    <i name="e_0_energy">     -6.03985277 </i>
   </energy>
  </scstep>
  <scstep>
   <time name="dav">    0.20    0.20</time>
   <time name="total">    0.39    0.42</time>
   <energy>
    <i name="e_fr_energy">     -6.04007055 </i>
    <i name="e_wo_entrp">     -6.04007055 </i>
    <i name="e_0_energy">     -6.04007055 </i>
   </energy>
  </scstep>
  <scstep>
   <time name="dav">    0.16    0.16</time>
   <time name="total">    0.35    0.40</time>
   <energy>
    <i name="e_fr_energy">     -6.04110465 </i>
    <i name="e_wo_entrp">     -6.04110465 </i>
    <i name="e_0_energy">     -6.04110465 </i>
   </energy>
  </scstep>
  <scstep>
   <time name="dav">    0.17    0.17</time>
   <time name="total">    0.36    0.40</time>
   <energy>
    <i name="e_fr_energy">     -6.04180365 </i>
    <i name="e_wo_entrp">     -6.04180365 </i>
    <i name="e_0_energy">     -6.04180365 </i>
   </energy>
  </scstep>
  <scstep>
   <time name="dav">    0.16    0.16</time>
   <time name="total">    0.35    0.35</time>
   <energy>
    <i name="e_fr_energy">     -6.04261333 </i>
    <i name="e_wo_entrp">     -6.04261333 </i>
    <i name="e_0_energy">     -6.04261333 </i>
   </energy>
  </scstep>
  <scstep>
   <time name="dav">    0.17    0.17</time>
   <time name="total">    0.35    0.39</time>
   <energy>
    <i name="e_fr_energy">     -6.04319178 </i>
    <i name="e_wo_entrp">     -6.04319178 </i>
    <i name="e_0_energy">     -6.04319178 </i>
   </energy>
  </scstep>
  <scstep>
   <time name="dav">    0.17    0.17</time>
   <time name="total">    0.36    0.36</time>
   <energy>
    <i name="e_fr_energy">     -6.04358326 </i>
    <i name="e_wo_entrp">     -6.04358326 </i>
    <i name="e_0_energy">     -6.04358326 </i>
   </energy>
  </scstep>
  <scstep>
   <time name="dav">    0.17    0.17</time>
   <time name="total">    0.36    0.40</time>
   <energy>
    <i name="e_fr_energy">     -6.04382818 </i>
    <i name="e_wo_entrp">     -6.04382818 </i>
    <i name="e_0_energy">     -6.04382818 </i>
   </energy>
  </scstep>
  <scstep>
   <time name="dav">    0.16    0.16</time>
   <time name="total">    0.35    0.35</time>
   <energy>
    <i name="e_fr_energy">     -6.04410837 </i>
    <i name="e_wo_entrp">     -6.04410837 </i>
    <i name="e_0_energy">     -6.04410837 </i>
   </energy>
  </scstep>
  <scstep>
   <time name="dav">    0.17    0.17</time>
   <time name="total">    0.33    0.33</time>
   <energy>
    <i name="alphaZ">      3.82462641 </i>
    <i name="ewald">   1200.28420900 </i>
    <i name="hartreedc">  -6170.12178351 </i>
    <i name="XCdc">    -59.01172159 </i>
    <i name="pawpsdc">   5230.64947365 </i>
    <i name="pawaedc">  -5004.46508522 </i>
    <i name="eentropy">      0.00000000 </i>
    <i name="bandstr">   -393.19705604 </i>
    <i name="atom">   5185.99315043 </i>
    <i name="e_fr_energy">     -6.04418686 </i>
    <i name="e_wo_entrp">     -6.04418686 </i>
    <i name="e_0_energy">     -6.04418686 </i>
   </energy>
  </scstep>
  <structure>
   <crystal>
    <varray name="basis" >
     <v>      17.71556700       0.00000000       0.00000000 </v>
     <v>       0.00000000      17.71556700       0.00000000 </v>
     <v>       0.00000000       0.00000000      17.71556700 </v>
    </varray>
    <i name="volume">   5559.87682401 </i>
    <varray name="rec_basis" >
     <v>       0.05644753       0.00000000       0.00000000 </v>
     <v>       0.00000000       0.05644753       0.00000000 </v>
     <v>       0.00000000       0.00000000       0.05644753 </v>
    </varray>
   </crystal>
   <varray name="positions" >
    <v>       0.79864460       0.60982939       0.75925980 </v>
    <v>       0.53902155       0.63633269       0.53419606 </v>
    <v>       0.62305005       0.61468692       0.41822330 </v>
    <v>       0.51589851       0.65005469       0.68640614 </v>
    <v>       0.65785534       0.63768432       0.74943545 </v>
   </varray>
  </structure>
  <varray name="forces" >
   <v>       0.32135131      -0.04804028       0.04656850 </v>
   <v>      -0.09618953       0.05610966       0.49108099 </v>
   <v>       0.13610098      -0.05437173      -0.21822867 </v>
   <v>       0.24509981      -0.04979745      -0.10326750 </v>
   <v>      -0.60636258       0.09609980      -0.21615333 </v>
  </varray>
  <varray name="stress" >
   <v>      -0.32627216      -0.04850593      -0.14726526 </v>
   <v>      -0.04850593      -0.45055284       0.00867331 </v>
   <v>      -0.14726527       0.00867331      -0.58805265 </v>
  </varray>
  <energy>
   <i name="e_fr_energy">     -6.04418686 </i>
   <i name="e_wo_entrp">     -6.04418686 </i>
   <i name="e_0_energy">      0.00000000 </i>
  </energy>
  <time name="totalsc">    4.90    7.98</time>
 </calculation>
 <calculation>
  <scstep>
   <time name="dav">    0.20    0.20</time>
   <time name="total">    0.39    0.43</time>
   <energy>
    <i name="alphaZ">      3.82462641 </i>
    <i name="ewald">   1166.03792111 </i>
    <i name="hartreedc">  -6136.01907401 </i>
    <i name="XCdc">    -59.14194826 </i>
    <i name="pawpsdc">   5230.65603757 </i>
    <i name="pawaedc">  -5004.47162273 </i>
    <i name="eentropy">      0.00000000 </i>
    <i name="bandstr">   -392.92765991 </i>
    <i name="atom">   5185.99315043 </i>
    <i name="e_fr_energy">     -6.04856938 </i>
    <i name="e_wo_entrp">     -6.04856938 </i>
    <i name="e_0_energy">     -6.04856938 </i>
   </energy>
  </scstep>
  <scstep>
   <time name="dav">    0.21    0.21</time>
   <time name="total">    0.40    0.43</time>
   <energy>
    <i name="e_fr_energy">     -6.06470824 </i>
    <i name="e_wo_entrp">     -6.06470824 </i>
    <i name="e_0_energy">     -6.06470824 </i>
   </energy>
  </scstep>
  <scstep>
   <time name="dav">    0.22    0.22</time>
   <time name="total">    0.41    0.41</time>
   <energy>
    <i name="e_fr_energy">     -6.06437027 </i>
    <i name="e_wo_entrp">     -6.06437027 </i>
    <i name="e_0_energy">     -6.06437027 </i>
   </energy>
  </scstep>
  <scstep>
   <time name="dav">    0.20    0.21</time>
   <time name="total">    0.36    0.38</time>
   <energy>
    <i name="alphaZ">      3.82462641 </i>
    <i name="ewald">   1166.03792111 </i>
    <i name="hartreedc">  -6136.91442207 </i>
    <i name="XCdc">    -59.11221031 </i>
    <i name="pawpsdc">   5212.34626485 </i>
    <i name="pawaedc">  -4985.84908198 </i>
    <i name="eentropy">      0.00000000 </i>
    <i name="bandstr">   -392.39052486 </i>
    <i name="atom">   5185.99315043 </i>
    <i name="e_fr_energy">     -6.06427641 </i>
    <i name="e_wo_entrp">     -6.06427641 </i>
    <i name="e_0_energy">     -6.06427641 </i>
   </energy>
  </scstep>
  <structure>
   <crystal>
    <varray name="basis" >
     <v>      17.71556700       0.00000000       0.00000000 </v>
     <v>       0.00000000      17.71556700       0.00000000 </v>
     <v>       0.00000000       0.00000000      17.71556700 </v>
    </varray>
    <i name="volume">   5559.87682401 </i>
    <varray name="rec_basis" >
     <v>       0.05644753       0.00000000       0.00000000 </v>
     <v>       0.00000000       0.05644753       0.00000000 </v>
     <v>       0.00000000       0.00000000       0.05644753 </v>
    </varray>
   </crystal>
   <varray name="positions" >
    <v>       0.80090550       0.60936196       0.75933082 </v>
    <v>       0.53755241       0.63659978       0.53519846 </v>
    <v>       0.62440009       0.61443186       0.41656771 </v>
    <v>       0.51561020       0.65012544       0.68659807 </v>
    <v>       0.65600185       0.63806897       0.74982568 </v>
   </varray>
  </structure>
  <varray name="forces" >
   <v>      -0.08941704       0.03027605       0.01319737 </v>
   <v>       0.12220555       0.00104051       0.17216992 </v>
   <v>      -0.07015861      -0.00143057       0.07232542 </v>
   <v>       0.19151014      -0.04085272      -0.08757303 </v>
   <v>      -0.15414005       0.01096674      -0.17011969 </v>
  </varray>
  <varray name="stress" >
   <v>      -0.70593853       0.02897813      -0.03883906 </v>
   <v>       0.02897813      -0.49971246      -0.01788317 </v>
   <v>      -0.03883906      -0.01788318      -0.75183455 </v>
  </varray>
  <energy>
   <i name="e_fr_energy">     -6.06427641 </i>
   <i name="e_wo_entrp">     -6.06427641 </i>
   <i name="e_0_energy">      0.00000000 </i>
  </energy>
  <time name="totalsc">    2.07    2.26</time>
 </calculation>
 <calculation>
  <scstep>
   <time name="dav">    0.20    0.20</time>
   <time name="total">    0.39    0.40</time>
   <energy>
    <i name="alphaZ">      3.82462641 </i>
    <i name="ewald">   1175.45729807 </i>
    <i name="hartreedc">  -6146.31934818 </i>
    <i name="XCdc">    -59.08753491 </i>
    <i name="pawpsdc">   5211.10066620 </i>
    <i name="pawaedc">  -4984.57993761 </i>
    <i name="eentropy">      0.00000000 </i>
    <i name="bandstr">   -392.45848031 </i>
    <i name="atom">   5185.99315043 </i>
    <i name="e_fr_energy">     -6.06955990 </i>
    <i name="e_wo_entrp">     -6.06955990 </i>
    <i name="e_0_energy">     -6.06955990 </i>
   </energy>
  </scstep>
  <scstep>
   <time name="dav">    0.21    0.21</time>
   <time name="total">    0.40    0.41</time>
   <energy>
    <i name="e_fr_energy">     -6.07067068 </i>
    <i name="e_wo_entrp">     -6.07067068 </i>
    <i name="e_0_energy">     -6.07067068 </i>
   </energy>
  </scstep>
  <scstep>
   <time name="dav">    0.17    0.17</time>
   <time name="total">    0.36    0.38</time>
   <energy>
    <i name="e_fr_energy">     -6.07086220 </i>
    <i name="e_wo_entrp">     -6.07086220 </i>
    <i name="e_0_energy">     -6.07086220 </i>
   </energy>
  </scstep>
  <scstep>
   <time name="dav">    0.16    0.16</time>
   <time name="total">    0.35    0.36</time>
   <energy>
    <i name="e_fr_energy">     -6.07123743 </i>
    <i name="e_wo_entrp">     -6.07123743 </i>
    <i name="e_0_energy">     -6.07123743 </i>
   </energy>
  </scstep>
  <scstep>
   <time name="dav">    0.17    0.17</time>
   <time name="total">    0.36    0.40</time>
   <energy>
    <i name="e_fr_energy">     -6.07141010 </i>
    <i name="e_wo_entrp">     -6.07141010 </i>
    <i name="e_0_energy">     -6.07141010 </i>
   </energy>
  </scstep>
  <scstep>
   <time name="dav">    0.17    0.17</time>
   <time name="total">    0.33    0.33</time>
   <energy>
    <i name="alphaZ">      3.82462641 </i>
    <i name="ewald">   1175.45729807 </i>
    <i name="hartreedc">  -6146.09057162 </i>
    <i name="XCdc">    -59.09511669 </i>
    <i name="pawpsdc">   5213.95312363 </i>
    <i name="pawaedc">  -4987.48908058 </i>
    <i name="eentropy">      0.00000000 </i>
    <i name="bandstr">   -392.62493465 </i>
    <i name="atom">   5185.99315043 </i>
    <i name="e_fr_energy">     -6.07150500 </i>
    <i name="e_wo_entrp">     -6.07150500 </i>
    <i name="e_0_energy">     -6.07150500 </i>
   </energy>
  </scstep>
  <structure>
   <crystal>
    <varray name="basis" >
     <v>      17.71556700       0.00000000       0.00000000 </v>
     <v>       0.00000000      17.71556700       0.00000000 </v>
     <v>       0.00000000       0.00000000      17.71556700 </v>
    </varray>
    <i name="volume">   5559.87682401 </i>
    <varray name="rec_basis" >
     <v>       0.05644753       0.00000000       0.00000000 </v>
     <v>       0.00000000       0.05644753       0.00000000 </v>
     <v>       0.00000000       0.00000000       0.05644753 </v>
    </varray>
   </crystal>
   <varray name="positions" >
    <v>       0.80062683       0.60944365       0.75935475 </v>
    <v>       0.53786439       0.63659056       0.53550744 </v>
    <v>       0.62419945       0.61443978       0.41678575 </v>
    <v>       0.51601353       0.65003901       0.68641109 </v>
    <v>       0.65576585       0.63807502       0.74946170 </v>
   </varray>
  </structure>
  <varray name="forces" >
   <v>      -0.08777360       0.03099784       0.01508878 </v>
   <v>       0.12040588       0.00185679       0.16614185 </v>
   <v>      -0.06006851      -0.00366624       0.05685666 </v>
   <v>       0.15593086      -0.03896435      -0.07229203 </v>
   <v>      -0.12849464       0.00977596      -0.16579526 </v>
  </varray>
  <varray name="stress" >
   <v>      -0.65002618       0.02661388      -0.03819198 </v>
   <v>       0.02661388      -0.46634381      -0.01542699 </v>
   <v>      -0.03819198      -0.01542699      -0.68967869 </v>
  </varray>
  <energy>
   <i name="e_fr_energy">     -6.07150500 </i>
   <i name="e_wo_entrp">     -6.07150500 </i>
   <i name="e_0_energy">      0.00000000 </i>
  </energy>
  <time name="totalsc">    2.69    2.83</time>
 </calculation>
 <calculation>
  <scstep>
   <time name="dav">    0.20    0.20</time>
   <time name="total">    0.39    0.44</time>
   <energy>
    <i name="alphaZ">      3.82462641 </i>
    <i name="ewald">   1204.01216072 </i>
    <i name="hartreedc">  -6174.56328006 </i>
    <i name="XCdc">    -59.01974215 </i>
    <i name="pawpsdc">   5213.93474408 </i>
    <i name="pawaedc">  -4987.47063221 </i>
    <i name="eentropy">      0.00000000 </i>
    <i name="bandstr">   -392.78813086 </i>
    <i name="atom">   5185.99315043 </i>
    <i name="e_fr_energy">     -6.07710363 </i>
    <i name="e_wo_entrp">     -6.07710363 </i>
    <i name="e_0_energy">     -6.07710363 </i>
   </energy>
  </scstep>
  <scstep>
   <time name="dav">    0.21    0.21</time>
   <time name="total">    0.40    0.40</time>
   <energy>
    <i name="e_fr_energy">     -6.08464531 </i>
    <i name="e_wo_entrp">     -6.08464531 </i>
    <i name="e_0_energy">     -6.08464531 </i>
   </energy>
  </scstep>
  <scstep>
   <time name="dav">    0.22    0.21</time>
   <time name="total">    0.40    0.42</time>
   <energy>
    <i name="e_fr_energy">     -6.08463060 </i>
    <i name="e_wo_entrp">     -6.08463060 </i>
    <i name="e_0_energy">     -6.08463060 </i>
   </energy>
  </scstep>
  <scstep>
   <time name="dav">    0.18    0.18</time>
   <time name="total">    0.34    0.52</time>
   <energy>
    <i name="alphaZ">      3.82462641 </i>
    <i name="ewald">   1204.01216072 </i>
    <i name="hartreedc">  -6173.95800441 </i>
    <i name="XCdc">    -59.03846455 </i>
    <i name="pawpsdc">   5222.63807705 </i>
    <i name="pawaedc">  -4996.33653134 </i>
    <i name="eentropy">      0.00000000 </i>
    <i name="bandstr">   -393.21967680 </i>
    <i name="atom">   5185.99315043 </i>
    <i name="e_fr_energy">     -6.08466248 </i>
    <i name="e_wo_entrp">     -6.08466248 </i>
    <i name="e_0_energy">     -6.08466248 </i>
   </energy>
  </scstep>
  <structure>
   <crystal>
    <varray name="basis" >
     <v>      17.71556700       0.00000000       0.00000000 </v>
     <v>       0.00000000      17.71556700       0.00000000 </v>
     <v>       0.00000000       0.00000000      17.71556700 </v>
    </varray>
    <i name="volume">   5559.87682401 </i>
    <varray name="rec_basis" >
     <v>       0.05644753       0.00000000       0.00000000 </v>
     <v>       0.00000000       0.05644753       0.00000000 </v>
     <v>       0.00000000       0.00000000       0.05644753 </v>
    </varray>
   </crystal>
   <varray name="positions" >
    <v>       0.79979082       0.60968871       0.75942655 </v>
    <v>       0.53880033       0.63656288       0.53643441 </v>
    <v>       0.62359754       0.61446353       0.41743989 </v>
    <v>       0.51722351       0.64977972       0.68585013 </v>
    <v>       0.65505784       0.63809317       0.74836977 </v>
   </varray>
  </structure>
  <varray name="forces" >
   <v>      -0.07204530       0.03190014       0.01886026 </v>
   <v>       0.10237180       0.00647053       0.13893736 </v>
   <v>      -0.02423404      -0.00980897       0.00445894 </v>
   <v>       0.03465570      -0.03590852      -0.02327178 </v>
   <v>      -0.04074816       0.00734683      -0.13898478 </v>
  </varray>
  <varray name="stress" >
   <v>      -0.54311516       0.01409824      -0.04041401 </v>
   <v>       0.01409824      -0.45322044      -0.00642830 </v>
   <v>      -0.04041401      -0.00642830      -0.56984324 </v>
  </varray>
  <energy>
   <i name="e_fr_energy">     -6.08466248 </i>
   <i name="e_wo_entrp">     -6.08466248 </i>
   <i name="e_0_energy">      0.00000000 </i>
  </energy>
  <time name="totalsc">    2.04    2.44</time>
 </calculation>
 <calculation>
  <scstep>
   <time name="dav">    0.20    0.20</time>
   <time name="total">    0.39    0.40</time>
   <energy>
    <i name="alphaZ">      3.82462641 </i>
    <i name="ewald">   1262.50208631 </i>
    <i name="hartreedc">  -6232.17552286 </i>
    <i name="XCdc">    -58.87927594 </i>
    <i name="pawpsdc">   5223.30995552 </i>
    <i name="pawaedc">  -4997.02288768 </i>
    <i name="eentropy">     -0.00000000 </i>
    <i name="bandstr">   -393.60844516 </i>
    <i name="atom">   5185.99315043 </i>
    <i name="e_fr_energy">     -6.05631296 </i>
    <i name="e_wo_entrp">     -6.05631296 </i>
    <i name="e_0_energy">     -6.05631296 </i>
   </energy>
  </scstep>
  <scstep>
   <time name="dav">    0.21    0.21</time>
   <time name="total">    0.40    0.44</time>
   <energy>
    <i name="e_fr_energy">     -6.08655530 </i>
    <i name="e_wo_entrp">     -6.08655530 </i>
    <i name="e_0_energy">     -6.08655530 </i>
   </energy>
  </scstep>
  <scstep>
   <time name="dav">    0.21    0.21</time>
   <time name="total">    0.40    0.40</time>
   <energy>
    <i name="e_fr_energy">     -6.08650384 </i>
    <i name="e_wo_entrp">     -6.08650384 </i>
    <i name="e_0_energy">     -6.08650384 </i>
   </energy>
  </scstep>
  <scstep>
   <time name="dav">    0.20    0.20</time>
   <time name="total">    0.39    0.42</time>
   <energy>
    <i name="e_fr_energy">     -6.08661308 </i>
    <i name="e_wo_entrp">     -6.08661308 </i>
    <i name="e_0_energy">     -6.08661308 </i>
   </energy>
  </scstep>
  <scstep>
   <time name="dav">    0.16    0.16</time>
   <time name="total">    0.35    0.40</time>
   <energy>
    <i name="e_fr_energy">     -6.08686602 </i>
    <i name="e_wo_entrp">     -6.08686602 </i>
    <i name="e_0_energy">     -6.08686602 </i>
   </energy>
  </scstep>
  <scstep>
   <time name="dav">    0.17    0.17</time>
   <time name="total">    0.35    0.41</time>
   <energy>
    <i name="e_fr_energy">     -6.08703176 </i>
    <i name="e_wo_entrp">     -6.08703176 </i>
    <i name="e_0_energy">     -6.08703176 </i>
   </energy>
  </scstep>
  <scstep>
   <time name="dav">    0.16    0.16</time>
   <time name="total">    0.35    0.35</time>
   <energy>
    <i name="e_fr_energy">     -6.08721711 </i>
    <i name="e_wo_entrp">     -6.08721711 </i>
    <i name="e_0_energy">     -6.08721711 </i>
   </energy>
  </scstep>
  <scstep>
   <time name="dav">    0.16    0.16</time>
   <time name="total">    0.35    0.38</time>
   <energy>
    <i name="e_fr_energy">     -6.08737340 </i>
    <i name="e_wo_entrp">     -6.08737340 </i>
    <i name="e_0_energy">     -6.08737340 </i>
   </energy>
  </scstep>
  <scstep>
   <time name="dav">    0.17    0.17</time>
   <time name="total">    0.36    0.37</time>
   <energy>
    <i name="e_fr_energy">     -6.08748366 </i>
    <i name="e_wo_entrp">     -6.08748366 </i>
    <i name="e_0_energy">     -6.08748366 </i>
   </energy>
  </scstep>
  <scstep>
   <time name="dav">    0.16    0.17</time>
   <time name="total">    0.32    0.34</time>
   <energy>
    <i name="alphaZ">      3.82462641 </i>
    <i name="ewald">   1262.50208631 </i>
    <i name="hartreedc">  -6230.88409453 </i>
    <i name="XCdc">    -58.91992797 </i>
    <i name="pawpsdc">   5244.05487045 </i>
    <i name="pawaedc">  -5018.15039980 </i>
    <i name="eentropy">      0.00000000 </i>
    <i name="bandstr">   -394.50788038 </i>
    <i name="atom">   5185.99315043 </i>
    <i name="e_fr_energy">     -6.08756908 </i>
    <i name="e_wo_entrp">     -6.08756908 </i>
    <i name="e_0_energy">     -6.08756908 </i>
   </energy>
  </scstep>
  <structure>
   <crystal>
    <varray name="basis" >
     <v>      17.71556700       0.00000000       0.00000000 </v>
     <v>       0.00000000      17.71556700       0.00000000 </v>
     <v>       0.00000000       0.00000000      17.71556700 </v>
    </varray>
    <i name="volume">   5559.87682401 </i>
    <varray name="rec_basis" >
     <v>       0.05644753       0.00000000       0.00000000 </v>
     <v>       0.00000000       0.05644753       0.00000000 </v>
     <v>       0.00000000       0.00000000       0.05644753 </v>
    </varray>
   </crystal>
   <varray name="positions" >
    <v>       0.79811881       0.61017884       0.75957014 </v>
    <v>       0.54067222       0.63650753       0.53828833 </v>
    <v>       0.62239372       0.61451103       0.41874816 </v>
    <v>       0.51964348       0.64926113       0.68472821 </v>
    <v>       0.65364181       0.63812947       0.74618589 </v>
   </varray>
  </structure>
  <varray name="forces" >
   <v>      -0.03272200       0.02655265       0.02130048 </v>
   <v>       0.05748191       0.00813984       0.03153958 </v>
   <v>       0.04337826      -0.02682027      -0.10638963 </v>
   <v>      -0.27030240      -0.00135095       0.08792905 </v>
   <v>       0.20216423      -0.00652127      -0.03437947 </v>
  </varray>
  <varray name="stress" >
   <v>      -0.32158371      -0.01582188      -0.02744242 </v>
   <v>      -0.01582188      -0.45511633       0.01318928 </v>
   <v>      -0.02744243       0.01318928      -0.29696563 </v>
  </varray>
  <energy>
   <i name="e_fr_energy">     -6.08756908 </i>
   <i name="e_wo_entrp">     -6.08756908 </i>
   <i name="e_0_energy">      0.00000000 </i>
  </energy>
  <time name="totalsc">    4.17    4.47</time>
 </calculation>
 <calculation>
  <scstep>
   <time name="dav">    0.20    0.20</time>
   <time name="total">    0.39    0.40</time>
   <energy>
    <i name="alphaZ">      3.82462641 </i>
    <i name="ewald">   1235.79492858 </i>
    <i name="hartreedc">  -6204.31169451 </i>
    <i name="XCdc">    -58.99333746 </i>
    <i name="pawpsdc">   5244.05248629 </i>
    <i name="pawaedc">  -5018.14804092 </i>
    <i name="eentropy">      0.00000000 </i>
    <i name="bandstr">   -394.29695118 </i>
    <i name="atom">   5185.99315043 </i>
    <i name="e_fr_energy">     -6.08483237 </i>
    <i name="e_wo_entrp">     -6.08483237 </i>
    <i name="e_0_energy">     -6.08483237 </i>
   </energy>
  </scstep>
  <scstep>
   <time name="dav">    0.21    0.21</time>
   <time name="total">    0.40    0.40</time>
   <energy>
    <i name="e_fr_energy">     -6.09086092 </i>
    <i name="e_wo_entrp">     -6.09086092 </i>
    <i name="e_0_energy">     -6.09086092 </i>
   </energy>
  </scstep>
  <scstep>
   <time name="dav">    0.22    0.22</time>
   <time name="total">    0.40    0.41</time>
   <energy>
    <i name="e_fr_energy">     -6.09083926 </i>
    <i name="e_wo_entrp">     -6.09083926 </i>
    <i name="e_0_energy">     -6.09083926 </i>
   </energy>
  </scstep>
  <scstep>
   <time name="dav">    0.20    0.20</time>
   <time name="total">    0.36    0.36</time>
   <energy>
    <i name="alphaZ">      3.82462641 </i>
    <i name="ewald">   1235.79492858 </i>
    <i name="hartreedc">  -6204.87507183 </i>
    <i name="XCdc">    -58.97615026 </i>
    <i name="pawpsdc">   5235.04592495 </i>
    <i name="pawaedc">  -5008.98237690 </i>
    <i name="eentropy">      0.00000000 </i>
    <i name="bandstr">   -393.91579715 </i>
    <i name="atom">   5185.99315043 </i>
    <i name="e_fr_energy">     -6.09076577 </i>
    <i name="e_wo_entrp">     -6.09076577 </i>
    <i name="e_0_energy">     -6.09076577 </i>
   </energy>
  </scstep>
  <structure>
   <crystal>
    <varray name="basis" >
     <v>      17.71556700       0.00000000       0.00000000 </v>
     <v>       0.00000000      17.71556700       0.00000000 </v>
     <v>       0.00000000       0.00000000      17.71556700 </v>
    </varray>
    <i name="volume">   5559.87682401 </i>
    <varray name="rec_basis" >
     <v>       0.05644753       0.00000000       0.00000000 </v>
     <v>       0.00000000       0.05644753       0.00000000 </v>
     <v>       0.00000000       0.00000000       0.05644753 </v>
    </varray>
   </crystal>
   <varray name="positions" >
    <v>       0.79887561       0.60995700       0.75950514 </v>
    <v>       0.53982495       0.63653259       0.53744919 </v>
    <v>       0.62293861       0.61448953       0.41815599 </v>
    <v>       0.51854813       0.64949586       0.68523603 </v>
    <v>       0.65428275       0.63811304       0.74717438 </v>
   </varray>
  </structure>
  <varray name="forces" >
   <v>      -0.04874051       0.02876667       0.01943123 </v>
   <v>       0.07437157       0.00763542       0.08635592 </v>
   <v>       0.01590281      -0.01898916      -0.05627098 </v>
   <v>      -0.12346948      -0.01813965       0.03714723 </v>
   <v>       0.08193562       0.00072673      -0.08666340 </v>
  </varray>
  <varray name="stress" >
   <v>      -0.44708405      -0.00229728      -0.03410033 </v>
   <v>      -0.00229727      -0.47923152       0.00462030 </v>
   <v>      -0.03410033       0.00462030      -0.44377182 </v>
  </varray>
  <energy>
   <i name="e_fr_energy">     -6.09076577 </i>
   <i name="e_wo_entrp">     -6.09076577 </i>
   <i name="e_0_energy">      0.00000000 </i>
  </energy>
  <time name="totalsc">    2.07    2.11</time>
 </calculation>
 <calculation>
  <scstep>
   <time name="dav">    0.20    0.20</time>
   <time name="total">    0.39    0.40</time>
   <energy>
    <i name="alphaZ">      3.82462641 </i>
    <i name="ewald">   1241.88574159 </i>
    <i name="hartreedc">  -6210.96771742 </i>
    <i name="XCdc">    -58.96235675 </i>
    <i name="pawpsdc">   5234.20574683 </i>
    <i name="pawaedc">  -5008.12420594 </i>
    <i name="eentropy">      0.00000000 </i>
    <i name="bandstr">   -393.94806873 </i>
    <i name="atom">   5185.99315043 </i>
    <i name="e_fr_energy">     -6.09308359 </i>
    <i name="e_wo_entrp">     -6.09308359 </i>
    <i name="e_0_energy">     -6.09308359 </i>
   </energy>
  </scstep>
  <scstep>
   <time name="dav">    0.21    0.21</time>
   <time name="total">    0.40    0.40</time>
   <energy>
    <i name="e_fr_energy">     -6.09468403 </i>
    <i name="e_wo_entrp">     -6.09468403 </i>
    <i name="e_0_energy">     -6.09468403 </i>
   </energy>
  </scstep>
  <scstep>
   <time name="dav">    0.20    0.20</time>
   <time name="total">    0.36    0.37</time>
   <energy>
    <i name="alphaZ">      3.82462641 </i>
    <i name="ewald">   1241.88574159 </i>
    <i name="hartreedc">  -6210.88441442 </i>
    <i name="XCdc">    -58.96433012 </i>
    <i name="pawpsdc">   5235.23493347 </i>
    <i name="pawaedc">  -5009.17103587 </i>
    <i name="eentropy">      0.00000000 </i>
    <i name="bandstr">   -394.01331766 </i>
    <i name="atom">   5185.99315043 </i>
    <i name="e_fr_energy">     -6.09464616 </i>
    <i name="e_wo_entrp">     -6.09464616 </i>
    <i name="e_0_energy">     -6.09464616 </i>
   </energy>
  </scstep>
  <structure>
   <crystal>
    <varray name="basis" >
     <v>      17.71556700       0.00000000       0.00000000 </v>
     <v>       0.00000000      17.71556700       0.00000000 </v>
     <v>       0.00000000       0.00000000      17.71556700 </v>
    </varray>
    <i name="volume">   5559.87682401 </i>
    <varray name="rec_basis" >
     <v>       0.05644753       0.00000000       0.00000000 </v>
     <v>       0.00000000       0.05644753       0.00000000 </v>
     <v>       0.00000000       0.00000000       0.05644753 </v>
    </varray>
   </crystal>
   <varray name="positions" >
    <v>       0.79845251       0.61014775       0.75961174 </v>
    <v>       0.54038989       0.63656121       0.53806724 </v>
    <v>       0.62286900       0.61440766       0.41805196 </v>
    <v>       0.51826636       0.64935070       0.68527405 </v>
    <v>       0.65449228       0.63812070       0.74651575 </v>
   </varray>
  </structure>
  <varray name="forces" >
   <v>       0.00692687       0.01670168       0.02481660 </v>
   <v>       0.08535570       0.00254129       0.03658300 </v>
   <v>       0.00137387      -0.01445856      -0.03802869 </v>
   <v>      -0.11268549      -0.01609779       0.07059589 </v>
   <v>       0.01902905       0.01131337      -0.09396681 </v>
  </varray>
  <varray name="stress" >
   <v>      -0.39892870      -0.00766397      -0.03118440 </v>
   <v>      -0.00766397      -0.45941149       0.00365536 </v>
   <v>      -0.03118441       0.00365536      -0.41366221 </v>
  </varray>
  <energy>
   <i name="e_fr_energy">     -6.09464616 </i>
   <i name="e_wo_entrp">     -6.09464616 </i>
   <i name="e_0_energy">      0.00000000 </i>
  </energy>
  <time name="totalsc">    1.67    1.69</time>
 </calculation>
 <calculation>
  <scstep>
   <time name="dav">    0.20    0.20</time>
   <time name="total">    0.39    0.40</time>
   <energy>
    <i name="alphaZ">      3.82462641 </i>
    <i name="ewald">   1259.71210547 </i>
    <i name="hartreedc">  -6228.65837213 </i>
    <i name="XCdc">    -58.92490637 </i>
    <i name="pawpsdc">   5235.66770369 </i>
    <i name="pawaedc">  -5009.61282930 </i>
    <i name="eentropy">      0.00000000 </i>
    <i name="bandstr">   -394.08766456 </i>
    <i name="atom">   5185.99315043 </i>
    <i name="e_fr_energy">     -6.08618636 </i>
    <i name="e_wo_entrp">     -6.08618636 </i>
    <i name="e_0_energy">     -6.08618636 </i>
   </energy>
  </scstep>
  <scstep>
   <time name="dav">    0.21    0.21</time>
   <time name="total">    0.40    0.40</time>
   <energy>
    <i name="e_fr_energy">     -6.10001055 </i>
    <i name="e_wo_entrp">     -6.10001055 </i>
    <i name="e_0_energy">     -6.10001055 </i>
   </energy>
  </scstep>
  <scstep>
   <time name="dav">    0.22    0.21</time>
   <time name="total">    0.40    0.40</time>
   <energy>
    <i name="e_fr_energy">     -6.09969975 </i>
    <i name="e_wo_entrp">     -6.09969975 </i>
    <i name="e_0_energy">     -6.09969975 </i>
   </energy>
  </scstep>
  <scstep>
   <time name="dav">    0.21    0.21</time>
   <time name="total">    0.40    0.40</time>
   <energy>
    <i name="e_fr_energy">     -6.09958609 </i>
    <i name="e_wo_entrp">     -6.09958609 </i>
    <i name="e_0_energy">     -6.09958609 </i>
   </energy>
  </scstep>
  <scstep>
   <time name="dav">    0.17    0.17</time>
   <time name="total">    0.35    0.36</time>
   <energy>
    <i name="e_fr_energy">     -6.09978063 </i>
    <i name="e_wo_entrp">     -6.09978063 </i>
    <i name="e_0_energy">     -6.09978063 </i>
   </energy>
  </scstep>
  <scstep>
   <time name="dav">    0.16    0.16</time>
   <time name="total">    0.35    0.35</time>
   <energy>
    <i name="e_fr_energy">     -6.09999145 </i>
    <i name="e_wo_entrp">     -6.09999145 </i>
    <i name="e_0_energy">     -6.09999145 </i>
   </energy>
  </scstep>
  <scstep>
   <time name="dav">    0.16    0.16</time>
   <time name="total">    0.35    0.35</time>
   <energy>
    <i name="e_fr_energy">     -6.10037289 </i>
    <i name="e_wo_entrp">     -6.10037289 </i>
    <i name="e_0_energy">     -6.10037289 </i>
   </energy>
  </scstep>
  <scstep>
   <time name="dav">    0.16    0.16</time>
   <time name="total">    0.35    0.35</time>
   <energy>
    <i name="e_fr_energy">     -6.10057980 </i>
    <i name="e_wo_entrp">     -6.10057980 </i>
    <i name="e_0_energy">     -6.10057980 </i>
   </energy>
  </scstep>
  <scstep>
   <time name="dav">    0.16    0.16</time>
   <time name="total">    0.35    0.35</time>
   <energy>
    <i name="e_fr_energy">     -6.10074216 </i>
    <i name="e_wo_entrp">     -6.10074216 </i>
    <i name="e_0_energy">     -6.10074216 </i>
   </energy>
  </scstep>
  <scstep>
   <time name="dav">    0.16    0.16</time>
   <time name="total">    0.35    0.35</time>
   <energy>
    <i name="e_fr_energy">     -6.10091682 </i>
    <i name="e_wo_entrp">     -6.10091682 </i>
    <i name="e_0_energy">     -6.10091682 </i>
   </energy>
  </scstep>
  <scstep>
   <time name="dav">    0.16    0.16</time>
   <time name="total">    0.32    0.33</time>
   <energy>
    <i name="alphaZ">      3.82462641 </i>
    <i name="ewald">   1259.71210547 </i>
    <i name="hartreedc">  -6228.37764291 </i>
    <i name="XCdc">    -58.93346083 </i>
    <i name="pawpsdc">   5241.03273133 </i>
    <i name="pawaedc">  -5015.08138304 </i>
    <i name="eentropy">      0.00000000 </i>
    <i name="bandstr">   -394.27111482 </i>
    <i name="atom">   5185.99315043 </i>
    <i name="e_fr_energy">     -6.10098796 </i>
    <i name="e_wo_entrp">     -6.10098796 </i>
    <i name="e_0_energy">     -6.10098796 </i>
   </energy>
  </scstep>
  <structure>
   <crystal>
    <varray name="basis" >
     <v>      17.71556700       0.00000000       0.00000000 </v>
     <v>       0.00000000      17.71556700       0.00000000 </v>
     <v>       0.00000000       0.00000000      17.71556700 </v>
    </varray>
    <i name="volume">   5559.87682401 </i>
    <varray name="rec_basis" >
     <v>       0.05644753       0.00000000       0.00000000 </v>
     <v>       0.00000000       0.05644753       0.00000000 </v>
     <v>       0.00000000       0.00000000       0.05644753 </v>
    </varray>
   </crystal>
   <varray name="positions" >
    <v>       0.79720515       0.61071013       0.75992600 </v>
    <v>       0.54205546       0.63664558       0.53988934 </v>
    <v>       0.62266379       0.61416627       0.41774524 </v>
    <v>       0.51743565       0.64892276       0.68538615 </v>
    <v>       0.65511000       0.63814327       0.74457400 </v>
   </varray>
  </structure>
  <varray name="forces" >
   <v>       0.16963677      -0.01594513       0.03966190 </v>
   <v>       0.13177855      -0.00806406      -0.09422934 </v>
   <v>      -0.02877740      -0.00513770       0.00800736 </v>
   <v>      -0.10909436      -0.01697187       0.17401962 </v>
   <v>      -0.16354356       0.04611877      -0.12745955 </v>
  </varray>
  <varray name="stress" >
   <v>      -0.30771085      -0.02579275      -0.02399430 </v>
   <v>      -0.02579275      -0.45171472       0.00248165 </v>
   <v>      -0.02399430       0.00248164      -0.37772003 </v>
  </varray>
  <energy>
   <i name="e_fr_energy">     -6.10098796 </i>
   <i name="e_wo_entrp">     -6.10098796 </i>
   <i name="e_0_energy">      0.00000000 </i>
  </energy>
  <time name="totalsc">    4.54    4.60</time>
 </calculation>
 <calculation>
  <scstep>
   <time name="dav">    0.20    0.20</time>
   <time name="total">    0.39    0.41</time>
   <energy>
    <i name="alphaZ">      3.82462641 </i>
    <i name="ewald">   1261.08255431 </i>
    <i name="hartreedc">  -6229.75050980 </i>
    <i name="XCdc">    -58.93297315 </i>
    <i name="pawpsdc">   5241.02919258 </i>
    <i name="pawaedc">  -5015.07784629 </i>
    <i name="eentropy">      0.00000000 </i>
    <i name="bandstr">   -394.27105456 </i>
    <i name="atom">   5185.99315043 </i>
    <i name="e_fr_energy">     -6.10286008 </i>
    <i name="e_wo_entrp">     -6.10286008 </i>
    <i name="e_0_energy">     -6.10286008 </i>
   </energy>
  </scstep>
  <scstep>
   <time name="dav">    0.21    0.21</time>
   <time name="total">    0.40    0.40</time>
   <energy>
    <i name="e_fr_energy">     -6.10331075 </i>
    <i name="e_wo_entrp">     -6.10331075 </i>
    <i name="e_0_energy">     -6.10331075 </i>
   </energy>
  </scstep>
  <scstep>
   <time name="dav">    0.15    0.15</time>
   <time name="total">    0.31    0.31</time>
   <energy>
    <i name="alphaZ">      3.82462641 </i>
    <i name="ewald">   1261.08255431 </i>
    <i name="hartreedc">  -6229.74722799 </i>
    <i name="XCdc">    -58.93299586 </i>
    <i name="pawpsdc">   5241.05438810 </i>
    <i name="pawaedc">  -5015.10393700 </i>
    <i name="eentropy">      0.00000000 </i>
    <i name="bandstr">   -394.27386782 </i>
    <i name="atom">   5185.99315043 </i>
    <i name="e_fr_energy">     -6.10330944 </i>
    <i name="e_wo_entrp">     -6.10330944 </i>
    <i name="e_0_energy">     -6.10330944 </i>
   </energy>
  </scstep>
  <structure>
   <crystal>
    <varray name="basis" >
     <v>      17.71556700       0.00000000       0.00000000 </v>
     <v>       0.00000000      17.71556700       0.00000000 </v>
     <v>       0.00000000       0.00000000      17.71556700 </v>
    </varray>
    <i name="volume">   5559.87682401 </i>
    <varray name="rec_basis" >
     <v>       0.05644753       0.00000000       0.00000000 </v>
     <v>       0.00000000       0.05644753       0.00000000 </v>
     <v>       0.00000000       0.00000000       0.05644753 </v>
    </varray>
   </crystal>
   <varray name="positions" >
    <v>       0.79715064       0.61078182       0.76000388 </v>
    <v>       0.54240712       0.63665192       0.54008850 </v>
    <v>       0.62261070       0.61412617       0.41770560 </v>
    <v>       0.51722650       0.64884555       0.68553837 </v>
    <v>       0.65507508       0.63818255       0.74418439 </v>
   </varray>
  </structure>
  <varray name="forces" >
   <v>       0.16994182      -0.01915042       0.03757404 </v>
   <v>       0.11937494      -0.00700815      -0.09512952 </v>
   <v>      -0.02686819      -0.00358100       0.00826614 </v>
   <v>      -0.10468889      -0.01456715       0.16437084 </v>
   <v>      -0.15775968       0.04430672      -0.11508150 </v>
  </varray>
  <varray name="stress" >
   <v>      -0.30728419      -0.02496390      -0.02412271 </v>
   <v>      -0.02496390      -0.45168358       0.00207568 </v>
   <v>      -0.02412272       0.00207568      -0.38077118 </v>
  </varray>
  <energy>
   <i name="e_fr_energy">     -6.10330944 </i>
   <i name="e_wo_entrp">     -6.10330944 </i>
   <i name="e_0_energy">      0.00000000 </i>
  </energy>
  <time name="totalsc">    1.62    2.54</time>
 </calculation>
 <calculation>
  <scstep>
   <time name="dav">    0.20    0.20</time>
   <time name="total">    0.39    0.41</time>
   <energy>
    <i name="alphaZ">      3.82462641 </i>
    <i name="ewald">   1265.05819309 </i>
    <i name="hartreedc">  -6233.74268782 </i>
    <i name="XCdc">    -58.93179075 </i>
    <i name="pawpsdc">   5241.04873628 </i>
    <i name="pawaedc">  -5015.09867933 </i>
    <i name="eentropy">      0.00000000 </i>
    <i name="bandstr">   -394.25782540 </i>
    <i name="atom">   5185.99315043 </i>
    <i name="e_fr_energy">     -6.10627709 </i>
    <i name="e_wo_entrp">     -6.10627709 </i>
    <i name="e_0_energy">     -6.10627709 </i>
   </energy>
  </scstep>
  <scstep>
   <time name="dav">    0.21    0.21</time>
   <time name="total">    0.40    0.40</time>
   <energy>
    <i name="e_fr_energy">     -6.11030306 </i>
    <i name="e_wo_entrp">     -6.11030306 </i>
    <i name="e_0_energy">     -6.11030306 </i>
   </energy>
  </scstep>
  <scstep>
   <time name="dav">    0.22    0.21</time>
   <time name="total">    0.38    0.38</time>
   <energy>
    <i name="alphaZ">      3.82462641 </i>
    <i name="ewald">   1265.05819309 </i>
    <i name="hartreedc">  -6233.72524186 </i>
    <i name="XCdc">    -58.93228590 </i>
    <i name="pawpsdc">   5241.01507206 </i>
    <i name="pawaedc">  -5015.06851868 </i>
    <i name="eentropy">      0.00000000 </i>
    <i name="bandstr">   -394.27527466 </i>
    <i name="atom">   5185.99315043 </i>
    <i name="e_fr_energy">     -6.11027912 </i>
    <i name="e_wo_entrp">     -6.11027912 </i>
    <i name="e_0_energy">     -6.11027912 </i>
   </energy>
  </scstep>
  <structure>
   <crystal>
    <varray name="basis" >
     <v>      17.71556700       0.00000000       0.00000000 </v>
     <v>       0.00000000      17.71556700       0.00000000 </v>
     <v>       0.00000000       0.00000000      17.71556700 </v>
    </varray>
    <i name="volume">   5559.87682401 </i>
    <varray name="rec_basis" >
     <v>       0.05644753       0.00000000       0.00000000 </v>
     <v>       0.00000000       0.05644753       0.00000000 </v>
     <v>       0.00000000       0.00000000       0.05644753 </v>
    </varray>
   </crystal>
   <varray name="positions" >
    <v>       0.79698711       0.61099691       0.76023749 </v>
    <v>       0.54346213       0.63667095       0.54068599 </v>
    <v>       0.62245143       0.61400588       0.41758668 </v>
    <v>       0.51659904       0.64861391       0.68599502 </v>
    <v>       0.65497033       0.63830037       0.74301555 </v>
   </varray>
  </structure>
  <varray name="forces" >
   <v>       0.16229857      -0.01667171       0.04183034 </v>
   <v>       0.13181740      -0.00383546      -0.07116213 </v>
   <v>      -0.02982112      -0.00501045       0.00424006 </v>
   <v>      -0.11774426      -0.01896571       0.15722948 </v>
   <v>      -0.14655059       0.04448332      -0.13213774 </v>
  </varray>
  <varray name="stress" >
   <v>      -0.30805696      -0.02266318      -0.02463489 </v>
   <v>      -0.02266318      -0.45172960       0.00096052 </v>
   <v>      -0.02463489       0.00096052      -0.39296869 </v>
  </varray>
  <energy>
   <i name="e_fr_energy">     -6.11027912 </i>
   <i name="e_wo_entrp">     -6.11027912 </i>
   <i name="e_0_energy">      0.00000000 </i>
  </energy>
  <time name="totalsc">    1.68    1.74</time>
 </calculation>
 <calculation>
  <scstep>
   <time name="dav">    0.20    0.20</time>
   <time name="total">    0.39    0.41</time>
   <energy>
    <i name="alphaZ">      3.82462641 </i>
    <i name="ewald">   1272.40590153 </i>
    <i name="hartreedc">  -6241.16421162 </i>
    <i name="XCdc">    -58.93175725 </i>
    <i name="pawpsdc">   5240.99798189 </i>
    <i name="pawaedc">  -5015.05206332 </i>
    <i name="eentropy">      0.00000000 </i>
    <i name="bandstr">   -394.18196660 </i>
    <i name="atom">   5185.99315043 </i>
    <i name="e_fr_energy">     -6.10833854 </i>
    <i name="e_wo_entrp">     -6.10833854 </i>
    <i name="e_0_energy">     -6.10833854 </i>
   </energy>
  </scstep>
  <scstep>
   <time name="dav">    0.21    0.21</time>
   <time name="total">    0.40    0.46</time>
   <energy>
    <i name="e_fr_energy">     -6.12457540 </i>
    <i name="e_wo_entrp">     -6.12457540 </i>
    <i name="e_0_energy">     -6.12457540 </i>
   </energy>
  </scstep>
  <scstep>
   <time name="dav">    0.22    0.23</time>
   <time name="total">    0.41    0.42</time>
   <energy>
    <i name="e_fr_energy">     -6.12447601 </i>
    <i name="e_wo_entrp">     -6.12447601 </i>
    <i name="e_0_energy">     -6.12447601 </i>
   </energy>
  </scstep>
  <scstep>
   <time name="dav">    0.21    0.21</time>
   <time name="total">    0.40    0.40</time>
   <energy>
    <i name="e_fr_energy">     -6.12408596 </i>
    <i name="e_wo_entrp">     -6.12408596 </i>
    <i name="e_0_energy">     -6.12408596 </i>
   </energy>
  </scstep>
  <scstep>
   <time name="dav">    0.21    0.21</time>
   <time name="total">    0.37    0.37</time>
[...]
       <r>    -2.4200     0.0000    29.0000 </r>
       <r>    -2.3872     0.0000    29.0000 </r>
       <r>    -2.3544     0.0000    30.0000 </r>
       <r>    -2.3216     0.0000    30.0000 </r>
       <r>    -2.2888     0.0000    30.0000 </r>
       <r>    -2.2560     0.0000    30.0000 </r>
       <r>    -2.2232     0.0000    30.0000 </r>
       <r>    -2.1904     0.0000    30.0000 </r>
       <r>    -2.1576     0.0000    30.0000 </r>
       <r>    -2.1247     0.0000    30.0000 </r>
       <r>    -2.0919     0.0000    30.0000 </r>
       <r>    -2.0591     0.0000    30.0000 </r>
       <r>    -2.0263     0.0000    30.0000 </r>
       <r>    -1.9935     0.0000    30.0000 </r>
       <r>    -1.9607     0.0000    30.0000 </r>
       <r>    -1.9279     0.0000    30.0000 </r>
       <r>    -1.8951     0.0000    30.0000 </r>
       <r>    -1.8623     0.0000    30.0000 </r>
       <r>    -1.8294     0.0000    30.0000 </r>
       <r>    -1.7966     0.0000    30.0000 </r>
       <r>    -1.7638     0.0000    30.0000 </r>
       <r>    -1.7310     0.0000    30.0000 </r>
       <r>    -1.6982     0.0000    30.0000 </r>
       <r>    -1.6654     0.0000    30.0000 </r>
       <r>    -1.6326     0.0000    31.0000 </r>
       <r>    -1.5998     0.0000    31.0000 </r>
       <r>    -1.5670     0.0000    31.0000 </r>
       <r>    -1.5342     0.0000    31.0000 </r>
       <r>    -1.5013     0.0000    31.0000 </r>
       <r>    -1.4685     0.0000    31.0000 </r>
       <r>    -1.4357     0.0000    31.0000 </r>
       <r>    -1.4029     0.0000    31.0000 </r>
       <r>    -1.3701     0.0000    31.0000 </r>
       <r>    -1.3373     0.0000    31.0000 </r>
       <r>    -1.3045     0.0000    31.0000 </r>
       <r>    -1.2717     0.0000    31.0000 </r>
       <r>    -1.2389     0.0000    31.0000 </r>
       <r>    -1.2061     0.0000    31.0000 </r>
       <r>    -1.1732     0.0000    31.0000 </r>
       <r>    -1.1404     0.0000    31.0000 </r>
       <r>    -1.1076     0.0000    31.0000 </r>
       <r>    -1.0748     0.0000    31.0000 </r>
       <r>    -1.0420     0.0000    32.0000 </r>
       <r>    -1.0092     0.0000    32.0000 </r>
       <r>    -0.9764     0.0000    32.0000 </r>
       <r>    -0.9436     0.0000    32.0000 </r>
       <r>    -0.9108     0.0000    32.0000 </r>
       <r>    -0.8780     0.0000    33.0000 </r>
       <r>    -0.8451     0.0000    33.0000 </r>
       <r>    -0.8123     0.0000    34.0000 </r>
       <r>    -0.7795     0.0000    34.0000 </r>
       <r>    -0.7467     0.0000    34.0000 </r>
       <r>    -0.7139     0.0000    34.0000 </r>
       <r>    -0.6811     0.0000    34.0000 </r>
       <r>    -0.6483     0.0000    35.0000 </r>
       <r>    -0.6155     0.0000    35.0000 </r>
       <r>    -0.5827     0.0000    35.0000 </r>
       <r>    -0.5499     0.0000    35.0000 </r>
       <r>    -0.5170     0.0000    35.0000 </r>
       <r>    -0.4842     0.0000    35.0000 </r>
       <r>    -0.4514     0.0000    35.0000 </r>
       <r>    -0.4186     0.0000    35.0000 </r>
       <r>    -0.3858     0.0000    35.0000 </r>
       <r>    -0.3530     0.0000    35.0000 </r>
       <r>    -0.3202     0.0000    35.0000 </r>
       <r>    -0.2874     0.0000    36.0000 </r>
       <r>    -0.2546     0.0000    36.0000 </r>
       <r>    -0.2218     0.0000    36.0000 </r>
       <r>    -0.1889     0.0000    36.0000 </r>
       <r>    -0.1561     0.0000    36.0000 </r>
       <r>    -0.1233     0.0000    36.0000 </r>
       <r>    -0.0905     0.0000    36.0000 </r>
       <r>    -0.0577     0.0000    36.0000 </r>
       <r>    -0.0249     0.0000    36.0000 </r>
       <r>     0.0079     0.0000    36.0000 </r>
       <r>     0.0407     0.0000    36.0000 </r>
       <r>     0.0735     0.0000    36.0000 </r>
       <r>     0.1064     0.0000    36.0000 </r>
       <r>     0.1392     0.0000    36.0000 </r>
       <r>     0.1720     0.0000    36.0000 </r>
       <r>     0.2048     0.0000    36.0000 </r>
       <r>     0.2376     0.0000    36.0000 </r>
       <r>     0.2704     0.0000    36.0000 </r>
       <r>     0.3032     0.0000    36.0000 </r>
       <r>     0.3360     0.0000    36.0000 </r>
      </set>
      <set comment="spin 2">
       <r>    -9.5070     0.0000     0.0000 </r>
       <r>    -9.4742     0.0000     0.0000 </r>
       <r>    -9.4414     0.0000     0.0000 </r>
       <r>    -9.4086     0.0000     0.0000 </r>
       <r>    -9.3758     0.0000     0.0000 </r>
       <r>    -9.3430     0.0000     0.0000 </r>
       <r>    -9.3102     0.0000     0.0000 </r>
       <r>    -9.2774     0.0000     0.0000 </r>
       <r>    -9.2445     0.0000     0.0000 </r>
       <r>    -9.2117     0.0000     0.0000 </r>
       <r>    -9.1789     0.0000     0.0000 </r>
       <r>    -9.1461     0.0000     0.0000 </r>
       <r>    -9.1133     0.0000     0.0000 </r>
       <r>    -9.0805     0.0000     0.0000 </r>
       <r>    -9.0477     0.0000     0.0000 </r>
       <r>    -9.0149     0.0000     0.0000 </r>
       <r>    -8.9821     0.0000     1.0000 </r>
       <r>    -8.9493     0.0000     1.0000 </r>
       <r>    -8.9164     0.0000     1.0000 </r>
       <r>    -8.8836     0.0000     1.0000 </r>
       <r>    -8.8508     0.0000     1.0000 </r>
       <r>    -8.8180     0.0000     1.0000 </r>
       <r>    -8.7852     0.0000     1.0000 </r>
       <r>    -8.7524     0.0000     1.0000 </r>
       <r>    -8.7196     0.0000     1.0000 </r>
       <r>    -8.6868     0.0000     1.0000 </r>
       <r>    -8.6540     0.0000     1.0000 </r>
       <r>    -8.6212     0.0000     1.0000 </r>
       <r>    -8.5883     0.0000     1.0000 </r>
       <r>    -8.5555     0.0000     1.0000 </r>
       <r>    -8.5227     0.0000     1.0000 </r>
       <r>    -8.4899     0.0000     2.0000 </r>
       <r>    -8.4571     0.0000     2.0000 </r>
       <r>    -8.4243     0.0000     2.0000 </r>
       <r>    -8.3915     0.0000     2.0000 </r>
       <r>    -8.3587     0.0000     2.0000 </r>
       <r>    -8.3259     0.0000     2.0000 </r>
       <r>    -8.2930     0.0000     2.0000 </r>
       <r>    -8.2602     0.0000     2.0000 </r>
       <r>    -8.2274     0.0000     2.0000 </r>
       <r>    -8.1946     0.0000     3.0000 </r>
       <r>    -8.1618     0.0000     4.0000 </r>
       <r>    -8.1290     0.0000     4.0000 </r>
       <r>    -8.0962     0.0000     4.0000 </r>
       <r>    -8.0634     0.0000     4.0000 </r>
       <r>    -8.0306     0.0000     4.0000 </r>
       <r>    -7.9978     0.0000     4.0000 </r>
       <r>    -7.9649     0.0000     4.0000 </r>
       <r>    -7.9321     0.0000     4.0000 </r>
       <r>    -7.8993     0.0000     4.0000 </r>
       <r>    -7.8665     0.0000     5.0000 </r>
       <r>    -7.8337     0.0000     5.0000 </r>
       <r>    -7.8009     0.0000     5.0000 </r>
       <r>    -7.7681     0.0000     6.0000 </r>
       <r>    -7.7353     0.0000     7.0000 </r>
       <r>    -7.7025     0.0000     7.0000 </r>
       <r>    -7.6697     0.0000     7.0000 </r>
       <r>    -7.6368     0.0000     7.0000 </r>
       <r>    -7.6040     0.0000     8.0000 </r>
       <r>    -7.5712     0.0000     8.0000 </r>
       <r>    -7.5384     0.0000     9.0000 </r>
       <r>    -7.5056     0.0000     9.0000 </r>
       <r>    -7.4728     0.0000    10.0000 </r>
       <r>    -7.4400     0.0000    10.0000 </r>
       <r>    -7.4072     0.0000    10.0000 </r>
       <r>    -7.3744     0.0000    11.0000 </r>
       <r>    -7.3416     0.0000    11.0000 </r>
       <r>    -7.3087     0.0000    12.0000 </r>
       <r>    -7.2759     0.0000    13.0000 </r>
       <r>    -7.2431     0.0000    13.0000 </r>
       <r>    -7.2103     0.0000    13.0000 </r>
       <r>    -7.1775     0.0000    13.0000 </r>
       <r>    -7.1447     0.0000    13.0000 </r>
       <r>    -7.1119     0.0000    14.0000 </r>
       <r>    -7.0791     0.0000    15.0000 </r>
       <r>    -7.0463     0.0000    16.0000 </r>
       <r>    -7.0135     0.0000    17.0000 </r>
       <r>    -6.9806     0.0000    17.0000 </r>
       <r>    -6.9478     0.0000    18.0000 </r>
       <r>    -6.9150     0.0000    20.0000 </r>
       <r>    -6.8822     0.0000    20.0000 </r>
       <r>    -6.8494     0.0000    20.0000 </r>
       <r>    -6.8166     0.0000    20.0000 </r>
       <r>    -6.7838     0.0000    21.0000 </r>
       <r>    -6.7510     0.0000    21.0000 </r>
       <r>    -6.7182     0.0000    21.0000 </r>
       <r>    -6.6854     0.0000    22.0000 </r>
       <r>    -6.6525     0.0000    22.0000 </r>
       <r>    -6.6197     0.0000    23.0000 </r>
       <r>    -6.5869     0.0000    23.0000 </r>
       <r>    -6.5541     0.0000    23.0000 </r>
       <r>    -6.5213     0.0000    23.0000 </r>
       <r>    -6.4885     0.0000    24.0000 </r>
       <r>    -6.4557     0.0000    24.0000 </r>
       <r>    -6.4229     0.0000    24.0000 </r>
       <r>    -6.3901     0.0000    25.0000 </r>
       <r>    -6.3573     0.0000    25.0000 </r>
       <r>    -6.3244     0.0000    25.0000 </r>
       <r>    -6.2916     0.0000    25.0000 </r>
       <r>    -6.2588     0.0000    25.0000 </r>
       <r>    -6.2260     0.0000    25.0000 </r>
       <r>    -6.1932     0.0000    25.0000 </r>
       <r>    -6.1604     0.0000    25.0000 </r>
       <r>    -6.1276     0.0000    25.0000 </r>
       <r>    -6.0948     0.0000    25.0000 </r>
       <r>    -6.0620     0.0000    25.0000 </r>
       <r>    -6.0291     0.0000    25.0000 </r>
       <r>    -5.9963     0.0000    26.0000 </r>
       <r>    -5.9635     0.0000    26.0000 </r>
       <r>    -5.9307     0.0000    26.0000 </r>
       <r>    -5.8979     0.0000    26.0000 </r>
       <r>    -5.8651     0.0000    26.0000 </r>
       <r>    -5.8323     0.0000    26.0000 </r>
       <r>    -5.7995     0.0000    26.0000 </r>
       <r>    -5.7667     0.0000    26.0000 </r>
       <r>    -5.7339     0.0000    26.0000 </r>
       <r>    -5.7010     0.0000    26.0000 </r>
       <r>    -5.6682     0.0000    26.0000 </r>
       <r>    -5.6354     0.0000    26.0000 </r>
       <r>    -5.6026     0.0000    26.0000 </r>
       <r>    -5.5698     0.0000    26.0000 </r>
       <r>    -5.5370     0.0000    26.0000 </r>
       <r>    -5.5042     0.0000    26.0000 </r>
       <r>    -5.4714     0.0000    26.0000 </r>
       <r>    -5.4386     0.0000    26.0000 </r>
       <r>    -5.4058     0.0000    26.0000 </r>
       <r>    -5.3729     0.0000    26.0000 </r>
       <r>    -5.3401     0.0000    26.0000 </r>
       <r>    -5.3073     0.0000    26.0000 </r>
       <r>    -5.2745     0.0000    26.0000 </r>
       <r>    -5.2417     0.0000    26.0000 </r>
       <r>    -5.2089     0.0000    26.0000 </r>
       <r>    -5.1761     0.0000    26.0000 </r>
       <r>    -5.1433     0.0000    26.0000 </r>
       <r>    -5.1105     0.0000    26.0000 </r>
       <r>    -5.0777     0.0000    26.0000 </r>
       <r>    -5.0448     0.0000    26.0000 </r>
       <r>    -5.0120     0.0000    26.0000 </r>
       <r>    -4.9792     0.0000    26.0000 </r>
       <r>    -4.9464     0.0000    26.0000 </r>
       <r>    -4.9136     0.0000    26.0000 </r>
       <r>    -4.8808     0.0000    26.0000 </r>
       <r>    -4.8480     0.0000    26.0000 </r>
       <r>    -4.8152     0.0000    26.0000 </r>
       <r>    -4.7824     0.0000    26.0000 </r>
       <r>    -4.7496     0.0000    26.0000 </r>
       <r>    -4.7167     0.0000    26.0000 </r>
       <r>    -4.6839     0.0000    27.0000 </r>
       <r>    -4.6511     0.0000    27.0000 </r>
       <r>    -4.6183     0.0000    27.0000 </r>
       <r>    -4.5855     0.0000    27.0000 </r>
       <r>    -4.5527     0.0000    27.0000 </r>
       <r>    -4.5199     0.0000    27.0000 </r>
       <r>    -4.4871     0.0000    27.0000 </r>
       <r>    -4.4543     0.0000    27.0000 </r>
       <r>    -4.4215     0.0000    27.0000 </r>
       <r>    -4.3886     0.0000    27.0000 </r>
       <r>    -4.3558     0.0000    27.0000 </r>
       <r>    -4.3230     0.0000    28.0000 </r>
       <r>    -4.2902     0.0000    28.0000 </r>
       <r>    -4.2574     0.0000    28.0000 </r>
       <r>    -4.2246     0.0000    28.0000 </r>
       <r>    -4.1918     0.0000    28.0000 </r>
       <r>    -4.1590     0.0000    28.0000 </r>
       <r>    -4.1262     0.0000    28.0000 </r>
       <r>    -4.0933     0.0000    28.0000 </r>
       <r>    -4.0605     0.0000    28.0000 </r>
       <r>    -4.0277     0.0000    28.0000 </r>
       <r>    -3.9949     0.0000    28.0000 </r>
       <r>    -3.9621     0.0000    28.0000 </r>
       <r>    -3.9293     0.0000    28.0000 </r>
       <r>    -3.8965     0.0000    28.0000 </r>
       <r>    -3.8637     0.0000    28.0000 </r>
       <r>    -3.8309     0.0000    28.0000 </r>
       <r>    -3.7981     0.0000    28.0000 </r>
       <r>    -3.7652     0.0000    28.0000 </r>
       <r>    -3.7324     0.0000    28.0000 </r>
       <r>    -3.6996     0.0000    28.0000 </r>
       <r>    -3.6668     0.0000    28.0000 </r>
       <r>    -3.6340     0.0000    28.0000 </r>
       <r>    -3.6012     0.0000    28.0000 </r>
       <r>    -3.5684     0.0000    28.0000 </r>
       <r>    -3.5356     0.0000    28.0000 </r>
       <r>    -3.5028     0.0000    28.0000 </r>
       <r>    -3.4700     0.0000    28.0000 </r>
       <r>    -3.4371     0.0000    28.0000 </r>
       <r>    -3.4043     0.0000    28.0000 </r>
       <r>    -3.3715     0.0000    28.0000 </r>
       <r>    -3.3387     0.0000    28.0000 </r>
       <r>    -3.3059     0.0000    28.0000 </r>
       <r>    -3.2731     0.0000    28.0000 </r>
       <r>    -3.2403     0.0000    28.0000 </r>
       <r>    -3.2075     0.0000    28.0000 </r>
       <r>    -3.1747     0.0000    28.0000 </r>
       <r>    -3.1419     0.0000    28.0000 </r>
       <r>    -3.1090     0.0000    28.0000 </r>
       <r>    -3.0762     0.0000    28.0000 </r>
       <r>    -3.0434     0.0000    28.0000 </r>
       <r>    -3.0106     0.0000    28.0000 </r>
       <r>    -2.9778     0.0000    28.0000 </r>
       <r>    -2.9450     0.0000    28.0000 </r>
       <r>    -2.9122     0.0000    28.0000 </r>
       <r>    -2.8794     0.0000    28.0000 </r>
       <r>    -2.8466     0.0000    28.0000 </r>
       <r>    -2.8138     0.0000    28.0000 </r>
       <r>    -2.7809     0.0000    28.0000 </r>
       <r>    -2.7481     0.0000    28.0000 </r>
       <r>    -2.7153     0.0000    29.0000 </r>
       <r>    -2.6825     0.0000    29.0000 </r>
       <r>    -2.6497     0.0000    29.0000 </r>
       <r>    -2.6169     0.0000    29.0000 </r>
       <r>    -2.5841     0.0000    29.0000 </r>
       <r>    -2.5513     0.0000    29.0000 </r>
       <r>    -2.5185     0.0000    29.0000 </r>
       <r>    -2.4857     0.0000    29.0000 </r>
       <r>    -2.4528     0.0000    29.0000 </r>
       <r>    -2.4200     0.0000    29.0000 </r>
       <r>    -2.3872     0.0000    29.0000 </r>
       <r>    -2.3544     0.0000    29.0000 </r>
       <r>    -2.3216     0.0000    29.0000 </r>
       <r>    -2.2888     0.0000    29.0000 </r>
       <r>    -2.2560     0.0000    29.0000 </r>
       <r>    -2.2232     0.0000    30.0000 </r>
       <r>    -2.1904     0.0000    30.0000 </r>
       <r>    -2.1576     0.0000    30.0000 </r>
       <r>    -2.1247     0.0000    30.0000 </r>
       <r>    -2.0919     0.0000    30.0000 </r>
       <r>    -2.0591     0.0000    30.0000 </r>
       <r>    -2.0263     0.0000    30.0000 </r>
       <r>    -1.9935     0.0000    30.0000 </r>
       <r>    -1.9607     0.0000    30.0000 </r>
       <r>    -1.9279     0.0000    30.0000 </r>
       <r>    -1.8951     0.0000    30.0000 </r>
       <r>    -1.8623     0.0000    30.0000 </r>
       <r>    -1.8294     0.0000    30.0000 </r>
       <r>    -1.7966     0.0000    30.0000 </r>
       <r>    -1.7638     0.0000    30.0000 </r>
       <r>    -1.7310     0.0000    30.0000 </r>
       <r>    -1.6982     0.0000    30.0000 </r>
       <r>    -1.6654     0.0000    30.0000 </r>
       <r>    -1.6326     0.0000    30.0000 </r>
       <r>    -1.5998     0.0000    30.0000 </r>
       <r>    -1.5670     0.0000    30.0000 </r>
       <r>    -1.5342     0.0000    30.0000 </r>
       <r>    -1.5013     0.0000    31.0000 </r>
       <r>    -1.4685     0.0000    31.0000 </r>
       <r>    -1.4357     0.0000    31.0000 </r>
       <r>    -1.4029     0.0000    31.0000 </r>
       <r>    -1.3701     0.0000    31.0000 </r>
       <r>    -1.3373     0.0000    31.0000 </r>
       <r>    -1.3045     0.0000    31.0000 </r>
       <r>    -1.2717     0.0000    31.0000 </r>
       <r>    -1.2389     0.0000    31.0000 </r>
       <r>    -1.2061     0.0000    31.0000 </r>
       <r>    -1.1732     0.0000    31.0000 </r>
       <r>    -1.1404     0.0000    31.0000 </r>
       <r>    -1.1076     0.0000    31.0000 </r>
       <r>    -1.0748     0.0000    31.0000 </r>
       <r>    -1.0420     0.0000    31.0000 </r>
       <r>    -1.0092     0.0000    31.0000 </r>
       <r>    -0.9764     0.0000    31.0000 </r>
       <r>    -0.9436     0.0000    31.0000 </r>
       <r>    -0.9108     0.0000    31.0000 </r>
       <r>    -0.8780     0.0000    32.0000 </r>
       <r>    -0.8451     0.0000    32.0000 </r>
       <r>    -0.8123     0.0000    32.0000 </r>
       <r>    -0.7795     0.0000    32.0000 </r>
       <r>    -0.7467     0.0000    32.0000 </r>
       <r>    -0.7139     0.0000    32.0000 </r>
       <r>    -0.6811     0.0000    33.0000 </r>
       <r>    -0.6483     0.0000    33.0000 </r>
       <r>    -0.6155     0.0000    34.0000 </r>
       <r>    -0.5827     0.0000    34.0000 </r>
       <r>    -0.5499     0.0000    34.0000 </r>
       <r>    -0.5170     0.0000    34.0000 </r>
       <r>    -0.4842     0.0000    35.0000 </r>
       <r>    -0.4514     0.0000    35.0000 </r>
       <r>    -0.4186     0.0000    35.0000 </r>
       <r>    -0.3858     0.0000    35.0000 </r>
       <r>    -0.3530     0.0000    35.0000 </r>
       <r>    -0.3202     0.0000    35.0000 </r>
       <r>    -0.2874     0.0000    35.0000 </r>
       <r>    -0.2546     0.0000    35.0000 </r>
       <r>    -0.2218     0.0000    35.0000 </r>
       <r>    -0.1889     0.0000    35.0000 </r>
       <r>    -0.1561     0.0000    35.0000 </r>
       <r>    -0.1233     0.0000    35.0000 </r>
       <r>    -0.0905     0.0000    36.0000 </r>
       <r>    -0.0577     0.0000    36.0000 </r>
       <r>    -0.0249     0.0000    36.0000 </r>
       <r>     0.0079     0.0000    36.0000 </r>
       <r>     0.0407     0.0000    36.0000 </r>
       <r>     0.0735     0.0000    36.0000 </r>
       <r>     0.1064     0.0000    36.0000 </r>
       <r>     0.1392     0.0000    36.0000 </r>
       <r>     0.1720     0.0000    36.0000 </r>
       <r>     0.2048     0.0000    36.0000 </r>
       <r>     0.2376     0.0000    36.0000 </r>
       <r>     0.2704     0.0000    36.0000 </r>
       <r>     0.3032     0.0000    36.0000 </r>
       <r>     0.3360     0.0000    36.0000 </r>
      </set>
     </set>
    </array>
   </total>
  </dos>
 </calculation>
 <structure name="finalpos" >
  <crystal>
   <varray name="basis" >
    <v>      17.71556700       0.00000000       0.00000000 </v>
    <v>       0.00000000      17.71556700       0.00000000 </v>
    <v>       0.00000000       0.00000000      17.71556700 </v>
   </varray>
   <i name="volume">   5559.87682401 </i>
   <varray name="rec_basis" >
    <v>       0.05644753       0.00000000       0.00000000 </v>
    <v>       0.00000000       0.05644753       0.00000000 </v>
    <v>       0.00000000       0.00000000       0.05644753 </v>
   </varray>
  </crystal>
  <varray name="positions" >
   <v>       0.78370308       0.61760600       0.77009390 </v>
   <v>       0.58049734       0.63621566       0.56298742 </v>
   <v>       0.61202883       0.61319524       0.42013892 </v>
   <v>       0.50367732       0.64155442       0.69349529 </v>
   <v>       0.65456349       0.64001669       0.70080521 </v>
  </varray>
 </structure>
</modeling>
