unknown system                          
           1
    21.921329    0.000000    0.000000
     0.000000   21.921329    0.000000
     0.000000    0.000000   21.921329
   Ag
  31
Direct configuration=     1
   0.47470660  0.55525575  0.29732356
   0.42148897  0.44162370  0.34199956
   0.54731007  0.45222822  0.31907207
   0.51589222  0.39424265  0.42998577
   0.37659679  0.55776945  0.37451026
   0.39889565  0.42404021  0.46190470
   0.59753989  0.57121428  0.34761324
   0.38256444  0.53977419  0.50403080
   0.48898293  0.52235635  0.42061365
   0.69926346  0.56185684  0.43849355
   0.37547447  0.65983600  0.44340176
   0.61086010  0.47426588  0.43266509
   0.47756509  0.35648885  0.54312138
   0.39404804  0.43973765  0.58818952
   0.49198237  0.64712492  0.38684900
   0.36633064  0.65673491  0.56699960
   0.47636605  0.63198220  0.51508264
   0.58367370  0.60095425  0.47239354
   0.51128540  0.49130428  0.54082078
   0.59714345  0.39761826  0.52739592
   0.42905292  0.55602640  0.61856517
   0.72018581  0.44027972  0.49675597
   0.43758698  0.33875484  0.66179437
   0.64429776  0.52502199  0.55213005
   0.55826574  0.37724112  0.64510060
   0.46907742  0.67580095  0.64059578
   0.46963246  0.45892336  0.68914900
   0.56279315  0.60489767  0.59998881
   0.67898295  0.41888803  0.62178267
   0.58895464  0.49999055  0.66195545
   0.50586704  0.57934296  0.71504337
Direct configuration=     2
   0.47477161  0.55528313  0.29719656
   0.42157395  0.44166954  0.34194214
   0.54733993  0.45226399  0.31914172
   0.51581926  0.39413648  0.42982359
   0.37652002  0.55769000  0.37448840
   0.39884298  0.42396779  0.46196701
   0.59746978  0.57122728  0.34765518
   0.38250078  0.53989577  0.50393360
   0.48895655  0.52238403  0.42053220
   0.69922819  0.56187720  0.43845241
   0.37546142  0.65991217  0.44334736
   0.61098826  0.47436660  0.43248998
   0.47752584  0.35647542  0.54316508
   0.39398379  0.43962137  0.58820328
   0.49198533  0.64709437  0.38688817
   0.36621778  0.65671892  0.56703934
   0.47616873  0.63207200  0.51501060
   0.58379799  0.60095817  0.47220895
   0.51127629  0.49131786  0.54083049
   0.59733822  0.39749333  0.52749769
   0.42904499  0.55618575  0.61869719
   0.72009791  0.44026184  0.49685220
   0.43758430  0.33883565  0.66178805
   0.64446163  0.52489380  0.55213238
   0.55825845  0.37718545  0.64516053
   0.46902765  0.67584644  0.64063268
   0.46965157  0.45887749  0.68924089
   0.56285418  0.60490793  0.60012080
   0.67899599  0.41890223  0.62173908
   0.58898968  0.49991084  0.66204592
   0.50593412  0.57934360  0.71510419
Direct configuration=     3
   0.47496662  0.55536528  0.29681559
   0.42182888  0.44180705  0.34176985
   0.54742950  0.45237132  0.31935068
   0.51560037  0.39381797  0.42933707
   0.37628971  0.55745164  0.37442282
   0.39868498  0.42375052  0.46215396
   0.59725946  0.57126628  0.34778099
   0.38230979  0.54026052  0.50364202
   0.48887740  0.52246707  0.42028784
   0.69912239  0.56193827  0.43832899
   0.37542228  0.66014069  0.44318417
   0.61137276  0.47466875  0.43196462
   0.47740811  0.35643514  0.54329619
   0.39379103  0.43927253  0.58824454
   0.49199419  0.64700273  0.38700568
   0.36587920  0.65667096  0.56715855
   0.47557678  0.63234140  0.51479448
   0.58417087  0.60096994  0.47165518
   0.51124897  0.49135859  0.54085962
   0.59792251  0.39711856  0.52780300
   0.42902120  0.55666377  0.61909325
   0.71983420  0.44020817  0.49714088
   0.43757629  0.33907806  0.66176906
   0.64495325  0.52450925  0.55213939
   0.55823659  0.37701844  0.64534029
   0.46887834  0.67598289  0.64074336
   0.46970890  0.45873988  0.68951654
   0.56303729  0.60493871  0.60051674
   0.67903512  0.41894482  0.62160831
   0.58909483  0.49967174  0.66231734
   0.50613537  0.57934552  0.71528664
Direct configuration=     4
   0.47535665  0.55552958  0.29605364
   0.42233875  0.44208207  0.34142529
   0.54760864  0.45258597  0.31976860
   0.51516259  0.39318093  0.42836402
   0.37582908  0.55697492  0.37429166
   0.39836898  0.42331599  0.46252785
   0.59683881  0.57134429  0.34803261
   0.38192783  0.54099002  0.50305885
   0.48871911  0.52263313  0.41979911
   0.69891079  0.56206040  0.43808215
   0.37534399  0.66059771  0.44285779
   0.61214175  0.47527304  0.43091390
   0.47717264  0.35635457  0.54355840
   0.39340552  0.43857485  0.58832708
   0.49201191  0.64681945  0.38724071
   0.36520205  0.65657503  0.56739698
   0.47439288  0.63288021  0.51436224
   0.58491662  0.60099347  0.47054763
   0.51119433  0.49144006  0.54091787
   0.59909109  0.39636902  0.52841361
   0.42897363  0.55761983  0.61988538
   0.71930680  0.44010083  0.49771824
   0.43756025  0.33956287  0.66173109
   0.64593647  0.52374015  0.55215341
   0.55819287  0.37668441  0.64569983
   0.46857973  0.67625580  0.64096473
   0.46982357  0.45846466  0.69006785
   0.56340351  0.60500028  0.60130864
   0.67911338  0.41903001  0.62134678
   0.58930511  0.49919353  0.66286017
   0.50653787  0.57934935  0.71565154
Direct configuration=     5
   0.47613670  0.55585819  0.29452973
   0.42335848  0.44263211  0.34073615
   0.54796692  0.45301528  0.32060444
   0.51428703  0.39190687  0.42641793
   0.37490781  0.55602148  0.37402934
   0.39773699  0.42244692  0.46327565
   0.59599752  0.57150030  0.34853586
   0.38116390  0.54244902  0.50189252
   0.48840253  0.52296527  0.41882165
   0.69848757  0.56230468  0.43758847
   0.37518741  0.66151176  0.44220503
   0.61367974  0.47648163  0.42881247
   0.47670169  0.35619343  0.54408283
   0.39263451  0.43717948  0.58849214
   0.49204735  0.64645289  0.38771075
   0.36384774  0.65638317  0.56787385
   0.47202507  0.63395783  0.51349777
   0.58640813  0.60104054  0.46833253
   0.51108504  0.49160299  0.54103437
   0.60142826  0.39486994  0.52963484
   0.42887847  0.55953194  0.62146964
   0.71825200  0.43988616  0.49887296
   0.43752818  0.34053251  0.66165515
   0.64790293  0.52220196  0.55218146
   0.55810543  0.37601636  0.64641890
   0.46798250  0.67680163  0.64140748
   0.47005291  0.45791421  0.69117048
   0.56413594  0.60512341  0.60289242
   0.67926990  0.41920038  0.62082370
   0.58972568  0.49823710  0.66394582
   0.50734287  0.57935702  0.71638134
Direct configuration=     6
   0.47557917  0.55562332  0.29561892
   0.42262964  0.44223897  0.34122870
   0.54771084  0.45270844  0.32000703
   0.51491283  0.39281749  0.42780888
   0.37556627  0.55670294  0.37421683
   0.39818870  0.42306808  0.46274117
   0.59659882  0.57138879  0.34817617
   0.38170991  0.54140622  0.50272614
   0.48862881  0.52272788  0.41952027
   0.69879006  0.56213009  0.43794132
   0.37529932  0.66085845  0.44267158
   0.61258048  0.47561780  0.43031445
   0.47703829  0.35630860  0.54370800
   0.39318558  0.43817680  0.58837416
   0.49202202  0.64671489  0.38737479
   0.36481572  0.65652030  0.56753301
   0.47371743  0.63318762  0.51411564
   0.58534209  0.60100690  0.46991575
   0.51116315  0.49148654  0.54095110
   0.59975779  0.39594139  0.52876198
   0.42894648  0.55816528  0.62033731
   0.71900591  0.44003960  0.49804764
   0.43755110  0.33983947  0.66170942
   0.64649743  0.52330136  0.55216141
   0.55816793  0.37649384  0.64590495
   0.46840936  0.67641151  0.64109103
   0.46988899  0.45830764  0.69038239
   0.56361244  0.60503540  0.60176043
   0.67915803  0.41907861  0.62119756
   0.58942508  0.49892070  0.66316986
   0.50676751  0.57935154  0.71585972
Direct configuration=     7
   0.47571585  0.55577183  0.29519395
   0.42285237  0.44235248  0.34113402
   0.54790308  0.45284230  0.32013166
   0.51490148  0.39259486  0.42763671
   0.37534675  0.55647641  0.37404260
   0.39807660  0.42295010  0.46283249
   0.59635612  0.57156249  0.34798551
   0.38157382  0.54162461  0.50260784
   0.48855964  0.52269876  0.41939431
   0.69903926  0.56231994  0.43775589
   0.37508297  0.66114565  0.44234743
   0.61265186  0.47529562  0.43007390
   0.47720572  0.35636977  0.54361989
   0.39301885  0.43820639  0.58849547
   0.49201170  0.64665082  0.38743014
   0.36430274  0.65648872  0.56765660
   0.47389040  0.63325905  0.51403462
   0.58515064  0.60117534  0.47003811
   0.51119588  0.49152707  0.54094331
   0.59987989  0.39566389  0.52852533
   0.42884522  0.55827166  0.62055673
   0.71896334  0.43978449  0.49821265
   0.43745263  0.34002930  0.66179342
   0.64654372  0.52330505  0.55231113
   0.55819811  0.37627334  0.64609915
   0.46828597  0.67659229  0.64120709
   0.46991268  0.45834288  0.69062999
   0.56376803  0.60491493  0.60175226
   0.67937334  0.41904900  0.62135753
   0.58955591  0.49869463  0.66340489
   0.50705260  0.57934282  0.71612306
Direct configuration=     8
   0.47612592  0.55621735  0.29391901
   0.42352059  0.44269298  0.34084998
   0.54847978  0.45324388  0.32050552
   0.51486744  0.39192696  0.42712019
   0.37468818  0.55579682  0.37351988
   0.39774032  0.42259616  0.46310644
   0.59562802  0.57208356  0.34741352
   0.38116556  0.54227978  0.50225295
   0.48835215  0.52261142  0.41901640
   0.69978687  0.56288949  0.43719959
   0.37443390  0.66200724  0.44137499
   0.61286601  0.47432906  0.42935225
   0.47770799  0.35655328  0.54335555
   0.39251866  0.43829516  0.58885938
   0.49198075  0.64645863  0.38759617
   0.36276382  0.65639397  0.56802738
   0.47440928  0.63347336  0.51379154
   0.58457627  0.60168065  0.47040520
   0.51129405  0.49164866  0.54091992
   0.60024618  0.39483138  0.52781537
   0.42854141  0.55859081  0.62121497
   0.71883565  0.43901917  0.49870768
   0.43715723  0.34059876  0.66204540
   0.64668260  0.52331610  0.55276029
   0.55828866  0.37561183  0.64668177
   0.46791579  0.67713464  0.64155527
   0.46998375  0.45844859  0.69137279
   0.56423480  0.60455350  0.60172775
   0.68001926  0.41896018  0.62183743
   0.58994838  0.49801644  0.66410998
   0.50790788  0.57931665  0.71691308
Direct configuration=     9
   0.47623247  0.55633312  0.29358772
   0.42369423  0.44278146  0.34077617
   0.54862964  0.45334823  0.32060267
   0.51485859  0.39175340  0.42698598
   0.37451706  0.55562023  0.37338405
   0.39765294  0.42250419  0.46317762
   0.59543882  0.57221896  0.34726489
   0.38105948  0.54245002  0.50216073
   0.48829823  0.52258872  0.41891820
   0.69998113  0.56303749  0.43705503
   0.37426525  0.66223112  0.44112230
   0.61292165  0.47407790  0.42916473
   0.47783851  0.35660096  0.54328686
   0.39238869  0.43831823  0.58895394
   0.49197271  0.64640869  0.38763931
   0.36236394  0.65636935  0.56812372
   0.47454412  0.63352905  0.51372837
   0.58442703  0.60181195  0.47050059
   0.51131957  0.49168026  0.54091385
   0.60034136  0.39461505  0.52763089
   0.42846247  0.55867374  0.62138602
   0.71880247  0.43882030  0.49883632
   0.43708047  0.34074674  0.66211088
   0.64671868  0.52331897  0.55287701
   0.55831219  0.37543994  0.64683316
   0.46781960  0.67727557  0.64164574
   0.47000222  0.45847606  0.69156580
   0.56435609  0.60445959  0.60172138
   0.68018710  0.41893710  0.62196214
   0.59005036  0.49784021  0.66429319
   0.50813012  0.57930985  0.71711836
Direct configuration=    10
   0.47623107  0.55652077  0.29326175
   0.42391593  0.44281340  0.34075055
   0.54892531  0.45353530  0.32050668
   0.51484706  0.39156346  0.42696742
   0.37440892  0.55553576  0.37311672
   0.39768964  0.42260071  0.46315873
   0.59523900  0.57249584  0.34719472
   0.38107789  0.54264459  0.50217920
   0.48821676  0.52247763  0.41885343
   0.69971531  0.56309589  0.43692723
   0.37411007  0.66231856  0.44088930
   0.61323663  0.47388101  0.42919902
   0.47809684  0.35687335  0.54328748
   0.39238868  0.43866539  0.58909174
   0.49182003  0.64637757  0.38753187
   0.36212101  0.65614886  0.56789194
   0.47415469  0.63369191  0.51411595
   0.58463387  0.60157811  0.47070778
   0.51138345  0.49173267  0.54088522
   0.60020942  0.39437633  0.52742152
   0.42838595  0.55864136  0.62146473
   0.71881554  0.43847419  0.49895021
   0.43690478  0.34100691  0.66215477
   0.64658825  0.52339420  0.55281214
   0.55849756  0.37522340  0.64688046
   0.46776764  0.67715046  0.64164168
   0.47005436  0.45871332  0.69178107
   0.56418620  0.60429287  0.60177573
   0.68032268  0.41880028  0.62217670
   0.59019372  0.49760021  0.66455003
   0.50852892  0.57935212  0.71720189
Direct configuration=    11
   0.47622761  0.55698373  0.29245755
   0.42446289  0.44289218  0.34068732
   0.54965475  0.45399681  0.32026986
   0.51481860  0.39109486  0.42692162
   0.37414213  0.55532738  0.37245718
   0.39778020  0.42283885  0.46311213
   0.59474601  0.57317893  0.34702159
   0.38112333  0.54312461  0.50222477
   0.48801575  0.52220355  0.41869364
   0.69905952  0.56323997  0.43661194
   0.37372722  0.66253428  0.44031446
   0.61401371  0.47339526  0.42928361
   0.47873416  0.35754537  0.54328900
   0.39238865  0.43952188  0.58943172
   0.49144336  0.64630079  0.38726679
   0.36152167  0.65560491  0.56732012
   0.47319395  0.63409372  0.51507214
   0.58514417  0.60100121  0.47121893
   0.51154106  0.49186198  0.54081457
   0.59988392  0.39378737  0.52690498
   0.42819715  0.55856146  0.62165894
   0.71884777  0.43762030  0.49923119
   0.43647133  0.34164877  0.66226304
   0.64626648  0.52357980  0.55265211
   0.55895489  0.37468918  0.64699717
   0.46763944  0.67684179  0.64163165
   0.47018301  0.45929867  0.69231214
   0.56376706  0.60388157  0.60190981
   0.68065717  0.41846274  0.62270603
   0.59054739  0.49700812  0.66518367
   0.50951280  0.57945642  0.71740796
Direct configuration=    12
   0.47612370  0.55714285  0.29224575
   0.42485445  0.44283559  0.34058993
   0.55008144  0.45437200  0.32014712
   0.51492121  0.39109080  0.42666703
   0.37418560  0.55537287  0.37211914
   0.39800054  0.42325904  0.46314155
   0.59449385  0.57354579  0.34723931
   0.38123011  0.54317016  0.50206871
   0.48802856  0.52215564  0.41861169
   0.69867588  0.56328715  0.43635953
   0.37360439  0.66237274  0.43997670
   0.61429976  0.47318059  0.42924180
   0.47873099  0.35811202  0.54368944
   0.39260425  0.44002240  0.58946792
   0.49111394  0.64611442  0.38740069
   0.36104893  0.65529525  0.56694662
   0.47310506  0.63426359  0.51524124
   0.58451828  0.60069454  0.47156762
   0.51165119  0.49200596  0.54071606
   0.59998840  0.39356358  0.52699746
   0.42819998  0.55857569  0.62186558
   0.71874113  0.43713462  0.49955238
   0.43628898  0.34230794  0.66217516
   0.64624146  0.52314426  0.55263659
   0.55916122  0.37444930  0.64698189
   0.46754024  0.67650606  0.64160778
   0.47037545  0.45956867  0.69255330
   0.56328650  0.60348203  0.60208872
   0.68057870  0.41823582  0.62268301
   0.59088226  0.49671470  0.66541559
   0.51011073  0.57960038  0.71733235
Direct configuration=    13
   0.47581195  0.55762020  0.29161035
   0.42602912  0.44266582  0.34029779
   0.55136153  0.45549757  0.31977891
   0.51522905  0.39107864  0.42590326
   0.37431599  0.55550937  0.37110503
   0.39866155  0.42451961  0.46322983
   0.59373737  0.57464638  0.34789246
   0.38155044  0.54330682  0.50160051
   0.48806698  0.52201193  0.41836584
   0.69752495  0.56342868  0.43560230
   0.37323590  0.66188812  0.43896344
   0.61515791  0.47253658  0.42911635
   0.47872148  0.35981198  0.54489077
   0.39325103  0.44152394  0.58957652
   0.49012568  0.64555532  0.38780238
   0.35963070  0.65436627  0.56582611
   0.47283838  0.63477317  0.51574852
   0.58264062  0.59977453  0.47261368
   0.51198157  0.49243790  0.54042051
   0.60030184  0.39289220  0.52727489
   0.42820847  0.55861838  0.62248552
   0.71842119  0.43567757  0.50051595
   0.43574193  0.34428546  0.66191150
   0.64616641  0.52183763  0.55259004
   0.55978020  0.37372966  0.64693606
   0.46724264  0.67549885  0.64153616
   0.47095277  0.46037870  0.69327677
   0.56184481  0.60228340  0.60262542
   0.68034330  0.41755506  0.62261395
   0.59188689  0.49583446  0.66611133
   0.51190452  0.58003226  0.71710549
Direct configuration=    14
   0.47576420  0.55764796  0.29156237
   0.42654839  0.44254450  0.34000398
   0.55179269  0.45602832  0.31960206
   0.51551503  0.39124608  0.42581183
   0.37457110  0.55538608  0.37075344
   0.39925402  0.42498862  0.46317333
   0.59356069  0.57506043  0.34847667
   0.38174406  0.54344461  0.50128648
   0.48812445  0.52185008  0.41811890
   0.69691805  0.56378220  0.43539482
   0.37304733  0.66158905  0.43877592
   0.61512067  0.47213862  0.42897196
   0.47870712  0.36064452  0.54482048
   0.39331236  0.44223027  0.58947274
   0.48963790  0.64541392  0.38806122
   0.35906015  0.65398811  0.56555384
   0.47237213  0.63519830  0.51569191
   0.58198755  0.59908301  0.47296072
   0.51217710  0.49263118  0.54018735
   0.60024869  0.39266296  0.52729978
   0.42809921  0.55883905  0.62267693
   0.71858853  0.43493443  0.50068094
   0.43548134  0.34511742  0.66207337
   0.64588534  0.52143886  0.55266363
   0.55976463  0.37345952  0.64717123
   0.46679471  0.67558657  0.64156780
   0.47149045  0.46064125  0.69362086
   0.56183153  0.60120975  0.60253718
   0.68041844  0.41696212  0.62266302
   0.59239212  0.49565098  0.66633274
   0.51245719  0.58017769  0.71736016
Direct configuration=    15
   0.47573248  0.55766641  0.29153049
   0.42689331  0.44246392  0.33980882
   0.55207910  0.45638088  0.31948459
   0.51570500  0.39135731  0.42575109
   0.37474056  0.55530419  0.37051989
   0.39964758  0.42530017  0.46313581
   0.59344333  0.57533546  0.34886473
   0.38187267  0.54353613  0.50107787
   0.48816263  0.52174257  0.41795487
   0.69651492  0.56401703  0.43525700
   0.37292206  0.66139038  0.43865136
   0.61509593  0.47187428  0.42887604
   0.47869759  0.36119754  0.54477379
   0.39335310  0.44269947  0.58940381
   0.48931389  0.64531999  0.38823315
   0.35868115  0.65373691  0.56537298
   0.47206242  0.63548069  0.51565431
   0.58155375  0.59862366  0.47319124
   0.51230699  0.49275957  0.54003248
   0.60021338  0.39251068  0.52731632
   0.42802663  0.55898563  0.62280407
   0.71869969  0.43444080  0.50079053
   0.43530825  0.34567005  0.66218089
   0.64569863  0.52117397  0.55271251
   0.55975428  0.37328008  0.64732744
   0.46649717  0.67564484  0.64158882
   0.47184761  0.46081565  0.69384941
   0.56182270  0.60049657  0.60247857
   0.68046835  0.41656826  0.62269562
   0.59272773  0.49552911  0.66647982
   0.51282431  0.58027429  0.71752932
Direct configuration=    16
   0.47594503  0.55758327  0.29162468
   0.42690844  0.44228478  0.33951963
   0.55206125  0.45636640  0.31929681
   0.51589550  0.39136269  0.42583160
   0.37483263  0.55502765  0.37055810
   0.39989953  0.42525835  0.46287486
   0.59359066  0.57538563  0.34905086
   0.38191744  0.54366921  0.50100186
   0.48817467  0.52159238  0.41777463
   0.69626420  0.56429625  0.43543946
   0.37259440  0.66138872  0.43884498
   0.61511704  0.47182469  0.42896137
   0.47863732  0.36120928  0.54442159
   0.39310886  0.44284627  0.58935441
   0.48929378  0.64547079  0.38818618
   0.35853922  0.65374058  0.56571317
   0.47190021  0.63581115  0.51576120
   0.58161531  0.59836679  0.47321901
   0.51223034  0.49274839  0.53985542
   0.60015904  0.39254952  0.52728961
   0.42802825  0.55927017  0.62282321
   0.71879468  0.43436012  0.50057839
   0.43522387  0.34571476  0.66235978
   0.64594052  0.52083169  0.55248670
   0.55947977  0.37333427  0.64760529
   0.46646764  0.67593985  0.64155190
   0.47215078  0.46090177  0.69383489
   0.56171534  0.60049985  0.60234533
   0.68063555  0.41612123  0.62275626
   0.59295027  0.49548278  0.66665625
   0.51259563  0.58033720  0.71775022
Direct configuration=    17
   0.47617320  0.55749402  0.29172578
   0.42692468  0.44209247  0.33920918
   0.55204209  0.45635086  0.31909522
   0.51610000  0.39136847  0.42591803
   0.37493148  0.55473078  0.37059911
   0.40017001  0.42521345  0.46259474
   0.59374883  0.57543948  0.34925068
   0.38196551  0.54381206  0.50092025
   0.48818760  0.52143116  0.41758115
   0.69599505  0.56459599  0.43563534
   0.37224266  0.66138693  0.43905283
   0.61513970  0.47177146  0.42905296
   0.47857263  0.36122188  0.54404349
   0.39284668  0.44300387  0.58930138
   0.48927220  0.64563267  0.38813576
   0.35838685  0.65374452  0.56607838
   0.47172607  0.63616590  0.51587596
   0.58168139  0.59809104  0.47324882
   0.51214806  0.49273639  0.53966535
   0.60010071  0.39259121  0.52726094
   0.42802998  0.55957564  0.62284375
   0.71889667  0.43427351  0.50035065
   0.43513329  0.34576274  0.66255182
   0.64620018  0.52046425  0.55224428
   0.55918507  0.37339244  0.64790357
   0.46643594  0.67625653  0.64151226
   0.47247623  0.46099421  0.69381929
   0.56160009  0.60050338  0.60220231
   0.68081503  0.41564134  0.62282135
   0.59318916  0.49543304  0.66684566
   0.51235013  0.58040474  0.71798735
Direct configuration=    18
   0.47650231  0.55744336  0.29182441
   0.42692400  0.44176220  0.33878545
   0.55207693  0.45615680  0.31896758
   0.51639234  0.39128523  0.42571090
   0.37496725  0.55447653  0.37078565
   0.40023161  0.42527444  0.46229278
   0.59393593  0.57537401  0.34927408
   0.38206677  0.54386838  0.50092869
   0.48826975  0.52136531  0.41733179
   0.69607060  0.56495495  0.43588542
   0.37185778  0.66128362  0.43932779
   0.61519810  0.47183200  0.42896862
   0.47826137  0.36105219  0.54413101
   0.39274830  0.44304352  0.58921218
   0.48922654  0.64571398  0.38826036
   0.35820718  0.65384599  0.56660164
   0.47185326  0.63661682  0.51579163
   0.58119109  0.59808048  0.47352573
   0.51194544  0.49271646  0.53951238
   0.60014293  0.39264666  0.52757445
   0.42811419  0.55971847  0.62283584
   0.71908898  0.43407484  0.50002460
   0.43507537  0.34586653  0.66250620
   0.64625624  0.52017562  0.55238917
   0.55891946  0.37356295  0.64803274
   0.46660192  0.67668408  0.64153107
   0.47262971  0.46110588  0.69357650
   0.56152162  0.60037961  0.60216506
   0.68081708  0.41511097  0.62277010
   0.59356481  0.49561022  0.66682682
   0.51200835  0.58049434  0.71797701
Direct configuration=    19
   0.47677684  0.55740111  0.29190669
   0.42692344  0.44148671  0.33843200
   0.55210598  0.45599494  0.31886112
   0.51663618  0.39121581  0.42553813
   0.37499708  0.55426445  0.37094125
   0.40028300  0.42532531  0.46204090
   0.59409199  0.57531939  0.34929360
   0.38215123  0.54391536  0.50093573
   0.48833827  0.52131039  0.41712379
   0.69613361  0.56525437  0.43609401
   0.37153674  0.66119743  0.43955715
   0.61524681  0.47188249  0.42889827
   0.47800173  0.36091064  0.54420401
   0.39266623  0.44307660  0.58913778
   0.48918845  0.64578181  0.38836429
   0.35805731  0.65393062  0.56703811
   0.47195936  0.63699295  0.51572129
   0.58078212  0.59807168  0.47375672
   0.51177642  0.49269984  0.53938478
   0.60017815  0.39269291  0.52783596
   0.42818443  0.55983760  0.62282924
   0.71924940  0.43390912  0.49975264
   0.43502705  0.34595310  0.66246814
   0.64630300  0.51993487  0.55251003
   0.55869790  0.37370517  0.64814048
   0.46674037  0.67704071  0.64154675
   0.47275773  0.46119903  0.69337398
   0.56145617  0.60027637  0.60213400
   0.68081879  0.41466858  0.62272735
   0.59387815  0.49575801  0.66681110
   0.51172325  0.58056908  0.71796838
Direct configuration=    20
   0.47704399  0.55741502  0.29199779
   0.42703304  0.44117677  0.33804689
   0.55227376  0.45570095  0.31877319
   0.51681076  0.39100746  0.42544761
   0.37507884  0.55401304  0.37114278
   0.40036803  0.42549915  0.46174201
   0.59427069  0.57520562  0.34941036
   0.38240758  0.54404702  0.50116125
   0.48845764  0.52110986  0.41678160
   0.69599610  0.56557830  0.43655317
   0.37122772  0.66089998  0.43993589
   0.61552177  0.47211180  0.42890054
   0.47779123  0.36078461  0.54417829
   0.39269026  0.44316197  0.58890967
   0.48900583  0.64574860  0.38854818
   0.35816714  0.65396278  0.56740604
   0.47148112  0.63779005  0.51590599
   0.58064661  0.59785794  0.47383971
   0.51149766  0.49256890  0.53922660
   0.59998408  0.39283376  0.52802464
   0.42829395  0.56002583  0.62267040
   0.71925954  0.43369812  0.49953433
   0.43485061  0.34606329  0.66238643
   0.64624027  0.51969987  0.55260348
   0.55860947  0.37399032  0.64815461
   0.46703984  0.67730109  0.64152010
   0.47278578  0.46139909  0.69295375
   0.56130386  0.60009860  0.60231616
   0.68075465  0.41412707  0.62265630
   0.59425226  0.49602227  0.66685091
   0.51152310  0.58067730  0.71774895
Direct configuration=    21
   0.47721337  0.55742384  0.29205556
   0.42710253  0.44098026  0.33780272
   0.55238013  0.45551456  0.31871745
   0.51692145  0.39087537  0.42539022
   0.37513067  0.55385364  0.37127056
   0.40042193  0.42560937  0.46155251
   0.59438400  0.57513348  0.34948439
   0.38257011  0.54413050  0.50130423
   0.48853333  0.52098272  0.41656463
   0.69590892  0.56578368  0.43684430
   0.37103179  0.66071139  0.44017603
   0.61569609  0.47225720  0.42890199
   0.47765777  0.36070471  0.54416198
   0.39270550  0.44321610  0.58876504
   0.48889005  0.64572754  0.38866478
   0.35823677  0.65398317  0.56763931
   0.47117791  0.63829543  0.51602310
   0.58056069  0.59772243  0.47389234
   0.51132091  0.49248588  0.53912631
   0.59986104  0.39292306  0.52814427
   0.42836338  0.56014517  0.62256969
   0.71926596  0.43356435  0.49939592
   0.43473875  0.34613316  0.66233463
   0.64620050  0.51955088  0.55266273
   0.55855340  0.37417112  0.64816356
   0.46722971  0.67746617  0.64150321
   0.47280357  0.46152593  0.69268731
   0.56120729  0.59998590  0.60243166
   0.68071398  0.41378374  0.62261125
   0.59448945  0.49618981  0.66687616
   0.51139620  0.58074591  0.71760983
Direct configuration=    22
   0.47735148  0.55744784  0.29209227
   0.42733129  0.44079335  0.33753571
   0.55267579  0.45526693  0.31873164
   0.51703173  0.39070381  0.42547095
   0.37528172  0.55355253  0.37141175
   0.40056488  0.42590081  0.46129461
   0.59445485  0.57503886  0.34960152
   0.38290542  0.54417141  0.50151996
   0.48875025  0.52060557  0.41627780
   0.69585021  0.56611760  0.43742742
   0.37070782  0.66034023  0.44037815
   0.61584824  0.47227057  0.42898202
   0.47760235  0.36063051  0.54390756
   0.39275832  0.44334910  0.58845775
   0.48863499  0.64551599  0.38893782
   0.35818821  0.65408770  0.56798288
   0.47124259  0.63916115  0.51621346
   0.58009532  0.59755556  0.47412716
   0.51106942  0.49232750  0.53892521
   0.59952034  0.39313777  0.52791979
   0.42845091  0.56033742  0.62238636
   0.71902832  0.43338061  0.49942817
   0.43451579  0.34627826  0.66226359
   0.64607553  0.51937114  0.55264392
   0.55853284  0.37449329  0.64815039
   0.46752769  0.67762703  0.64153681
   0.47277769  0.46173166  0.69218537
   0.56103197  0.59987880  0.60231648
   0.68064155  0.41337301  0.62256950
   0.59479912  0.49628600  0.66712758
   0.51142055  0.58084443  0.71752404
Direct configuration=    23
   0.47754546  0.55748155  0.29214385
   0.42765262  0.44053081  0.33716066
   0.55309109  0.45491910  0.31875158
   0.51718664  0.39046283  0.42558435
   0.37549388  0.55312959  0.37161008
   0.40076566  0.42631017  0.46093235
   0.59455436  0.57490596  0.34976605
   0.38337642  0.54422888  0.50182298
   0.48905495  0.52007581  0.41587489
   0.69576774  0.56658663  0.43824650
   0.37025277  0.65981887  0.44066205
   0.61606194  0.47228937  0.42909444
   0.47752451  0.36052628  0.54355020
   0.39283252  0.44353593  0.58802613
   0.48827672  0.64521884  0.38932135
   0.35812000  0.65423452  0.56846547
   0.47133343  0.64037716  0.51648085
   0.57944163  0.59732118  0.47445701
   0.51071616  0.49210504  0.53864273
   0.59904179  0.39343938  0.52760448
   0.42857384  0.56060746  0.62212885
   0.71869452  0.43312252  0.49947345
   0.43420263  0.34648207  0.66216380
   0.64589999  0.51911867  0.55261749
   0.55850395  0.37494584  0.64813188
   0.46794623  0.67785297  0.64158402
   0.47274135  0.46202063  0.69148033
   0.56078572  0.59972836  0.60215469
   0.68053981  0.41279609  0.62251087
   0.59523408  0.49642111  0.66748074
   0.51145477  0.58098283  0.71740352
Direct configuration=    24
   0.47759237  0.55739666  0.29205319
   0.42799404  0.44039767  0.33689744
   0.55348346  0.45486318  0.31882302
   0.51722333  0.39034582  0.42535564
   0.37572339  0.55272619  0.37169506
   0.40083752  0.42659729  0.46068571
   0.59447204  0.57490729  0.35002303
   0.38379864  0.54456727  0.50172244
   0.48940481  0.51963924  0.41569201
   0.69553131  0.56682409  0.43888222
   0.36996780  0.65943544  0.44075288
   0.61606784  0.47231794  0.42891935
   0.47729177  0.36035152  0.54352715
   0.39282750  0.44354250  0.58783656
   0.48796938  0.64475806  0.38954006
   0.35792744  0.65439997  0.56861550
   0.47154011  0.64131939  0.51660898
   0.57901345  0.59709382  0.47446496
   0.51058203  0.49204606  0.53853386
   0.59906910  0.39339884  0.52744245
   0.42865951  0.56090576  0.62219265
   0.71845663  0.43287692  0.49976014
   0.43419191  0.34679130  0.66189666
   0.64558266  0.51910202  0.55275487
   0.55831403  0.37510545  0.64799746
   0.46803435  0.67801696  0.64186747
   0.47277472  0.46219247  0.69102759
   0.56080519  0.59950891  0.60190693
   0.68028993  0.41269938  0.62241314
   0.59545054  0.49643683  0.66784887
   0.51179038  0.58101221  0.71759038
Direct configuration=    25
   0.47762541  0.55733686  0.29198933
   0.42823454  0.44030389  0.33671203
   0.55375985  0.45482379  0.31887334
   0.51724918  0.39026339  0.42519453
   0.37588506  0.55244203  0.37175492
   0.40088814  0.42679954  0.46051197
   0.59441405  0.57490823  0.35020405
   0.38409607  0.54480564  0.50165162
   0.48965126  0.51933171  0.41556319
   0.69536477  0.56699136  0.43933003
   0.36976706  0.65916535  0.44081686
   0.61607200  0.47233806  0.42879601
   0.47712783  0.36022842  0.54351092
   0.39282396  0.44354712  0.58770302
   0.48775288  0.64443348  0.38969412
   0.35779180  0.65451651  0.56872118
   0.47168570  0.64198311  0.51669924
   0.57871182  0.59693366  0.47447056
   0.51048755  0.49200451  0.53845717
   0.59908834  0.39337028  0.52732831
   0.42871985  0.56111588  0.62223759
   0.71828906  0.43270392  0.49996208