unknown system                          
           1
    21.730710    0.000000    0.000000
     0.000000   21.730710    0.000000
     0.000000    0.000000   21.730710
   Ag
  38
Direct configuration=     1
   0.39508784  0.68556628  0.40932267
   0.45958866  0.60304697  0.72428287
   0.47483188  0.66094739  0.61205523
   0.38125685  0.60700671  0.31230604
   0.35724485  0.61806676  0.64619055
   0.49650145  0.68115358  0.48680912
   0.37629709  0.65692639  0.52948887
   0.49561386  0.61463960  0.36959975
   0.36160344  0.56536389  0.43184207
   0.57670437  0.64476542  0.68850093
   0.59233793  0.66217499  0.56252711
   0.55596592  0.52017597  0.71219850
   0.38703429  0.49784477  0.67483116
   0.59796203  0.61348610  0.44403408
   0.48702351  0.53766117  0.61022187
   0.43737413  0.50007460  0.34715361
   0.47530349  0.55823328  0.48545264
   0.36247536  0.52910067  0.55312807
   0.69189285  0.66466203  0.63830395
   0.58740924  0.52886351  0.54099931
   0.39823490  0.44866604  0.45907287
   0.56645621  0.51007616  0.36546028
   0.77704833  0.57347661  0.61439649
   0.48966930  0.42549596  0.66168217
   0.66366762  0.54532046  0.65854550
   0.70026306  0.60247050  0.52033812
   0.52971983  0.44638248  0.46712059
   0.39868206  0.40514736  0.57682809
   0.50242456  0.39745377  0.35138949
   0.61077581  0.43566197  0.62315968
   0.66962569  0.50582995  0.44203506
   0.43105513  0.33146474  0.47674326
   0.52286384  0.36389534  0.56021778
   0.71483717  0.47636700  0.55881631
   0.63246325  0.40152865  0.37912367
   0.63929756  0.38961032  0.50739814
   0.45977680  0.28483450  0.36744074
   0.55592583  0.31885411  0.44327937
Direct configuration=     2
   0.39504453  0.68573596  0.40924204
   0.45954099  0.60296195  0.72436502
   0.47477093  0.66121646  0.61200255
   0.38119770  0.60705353  0.31213600
   0.35717656  0.61806257  0.64624143
   0.49648244  0.68139999  0.48667795
   0.37625467  0.65690189  0.52943773
   0.49557725  0.61478058  0.36953337
   0.36139767  0.56545147  0.43171731
   0.57674572  0.64472757  0.68853736
   0.59242188  0.66223814  0.56255594
   0.55600080  0.52008269  0.71243146
   0.38691530  0.49780253  0.67492076
   0.59797894  0.61353810  0.44386987
   0.48690327  0.53768187  0.61015336
   0.43732103  0.50018124  0.34716771
   0.47531274  0.55818882  0.48547555
   0.36238352  0.52906941  0.55318820
   0.69196713  0.66481408  0.63834459
   0.58767335  0.52892150  0.54102334
   0.39818392  0.44872105  0.45896195
   0.56650266  0.51022557  0.36533190
   0.77727304  0.57343605  0.61441825
   0.48966307  0.42525814  0.66200268
   0.66370480  0.54531995  0.65849452
   0.70026735  0.60254260  0.52037412
   0.52965445  0.44625034  0.46702521
   0.39864316  0.40516910  0.57690004
   0.50250348  0.39738397  0.35137093
   0.61074865  0.43553217  0.62331598
   0.66967130  0.50578905  0.44198525
   0.43104359  0.33141570  0.47684671
   0.52289099  0.36369538  0.56031807
   0.71492142  0.47638883  0.55888028
   0.63242631  0.40147269  0.37910273
   0.63941173  0.38958104  0.50741738
   0.45975436  0.28455350  0.36731403
   0.55596528  0.31875052  0.44321442
Direct configuration=     3
   0.39491460  0.68624499  0.40900016
   0.45939798  0.60270690  0.72461146
   0.47458808  0.66202366  0.61184452
   0.38102024  0.60719398  0.31162589
   0.35697170  0.61804999  0.64639409
   0.49642542  0.68213919  0.48628443
   0.37612740  0.65682840  0.52928430
   0.49546743  0.61520353  0.36933423
   0.36078035  0.56571420  0.43134301
   0.57686978  0.64461401  0.68864665
   0.59267375  0.66242759  0.56264245
   0.55610544  0.51980284  0.71313037
   0.38655835  0.49767581  0.67518956
   0.59802969  0.61369412  0.44337724
   0.48654255  0.53774400  0.60994783
   0.43716174  0.50050115  0.34720999
   0.47534049  0.55805544  0.48554429
   0.36210799  0.52897564  0.55336859
   0.69218997  0.66527024  0.63846651
   0.58846570  0.52909549  0.54109545
   0.39803097  0.44888609  0.45862920
   0.56664202  0.51067380  0.36494677
   0.77794715  0.57331436  0.61448353
   0.48964437  0.42454467  0.66296421
   0.66381636  0.54531843  0.65834157
   0.70028021  0.60275890  0.52048212
   0.52945830  0.44585393  0.46673907
   0.39852649  0.40523430  0.57711587
   0.50274022  0.39717459  0.35131526
   0.61066716  0.43514276  0.62378488
   0.66980814  0.50566634  0.44183582
   0.43100897  0.33126858  0.47715704
   0.52297241  0.36309551  0.56061896
   0.71517416  0.47645433  0.55907220
   0.63231551  0.40130480  0.37903990
   0.63975426  0.38949320  0.50747512
   0.45968702  0.28371049  0.36693389
   0.55608361  0.31843974  0.44301956
Direct configuration=     4
   0.39465475  0.68726304  0.40851640
   0.45911197  0.60219681  0.72510436
   0.47422238  0.66363807  0.61152845
   0.38066532  0.60747488  0.31060567
   0.35656197  0.61802484  0.64669940
   0.49631137  0.68361760  0.48549740
   0.37587285  0.65668140  0.52897743
   0.49524779  0.61604942  0.36893593
   0.35954572  0.56623968  0.43059442
   0.57711789  0.64438690  0.68886524
   0.59317748  0.66280648  0.56281548
   0.55631472  0.51924313  0.71452819
   0.38584445  0.49742235  0.67572717
   0.59813118  0.61400616  0.44239197
   0.48582111  0.53786825  0.60953677
   0.43684316  0.50114096  0.34729456
   0.47539599  0.55778867  0.48568176
   0.36155694  0.52878810  0.55372936
   0.69263565  0.66618256  0.63871033
   0.59005038  0.52944346  0.54123966
   0.39772508  0.44921616  0.45796370
   0.56692072  0.51157025  0.36417652
   0.77929538  0.57307099  0.61461408
   0.48960698  0.42311773  0.66488726
   0.66403947  0.54531539  0.65803567
   0.70030593  0.60319149  0.52069813
   0.52906602  0.44506112  0.46616680
   0.39829313  0.40536472  0.57754755
   0.50321371  0.39675581  0.35120391
   0.61050420  0.43436396  0.62472269
   0.67008180  0.50542092  0.44153695
   0.43093972  0.33097433  0.47777771
   0.52313527  0.36189578  0.56122073
   0.71567964  0.47658532  0.55945603
   0.63209391  0.40096904  0.37891423
   0.64043932  0.38931751  0.50759059
   0.45955235  0.28202448  0.36617361
   0.55632028  0.31781819  0.44262986
Direct configuration=     5
   0.39413505  0.68929916  0.40754888
   0.45853994  0.60117663  0.72609016
   0.47349098  0.66686689  0.61089631
   0.37995548  0.60803668  0.30856523
   0.35574252  0.61797452  0.64731003
   0.49608328  0.68657442  0.48392333
   0.37536377  0.65638742  0.52836371
   0.49480849  0.61774121  0.36813935
   0.35707645  0.56729063  0.42909724
   0.57761412  0.64393268  0.68930241
   0.59418493  0.66356427  0.56316153
   0.55673328  0.51812372  0.71732381
   0.38441663  0.49691545  0.67680237
   0.59833417  0.61463023  0.44042145
   0.48437823  0.53811676  0.60871465
   0.43620601  0.50242059  0.34746370
   0.47550700  0.55725515  0.48595672
   0.36045485  0.52841303  0.55445091
   0.69352702  0.66800720  0.63919799
   0.59321976  0.53013940  0.54152809
   0.39711329  0.44987631  0.45663271
   0.56747813  0.51336316  0.36263602
   0.78199184  0.57258425  0.61487520
   0.48953219  0.42026385  0.66873336
   0.66448569  0.54530932  0.65742388
   0.70035737  0.60405668  0.52113014
   0.52828145  0.44347548  0.46502225
   0.39782641  0.40562555  0.57841090
   0.50416068  0.39591827  0.35098120
   0.61017827  0.43280636  0.62659830
   0.67062914  0.50493007  0.44093922
   0.43080122  0.33038583  0.47901904
   0.52346099  0.35949631  0.56242428
   0.71669060  0.47684731  0.56022370
   0.63165071  0.40029751  0.37866289
   0.64180943  0.38896613  0.50782153
   0.45928300  0.27865247  0.36465306
   0.55679362  0.31657510  0.44185045
Direct configuration=     6
   0.39404211  0.68966330  0.40737585
   0.45843763  0.60099417  0.72626646
   0.47336018  0.66744434  0.61078325
   0.37982853  0.60813715  0.30820031
   0.35559596  0.61796553  0.64741924
   0.49604249  0.68710322  0.48364182
   0.37527272  0.65633484  0.52825395
   0.49472993  0.61804378  0.36799689
   0.35663484  0.56747858  0.42882948
   0.57770287  0.64385145  0.68938060
   0.59436511  0.66369979  0.56322341
   0.55680813  0.51792352  0.71782379
   0.38416128  0.49682479  0.67699466
   0.59837047  0.61474184  0.44006904
   0.48412018  0.53816120  0.60856762
   0.43609206  0.50264945  0.34749395
   0.47552685  0.55715973  0.48600589
   0.36025774  0.52834595  0.55457995
   0.69368643  0.66833352  0.63928520
   0.59378658  0.53026387  0.54157968
   0.39700388  0.44999438  0.45639467
   0.56757782  0.51368381  0.36236051
   0.78247409  0.57249720  0.61492190
   0.48951882  0.41975345  0.66942121
   0.66456549  0.54530823  0.65731447
   0.70036657  0.60421142  0.52120740
   0.52814113  0.44319190  0.46481755
   0.39774294  0.40567219  0.57856530
   0.50433004  0.39576848  0.35094137
   0.61011998  0.43252779  0.62693374
   0.67072702  0.50484229  0.44083232
   0.43077645  0.33028058  0.47924105
   0.52351924  0.35906718  0.56263952
   0.71687141  0.47689416  0.56036099
   0.63157145  0.40017741  0.37861794
   0.64205447  0.38890329  0.50786283
   0.45923483  0.27804940  0.36438112
   0.55687827  0.31635278  0.44171106
Direct configuration=     7
   0.39374204  0.69034235  0.40672414
   0.45832770  0.60035843  0.72583684
   0.47341168  0.66804993  0.61081889
   0.37976977  0.60861426  0.30796379
   0.35567055  0.61787907  0.64756616
   0.49626118  0.68782758  0.48333934
   0.37524708  0.65596637  0.52783198
   0.49431362  0.61885390  0.36788739
   0.35626854  0.56805138  0.42882188
   0.57728555  0.64300038  0.68916131
   0.59375525  0.66399136  0.56274309
   0.55655597  0.51761404  0.71803169
   0.38393801  0.49673484  0.67729315
   0.59846016  0.61498642  0.43989005
   0.48428054  0.53788324  0.60934345
   0.43655518  0.50270737  0.34767836
   0.47551033  0.55758023  0.48564076
   0.35983199  0.52836597  0.55430254
   0.69436822  0.66802546  0.63925821
   0.59365031  0.52999502  0.54179781
   0.39682297  0.45005757  0.45622899
   0.56761016  0.51388529  0.36187077
   0.78315100  0.57266696  0.61489606
   0.48933964  0.41915074  0.67014201
   0.66471638  0.54578129  0.65695477
   0.70073503  0.60434769  0.52162046
   0.52812375  0.44289317  0.46504458
   0.39815828  0.40602968  0.57892293
   0.50383770  0.39554371  0.35077566
   0.60984667  0.43203294  0.62738621
   0.67095102  0.50480390  0.44052698
   0.43116284  0.33028082  0.47882922
   0.52373627  0.35855351  0.56319664
   0.71720954  0.47705070  0.56063209
   0.63136080  0.40044194  0.37865677
   0.64194172  0.38889947  0.50814384
   0.45981858  0.27733500  0.36486110
   0.55656997  0.31571398  0.44167609
Direct configuration=     8
   0.39284183  0.69237952  0.40476901
   0.45799790  0.59845120  0.72454797
   0.47356620  0.66986668  0.61092580
   0.37959349  0.61004559  0.30725422
   0.35589432  0.61761971  0.64800695
   0.49691724  0.69000065  0.48243192
   0.37517016  0.65486096  0.52656606
   0.49306468  0.62128427  0.36755888
   0.35516967  0.56976978  0.42879909
   0.57603360  0.64044716  0.68850347
   0.59192566  0.66486605  0.56130210
   0.55579947  0.51668562  0.71865538
   0.38326818  0.49646499  0.67818861
   0.59872922  0.61572018  0.43935310
   0.48476163  0.53704935  0.61167095
   0.43794454  0.50288113  0.34823160
   0.47546076  0.55884171  0.48454539
   0.35855471  0.52842602  0.55347031
   0.69641360  0.66710130  0.63917723
   0.59324150  0.52918847  0.54245219
   0.39628024  0.45024715  0.45573193
   0.56770720  0.51448973  0.36040155
   0.78518176  0.57317623  0.61481851
   0.48880210  0.41734259  0.67230441
   0.66516906  0.54720046  0.65587569
   0.70184039  0.60475651  0.52285965
   0.52807158  0.44199695  0.46572568
   0.39940431  0.40710214  0.57999580
   0.50236068  0.39486941  0.35027851
   0.60902675  0.43054839  0.62874360
   0.67162301  0.50468875  0.43961096
   0.43232203  0.33028154  0.47759375
   0.52438737  0.35701251  0.56486798
   0.71822393  0.47752030  0.56144537
   0.63072885  0.40123555  0.37877325
   0.64160347  0.38888802  0.50898685
   0.46156982  0.27519180  0.36630105
   0.55564505  0.31379760  0.44157119
Direct configuration=     9
   0.39246691  0.69333649  0.40443269
   0.45750961  0.59766513  0.72408476
   0.47326521  0.66999699  0.61083217
   0.37976940  0.61027688  0.30744776
   0.35622088  0.61759409  0.64759868
   0.49649894  0.69071483  0.48173993
   0.37568737  0.65456496  0.52612532
   0.49281683  0.62193475  0.36764019
   0.35541607  0.57021060  0.42860329
   0.57563330  0.63940061  0.68734170
   0.59218560  0.66479017  0.56119543
   0.55609857  0.51573509  0.71857699
   0.38311871  0.49629170  0.67808430
   0.59880768  0.61556152  0.43955130
   0.48502305  0.53666608  0.61160179
   0.43849857  0.50371828  0.34856109
   0.47563159  0.55933805  0.48481676
   0.35847022  0.52845146  0.55317999
   0.69657223  0.66663246  0.63868349
   0.59261775  0.52863190  0.54246676
   0.39614561  0.45039134  0.45596194
   0.56744830  0.51475874  0.36033224
   0.78590058  0.57340921  0.61477657
   0.48840731  0.41689897  0.67305317
   0.66475606  0.54706484  0.65548874
   0.70150065  0.60455130  0.52315311
   0.52788364  0.44190034  0.46607015
   0.40066541  0.40757365  0.57976000
   0.50153944  0.39449393  0.35050614
   0.60911175  0.43083051  0.62909734
   0.67174791  0.50525493  0.43991629
   0.43274249  0.33120171  0.47730738
   0.52436949  0.35660551  0.56535394
   0.71816485  0.47754815  0.56148354
   0.62987720  0.40159189  0.37916710
   0.64104557  0.38909277  0.50927863
   0.46263163  0.27415724  0.36701422
   0.55604961  0.31345891  0.44201110
Direct configuration=    10
   0.39134213  0.69620739  0.40342375
   0.45604473  0.59530691  0.72269514
   0.47236226  0.67038791  0.61055129
   0.38029714  0.61097073  0.30802838
   0.35720057  0.61751725  0.64637386
   0.49524401  0.69285736  0.47966396
   0.37723900  0.65367697  0.52480312
   0.49207325  0.62388621  0.36788411
   0.35615527  0.57153305  0.42801591
   0.57443239  0.63626094  0.68385641
   0.59296541  0.66456253  0.56087541
   0.55699587  0.51288350  0.71834180
   0.38267030  0.49577181  0.67777138
   0.59904308  0.61508554  0.44014593
   0.48580731  0.53551627  0.61139434
   0.44016065  0.50622972  0.34954954
   0.47614405  0.56082710  0.48563085
   0.35821675  0.52852776  0.55230901
   0.69704814  0.66522597  0.63720227
   0.59074651  0.52696216  0.54251044
   0.39574169  0.45082393  0.45665196
   0.56667161  0.51556577  0.36012429
   0.78805705  0.57410816  0.61465073
   0.48722294  0.41556812  0.67529943
   0.66351704  0.54665799  0.65432787
   0.70048144  0.60393570  0.52403349
   0.52731981  0.44161052  0.46710355
   0.40444872  0.40898817  0.57905258
   0.49907575  0.39336747  0.35118901
   0.60936674  0.43167686  0.63015856
   0.67212261  0.50695346  0.44083227
   0.43400387  0.33396223  0.47644826
   0.52431584  0.35538450  0.56681183
   0.71798762  0.47763167  0.56159804
   0.62732224  0.40266091  0.38034866
   0.63937185  0.38970703  0.51015397
   0.46581706  0.27105356  0.36915375
   0.55726328  0.31244285  0.44333084
Direct configuration=    11
   0.39075013  0.69760393  0.40326733
   0.45606672  0.59427612  0.72276788
   0.47242523  0.67014255  0.60989254
   0.38029812  0.61136711  0.30805207
   0.35712245  0.61750636  0.64523280
   0.49549656  0.69351246  0.47939388
   0.37807901  0.65391906  0.52443227
   0.49254215  0.62479711  0.36842405
   0.35680594  0.57161382  0.42771306
   0.57358560  0.63470010  0.68231394
   0.59222848  0.66472567  0.56004743
   0.55709153  0.51211986  0.71866633
   0.38248564  0.49534616  0.67693371
   0.59834251  0.61509217  0.44039976
   0.48540527  0.53469831  0.61124192
   0.44051186  0.50670956  0.35030914
   0.47642566  0.56136653  0.48608181
   0.35832542  0.52849379  0.55223989
   0.69708381  0.66514199  0.63673414
   0.59083355  0.52644620  0.54204035
   0.39550975  0.45211781  0.45605754
   0.56654603  0.51590780  0.36076363
   0.78789171  0.57394692  0.61439015
   0.48710983  0.41504896  0.67625288
   0.66380597  0.54609331  0.65391742
   0.70023042  0.60319201  0.52411996
   0.52616062  0.44158239  0.46709821
   0.40613778  0.40978068  0.57852731
   0.49780995  0.39307482  0.35252777
   0.60916427  0.43136943  0.63025988
   0.67200295  0.50740854  0.44098819
   0.43489193  0.33479881  0.47580067
   0.52457435  0.35513502  0.56778383
   0.71792959  0.47755164  0.56150007
   0.62613059  0.40348260  0.38118037
   0.63916019  0.39024033  0.51059051
   0.46703135  0.26951943  0.36997097
   0.55830304  0.31246662  0.44438231
Direct configuration=    12
   0.38967871  0.70013142  0.40298422
   0.45610652  0.59241055  0.72289951
   0.47253920  0.66969851  0.60870030
   0.38029989  0.61208450  0.30809495
   0.35698106  0.61748666  0.64316767
   0.49595364  0.69469809  0.47890510
   0.37959930  0.65435720  0.52376110
   0.49339079  0.62644569  0.36940126
   0.35798356  0.57176000  0.42716496
   0.57205304  0.63187523  0.67952233
   0.59089476  0.66502092  0.55854891
   0.55726465  0.51073781  0.71925367
   0.38215143  0.49457579  0.67541767
   0.59707459  0.61510417  0.44085916
   0.48467765  0.53321793  0.61096606
   0.44114749  0.50757801  0.35168387
   0.47693532  0.56234283  0.48689798
   0.35852211  0.52843230  0.55211478
   0.69714837  0.66499000  0.63588690
   0.59099108  0.52551239  0.54118955
   0.39508998  0.45445953  0.45498173
   0.56631875  0.51652682  0.36192074
   0.78759248  0.57365510  0.61391853
   0.48690512  0.41410937  0.67797848
   0.66432889  0.54507133  0.65317456
   0.69977613  0.60184606  0.52427646
   0.52406268  0.44153146  0.46708853
   0.40919469  0.41121498  0.57757666
   0.49551906  0.39254516  0.35495072
   0.60879783  0.43081304  0.63044327
   0.67178639  0.50823216  0.44127039
   0.43649917  0.33631289  0.47462866
   0.52504221  0.35468350  0.56954298
   0.71782457  0.47740679  0.56132277
   0.62397389  0.40496973  0.38268564
   0.63877713  0.39120552  0.51138059
   0.46922902  0.26674290  0.37145002
   0.56018484  0.31250963  0.44628531
Direct configuration=    13
   0.38953435  0.70112572  0.40292758
   0.45591193  0.59148232  0.72300982
   0.47258435  0.66901198  0.60809206
   0.38081855  0.61290093  0.30843579
   0.35699055  0.61742121  0.64255242
   0.49618508  0.69594530  0.47877184
   0.38001405  0.65512642  0.52270521
   0.49304281  0.62762223  0.36937070
   0.35819658  0.57317372  0.42699676
   0.57162885  0.62984613  0.67787118
   0.59080790  0.66530496  0.55778722
   0.55739381  0.51043126  0.71992601
   0.38154372  0.49390873  0.67467982
   0.59682244  0.61541185  0.44107608
   0.48462609  0.53183373  0.61087166
   0.44156289  0.50827190  0.35160839
   0.47734790  0.56304025  0.48732040
   0.35847057  0.52861511  0.55162785
   0.69619416  0.66497244  0.63499002
   0.59116801  0.52508241  0.54091944
   0.39451566  0.45441271  0.45465280
   0.56625924  0.51729061  0.36283733
   0.78686343  0.57312147  0.61350432
   0.48703018  0.41346480  0.67900430
   0.66485721  0.54457757  0.65344514
   0.69939136  0.60158679  0.52422241
   0.52245697  0.44166468  0.46821791
   0.41079966  0.41255630  0.57614908
   0.49353411  0.39144650  0.35709681
   0.60846547  0.43027964  0.63077896
   0.67181326  0.50821465  0.44055304
   0.43795640  0.33723283  0.47359407
   0.52558794  0.35419551  0.57021264
   0.71835097  0.47667135  0.56094956
   0.62264908  0.40566090  0.38348879
   0.63886636  0.39199295  0.51172518
   0.47103902  0.26505458  0.37258028
   0.56101507  0.31234357  0.44774315
Direct configuration=    14
   0.38929321  0.70278664  0.40283296
   0.45558690  0.58993176  0.72319408
   0.47265976  0.66786518  0.60707603
   0.38168495  0.61426471  0.30900514
   0.35700639  0.61731190  0.64152470
   0.49657168  0.69802868  0.47854925
   0.38070686  0.65641133  0.52094143
   0.49246153  0.62958754  0.36931966
   0.35855242  0.57553524  0.42671581
   0.57092026  0.62645665  0.67511305
   0.59066282  0.66577942  0.55651486
   0.55760956  0.50991919  0.72104910
   0.38052857  0.49279444  0.67344728
   0.59640123  0.61592581  0.44143843
   0.48453996  0.52952152  0.61071398
   0.44225677  0.50943101  0.35148231
   0.47803709  0.56420524  0.48802603
   0.35838447  0.52892049  0.55081445
   0.69460022  0.66494311  0.63349183
   0.59146356  0.52436416  0.54046822
   0.39355629  0.45433450  0.45410334
   0.56615983  0.51856647  0.36436843
   0.78564560  0.57223007  0.61281241
   0.48723909  0.41238809  0.68071787
   0.66573973  0.54375277  0.65389711
   0.69874865  0.60115370  0.52413212
   0.51977474  0.44188720  0.47010446
   0.41348066  0.41479688  0.57376440
   0.49021840  0.38961128  0.36068171
   0.60791030  0.42938863  0.63133969
   0.67185813  0.50818539  0.43935476
   0.44039061  0.33876953  0.47186586
   0.52649955  0.35338034  0.57133125
   0.71923029  0.47544283  0.56032613
   0.62043607  0.40681545  0.38483039
   0.63901542  0.39330831  0.51230079
   0.47406250  0.26223436  0.37446830
   0.56240192  0.31206617  0.45017836
Direct configuration=    15
   0.38938265  0.70217065  0.40286805
   0.45570745  0.59050683  0.72312574
   0.47263179  0.66829050  0.60745285
   0.38136363  0.61375892  0.30879398
   0.35700052  0.61735244  0.64190586
   0.49642830  0.69725601  0.47863180
   0.38044992  0.65593479  0.52159558
   0.49267711  0.62885866  0.36933859
   0.35842044  0.57465941  0.42682001
   0.57118306  0.62771372  0.67613597
   0.59071663  0.66560346  0.55698675
   0.55752954  0.51010910  0.72063258
   0.38090506  0.49320770  0.67390439
   0.59655744  0.61573520  0.44130404
   0.48457190  0.53037906  0.61077246
   0.44199943  0.50900113  0.35152907
   0.47778148  0.56377317  0.48776433
   0.35841640  0.52880723  0.55111612
   0.69519137  0.66495399  0.63404747
   0.59135395  0.52463054  0.54063557
   0.39391210  0.45436350  0.45430712
   0.56619670  0.51809329  0.36380058
   0.78609726  0.57256067  0.61306902
   0.48716161  0.41278741  0.68008235
   0.66541242  0.54405867  0.65372949
   0.69898701  0.60131432  0.52416560
   0.52076951  0.44180467  0.46940479
   0.41248634  0.41396590  0.57464881
   0.49144812  0.39029192  0.35935216
   0.60811620  0.42971908  0.63113173
   0.67184149  0.50819624  0.43979917
   0.43948782  0.33819960  0.47250681
   0.52616145  0.35368267  0.57091638
   0.71890417  0.47589845  0.56055735
   0.62125682  0.40638726  0.38433283
   0.63896014  0.39282047  0.51208731
   0.47294117  0.26328031  0.37376808
   0.56188757  0.31216905  0.44927520
Direct configuration=    16
   0.38991048  0.70286701  0.40257259
   0.45510456  0.58993906  0.72263673
   0.47236748  0.66708935  0.60713791
   0.38191147  0.61522635  0.30858429
   0.35741392  0.61720644  0.64212544
   0.49642999  0.69911916  0.47842545
   0.37977217  0.65691805  0.52159673
   0.49203193  0.62945059  0.36909349
   0.35831527  0.57559627  0.42696994
   0.57138425  0.62666648  0.67534083
   0.59137420  0.66619335  0.55701102
   0.55771093  0.50990658  0.72173019
   0.38016612  0.49238410  0.67357510
   0.59713792  0.61635182  0.44077262
   0.48526708  0.52849929  0.61113157
   0.44204791  0.50922629  0.35088111
   0.47789605  0.56472731  0.48773260
   0.35807443  0.52986576  0.54983435
   0.69325629  0.66494627  0.63324807
   0.59184736  0.52445164  0.54092281
   0.39228002  0.45416968  0.45293629
   0.56583399  0.51937818  0.36476416
   0.78550235  0.57207259  0.61247806
   0.48691754  0.41229264  0.68023312
   0.66594308  0.54299201  0.65443779
   0.69870216  0.60118662  0.52341406
   0.52033093  0.44262500  0.47211506
   0.41454009  0.41522101  0.57340046
   0.48881218  0.38921276  0.36087914
   0.60822722  0.43003236  0.63194027
   0.67259289  0.50813797  0.43901800
   0.43982333  0.33762876  0.47213407
   0.52646194  0.35269638  0.57095807
   0.71988228  0.47547833  0.56018043
   0.61984475  0.40596675  0.38450829
   0.63886444  0.39320715  0.51179054
   0.47564142  0.26185457  0.37485760
   0.56267553  0.31151206  0.45092775
Direct configuration=    17
   0.39038611  0.70349451  0.40230634
   0.45456130  0.58942744  0.72219607
   0.47212930  0.66600699  0.60685411
   0.38240514  0.61654867  0.30839534
   0.35778644  0.61707487  0.64232332
   0.49643151  0.70079806  0.47823950
   0.37916145  0.65780407  0.52159778
   0.49145055  0.62998399  0.36887262
   0.35822050  0.57644048  0.42710504
   0.57156553  0.62572280  0.67462433
   0.59196674  0.66672490  0.55703288
   0.55787439  0.50972409  0.72271925
   0.37950026  0.49164195  0.67327838
   0.59766100  0.61690745  0.44029374
   0.48589351  0.52680542  0.61145517
   0.44209160  0.50942919  0.35029723
   0.47799929  0.56558709  0.48770401
   0.35776627  0.53081961  0.54867934
   0.69151259  0.66493931  0.63252772
   0.59229198  0.52429042  0.54118164
   0.39080935  0.45399502  0.45170103
   0.56550716  0.52053601  0.36563244
   0.78496627  0.57163279  0.61194554
   0.48669761  0.41184680  0.68036898
   0.66642125  0.54203084  0.65507605
   0.69844547  0.60107156  0.52273683
   0.51993573  0.44336421  0.47455730
   0.41639073  0.41635199  0.57227555
   0.48643693  0.38824033  0.36225511
   0.60832726  0.43031465  0.63266885
   0.67326998  0.50808546  0.43831408
   0.44012566  0.33711436  0.47179819
   0.52673272  0.35180763  0.57099564
   0.72076366  0.47509976  0.55984079
   0.61857233  0.40558783  0.38466641
   0.63877821  0.39355558  0.51152312
   0.47807463  0.26056984  0.37583937
   0.56338556  0.31092004  0.45241687
Direct configuration=    18
   0.39113420  0.70453690  0.40215727
   0.45450786  0.58865178  0.72118416
   0.47251873  0.66428353  0.60627588
   0.38225607  0.61814592  0.30740257
   0.35775160  0.61653407  0.64279618
   0.49670759  0.70182090  0.47842988
   0.37782196  0.65945141  0.52251546
   0.49185559  0.62997192  0.36953554
   0.35830038  0.57685408  0.42623644
   0.57144672  0.62528679  0.67501601
   0.59072757  0.66779918  0.55574244
   0.55765868  0.50948466  0.72424929
   0.37891258  0.49105074  0.67213584
   0.59824494  0.61845862  0.43991009
   0.48700925  0.52470314  0.61174604
   0.44129491  0.50938014  0.34913057
   0.47813301  0.56729364  0.48794079
   0.35781572  0.53214525  0.54788239
   0.69050568  0.66427741  0.63273821
   0.59381681  0.52528514  0.54156715
   0.38946099  0.45320350  0.44952964
   0.56504402  0.52095135  0.36694942
   0.78465194  0.57211611  0.61103037
   0.48638809  0.41141791  0.67977082
   0.66743013  0.54076039  0.65597264
   0.69891284  0.60082985  0.52157190
   0.51884152  0.44344299  0.47695456
   0.41810622  0.41792992  0.57075467
   0.48427761  0.38878136  0.36413177
   0.60835145  0.43043149  0.63285484
   0.67441051  0.50753883  0.43768446
   0.43893948  0.33569388  0.47278028
   0.52733945  0.35025140  0.57154649
   0.72168153  0.47510835  0.55920407
   0.61598567  0.40538054  0.38442822
   0.63896874  0.39418087  0.51156277
   0.48099991  0.25890016  0.37722334
   0.56408604  0.30996186  0.45375352
Direct configuration=    19
   0.39131115  0.70478345  0.40212201
   0.45449522  0.58846831  0.72094481
   0.47261084  0.66387589  0.60613911
   0.38222081  0.61852372  0.30716775
   0.35774336  0.61640615  0.64290803
   0.49677289  0.70206283  0.47847491
   0.37750514  0.65984106  0.52273251
   0.49195139  0.62996907  0.36969234
   0.35831927  0.57695191  0.42603099
   0.57141862  0.62518366  0.67510866
   0.59043446  0.66805327  0.55543721
   0.55760766  0.50942803  0.72461120
   0.37877357  0.49091090  0.67186559
   0.59838306  0.61882552  0.43981935
   0.48727316  0.52420589  0.61181483
   0.44110647  0.50936854  0.34885462
   0.47816464  0.56769729  0.48799679
   0.35782742  0.53245881  0.54769389
   0.69026751  0.66412085  0.63278800
   0.59417747  0.52552042  0.54165833
   0.38914206  0.45301628  0.44901604
   0.56493448  0.52104959  0.36726092
   0.78457760  0.57223043  0.61081391
   0.48631488  0.41131647  0.67962934
   0.66766875  0.54045989  0.65618471
   0.69902339  0.60077267  0.52129636
   0.51858271  0.44346163  0.47752159
   0.41851198  0.41830315  0.57039494
   0.48376687  0.38890933  0.36457566
   0.60835717  0.43045912  0.63289883
   0.67468027  0.50740954  0.43753554
   0.43865892  0.33535790  0.47301258
   0.52748295  0.34988330  0.57167678
   0.72189863  0.47511039  0.55905346
   0.61537385  0.40533151  0.38437188
   0.63901381  0.39432877  0.51157215
   0.48169182  0.25850523  0.37755070
   0.56425173  0.30973523  0.45406968
Direct configuration=    20
   0.39159145  0.70487007  0.40247667
   0.45508929  0.58770526  0.72051590
   0.47271417  0.66313904  0.60572630
   0.38219300  0.61868769  0.30706245
   0.35690235  0.61631590  0.64307056
   0.49594149  0.70159565  0.47832420
   0.37688199  0.66067131  0.52265382
   0.49198915  0.62943270  0.37011829
   0.35910329  0.57718828  0.42530336
   0.57179563  0.62536223  0.67555684
   0.59038581  0.66794002  0.55585698
   0.55746183  0.50914016  0.72463296
   0.37885740  0.49110428  0.67034041
   0.59892512  0.61910769  0.43971775
   0.48846652  0.52436898  0.61126315
   0.44036247  0.51011505  0.34778353
   0.47853115  0.56846433  0.48902228
   0.35870624  0.53237666  0.54739723
   0.69047425  0.66292029  0.63298728
   0.59468610  0.52664750  0.54124142
   0.38945972  0.45256284  0.44882127
   0.56433125  0.52015468  0.36821443
   0.78507890  0.57354587  0.61033317
   0.48640501  0.41107173  0.67918674
   0.66785422  0.54019617  0.65669904
   0.69956767  0.60156873  0.52116320
   0.51762400  0.44302524  0.47780367
   0.41778669  0.41847397  0.56957604
   0.48379647  0.38991295  0.36600445
   0.60786081  0.43028802  0.63212455
   0.67457668  0.50668604  0.43740305
   0.43794856  0.33440310  0.47424298
   0.52780367  0.34883060  0.57234179
   0.72200535  0.47556171  0.55879363
   0.61394904  0.40575105  0.38451460
   0.63895194  0.39463916  0.51156862
   0.48209853  0.25843512  0.37823921
   0.56413880  0.31003593  0.45421416
Direct configuration=    21
   0.39175610  0.70492094  0.40268501
   0.45543826  0.58725704  0.72026395
   0.47277487  0.66270620  0.60548381
   0.38217667  0.61878401  0.30700060
   0.35640833  0.61626289  0.64316604
   0.49545311  0.70132123  0.47823568
   0.37651594  0.66115901  0.52260759
   0.49201134  0.62911763  0.37036850
   0.35956384  0.57732713  0.42487593