   36   36 1000    2
  0.2694174E+03  0.2132600E-08  0.2132600E-08  0.2132600E-08  0.1000000E-15
  1.000000000000000E-004
  CAR 
 unknown system                          
    396      1    256
 
  0.0000000E+00  0.0000000E+00  0.0000000E+00  0.1000000E+01
    1       -9.702133     -9.650082
    2       -9.195336     -9.155182
    3       -9.136892     -9.105094
    4       -9.079977     -9.048004
    5       -9.042886     -9.012817
    6       -8.986019     -8.954908
    7       -8.962036     -8.936225
    8       -8.925092     -8.898351
    9       -8.886242     -8.860293
   10       -8.874109     -8.848538
   11       -8.853333     -8.831087
   12       -8.799685     -8.776289
   13       -8.798115     -8.773463
   14       -8.737961     -8.718764
   15       -8.730287     -8.703635
   16       -8.716995     -8.702059
   17       -8.673130     -8.655293
   18       -8.636284     -8.618363
   19       -8.610373     -8.595577
   20       -8.602031     -8.583810
   21       -8.591793     -8.574007
   22       -8.570524     -8.556636
   23       -8.567190     -8.551943
   24       -8.541626     -8.525836
   25       -8.534961     -8.516928
   26       -8.514056     -8.499664
   27       -8.508298     -8.492786
   28       -8.497486     -8.483255
   29       -8.493932     -8.476851
   30       -8.476033     -8.459624
   31       -8.431978     -8.416757
   32       -8.424432     -8.411019
   33       -8.399696     -8.383153
   34       -8.394756     -8.376522
   35       -8.382797     -8.368494
   36       -8.358364     -8.343549
   37       -8.337320     -8.322555
   38       -8.329997     -8.317113
   39       -8.301230     -8.286863
   40       -8.298291     -8.285522
   41       -8.287192     -8.268702
   42       -8.264638     -8.251483
   43       -8.239859     -8.226195
   44       -8.226690     -8.214070
   45       -8.209241     -8.197291
   46       -8.180120     -8.166465
   47       -8.166431     -8.150442
   48       -8.158642     -8.144097
   49       -8.142057     -8.129518
   50       -8.134136     -8.118593
   51       -8.096417     -8.081589
   52       -8.072355     -8.059576
   53       -8.066290     -8.048329
   54       -8.055904     -8.039201
   55       -8.023024     -8.006871
   56       -8.005565     -7.991905
   57       -7.998205     -7.982988
   58       -7.988772     -7.972365
   59       -7.972724     -7.956002
   60       -7.953860     -7.937315
   61       -7.940642     -7.925638
   62       -7.906767     -7.891328
   63       -7.901206     -7.887968
   64       -7.874854     -7.860354
   65       -7.870629     -7.854015
   66       -7.855964     -7.838057
   67       -7.850285     -7.831757
   68       -7.830369     -7.813976
   69       -7.813856     -7.798886
   70       -7.786009     -7.770858
   71       -7.783055     -7.767916
   72       -7.738817     -7.724488
   73       -7.719260     -7.704516
   74       -7.691190     -7.672777
   75       -7.678811     -7.663741
   76       -7.667376     -7.650013
   77       -7.636211     -7.621312
   78       -7.624317     -7.606728
   79       -7.605861     -7.587528
   80       -7.591727     -7.576973
   81       -7.560419     -7.546338
   82       -7.558667     -7.541543
   83       -7.518066     -7.502617
   84       -7.499466     -7.484662
   85       -7.489209     -7.476956
   86       -7.449787     -7.439102
   87       -7.441503     -7.427362
   88       -7.419746     -7.405823
   89       -7.416829     -7.403680
   90       -7.405161     -7.391465
   91       -7.380046     -7.366319
   92       -7.358352     -7.346309
   93       -7.348634     -7.335617
   94       -7.314051     -7.298410
   95       -7.291609     -7.279305
   96       -7.269629     -7.256220
   97       -7.264400     -7.249989
   98       -7.248020     -7.235056
   99       -7.243208     -7.229195
  100       -7.221866     -7.205774
  101       -7.200901     -7.186439
  102       -7.187587     -7.171924
  103       -7.176302     -7.157329
  104       -7.167165     -7.154441
  105       -7.144981     -7.129228
  106       -7.128417     -7.115496
  107       -7.098296     -7.084145
  108       -7.082590     -7.068867
  109       -7.051866     -7.036456
  110       -7.027653     -7.012105
  111       -7.020932     -7.006105
  112       -7.014354     -7.002286
  113       -7.004384     -6.991902
  114       -6.985847     -6.971983
  115       -6.972712     -6.960199
  116       -6.957177     -6.944040
  117       -6.922685     -6.908994
  118       -6.917383     -6.902992
  119       -6.904442     -6.892710
  120       -6.878742     -6.864972
  121       -6.869889     -6.856808
  122       -6.854854     -6.840733
  123       -6.846631     -6.832951
  124       -6.837562     -6.822457
  125       -6.828487     -6.814248
  126       -6.824592     -6.810048
  127       -6.812261     -6.797511
  128       -6.809655     -6.793583
  129       -6.785526     -6.771966
  130       -6.778881     -6.763851
  131       -6.763522     -6.747902
  132       -6.756649     -6.743875
  133       -6.736827     -6.724229
  134       -6.726776     -6.714766
  135       -6.720344     -6.704621
  136       -6.715153     -6.701485
  137       -6.707250     -6.693027
  138       -6.699951     -6.685098
  139       -6.694087     -6.677515
  140       -6.681229     -6.664705
  141       -6.676335     -6.658483
  142       -6.664931     -6.649902
  143       -6.646069     -6.631302
  144       -6.630142     -6.614598
  145       -6.616785     -6.602577
  146       -6.609247     -6.593494
  147       -6.595505     -6.581091
  148       -6.592854     -6.578202
  149       -6.583160     -6.570596
  150       -6.576386     -6.561445
  151       -6.563663     -6.549107
  152       -6.556811     -6.541657
  153       -6.545002     -6.529618
  154       -6.527677     -6.514904
  155       -6.524417     -6.509073
  156       -6.511363     -6.494331
  157       -6.489824     -6.472613
  158       -6.483997     -6.467530
  159       -6.467100     -6.452160
  160       -6.458007     -6.444841
  161       -6.445539     -6.431001
  162       -6.437529     -6.422729
  163       -6.409988     -6.392603
  164       -6.403162     -6.388049
  165       -6.401650     -6.383246
  166       -6.392443     -6.375731
  167       -6.384060     -6.367693
  168       -6.368756     -6.353072
  169       -6.352998     -6.337498
  170       -6.343053     -6.327700
  171       -6.337271     -6.323064
  172       -6.332784     -6.317008
  173       -6.313261     -6.296601
  174       -6.293041     -6.280150
  175       -6.288406     -6.274283
  176       -6.272868     -6.258633
  177       -6.269111     -6.249874
  178       -6.227754     -6.212990
  179       -6.218743     -6.208664
  180       -6.187883     -6.178801
  181       -6.145732     -6.137462
  182       -6.125995     -6.114886
  183       -6.100409     -6.092030
  184       -6.089284     -6.081341
  185       -5.945985     -5.916576
  186       -5.688642     -5.653618
  187       -5.613481     -5.570335
  188       -5.550580     -5.513989
  189       -5.524531     -5.489961
  190       -5.043135     -4.980999
  191       -4.633581     -4.588964
  192       -4.422281     -4.370580
  193       -4.298137     -4.254022
  194       -4.150905     -4.102152
  195       -4.001644     -3.967669
  196       -3.902551     -3.864407
  197       -3.831453     -3.791179
  198       -3.177738     -3.073250
  199       -3.116573     -2.999469
  200       -2.919914     -2.865744
  201       -2.774857     -2.721340
  202       -2.722891     -2.672600
  203       -2.556169     -2.514426
  204       -2.468238     -2.415491
  205       -2.387734     -2.339212
  206       -2.230901     -2.184735
  207       -2.202113     -2.154999
  208       -2.145610     -2.099362
  209       -2.050145     -2.000707
  210       -1.780886     -1.700359
  211       -1.684000     -1.572424
  212       -1.592285     -1.481281
  213       -1.482450     -1.408332
  214       -1.397920     -1.320448
  215       -1.324591     -1.263013
  216       -1.215943     -1.158990
  217       -0.967814     -0.918081
  218       -0.804481     -0.732380
  219       -0.694213     -0.621774
  220       -0.596579     -0.530538
  221       -0.485625     -0.423551
  222       -0.471669     -0.417890
  223       -0.252411     -0.186940
  224       -0.207452     -0.144883
  225       -0.075180      0.002021
  226       -0.040559      0.020856
  227        0.097912      0.155660
  228        0.192663      0.250118
  229        0.246649      0.325721
  230        0.287152      0.365531
  231        0.342997      0.445856
  232        0.466417      0.542725
  233        0.521303      0.589655
  234        0.620404      0.662844
  235        0.671839      0.745933
  236        0.681663      0.765509
  237        0.730500      0.815858
  238        0.784041      0.853982
  239        0.816769      0.865634
  240        0.847109      0.899779
  241        0.916467      0.967347
  242        0.960308      1.020134
  243        1.067445      1.082806
  244        1.076849      1.128703
  245        1.129691      1.162625
  246        1.142649      1.191583
  247        1.172265      1.242556
  248        1.188712      1.254646
  249        1.209501      1.265903
  250        1.227456      1.281326
  251        1.234436      1.292908
  252        1.282303      1.316298
  253        1.287266      1.322916
  254        1.298749      1.345310
  255        1.349775      1.374520
  256        1.420602      1.467981
