14
Energy = -135.76023508 eV
Ta 9.466087616069474 12.06434192612635 7.847186194877577
Ta 7.645039071839367 10.15740803150472 7.546118720278156
Ta 10.135122454835434 9.819099554526622 6.681011012017795
Ta 10.057708471130685 9.697897700768703 9.366741957247626
Ta 7.675967144206536 11.57008517564542 9.736799370427349
Ta 10.184491490561262 12.156542533104963 10.378133386779052
Ta 11.23356136370489 7.708195823827861 8.04869714620165
Ta 11.248022926049599 10.03648501551873 11.75099187440912
Ta 8.638783156178622 7.783874079097641 7.483614013002367
Ta 11.68699223426377 7.70650801719435 10.636550929927571
Ta 8.667192516954964 10.605402425474281 11.910292495003338
Ta 7.526910614087263 8.78868848854686 9.961096436425533
Ta 9.399048268857891 8.136946365949575 11.90883356695047
Ta 9.402908599603855 6.737572744311403 9.708922203397307
