12
Energy = -112.64108622 eV
Ta 7.787369993828547 10.778479282989716 5.538984333874933
Ta 8.045517797300487 8.331998137150672 6.010470277395181
Ta 9.964400325874168 10.155586690728745 6.578288707926351
Ta 7.64123568173734 10.362748980028089 8.062375231988161
Ta 6.767915431370786 7.905680824979583 8.237326441027307
Ta 9.643193110785436 7.980679363513857 7.989877328071662
Ta 10.87376709944279 7.979288347123302 10.314769788018996
Ta 8.493142636910294 6.454336839853399 9.767462202939026
Ta 10.05137242469232 10.390370455164424 9.371165742148975
Ta 7.954095162053729 8.994569823651508 10.358459002462734
Ta 9.158282898648537 7.281445909389745 12.10885309215296
Ta 9.922800316703372 9.687908224774173 11.96506073134123
