4
Energy = -25.94482197 eV
Ta 10.526166196207015 8.20252944972689 8.40667048198788
Ta 12.041305932410305 13.001496165683973 11.512276360386464
Ta 10.43482277886528 12.630136324999373 12.53014008643656
Ta 8.950881843236461 8.132489927893074 9.530358418487442
