55
Energy = -570.713753 eV
Ta 14.97880718576325 8.901135471771102 8.986871291251184
Ta 15.656857806505945 13.409574786196185 14.30579128830902
Ta 10.991264128217118 10.690219150936914 14.478878303910482
Ta 7.726160157188681 13.820425464753802 14.657452682276539
Ta 10.399061831859983 10.01525930596032 17.167966502510158
Ta 15.081732640684951 11.678364874866805 7.916520267698355
Ta 16.399889891961557 10.908022266389088 13.271769847852596
Ta 12.31939316851774 11.86001031683152 17.15038987977704
Ta 11.781366180613306 14.535246981216114 16.450074547548926
Ta 10.708530625552555 10.434286618131226 9.173585703890064
Ta 13.798565998774249 15.587308522473117 9.875148159706065
Ta 11.184439212043532 16.747628418835287 14.493956762006546
Ta 12.288492282478169 15.24642776231458 7.571592585075792
Ta 10.377593247453653 6.849267214473178 12.777499770037622
Ta 8.483019174444445 10.246600835868705 10.8240602872357
Ta 14.982595425752539 11.208211809524597 15.763289158792269
Ta 8.851504558272856 14.213387299075256 11.787375585681586
Ta 10.9291426157603 9.47932232892828 12.158757513645106
Ta 12.82953352766376 12.999444679488143 9.217939444700749
Ta 12.447533153025784 8.211870483441452 8.383603566737598
Ta 15.82373534643517 13.758260793148716 9.732799292084847
Ta 8.461975893156485 8.871372362084298 13.088291130016326
Ta 14.326661540096275 13.755157178097292 16.634867518749505
Ta 13.57392090410191 15.321243410636905 14.338770488151154
Ta 10.209455273216534 16.699422363633712 11.992215877373546
Ta 8.364460326594697 10.29251212665867 15.49025975774232
Ta 13.217937956688473 10.50004224306028 10.246242797294137
Ta 12.688625287638306 7.9070807521501845 10.849236042173647
Ta 10.64992790625154 14.927708217468629 9.617123675682235
Ta 9.392807110166801 12.61160731530884 9.550287139236978
Ta 10.802590668015494 12.923400536872153 7.208482300294194
Ta 13.652184676844962 10.444284330754344 13.008801262701219
Ta 9.69710189818676 12.629196093343019 16.118317461575923
Ta 9.819062865717655 7.929112879804505 10.402441999216583
Ta 8.421503528716718 16.17405974609227 13.812127025438134
Ta 10.302123647067 8.188148189675182 15.065038777125997
Ta 12.801584877177058 12.638191648376182 14.491930323202258
Ta 15.184059717694337 8.562481568801253 11.810278027172785
Ta 17.066974892301424 13.168086940393048 11.985008024787001
Ta 12.924105007505368 9.486099849676666 15.907424359347637
Ta 14.205261987370722 13.030595550322944 11.92897968695666
Ta 15.251046423688196 8.76168073163955 14.612180971398729
Ta 12.166698835372868 14.870756527350006 11.955595479461385
Ta 11.884694732720282 17.27076207818643 10.073976777495846
Ta 13.263677456607937 17.337020629923217 12.35800619539129
Ta 9.294424970433067 15.538562311190443 16.15539419714789
Ta 10.498117966304596 14.135087532488447 13.92345668425651
Ta 12.8172286609189 7.820157049316183 13.644490287445228
Ta 15.896088221455969 11.013341782702646 10.605458125267724
Ta 13.16330351843147 12.927366791629195 6.237248189322598
Ta 8.81546769462102 11.790273496177575 13.166470217574846
Ta 14.825759785514725 14.40738049705934 7.382478744645741
Ta 12.767267428567793 10.571644275404099 7.4165624642268115
Ta 11.227423391686477 12.230961243955166 11.620728384314356
Ta 15.350356790199294 15.48802636514309 12.179607167083141
