5
Energy = -42.83476171 eV
Ta 7.854274861034028 7.32152085322113 6.721927046347331
Ta 5.273486270381188 7.108619330136869 7.259902153053877
Ta 6.874304366825983 5.446355867909475 8.110779056694524
Ta 6.667392422647539 5.269192641137899 5.651560529566491
Ta 6.044931265729541 7.56874728995118 4.969128016855024
