6
Energy = -49.48401175 eV
Ta 9.928797696616538 6.997179186237801 8.741450730983162
Ta 9.650428907798512 9.24285717224383 9.739409613537418
Ta 8.853558492459996 8.885729459618007 7.251718854539148
Ta 7.417018835660658 10.092264640596731 9.098171179853294
Ta 7.870697678327098 6.453975369886387 7.482089140092383
Ta 6.3123827864677295 8.360878568747898 7.720044878325251
