9
Energy = -82.16668309 eV
Ta 11.17807275529598 9.589816071159833 7.400944351611562
Ta 8.964670341793534 10.70753671813413 8.108070531324593
Ta 10.917413312126708 9.9724845347641 10.012026338207361
Ta 9.928399302583431 7.707545934689166 8.645311034050971
Ta 9.817667975147042 10.03903895250759 12.358289346104966
Ta 8.545960509449 8.643344226012477 6.8449272995176
Ta 8.289842339689642 10.754339400372913 10.545107597291496
Ta 7.3783635146270425 8.698307841438258 9.239724344287398
Ta 9.15365041359395 8.058229487810724 11.02753903599695
