<?xml version="1.0" encoding="ISO-8859-1"?>
<modeling>
 <generator>
  <i name="program" type="string">vasp </i>
  <i name="version" type="string">5.3.5  </i>
  <i name="subversion" type="string">31Mar14 (build Feb 01 2018 12:10:03) gamma-only                       parallel </i>
  <i name="platform" type="string">LinuxIFC </i>
  <i name="date" type="string">2019 03 21 </i>
  <i name="time" type="string">21:29:45 </i>
 </generator>
 <incar>
  <i type="string" name="PREC">normal</i>
  <i type="int" name="ISPIN">     2</i>
  <i type="int" name="IBRION">     2</i>
  <i type="int" name="NSW">  1000</i>
  <i type="int" name="ISIF">     2</i>
  <i name="POTIM">      0.10000000</i>
  <i type="logical" name="LPLANE"> T  </i>
  <i type="int" name="ISMEAR">     0</i>
  <i name="SIGMA">      0.00010000</i>
  <i type="logical" name="LWAVE"> F  </i>
  <i type="logical" name="LCHARG"> F  </i>
  <i type="logical" name="LVTOT"> F  </i>
  <i type="string" name="GGA"> PE</i>
 </incar>
 <kpoints>
  <varray name="kpointlist" >
   <v>       0.00000000       0.00000000       0.00000000 </v>
  </varray>
  <varray name="weights" >
   <v>       1.00000000 </v>
  </varray>
 </kpoints>
 <parameters>
  <separator name="general" >
   <i type="string" name="SYSTEM">unknown system</i>
   <i type="logical" name="LCOMPAT"> F  </i>
  </separator>
  <separator name="electronic" >
   <i type="string" name="PREC">normal</i>
   <i name="ENMAX">    249.84400000</i>
   <i name="ENAUG">    412.49600000</i>
   <i name="EDIFF">      0.00010000</i>
   <i type="int" name="IALGO">    38</i>
   <i type="int" name="IWAVPR">    11</i>
   <i type="int" name="NBANDS">   152</i>
   <i name="NELECT">    231.00000000</i>
   <i type="int" name="TURBO">     0</i>
   <i type="int" name="IRESTART">     0</i>
   <i type="int" name="NREBOOT">     0</i>
   <i type="int" name="NMIN">     0</i>
   <i name="EREF">      0.00000000</i>
   <separator name="electronic smearing" >
    <i type="int" name="ISMEAR">     0</i>
    <i name="SIGMA">      0.00010000</i>
    <i name="KSPACING">      0.50000000</i>
    <i type="logical" name="KGAMMA"> T  </i>
   </separator>
   <separator name="electronic projectors" >
    <i type="logical" name="LREAL"> F  </i>
    <v name="ROPT">      0.00000000</v>
    <i type="int" name="LMAXPAW">  -100</i>
    <i type="int" name="LMAXMIX">     2</i>
    <i type="logical" name="NLSPLINE"> F  </i>
   </separator>
   <separator name="electronic startup" >
    <i type="int" name="ISTART">     0</i>
    <i type="int" name="ICHARG">     2</i>
    <i type="int" name="INIWAV">     1</i>
   </separator>
   <separator name="electronic spin" >
    <i type="int" name="ISPIN">     2</i>
    <i type="logical" name="LNONCOLLINEAR"> F  </i>
    <v name="MAGMOM">      1.00000000      1.00000000      1.00000000      1.00000000      1.00000000      1.00000000      1.00000000      1.00000000      1.00000000      1.00000000      1.00000000      1.00000000      1.00000000      1.00000000      1.00000000      1.00000000      1.00000000      1.00000000      1.00000000      1.00000000
      1.00000000</v>
    <i name="NUPDOWN">     -1.00000000</i>
    <i type="logical" name="LSORBIT"> F  </i>
    <v name="SAXIS">      0.00000000      0.00000000      1.00000000</v>
    <i type="logical" name="LSPIRAL"> F  </i>
    <v name="QSPIRAL">      0.00000000      0.00000000      0.00000000</v>
    <i type="logical" name="LZEROZ"> F  </i>
   </separator>
   <separator name="electronic exchange-correlation" >
    <i type="logical" name="LASPH"> F  </i>
    <i type="logical" name="LMETAGGA"> F  </i>
   </separator>
   <separator name="electronic convergence" >
    <i type="int" name="NELM">    60</i>
    <i type="int" name="NELMDL">    -5</i>
    <i type="int" name="NELMIN">     2</i>
    <i name="ENINI">    249.84400000</i>
    <separator name="electronic convergence detail" >
     <i type="logical" name="LDIAG"> T  </i>
     <i type="logical" name="LSUBROT"> F  </i>
     <i name="WEIMIN">      0.00100000</i>
     <i name="EBREAK">      0.00000016</i>
     <i name="DEPER">      0.30000000</i>
     <i type="int" name="NRMM">     4</i>
     <i name="TIME">      0.40000000</i>
    </separator>
   </separator>
   <separator name="electronic mixer" >
    <i name="AMIX">      0.40000000</i>
    <i name="BMIX">      1.00000000</i>
    <i name="AMIN">      0.10000000</i>
    <i name="AMIX_MAG">      1.60000000</i>
    <i name="BMIX_MAG">      1.00000000</i>
    <separator name="electronic mixer details" >
     <i type="int" name="IMIX">     4</i>
     <i type="int" name="MAXMIX">   -45</i>
     <i name="WC">    100.00000000</i>
     <i type="int" name="INIMIX">     1</i>
     <i type="int" name="MIXPRE">     1</i>
     <i type="int" name="MREMOVE">     5</i>
    </separator>
   </separator>
   <separator name="electronic dipolcorrection" >
    <i type="logical" name="LDIPOL"> F  </i>
    <i type="logical" name="LMONO"> F  </i>
    <i type="int" name="IDIPOL">     0</i>
    <i name="EPSILON">      1.00000000</i>
    <v name="DIPOL">   -100.00000000   -100.00000000   -100.00000000</v>
    <i name="EFIELD">      0.00000000</i>
   </separator>
  </separator>
  <separator name="grids" >
   <i type="int" name="NGX">    80</i>
   <i type="int" name="NGY">    80</i>
   <i type="int" name="NGZ">    80</i>
   <i type="int" name="NGXF">   160</i>
   <i type="int" name="NGYF">   160</i>
   <i type="int" name="NGZF">   160</i>
   <i type="logical" name="ADDGRID"> F  </i>
  </separator>
  <separator name="ionic" >
   <i type="int" name="NSW">  1000</i>
   <i type="int" name="IBRION">     2</i>
   <i type="int" name="ISIF">     2</i>
   <i name="PSTRESS">      0.00000000</i>
   <i name="EDIFFG">      0.00100000</i>
   <i type="int" name="NFREE">     1</i>
   <i name="POTIM">      0.10000000</i>
   <i name="SMASS">     -3.00000000</i>
   <i name="SCALEE">      1.00000000</i>
  </separator>
  <separator name="ionic md" >
   <i name="TEBEG">      0.00010000</i>
   <i name="TEEND">      0.00010000</i>
   <i type="int" name="NBLOCK">     1</i>
   <i type="int" name="KBLOCK">  1000</i>
   <i type="int" name="NPACO">   256</i>
   <i name="APACO">     16.00000000</i>
  </separator>
  <separator name="symmetry" >
   <i type="int" name="ISYM">     2</i>
   <i name="SYMPREC">      0.00001000</i>
  </separator>
  <separator name="dos" >
   <i type="logical" name="LORBIT"> F  </i>
   <v name="RWIGS">     -1.00000000</v>
   <i type="int" name="NEDOS">   301</i>
   <i name="EMIN">     10.00000000</i>
   <i name="EMAX">    -10.00000000</i>
   <i name="EFERMI">      0.00000000</i>
  </separator>
  <separator name="writing" >
   <i type="int" name="NWRITE">     2</i>
   <i type="logical" name="LWAVE"> F  </i>
   <i type="logical" name="LCHARG"> F  </i>
   <i type="logical" name="LPARD"> F  </i>
   <i type="logical" name="LVTOT"> F  </i>
   <i type="logical" name="LVHAR"> F  </i>
   <i type="logical" name="LELF"> F  </i>
   <i type="logical" name="LOPTICS"> F  </i>
   <v name="STM">      0.00000000      0.00000000      0.00000000      0.00000000      0.00000000      0.00000000      0.00000000</v>
  </separator>
  <separator name="performance" >
   <i type="int" name="NPAR">     4</i>
   <i type="int" name="NSIM">     4</i>
   <i type="int" name="NBLK">    -1</i>
   <i type="logical" name="LPLANE"> T  </i>
   <i type="logical" name="LSCALAPACK"> T  </i>
   <i type="logical" name="LSCAAWARE"> F  </i>
   <i type="logical" name="LSCALU"> F  </i>
   <i type="logical" name="LASYNC"> F  </i>
   <i type="logical" name="LORBITALREAL"> F  </i>
  </separator>
  <separator name="miscellaneous" >
   <i type="int" name="IDIOT">     3</i>
   <i type="logical" name="LMUSIC"> F  </i>
   <v name="POMASS">    107.86800000</v>
   <v name="DARWINR">      0.00000000</v>
   <v name="DARWINV">      1.00000000</v>
   <i type="logical" name="LCORR"> T  </i>
  </separator>
  <i type="logical" name="GGA_COMPAT"> T  </i>
  <i type="logical" name="LBERRY"> F  </i>
  <i type="int" name="ICORELEVEL">     0</i>
  <i type="logical" name="LDAU"> F  </i>
  <i type="int" name="I_CONSTRAINED_M">     0</i>
  <separator name="electronic exchange-correlation" >
   <i type="string" name="GGA">PE</i>
   <i type="int" name="VOSKOWN">     0</i>
   <i type="logical" name="LHFCALC"> F  </i>
   <i type="string" name="PRECFOCK"></i>
   <i type="logical" name="LSYMGRAD"> F  </i>
   <i type="logical" name="LHFONE"> F  </i>
   <i type="logical" name="LRHFCALC"> F  </i>
   <i type="logical" name="LTHOMAS"> F  </i>
   <i type="logical" name="LMODELHF"> F  </i>
   <i name="ENCUT4O">     -1.00000000</i>
   <i type="int" name="EXXOEP">     0</i>
   <i type="int" name="FOURORBIT">     0</i>
   <i name="AEXX">      0.00000000</i>
   <i name="HFALPHA">      0.00000000</i>
   <i name="MCALPHA">      0.00000000</i>
   <i name="ALDAX">      1.00000000</i>
   <i name="AGGAX">      1.00000000</i>
   <i name="ALDAC">      1.00000000</i>
   <i name="AGGAC">      1.00000000</i>
   <i type="int" name="NKREDX">     1</i>
   <i type="int" name="NKREDY">     1</i>
   <i type="int" name="NKREDZ">     1</i>
   <i type="logical" name="SHIFTRED"> F  </i>
   <i type="logical" name="ODDONLY"> F  </i>
   <i type="logical" name="EVENONLY"> F  </i>
   <i type="int" name="LMAXFOCK">     0</i>
   <i type="int" name="NMAXFOCKAE">     0</i>
   <i type="logical" name="LFOCKAEDFT"> F  </i>
   <i name="HFSCREEN">      0.00000000</i>
   <i name="HFSCREENC">      0.00000000</i>
   <i type="int" name="NBANDSGWLOW">     0</i>
  </separator>
  <separator name="vdW DFT" >
   <i type="logical" name="LUSE_VDW"> F  </i>
   <i name="Zab_VDW">     -0.84910000</i>
   <i name="PARAM1">      0.12340000</i>
   <i name="PARAM2">      1.00000000</i>
   <i name="PARAM3">      0.00000000</i>
  </separator>
  <separator name="model GW" >
   <i type="int" name="MODEL_GW">     0</i>
   <i name="MODEL_EPS0">    228.26727705</i>
   <i name="MODEL_ALPHA">      1.00000000</i>
  </separator>
  <separator name="linear response parameters" >
   <i type="logical" name="LEPSILON"> F  </i>
   <i type="logical" name="LRPA"> F  </i>
   <i type="logical" name="LNABLA"> F  </i>
   <i type="logical" name="LVEL"> F  </i>
   <i type="int" name="KINTER">     0</i>
   <i name="CSHIFT">      0.10000000</i>
   <i name="OMEGAMAX">     -1.00000000</i>
   <i name="DEG_THRESHOLD">      0.00200000</i>
  </separator>
  <separator name="orbital magnetization" >
   <i type="logical" name="NUCIND"> F  </i>
   <v name="MAGPOS">      0.00000000      0.00000000      0.00000000</v>
   <i type="logical" name="LNICSALL"> T  </i>
   <i type="logical" name="ORBITALMAG"> F  </i>
   <i type="logical" name="LMAGBLOCH"> F  </i>
   <i type="logical" name="LCHIMAG"> F  </i>
   <i type="logical" name="LGAUGE"> T  </i>
   <i type="int" name="MAGATOM">     0</i>
   <v name="MAGDIPOL">      0.00000000      0.00000000      0.00000000</v>
   <v name="AVECCONST">      0.00000000      0.00000000      0.00000000</v>
  </separator>
  <separator name="response functions" >
   <i type="logical" name="LADDER"> F  </i>
   <i type="logical" name="LFXC"> F  </i>
   <i type="logical" name="LHARTREE"> T  </i>
   <i type="int" name="IBSE">     0</i>
   <i type="logical" name="LTCTE"> F  </i>
   <i type="logical" name="LTETE"> F  </i>
   <i type="logical" name="LTRIPLET"> F  </i>
   <i type="logical" name="LFXCEPS"> F  </i>
   <i type="logical" name="LFXHEG"> F  </i>
   <i type="logical" name="L2ORDER"> F  </i>
   <i type="logical" name="LUSEW"> F  </i>
   <i name="ENCUTGW">     -2.00000000</i>
   <i name="ENCUTGWSOFT">     -2.00000000</i>
   <i name="ENCUTLF">     -1.00000000</i>
   <i type="int" name="LMAXMP2">    -1</i>
   <i name="SCISSOR">      0.00000000</i>
   <i type="int" name="NOMEGA">     0</i>
   <i type="int" name="NOMEGAR">     0</i>
   <i type="int" name="NBANDSGW">    -1</i>
   <i type="int" name="NBANDSO">    -1</i>
   <i type="int" name="NBANDSV">    -1</i>
   <i type="int" name="NELM">     1</i>
   <i type="int" name="DIM">     3</i>
   <i type="int" name="ANTIRES">     0</i>
   <i name="OMEGAMAX">    -30.00000000</i>
   <i name="OMEGAMIN">    -30.00000000</i>
   <i name="OMEGATL">   -200.00000000</i>
   <i type="int" name="OMEGAGRID">     0</i>
   <i name="CSHIFT">     -0.10000000</i>
   <i type="logical" name="SELFENERGY"> F  </i>
   <i type="logical" name="LSPECTRAL"> F  </i>
   <i type="logical" name="ODDONLYGW"> F  </i>
   <i type="logical" name="EVENONLYGW"> F  </i>
   <i type="int" name="NKREDLFX">     1</i>
   <i type="int" name="NKREDLFY">     1</i>
   <i type="int" name="NKREDLFZ">     1</i>
   <i type="int" name="MAXMEM">  1800</i>
   <i type="int" name="TELESCOPE">     0</i>
   <i type="int" name="TAUPAR">     1</i>
  </separator>
  <separator name="External order field" >
   <i name="OFIELD_KAPPA">      0.00000000</i>
   <v name="OFIELD_K">      0.00000000      0.00000000      0.00000000</v>
   <i name="OFIELD_Q6_NEAR">      0.00000000</i>
   <i name="OFIELD_Q6_FAR">      0.00000000</i>
   <i name="OFIELD_A">      0.00000000</i>
  </separator>
 </parameters>
 <atominfo>
  <atoms>      21 </atoms>
  <types>       1 </types>
  <array name="atoms" >
   <dimension dim="1">ion</dimension>
   <field type="string">element</field>
   <field type="int">atomtype</field>
   <set>
    <rc><c>Ag</c><c>   1</c></rc>
    <rc><c>Ag</c><c>   1</c></rc>
    <rc><c>Ag</c><c>   1</c></rc>
    <rc><c>Ag</c><c>   1</c></rc>
    <rc><c>Ag</c><c>   1</c></rc>
    <rc><c>Ag</c><c>   1</c></rc>
    <rc><c>Ag</c><c>   1</c></rc>
    <rc><c>Ag</c><c>   1</c></rc>
    <rc><c>Ag</c><c>   1</c></rc>
    <rc><c>Ag</c><c>   1</c></rc>
    <rc><c>Ag</c><c>   1</c></rc>
    <rc><c>Ag</c><c>   1</c></rc>
    <rc><c>Ag</c><c>   1</c></rc>
    <rc><c>Ag</c><c>   1</c></rc>
    <rc><c>Ag</c><c>   1</c></rc>
    <rc><c>Ag</c><c>   1</c></rc>
    <rc><c>Ag</c><c>   1</c></rc>
    <rc><c>Ag</c><c>   1</c></rc>
    <rc><c>Ag</c><c>   1</c></rc>
    <rc><c>Ag</c><c>   1</c></rc>
    <rc><c>Ag</c><c>   1</c></rc>
   </set>
  </array>
  <array name="atomtypes" >
   <dimension dim="1">type</dimension>
   <field type="int">atomspertype</field>
   <field type="string">element</field>
   <field>mass</field>
   <field>valence</field>
   <field type="string">pseudopotential</field>
   <set>
    <rc><c>  21</c><c>Ag</c><c>    107.86800000</c><c>     11.00000000</c><c>  PAW_PBE Ag 02Apr2005                  </c></rc>
   </set>
  </array>
 </atominfo>
 <structure name="initialpos" >
  <crystal>
   <varray name="basis" >
    <v>      19.99112498       0.00000000       0.00000000 </v>
    <v>       0.00000000      19.99112498       0.00000000 </v>
    <v>       0.00000000       0.00000000      19.99112498 </v>
   </varray>
   <i name="volume">   7989.35469660 </i>
   <varray name="rec_basis" >
    <v>       0.05002220       0.00000000       0.00000000 </v>
    <v>       0.00000000       0.05002220       0.00000000 </v>
    <v>       0.00000000       0.00000000       0.05002220 </v>
   </varray>
  </crystal>
  <varray name="positions" >
   <v>       0.34530618       0.52973168       0.44884585 </v>
   <v>       0.36794203       0.53518813       0.59378540 </v>
   <v>       0.39364610       0.41721855       0.51587050 </v>
   <v>       0.47561596       0.63549020       0.41050417 </v>
   <v>       0.38417681       0.64851260       0.50845243 </v>
   <v>       0.45124182       0.47410942       0.38716225 </v>
   <v>       0.51434379       0.36872519       0.45359990 </v>
   <v>       0.47527227       0.53603857       0.50827069 </v>
   <v>       0.47106214       0.30952592       0.56965730 </v>
   <v>       0.39809338       0.66595675       0.64344576 </v>
   <v>       0.56206679       0.41662001       0.33349543 </v>
   <v>       0.59393021       0.37659580       0.57006292 </v>
   <v>       0.48636405       0.44332749       0.61590004 </v>
   <v>       0.63887905       0.43004555       0.44944246 </v>
   <v>       0.48940890       0.56636306       0.66397426 </v>
   <v>       0.51335419       0.66211511       0.56738712 </v>
   <v>       0.60497333       0.64862835       0.47146904 </v>
   <v>       0.57174538       0.53489176       0.40378687 </v>
   <v>       0.70425474       0.45383353       0.57161645 </v>
   <v>       0.59224837       0.53073142       0.56942615 </v>
   <v>       0.70177289       0.55201854       0.47692496 </v>
  </varray>
 </structure>
 <calculation>
  <scstep>
   <time name="dav">    1.82    1.83</time>
   <time name="total">    2.07    2.10</time>
   <energy>
    <i name="alphaZ">     46.95059147 </i>
    <i name="ewald">  35772.11475776 </i>
    <i name="hartreedc"> -56652.42766528 </i>
    <i name="XCdc">   -231.30583885 </i>
    <i name="pawpsdc">  21070.81573946 </i>
    <i name="pawaedc"> -20102.55678646 </i>
    <i name="eentropy">     -0.00000000 </i>
    <i name="bandstr">    340.02134368 </i>
    <i name="atom">  21781.17123181 </i>
    <i name="e_fr_energy">   2024.78337359 </i>
    <i name="e_wo_entrp">   2024.78337359 </i>
    <i name="e_0_energy">   2024.78337359 </i>
   </energy>
  </scstep>
  <scstep>
   <time name="dav">    2.93    2.93</time>
   <time name="total">    2.93    2.94</time>
   <energy>
    <i name="e_fr_energy">    469.80752411 </i>
    <i name="e_wo_entrp">    469.80752411 </i>
    <i name="e_0_energy">    469.80752411 </i>
   </energy>
  </scstep>
  <scstep>
   <time name="dav">    2.30    2.30</time>
   <time name="total">    2.30    2.31</time>
   <energy>
    <i name="e_fr_energy">    -16.13292224 </i>
    <i name="e_wo_entrp">    -16.13292224 </i>
    <i name="e_0_energy">    -16.13292224 </i>
   </energy>
  </scstep>
  <scstep>
   <time name="dav">    2.02    2.02</time>
   <time name="total">    2.02    2.03</time>
   <energy>
    <i name="e_fr_energy">    -41.14747977 </i>
    <i name="e_wo_entrp">    -41.14747977 </i>
    <i name="e_0_energy">    -41.14747977 </i>
   </energy>
  </scstep>
  <scstep>
   <time name="dav">    2.06    2.06</time>
   <time name="total">    2.16    2.23</time>
   <energy>
    <i name="e_fr_energy">    -41.48941150 </i>
    <i name="e_wo_entrp">    -41.48941150 </i>
    <i name="e_0_energy">    -41.48941150 </i>
   </energy>
  </scstep>
  <scstep>
   <time name="dav">    1.89    1.89</time>
   <time name="total">    2.21    2.22</time>
   <energy>
    <i name="e_fr_energy">    -13.80630410 </i>
    <i name="e_wo_entrp">    -13.80630410 </i>
    <i name="e_0_energy">    -13.80630410 </i>
   </energy>
  </scstep>
  <scstep>
   <time name="dav">    1.98    1.98</time>
   <time name="total">    2.31    2.31</time>
   <energy>
    <i name="e_fr_energy">    -11.10965957 </i>
    <i name="e_wo_entrp">    -11.10965957 </i>
    <i name="e_0_energy">    -11.10965957 </i>
   </energy>
  </scstep>
  <scstep>
   <time name="dav">    1.92    1.93</time>
   <time name="total">    2.25    2.26</time>
   <energy>
    <i name="e_fr_energy">    -13.37149164 </i>
    <i name="e_wo_entrp">    -13.37149164 </i>
    <i name="e_0_energy">    -13.37149164 </i>
   </energy>
  </scstep>
  <scstep>
   <time name="dav">    1.98    1.98</time>
   <time name="total">    2.30    2.31</time>
   <energy>
    <i name="e_fr_energy">    -17.00749832 </i>
    <i name="e_wo_entrp">    -17.00749832 </i>
    <i name="e_0_energy">    -17.00749832 </i>
   </energy>
  </scstep>
  <scstep>
   <time name="dav">    1.94    1.95</time>
   <time name="total">    2.27    2.27</time>
   <energy>
    <i name="e_fr_energy">    -23.48139453 </i>
    <i name="e_wo_entrp">    -23.48139453 </i>
    <i name="e_0_energy">    -23.48139453 </i>
   </energy>
  </scstep>
  <scstep>
   <time name="dav">    2.18    2.18</time>
   <time name="total">    2.50    2.51</time>
   <energy>
    <i name="e_fr_energy">    -23.92692460 </i>
    <i name="e_wo_entrp">    -23.92692460 </i>
    <i name="e_0_energy">    -23.92692460 </i>
   </energy>
  </scstep>
  <scstep>
   <time name="dav">    1.92    1.93</time>
   <time name="total">    2.25    2.26</time>
   <energy>
    <i name="e_fr_energy">    -27.32821108 </i>
    <i name="e_wo_entrp">    -27.32821108 </i>
    <i name="e_0_energy">    -27.32821108 </i>
   </energy>
  </scstep>
  <scstep>
   <time name="dav">    1.87    1.87</time>
   <time name="total">    2.20    2.41</time>
   <energy>
    <i name="e_fr_energy">    -33.98852251 </i>
    <i name="e_wo_entrp">    -33.98852251 </i>
    <i name="e_0_energy">    -33.98852251 </i>
   </energy>
  </scstep>
  <scstep>
   <time name="dav">    2.11    2.11</time>
   <time name="total">    2.44    2.44</time>
   <energy>
    <i name="e_fr_energy">    -34.36204157 </i>
    <i name="e_wo_entrp">    -34.36204157 </i>
    <i name="e_0_energy">    -34.36204157 </i>
   </energy>
  </scstep>
  <scstep>
   <time name="dav">    1.89    1.89</time>
   <time name="total">    2.22    2.22</time>
   <energy>
    <i name="e_fr_energy">    -36.27007901 </i>
    <i name="e_wo_entrp">    -36.27007901 </i>
    <i name="e_0_energy">    -36.27007901 </i>
   </energy>
  </scstep>
  <scstep>
   <time name="dav">    1.92    1.91</time>
   <time name="total">    2.24    2.25</time>
   <energy>
    <i name="e_fr_energy">    -38.24188810 </i>
    <i name="e_wo_entrp">    -38.24188810 </i>
    <i name="e_0_energy">    -38.24188810 </i>
   </energy>
  </scstep>
  <scstep>
   <time name="dav">    1.91    1.91</time>
   <time name="total">    2.24    2.25</time>
   <energy>
    <i name="e_fr_energy">    -39.36885029 </i>
    <i name="e_wo_entrp">    -39.36885029 </i>
    <i name="e_0_energy">    -39.36885029 </i>
   </energy>
  </scstep>
  <scstep>
   <time name="dav">    1.97    1.97</time>
   <time name="total">    2.30    2.30</time>
   <energy>
    <i name="e_fr_energy">    -39.93455153 </i>
    <i name="e_wo_entrp">    -39.93455153 </i>
    <i name="e_0_energy">    -39.93455153 </i>
   </energy>
  </scstep>
  <scstep>
   <time name="dav">    1.91    1.92</time>
   <time name="total">    2.25    2.25</time>
   <energy>
    <i name="e_fr_energy">    -40.54463139 </i>
    <i name="e_wo_entrp">    -40.54463139 </i>
    <i name="e_0_energy">    -40.54463139 </i>
   </energy>
  </scstep>
  <scstep>
   <time name="dav">    1.97    1.97</time>
   <time name="total">    2.30    2.93</time>
   <energy>
    <i name="e_fr_energy">    -40.75955772 </i>
    <i name="e_wo_entrp">    -40.75955772 </i>
    <i name="e_0_energy">    -40.75955772 </i>
   </energy>
  </scstep>
  <scstep>
   <time name="dav">    2.01    2.01</time>
   <time name="total">    2.34    2.35</time>
   <energy>
    <i name="e_fr_energy">    -40.82823372 </i>
    <i name="e_wo_entrp">    -40.82823372 </i>
    <i name="e_0_energy">    -40.82823372 </i>
   </energy>
  </scstep>
  <scstep>
   <time name="dav">    1.96    1.96</time>
   <time name="total">    2.29    2.29</time>
   <energy>
    <i name="e_fr_energy">    -40.87926494 </i>
    <i name="e_wo_entrp">    -40.87926494 </i>
    <i name="e_0_energy">    -40.87926494 </i>
   </energy>
  </scstep>
  <scstep>
   <time name="dav">    1.54    1.54</time>
   <time name="total">    1.87    1.90</time>
   <energy>
    <i name="e_fr_energy">    -40.88144135 </i>
    <i name="e_wo_entrp">    -40.88144135 </i>
    <i name="e_0_energy">    -40.88144135 </i>
   </energy>
  </scstep>
  <scstep>
   <time name="dav">    1.49    1.49</time>
   <time name="total">    1.82    1.85</time>
   <energy>
    <i name="e_fr_energy">    -40.88396282 </i>
    <i name="e_wo_entrp">    -40.88396282 </i>
    <i name="e_0_energy">    -40.88396282 </i>
   </energy>
  </scstep>
  <scstep>
   <time name="dav">    1.49    1.49</time>
   <time name="total">    1.82    1.82</time>
   <energy>
    <i name="e_fr_energy">    -40.88663680 </i>
    <i name="e_wo_entrp">    -40.88663680 </i>
    <i name="e_0_energy">    -40.88663680 </i>
   </energy>
  </scstep>
  <scstep>
   <time name="dav">    1.52    1.53</time>
   <time name="total">    1.86    1.86</time>
   <energy>
    <i name="e_fr_energy">    -40.88828701 </i>
    <i name="e_wo_entrp">    -40.88828701 </i>
    <i name="e_0_energy">    -40.88828701 </i>
   </energy>
  </scstep>
  <scstep>
   <time name="dav">    1.47    1.47</time>
   <time name="total">    1.80    1.81</time>
   <energy>
    <i name="e_fr_energy">    -40.88878138 </i>
    <i name="e_wo_entrp">    -40.88878138 </i>
    <i name="e_0_energy">    -40.88878138 </i>
   </energy>
  </scstep>
  <scstep>
   <time name="dav">    1.43    1.43</time>
   <time name="total">    1.77    1.88</time>
   <energy>
    <i name="e_fr_energy">    -40.88908315 </i>
    <i name="e_wo_entrp">    -40.88908315 </i>
    <i name="e_0_energy">    -40.88908315 </i>
   </energy>
  </scstep>
  <scstep>
   <time name="dav">    1.47    1.47</time>
   <time name="total">    1.71    1.74</time>
   <energy>
    <i name="alphaZ">     46.95059147 </i>
    <i name="ewald">  35772.11475776 </i>
    <i name="hartreedc"> -56625.62099315 </i>
    <i name="XCdc">   -238.94152161 </i>
    <i name="pawpsdc">  22724.13443957 </i>
    <i name="pawaedc"> -21793.17266388 </i>
    <i name="eentropy">      0.00000000 </i>
    <i name="bandstr">  -1707.52489856 </i>
    <i name="atom">  21781.17123181 </i>
    <i name="e_fr_energy">    -40.88905660 </i>
    <i name="e_wo_entrp">    -40.88905660 </i>
    <i name="e_0_energy">    -40.88905660 </i>
   </energy>
  </scstep>
  <structure>
   <crystal>
    <varray name="basis" >
     <v>      19.99112498       0.00000000       0.00000000 </v>
     <v>       0.00000000      19.99112498       0.00000000 </v>
     <v>       0.00000000       0.00000000      19.99112498 </v>
    </varray>
    <i name="volume">   7989.35469660 </i>
    <varray name="rec_basis" >
     <v>       0.05002220       0.00000000       0.00000000 </v>
     <v>       0.00000000       0.05002220       0.00000000 </v>
     <v>       0.00000000       0.00000000       0.05002220 </v>
    </varray>
   </crystal>
   <varray name="positions" >
    <v>       0.34530618       0.52973168       0.44884585 </v>
    <v>       0.36794203       0.53518813       0.59378540 </v>
    <v>       0.39364610       0.41721855       0.51587050 </v>
    <v>       0.47561596       0.63549020       0.41050417 </v>
    <v>       0.38417681       0.64851260       0.50845243 </v>
    <v>       0.45124182       0.47410942       0.38716225 </v>
    <v>       0.51434379       0.36872519       0.45359990 </v>
    <v>       0.47527227       0.53603857       0.50827069 </v>
    <v>       0.47106214       0.30952592       0.56965730 </v>
    <v>       0.39809338       0.66595675       0.64344576 </v>
    <v>       0.56206679       0.41662001       0.33349543 </v>
    <v>       0.59393021       0.37659580       0.57006292 </v>
    <v>       0.48636405       0.44332749       0.61590004 </v>
    <v>       0.63887905       0.43004555       0.44944246 </v>
    <v>       0.48940890       0.56636306       0.66397426 </v>
    <v>       0.51335419       0.66211511       0.56738712 </v>
    <v>       0.60497333       0.64862835       0.47146904 </v>
    <v>       0.57174538       0.53489176       0.40378687 </v>
    <v>       0.70425474       0.45383353       0.57161645 </v>
    <v>       0.59224837       0.53073142       0.56942615 </v>
    <v>       0.70177289       0.55201854       0.47692496 </v>
   </varray>
  </structure>
  <varray name="forces" >
   <v>       0.01969964       0.03329483       0.11770159 </v>
   <v>      -0.07815415      -0.05868052       0.19490044 </v>
   <v>       0.11169441      -0.11539150      -0.31491126 </v>
   <v>       0.13303808      -0.29936251      -0.37597951 </v>
   <v>      -0.21976363       0.13105766       0.19926008 </v>
   <v>      -0.35540941      -0.05597572      -0.39728921 </v>
   <v>      -0.17847154       0.08686829       0.03220097 </v>
   <v>      -0.29274373       0.13018154      -0.18772538 </v>
   <v>      -0.10257353       0.19843075       0.12457454 </v>
   <v>      -0.11977568       0.14849998       0.39251191 </v>
   <v>       0.21197334      -0.18737871      -0.15989488 </v>
   <v>      -0.05927333      -0.11313861       0.04889593 </v>
   <v>      -0.18331362      -0.37011875       0.08523266 </v>
   <v>       0.20049073      -0.33308980       0.05373579 </v>
   <v>       0.07044116       0.15154691       0.11659171 </v>
   <v>       0.01591237       0.04286469       0.05273277 </v>
   <v>       0.03783457      -0.06392798       0.09494211 </v>
   <v>       0.17013750       0.41964359      -0.33560409 </v>
   <v>       0.37803906       0.00940227       0.31675667 </v>
   <v>       0.36384342       0.15305944       0.11324184 </v>
   <v>      -0.12362566       0.09221414      -0.17187469 </v>
  </varray>
  <varray name="stress" >
   <v>      -0.70753528      -0.05019947      -0.07047108 </v>
   <v>      -0.05019946      -1.20018594       0.21497724 </v>
   <v>      -0.07047109       0.21497724      -0.40365498 </v>
  </varray>
  <energy>
   <i name="e_fr_energy">    -40.88905660 </i>
   <i name="e_wo_entrp">    -40.88905660 </i>
   <i name="e_0_energy">      0.00000000 </i>
  </energy>
  <time name="totalsc">   66.29   67.66</time>
 </calculation>
 <calculation>
  <scstep>
   <time name="dav">    1.99    1.99</time>
   <time name="total">    2.32    2.33</time>
   <energy>
    <i name="alphaZ">     46.95059147 </i>
    <i name="ewald">  35732.41523815 </i>
    <i name="hartreedc"> -56586.17754770 </i>
    <i name="XCdc">   -238.99760003 </i>
    <i name="pawpsdc">  22724.18234139 </i>
    <i name="pawaedc"> -21793.22137069 </i>
    <i name="eentropy">      0.00000000 </i>
    <i name="bandstr">  -1707.23517126 </i>
    <i name="atom">  21781.17123181 </i>
    <i name="e_fr_energy">    -40.91228686 </i>
    <i name="e_wo_entrp">    -40.91228686 </i>
    <i name="e_0_energy">    -40.91228686 </i>
   </energy>
  </scstep>
  <scstep>
   <time name="dav">    1.96    1.96</time>
   <time name="total">    2.28    2.29</time>
   <energy>
    <i name="e_fr_energy">    -40.91309684 </i>
    <i name="e_wo_entrp">    -40.91309684 </i>
    <i name="e_0_energy">    -40.91309684 </i>
   </energy>
  </scstep>
  <scstep>
   <time name="dav">    1.47    1.47</time>
   <time name="total">    1.71    1.71</time>
   <energy>
    <i name="alphaZ">     46.95059147 </i>
    <i name="ewald">  35732.41523815 </i>
    <i name="hartreedc"> -56586.50964150 </i>
    <i name="XCdc">   -238.98926464 </i>
    <i name="pawpsdc">  22719.53606368 </i>
    <i name="pawaedc"> -21788.50122744 </i>
    <i name="eentropy">      0.00000000 </i>
    <i name="bandstr">  -1706.98608866 </i>
    <i name="atom">  21781.17123181 </i>
    <i name="e_fr_energy">    -40.91309712 </i>
    <i name="e_wo_entrp">    -40.91309712 </i>
    <i name="e_0_energy">    -40.91309712 </i>
   </energy>
  </scstep>
  <structure>
   <crystal>
    <varray name="basis" >
     <v>      19.99112498       0.00000000       0.00000000 </v>
     <v>       0.00000000      19.99112498       0.00000000 </v>
     <v>       0.00000000       0.00000000      19.99112498 </v>
    </varray>
    <i name="volume">   7989.35469660 </i>
    <varray name="rec_basis" >
     <v>       0.05002220       0.00000000       0.00000000 </v>
     <v>       0.00000000       0.05002220       0.00000000 </v>
     <v>       0.00000000       0.00000000       0.05002220 </v>
    </varray>
   </crystal>
   <varray name="positions" >
    <v>       0.34531568       0.52974775       0.44890265 </v>
    <v>       0.36790431       0.53515981       0.59387946 </v>
    <v>       0.39370001       0.41716285       0.51571851 </v>
    <v>       0.47568017       0.63534571       0.41032271 </v>
    <v>       0.38407075       0.64857585       0.50854860 </v>
    <v>       0.45107029       0.47408240       0.38697050 </v>
    <v>       0.51425766       0.36876712       0.45361545 </v>
    <v>       0.47513098       0.53610140       0.50818009 </v>
    <v>       0.47101264       0.30962169       0.56971743 </v>
    <v>       0.39803557       0.66602842       0.64363521 </v>
    <v>       0.56216910       0.41652957       0.33341825 </v>
    <v>       0.59390160       0.37654119       0.57008652 </v>
    <v>       0.48627557       0.44314885       0.61594118 </v>
    <v>       0.63897582       0.42988478       0.44946840 </v>
    <v>       0.48944289       0.56643620       0.66403053 </v>
    <v>       0.51336187       0.66213580       0.56741257 </v>
    <v>       0.60499159       0.64859749       0.47151486 </v>
    <v>       0.57182749       0.53509430       0.40362489 </v>
    <v>       0.70443720       0.45383807       0.57176933 </v>
    <v>       0.59242397       0.53080529       0.56948081 </v>
    <v>       0.70171322       0.55206305       0.47684201 </v>
   </varray>
  </structure>
  <varray name="forces" >
   <v>       0.01284040       0.03748388       0.11556400 </v>
   <v>      -0.06760019      -0.05479222       0.18692560 </v>
   <v>       0.10471027      -0.10525110      -0.30340482 </v>
   <v>       0.10689443      -0.28311309      -0.34938293 </v>
   <v>      -0.19722386       0.12284714       0.18618431 </v>
   <v>      -0.31273207      -0.05196024      -0.38380438 </v>
   <v>      -0.16508531       0.09352570       0.02165975 </v>
   <v>      -0.24868226       0.11605730      -0.16533278 </v>
   <v>      -0.10170301       0.18182230       0.12066824 </v>
   <v>      -0.11023914       0.13837438       0.37460795 </v>
   <v>       0.19900287      -0.17103468      -0.13530031 </v>
   <v>      -0.04302203      -0.09711027       0.04537932 </v>
   <v>      -0.17442317      -0.31905206       0.08235137 </v>
   <v>       0.17723652      -0.29973157       0.04721401 </v>
   <v>       0.06709205       0.12781059       0.09753751 </v>
   <v>       0.00606446       0.03714423       0.05421013 </v>
   <v>       0.03259739      -0.05427132       0.09612916 </v>
   <v>       0.16292975       0.35464730      -0.32653162 </v>
   <v>       0.35118581       0.01000890       0.29389785 </v>
   <v>       0.31684365       0.14299169       0.10213129 </v>
   <v>      -0.11668653       0.07360314      -0.16070363 </v>
  </varray>
  <varray name="stress" >
   <v>      -0.77051740      -0.05777961      -0.07304224 </v>
   <v>      -0.05777961      -1.24859031       0.21577494 </v>
   <v>      -0.07304224       0.21577495      -0.45491359 </v>
  </varray>
  <energy>
   <i name="e_fr_energy">    -40.91309712 </i>
   <i name="e_wo_entrp">    -40.91309712 </i>
   <i name="e_0_energy">      0.00000000 </i>
  </energy>
  <time name="totalsc">    9.52    9.59</time>
 </calculation>
 <calculation>
  <scstep>
   <time name="dav">    1.96    1.96</time>
   <time name="total">    2.28    2.30</time>
   <energy>
    <i name="alphaZ">     46.95059147 </i>
    <i name="ewald">  35613.68487563 </i>
    <i name="hartreedc"> -56468.81570951 </i>
    <i name="XCdc">   -239.15137543 </i>
    <i name="pawpsdc">  22716.61908549 </i>
    <i name="pawaedc"> -21785.53779730 </i>
    <i name="eentropy">      0.00000000 </i>
    <i name="bandstr">  -1705.88969753 </i>
    <i name="atom">  21781.17123181 </i>
    <i name="e_fr_energy">    -40.96879537 </i>
    <i name="e_wo_entrp">    -40.96879537 </i>
    <i name="e_0_energy">    -40.96879537 </i>
   </energy>
  </scstep>
  <scstep>
   <time name="dav">    1.99    1.99</time>
   <time name="total">    2.32    2.32</time>
   <energy>
    <i name="e_fr_energy">    -40.97561812 </i>
    <i name="e_wo_entrp">    -40.97561812 </i>
    <i name="e_0_energy">    -40.97561812 </i>
   </energy>
  </scstep>
  <scstep>
   <time name="dav">    2.05    2.05</time>
   <time name="total">    2.38    2.38</time>
   <energy>
    <i name="e_fr_energy">    -40.97542195 </i>
    <i name="e_wo_entrp">    -40.97542195 </i>
    <i name="e_0_energy">    -40.97542195 </i>
   </energy>
  </scstep>
  <scstep>
   <time name="dav">    2.00    2.00</time>
   <time name="total">    2.32    2.34</time>
   <energy>
    <i name="e_fr_energy">    -40.97523728 </i>
    <i name="e_wo_entrp">    -40.97523728 </i>
    <i name="e_0_energy">    -40.97523728 </i>
   </energy>
  </scstep>
  <scstep>
   <time name="dav">    1.44    1.44</time>
   <time name="total">    1.68    1.74</time>
   <energy>
    <i name="alphaZ">     46.95059147 </i>
    <i name="ewald">  35613.68487563 </i>
    <i name="hartreedc"> -56470.10281999 </i>
    <i name="XCdc">   -239.11920228 </i>
    <i name="pawpsdc">  22693.15168583 </i>
    <i name="pawaedc"> -21761.69543306 </i>
    <i name="eentropy">      0.00000000 </i>
    <i name="bandstr">  -1705.01619958 </i>
    <i name="atom">  21781.17123181 </i>
    <i name="e_fr_energy">    -40.97527016 </i>
    <i name="e_wo_entrp">    -40.97527016 </i>
    <i name="e_0_energy">    -40.97527016 </i>
   </energy>
  </scstep>
  <structure>
   <crystal>
    <varray name="basis" >
     <v>      19.99112498       0.00000000       0.00000000 </v>
     <v>       0.00000000      19.99112498       0.00000000 </v>
     <v>       0.00000000       0.00000000      19.99112498 </v>
    </varray>
    <i name="volume">   7989.35469660 </i>
    <varray name="rec_basis" >
     <v>       0.05002220       0.00000000       0.00000000 </v>
     <v>       0.00000000       0.05002220       0.00000000 </v>
     <v>       0.00000000       0.00000000       0.05002220 </v>
    </varray>
   </crystal>
   <varray name="positions" >
    <v>       0.34534421       0.52979596       0.44907308 </v>
    <v>       0.36779115       0.53507484       0.59416166 </v>
    <v>       0.39386174       0.41699577       0.51526255 </v>
    <v>       0.47587280       0.63491226       0.40977832 </v>
    <v>       0.38375255       0.64876562       0.50883711 </v>
    <v>       0.45055568       0.47400136       0.38639525 </v>
    <v>       0.51399924       0.36889290       0.45366207 </v>
    <v>       0.47470711       0.53628989       0.50790827 </v>
    <v>       0.47086412       0.30990900       0.56989780 </v>
    <v>       0.39786214       0.66624344       0.64420353 </v>
    <v>       0.56247602       0.41625826       0.33318674 </v>
    <v>       0.59381578       0.37637738       0.57015731 </v>
    <v>       0.48601015       0.44261295       0.61606459 </v>
    <v>       0.63926611       0.42940250       0.44954620 </v>
    <v>       0.48954489       0.56665563       0.66419935 </v>
    <v>       0.51338491       0.66219786       0.56748892 </v>
    <v>       0.60504637       0.64850493       0.47165233 </v>
    <v>       0.57207384       0.53570191       0.40313896 </v>
    <v>       0.70498457       0.45385168       0.57222797 </v>
    <v>       0.59295079       0.53102691       0.56964477 </v>
    <v>       0.70153422       0.55219657       0.47659315 </v>
   </varray>
  </structure>
  <varray name="forces" >
   <v>      -0.00508162       0.05211587       0.11784614 </v>
   <v>      -0.04423607      -0.04730366       0.18016757 </v>
   <v>       0.09632536      -0.08725524      -0.29559186 </v>
   <v>       0.04465547      -0.26031202      -0.30794011 </v>
   <v>      -0.15446307       0.10956324       0.16665716 </v>
   <v>      -0.21947769      -0.04429605      -0.37050974 </v>
   <v>      -0.14073687       0.11677281      -0.00674842 </v>
   <v>      -0.15374204       0.08884100      -0.11972754 </v>
   <v>      -0.10786209       0.14698121       0.11932183 </v>
   <v>      -0.09170516       0.11989929       0.35397139 </v>
   <v>       0.17682121      -0.13807269      -0.08331774 </v>
   <v>      -0.00299510      -0.06193849       0.03927814 </v>
   <v>      -0.16336051      -0.20485777       0.08235303 </v>
   <v>       0.12752830      -0.23201669       0.03242512 </v>
   <v>       0.06144569       0.07487103       0.05415980 </v>
   <v>      -0.01935297       0.02438702       0.06329082 </v>
   <v>       0.02084289      -0.03200585       0.10624977 </v>
   <v>       0.15599323       0.20374554      -0.32410406 </v>
   <v>       0.30447953       0.01213949       0.25264220 </v>
   <v>       0.22070134       0.12966473       0.08178885 </v>
   <v>      -0.10577981       0.02907722      -0.14221236 </v>
  </varray>
  <varray name="stress" >
   <v>      -0.92020682      -0.07794187      -0.08294585 </v>
   <v>      -0.07794186      -1.36334861       0.22399307 </v>
   <v>      -0.08294584       0.22399306      -0.58559966 </v>
  </varray>
  <energy>
   <i name="e_fr_energy">    -40.97527016 </i>
   <i name="e_wo_entrp">    -40.97527016 </i>
   <i name="e_0_energy">      0.00000000 </i>
  </energy>
  <time name="totalsc">   14.21   14.59</time>
 </calculation>
 <calculation>
  <scstep>
   <time name="dav">    1.88    1.88</time>
   <time name="total">    2.21    2.22</time>
   <energy>
    <i name="alphaZ">     46.95059147 </i>
    <i name="ewald">  35377.85976180 </i>
    <i name="hartreedc"> -56235.93110302 </i>
    <i name="XCdc">   -239.43142645 </i>
    <i name="pawpsdc">  22693.33811735 </i>
    <i name="pawaedc"> -21761.88401240 </i>
    <i name="eentropy">      0.00000000 </i>
    <i name="bandstr">  -1703.10661751 </i>
    <i name="atom">  21781.17123181 </i>
    <i name="e_fr_energy">    -41.03345695 </i>
    <i name="e_wo_entrp">    -41.03345695 </i>
    <i name="e_0_energy">    -41.03345695 </i>
   </energy>
  </scstep>
  <scstep>
   <time name="dav">    1.94    1.94</time>
   <time name="total">    2.26    2.27</time>
   <energy>
    <i name="e_fr_energy">    -41.06071525 </i>
    <i name="e_wo_entrp">    -41.06071525 </i>
    <i name="e_0_energy">    -41.06071525 </i>
   </energy>
  </scstep>
  <scstep>
   <time name="dav">    2.07    2.07</time>
   <time name="total">    2.40    2.40</time>
   <energy>
    <i name="e_fr_energy">    -41.06012321 </i>
    <i name="e_wo_entrp">    -41.06012321 </i>
    <i name="e_0_energy">    -41.06012321 </i>
   </energy>
  </scstep>
  <scstep>
   <time name="dav">    1.96    1.96</time>
   <time name="total">    2.28    2.29</time>
   <energy>
    <i name="e_fr_energy">    -41.05941325 </i>
    <i name="e_wo_entrp">    -41.05941325 </i>
    <i name="e_0_energy">    -41.05941325 </i>
   </energy>
  </scstep>
  <scstep>
   <time name="dav">    1.45    1.45</time>
   <time name="total">    1.78    1.78</time>
   <energy>
    <i name="e_fr_energy">    -41.05951669 </i>
    <i name="e_wo_entrp">    -41.05951669 </i>
    <i name="e_0_energy">    -41.05951669 </i>
   </energy>
  </scstep>
  <scstep>
   <time name="dav">    1.49    1.49</time>
   <time name="total">    1.82    1.82</time>
   <energy>
    <i name="e_fr_energy">    -41.05961963 </i>
    <i name="e_wo_entrp">    -41.05961963 </i>
    <i name="e_0_energy">    -41.05961963 </i>
   </energy>
  </scstep>
  <scstep>
   <time name="dav">    1.47    1.48</time>
   <time name="total">    1.80    1.81</time>
   <energy>
    <i name="e_fr_energy">    -41.05972332 </i>
    <i name="e_wo_entrp">    -41.05972332 </i>
    <i name="e_0_energy">    -41.05972332 </i>
   </energy>
  </scstep>
  <scstep>
   <time name="dav">    1.48    1.47</time>
   <time name="total">    1.80    1.82</time>
   <energy>
    <i name="e_fr_energy">    -41.05982957 </i>
    <i name="e_wo_entrp">    -41.05982957 </i>
    <i name="e_0_energy">    -41.05982957 </i>
   </energy>
  </scstep>
  <scstep>
   <time name="dav">    1.46    1.46</time>
   <time name="total">    1.70    1.71</time>
   <energy>
    <i name="alphaZ">     46.95059147 </i>
    <i name="ewald">  35377.85976180 </i>
    <i name="hartreedc"> -56238.54127009 </i>
    <i name="XCdc">   -239.36835355 </i>
    <i name="pawpsdc">  22651.83265779 </i>
    <i name="pawaedc"> -21719.69274866 </i>
    <i name="eentropy">     -0.00000000 </i>
    <i name="bandstr">  -1701.27176387 </i>
    <i name="atom">  21781.17123181 </i>
    <i name="e_fr_energy">    -41.05989330 </i>
    <i name="e_wo_entrp">    -41.05989330 </i>
    <i name="e_0_energy">    -41.05989330 </i>
   </energy>
  </scstep>
  <structure>
   <crystal>
    <varray name="basis" >
     <v>      19.99112498       0.00000000       0.00000000 </v>
     <v>       0.00000000      19.99112498       0.00000000 </v>
     <v>       0.00000000       0.00000000      19.99112498 </v>
    </varray>
    <i name="volume">   7989.35469660 </i>
    <varray name="rec_basis" >
     <v>       0.05002220       0.00000000       0.00000000 </v>
     <v>       0.00000000       0.05002220       0.00000000 </v>
     <v>       0.00000000       0.00000000       0.05002220 </v>
    </varray>
   </crystal>
   <varray name="positions" >
    <v>       0.34540126       0.52989237       0.44941392 </v>
    <v>       0.36756483       0.53490491       0.59472606 </v>
    <v>       0.39418519       0.41666162       0.51435061 </v>
    <v>       0.47625806       0.63404535       0.40868954 </v>
    <v>       0.38311614       0.64914514       0.50941414 </v>
    <v>       0.44952647       0.47383926       0.38524477 </v>
    <v>       0.51348242       0.36914446       0.45375532 </v>
    <v>       0.47385937       0.53666688       0.50736465 </v>
    <v>       0.47056708       0.31048363       0.57025855 </v>
    <v>       0.39751529       0.66667347       0.64534019 </v>
    <v>       0.56308986       0.41571564       0.33272371 </v>
    <v>       0.59364413       0.37604975       0.57029891 </v>
    <v>       0.48547930       0.44154114       0.61631141 </v>
    <v>       0.63984670       0.42843792       0.44970181 </v>
    <v>       0.48974887       0.56709448       0.66453698 </v>
    <v>       0.51343099       0.66232199       0.56764163 </v>
    <v>       0.60515593       0.64831980       0.47192727 </v>
    <v>       0.57256653       0.53691713       0.40216711 </v>
    <v>       0.70607931       0.45387891       0.57314525 </v>
    <v>       0.59400443       0.53147014       0.56997270 </v>
    <v>       0.70117622       0.55246361       0.47609543 </v>
   </varray>
  </structure>
  <varray name="forces" >
   <v>      -0.04365135       0.07974271       0.11607746 </v>
   <v>       0.00838845      -0.02927286       0.15571207 </v>
   <v>       0.06456639      -0.04520406      -0.26319234 </v>
   <v>      -0.07884272      -0.19753788      -0.22234518 </v>
   <v>      -0.07089411       0.07608111       0.12820038 </v>
   <v>      -0.03375047      -0.02918248      -0.32628725 </v>
   <v>      -0.07805487       0.15501307      -0.06580727 </v>
   <v>       0.03171545       0.03427335      -0.02923909 </v>
   <v>      -0.11683151       0.05981881       0.10956804 </v>
   <v>      -0.05103422       0.08030762       0.29327227 </v>
   <v>       0.12727446      -0.06836749       0.02296712 </v>
   <v>       0.07314087       0.00982746       0.02490310 </v>
   <v>      -0.13541489       0.03281581       0.08440979 </v>
   <v>       0.03135361      -0.09455023       0.00746743 </v>
   <v>       0.04756126      -0.02730995      -0.03203012 </v>
   <v>      -0.06947825      -0.00333495       0.07844034 </v>
   <v>      -0.00693452       0.01818872       0.12475763 </v>
   <v>       0.14173983      -0.10143207      -0.30660094 </v>
   <v>       0.19512431       0.01565636       0.15635157 </v>
   <v>       0.03747837       0.09811183       0.04238616 </v>
   <v>      -0.07345609      -0.06364489      -0.09901116 </v>
  </varray>
  <varray name="stress" >
   <v>      -1.19081383      -0.12392602      -0.09924811 </v>
   <v>      -0.12392602      -1.57815175       0.23739991 </v>
   <v>      -0.09924810       0.23739992      -0.82601224 </v>
  </varray>
  <energy>
   <i name="e_fr_energy">    -41.05989330 </i>
   <i name="e_wo_entrp">    -41.05989330 </i>
   <i name="e_0_energy">     -0.00000000 </i>
  </energy>
  <time name="totalsc">   21.29   21.39</time>
 </calculation>
 <calculation>
  <scstep>
   <time name="dav">    1.89    1.89</time>
   <time name="total">    2.21    2.23</time>
   <energy>
    <i name="alphaZ">     46.95059147 </i>
    <i name="ewald">  34912.57896204 </i>
    <i name="hartreedc"> -55776.18520854 </i>
    <i name="XCdc">   -239.93244977 </i>
    <i name="pawpsdc">  22651.79134556 </i>
    <i name="pawaedc"> -21719.65111099 </i>
    <i name="eentropy">      0.00000000 </i>
    <i name="bandstr">  -1697.70335329 </i>
    <i name="atom">  21781.17123181 </i>
    <i name="e_fr_energy">    -40.97999172 </i>
    <i name="e_wo_entrp">    -40.97999172 </i>
    <i name="e_0_energy">    -40.97999172 </i>
   </energy>
  </scstep>
  <scstep>
   <time name="dav">    1.98    1.98</time>
   <time name="total">    2.30    2.31</time>
   <energy>
    <i name="e_fr_energy">    -41.09064189 </i>
    <i name="e_wo_entrp">    -41.09064189 </i>
    <i name="e_0_energy">    -41.09064189 </i>
   </energy>
  </scstep>
  <scstep>
   <time name="dav">    2.07    2.07</time>
   <time name="total">    2.40    2.42</time>
   <energy>
    <i name="e_fr_energy">    -41.08919847 </i>
    <i name="e_wo_entrp">    -41.08919847 </i>
    <i name="e_0_energy">    -41.08919847 </i>
   </energy>
  </scstep>
  <scstep>
   <time name="dav">    1.96    1.96</time>
   <time name="total">    2.29    2.31</time>
   <energy>
    <i name="e_fr_energy">    -41.08610207 </i>
    <i name="e_wo_entrp">    -41.08610207 </i>
    <i name="e_0_energy">    -41.08610207 </i>
   </energy>
  </scstep>
  <scstep>
   <time name="dav">    1.99    2.00</time>
   <time name="total">    2.32    2.33</time>
   <energy>
    <i name="e_fr_energy">    -41.08634879 </i>
    <i name="e_wo_entrp">    -41.08634879 </i>
    <i name="e_0_energy">    -41.08634879 </i>
   </energy>
  </scstep>
  <scstep>
   <time name="dav">    1.49    1.49</time>
   <time name="total">    1.82    1.82</time>
   <energy>
    <i name="e_fr_energy">    -41.08654702 </i>
    <i name="e_wo_entrp">    -41.08654702 </i>
    <i name="e_0_energy">    -41.08654702 </i>
   </energy>
  </scstep>
  <scstep>
   <time name="dav">    1.53    1.53</time>
   <time name="total">    1.86    1.88</time>
   <energy>
    <i name="e_fr_energy">    -41.08680813 </i>
    <i name="e_wo_entrp">    -41.08680813 </i>
    <i name="e_0_energy">    -41.08680813 </i>
   </energy>
  </scstep>
  <scstep>
   <time name="dav">    1.46    1.46</time>
   <time name="total">    1.78    1.81</time>
   <energy>
    <i name="e_fr_energy">    -41.08703317 </i>
    <i name="e_wo_entrp">    -41.08703317 </i>
    <i name="e_0_energy">    -41.08703317 </i>
   </energy>
  </scstep>
  <scstep>
   <time name="dav">    1.49    1.49</time>
   <time name="total">    1.82    2.65</time>
   <energy>
    <i name="e_fr_energy">    -41.08718938 </i>
    <i name="e_wo_entrp">    -41.08718938 </i>
    <i name="e_0_energy">    -41.08718938 </i>
   </energy>
  </scstep>
  <scstep>
   <time name="dav">    1.49    1.49</time>
   <time name="total">    1.82    3.11</time>
   <energy>
    <i name="e_fr_energy">    -41.08733063 </i>
    <i name="e_wo_entrp">    -41.08733063 </i>
    <i name="e_0_energy">    -41.08733063 </i>
   </energy>
  </scstep>
  <scstep>
   <time name="dav">    1.51    1.51</time>
   <time name="total">    1.84    2.08</time>
   <energy>
    <i name="e_fr_energy">    -41.08756318 </i>
    <i name="e_wo_entrp">    -41.08756318 </i>
    <i name="e_0_energy">    -41.08756318 </i>
   </energy>
  </scstep>
  <scstep>
   <time name="dav">    1.49    1.49</time>
   <time name="total">    1.73    1.73</time>
   <energy>
    <i name="alphaZ">     46.95059147 </i>
    <i name="ewald">  34912.57896204 </i>
    <i name="hartreedc"> -55781.02141073 </i>
    <i name="XCdc">   -239.81287294 </i>
    <i name="pawpsdc">  22583.47461436 </i>
    <i name="pawaedc"> -21650.13547440 </i>
    <i name="eentropy">      0.00000000 </i>
    <i name="bandstr">  -1694.29325445 </i>
    <i name="atom">  21781.17123181 </i>
    <i name="e_fr_energy">    -41.08761285 </i>
    <i name="e_wo_entrp">    -41.08761285 </i>
    <i name="e_0_energy">    -41.08761285 </i>
   </energy>
  </scstep>
  <structure>
   <crystal>
    <varray name="basis" >
     <v>      19.99112498       0.00000000       0.00000000 </v>
     <v>       0.00000000      19.99112498       0.00000000 </v>
     <v>       0.00000000       0.00000000      19.99112498 </v>
    </varray>
    <i name="volume">   7989.35469660 </i>
    <varray name="rec_basis" >
     <v>       0.05002220       0.00000000       0.00000000 </v>
     <v>       0.00000000       0.05002220       0.00000000 </v>
     <v>       0.00000000       0.00000000       0.05002220 </v>
    </varray>
   </crystal>
   <varray name="positions" >
    <v>       0.34551535       0.53008520       0.45009561 </v>
    <v>       0.36711219       0.53456506       0.59585487 </v>
    <v>       0.39483209       0.41599331       0.51252674 </v>
    <v>       0.47702857       0.63231154       0.40651198 </v>
    <v>       0.38184334       0.64990418       0.51056819 </v>
    <v>       0.44746805       0.47351507       0.38294379 </v>
    <v>       0.51244877       0.36964757       0.45394182 </v>
    <v>       0.47216389       0.53742085       0.50627740 </v>
    <v>       0.46997301       0.31163288       0.57098005 </v>
    <v>       0.39682159       0.66753354       0.64761349 </v>
    <v>       0.56431754       0.41463040       0.33179765 </v>
    <v>       0.59330084       0.37539448       0.57058210 </v>
    <v>       0.48441760       0.43939753       0.61680505 </v>
    <v>       0.64100788       0.42650877       0.45001303 </v>
    <v>       0.49015685       0.56797220       0.66521224 </v>
    <v>       0.51352315       0.66257025       0.56794704 </v>
    <v>       0.60537506       0.64794955       0.47247714 </v>
    <v>       0.57355191       0.53934758       0.40022339 </v>
    <v>       0.70826880       0.45393336       0.57497981 </v>
    <v>       0.59611169       0.53235661       0.57062856 </v>
    <v>       0.70046022       0.55299768       0.47509998 </v>
   </varray>
  </structure>
  <varray name="forces" >
   <v>      -0.12921844       0.13003704       0.10462875 </v>
   <v>       0.11307137       0.00591921       0.10597819 </v>
   <v>      -0.01558640       0.04123791      -0.19305251 </v>
   <v>      -0.30039084      -0.05715552      -0.10769429 </v>
   <v>       0.04867889       0.01317291       0.08304461 </v>
   <v>       0.26066413      -0.01506847      -0.24852134 </v>
   <v>       0.06217532       0.21454686      -0.18260823 </v>
   <v>       0.33602604      -0.04974395       0.12490438 </v>
   <v>      -0.14117342      -0.14280290       0.08470654 </v>
   <v>       0.02273765       0.01049392       0.17971889 </v>
   <v>       0.04343552       0.05204127       0.20848051 </v>
   <v>       0.21333615       0.13149236      -0.00192830 </v>
   <v>      -0.10066651       0.46493019       0.11308512 </v>
   <v>      -0.11296536       0.11491058      -0.02493425 </v>
   <v>       0.01679181      -0.19378944      -0.17601693 </v>
   <v>      -0.15904078      -0.05613365       0.10839402 </v>
   <v>      -0.07020364       0.12195230       0.16634292 </v>
   <v>       0.15331891      -0.62034031      -0.29778045 </v>
   <v>      -0.00455633       0.02666514      -0.01220346 </v>
   <v>      -0.24101288       0.04764822      -0.01000089 </v>
   <v>       0.00457883      -0.24001367      -0.02454327 </v>
  </varray>
  <varray name="stress" >
   <v>      -1.58707827      -0.21955811      -0.13203392 </v>
   <v>      -0.21955811      -1.91014000       0.26676735 </v>
   <v>      -0.13203391       0.26676736      -1.23781320 </v>
  </varray>
  <energy>
   <i name="e_fr_energy">    -41.08761285 </i>
   <i name="e_wo_entrp">    -41.08761285 </i>
   <i name="e_0_energy">      0.00000000 </i>
  </energy>
  <time name="totalsc">   27.43   29.91</time>
 </calculation>
 <calculation>
  <scstep>
   <time name="dav">    1.89    1.89</time>
   <time name="total">    2.22    2.23</time>
   <energy>
    <i name="alphaZ">     46.95059147 </i>
    <i name="ewald">  35063.84322454 </i>
    <i name="hartreedc"> -55931.57189723 </i>
    <i name="XCdc">   -239.63174772 </i>
    <i name="pawpsdc">  22583.49384232 </i>
    <i name="pawaedc"> -21650.15478579 </i>
    <i name="eentropy">      0.00000000 </i>
    <i name="bandstr">  -1695.18663456 </i>
    <i name="atom">  21781.17123181 </i>
    <i name="e_fr_energy">    -41.08617516 </i>
    <i name="e_wo_entrp">    -41.08617516 </i>
    <i name="e_0_energy">    -41.08617516 </i>
   </energy>
  </scstep>
  <scstep>
   <time name="dav">    2.00    2.00</time>
   <time name="total">    2.32    2.33</time>
   <energy>
    <i name="e_fr_energy">    -41.09808270 </i>
    <i name="e_wo_entrp">    -41.09808270 </i>
    <i name="e_0_energy">    -41.09808270 </i>
   </energy>
  </scstep>
  <scstep>
   <time name="dav">    2.07    2.07</time>
   <time name="total">    2.40    2.42</time>
   <energy>
    <i name="e_fr_energy">    -41.09784551 </i>
    <i name="e_wo_entrp">    -41.09784551 </i>
    <i name="e_0_energy">    -41.09784551 </i>
   </energy>
  </scstep>
  <scstep>
   <time name="dav">    2.02    2.02</time>
   <time name="total">    2.34    2.35</time>
   <energy>
    <i name="e_fr_energy">    -41.09758346 </i>
    <i name="e_wo_entrp">    -41.09758346 </i>
    <i name="e_0_energy">    -41.09758346 </i>
   </energy>
  </scstep>
  <scstep>
   <time name="dav">    1.48    1.48</time>
   <time name="total">    1.71    1.72</time>
   <energy>
    <i name="alphaZ">     46.95059147 </i>
    <i name="ewald">  35063.84322454 </i>
    <i name="hartreedc"> -55930.03123094 </i>
    <i name="XCdc">   -239.67364417 </i>
    <i name="pawpsdc">  22604.20586466 </i>
    <i name="pawaedc"> -21671.23571587 </i>
    <i name="eentropy">      0.00000000 </i>
    <i name="bandstr">  -1696.32794622 </i>
    <i name="atom">  21781.17123181 </i>
    <i name="e_fr_energy">    -41.09762473 </i>
    <i name="e_wo_entrp">    -41.09762473 </i>
    <i name="e_0_energy">    -41.09762473 </i>
   </energy>
  </scstep>
  <structure>
   <crystal>
    <varray name="basis" >
     <v>      19.99112498       0.00000000       0.00000000 </v>
     <v>       0.00000000      19.99112498       0.00000000 </v>
     <v>       0.00000000       0.00000000      19.99112498 </v>
    </varray>
    <i name="volume">   7989.35469660 </i>
    <varray name="rec_basis" >
     <v>       0.05002220       0.00000000       0.00000000 </v>
     <v>       0.00000000       0.05002220       0.00000000 </v>
     <v>       0.00000000       0.00000000       0.05002220 </v>
    </varray>
   </crystal>
   <varray name="positions" >
    <v>       0.34547803       0.53002213       0.44987265 </v>
    <v>       0.36726023       0.53467622       0.59548566 </v>
    <v>       0.39462050       0.41621190       0.51312329 </v>
    <v>       0.47677655       0.63287863       0.40722421 </v>
    <v>       0.38225965       0.64965592       0.51019073 </v>
    <v>       0.44814131       0.47362110       0.38369639 </v>
    <v>       0.51278685       0.36948301       0.45388082 </v>
    <v>       0.47271844       0.53717424       0.50663302 </v>
    <v>       0.47016731       0.31125699       0.57074406 </v>
    <v>       0.39704848       0.66725223       0.64686995 </v>
    <v>       0.56391600       0.41498536       0.33210054 </v>
    <v>       0.59341312       0.37560880       0.57048947 </v>
    <v>       0.48476486       0.44009866       0.61664359 </v>
    <v>       0.64062809       0.42713975       0.44991124 </v>
    <v>       0.49002341       0.56768512       0.66499138 </v>
    <v>       0.51349301       0.66248905       0.56784714 </v>
    <v>       0.60530339       0.64807065       0.47229729 </v>
    <v>       0.57322962       0.53855264       0.40085914 </v>
    <v>       0.70755267       0.45391555       0.57437977 </v>
    <v>       0.59542246       0.53206667       0.57041405 </v>
    <v>       0.70069440       0.55282300       0.47542557 </v>
   </varray>
  </structure>
  <varray name="forces" >
   <v>      -0.10013869       0.11426149       0.10935613 </v>
   <v>       0.07999986      -0.00525937       0.12138653 </v>
   <v>       0.01304901       0.01239611      -0.21686097 </v>
   <v>      -0.22982628      -0.10334968      -0.13818347 </v>
   <v>       0.01557397       0.03256592       0.09249710 </v>
   <v>       0.17691815      -0.01713958      -0.26838276 </v>
   <v>       0.01399450       0.19722475      -0.14485936 </v>
   <v>       0.24375446      -0.02568918       0.07682444 </v>
   <v>      -0.13251383      -0.07186816       0.09413351 </v>
   <v>       0.00073247       0.03344866       0.21478938 </v>
   <v>       0.06781187       0.01579398       0.15394166 </v>
   <v>       0.16963207       0.09491284       0.00633388 </v>
   <v>      -0.10953888       0.32862611       0.09915196 </v>
   <v>      -0.07129339       0.05491427      -0.01671221 </v>
   <v>       0.02670548      -0.14508393      -0.13359379 </v>
   <v>      -0.13176237      -0.03954768       0.09835547 </v>
   <v>      -0.04892043       0.08746532       0.15209727 </v>
   <v>       0.14086703      -0.46361616      -0.29532238 </v>
   <v>       0.05876777       0.02170690       0.03929257 </v>
   <v>      -0.16061688       0.06207584       0.00291308 </v>
   <v>      -0.02319586      -0.18383844      -0.04715806 </v>
  </varray>
  <varray name="stress" >
   <v>      -1.47422850      -0.18872881      -0.12156711 </v>
   <v>      -0.18872880      -1.81538451       0.25758873 </v>
   <v>      -0.12156711       0.25758873      -1.11091584 </v>
  </varray>
  <energy>
   <i name="e_fr_energy">    -41.09762473 </i>
   <i name="e_wo_entrp">    -41.09762473 </i>
   <i name="e_0_energy">      0.00000000 </i>
  </energy>
  <time name="totalsc">   14.24   14.42</time>
 </calculation>
 <calculation>
  <scstep>
   <time name="dav">    1.91    1.91</time>
   <time name="total">    2.24    2.25</time>
   <energy>
    <i name="alphaZ">     46.95059147 </i>
    <i name="ewald">  34975.65235425 </i>
    <i name="hartreedc"> -55842.64176844 </i>
    <i name="XCdc">   -239.80490753 </i>
    <i name="pawpsdc">  22604.00507435 </i>
    <i name="pawaedc"> -21671.03343667 </i>
    <i name="eentropy">      0.00000000 </i>
    <i name="bandstr">  -1695.43173060 </i>
    <i name="atom">  21781.17123181 </i>
    <i name="e_fr_energy">    -41.13259136 </i>
    <i name="e_wo_entrp">    -41.13259136 </i>
    <i name="e_0_energy">    -41.13259136 </i>
   </energy>
  </scstep>
  <scstep>
   <time name="dav">    2.00    2.00</time>
   <time name="total">    2.33    2.33</time>
   <energy>
    <i name="e_fr_energy">    -41.14278553 </i>
    <i name="e_wo_entrp">    -41.14278553 </i>
    <i name="e_0_energy">    -41.14278553 </i>
   </energy>
  </scstep>
  <scstep>
   <time name="dav">    2.07    2.07</time>
   <time name="total">    2.40    2.41</time>
   <energy>
    <i name="e_fr_energy">    -41.14264449 </i>
    <i name="e_wo_entrp">    -41.14264449 </i>
    <i name="e_0_energy">    -41.14264449 </i>
   </energy>
  </scstep>
  <scstep>
   <time name="dav">    1.94    1.94</time>
   <time name="total">    2.27    2.29</time>
   <energy>
    <i name="e_fr_energy">    -41.14240393 </i>
    <i name="e_wo_entrp">    -41.14240393 </i>
    <i name="e_0_energy">    -41.14240393 </i>
   </energy>
  </scstep>
  <scstep>
   <time name="dav">    1.49    1.49</time>
   <time name="total">    1.73    1.76</time>
   <energy>
    <i name="alphaZ">     46.95059147 </i>
    <i name="ewald">  34975.65235425 </i>
    <i name="hartreedc"> -55843.66140402 </i>
    <i name="XCdc">   -239.77816495 </i>
    <i name="pawpsdc">  22585.83747910 </i>
    <i name="pawaedc"> -21652.57224032 </i>
    <i name="eentropy">      0.00000000 </i>
    <i name="bandstr">  -1694.74227979 </i>
    <i name="atom">  21781.17123181 </i>
    <i name="e_fr_energy">    -41.14243246 </i>
    <i name="e_wo_entrp">    -41.14243246 </i>
    <i name="e_0_energy">    -41.14243246 </i>
   </energy>
  </scstep>
  <structure>
   <crystal>
    <varray name="basis" >
     <v>      19.99112498       0.00000000       0.00000000 </v>
     <v>       0.00000000      19.99112498       0.00000000 </v>
     <v>       0.00000000       0.00000000      19.99112498 </v>
    </varray>
    <i name="volume">   7989.35469660 </i>
    <varray name="rec_basis" >
     <v>       0.05002220       0.00000000       0.00000000 </v>
     <v>       0.00000000       0.05002220       0.00000000 </v>
     <v>       0.00000000       0.00000000       0.05002220 </v>
    </varray>
   </crystal>
   <varray name="positions" >
    <v>       0.34528503       0.53030006       0.45022747 </v>
    <v>       0.36734983       0.53460429       0.59594600 </v>
    <v>       0.39476389       0.41611890       0.51233532 </v>
    <v>       0.47642449       0.63234862       0.40654069 </v>
    <v>       0.38206542       0.64986093       0.51059402 </v>
    <v>       0.44815052       0.47352666       0.38271338 </v>
    <v>       0.51263199       0.36999316       0.45360546 </v>
    <v>       0.47293491       0.53725421       0.50660246 </v>
    <v>       0.46977880       0.31130918       0.57107356 </v>
    <v>       0.39692610       0.66747717       0.64773381 </v>
    <v>       0.56427985       0.41482512       0.33226311 </v>
    <v>       0.59371325       0.37569398       0.57055357 </v>
    <v>       0.48434175       0.44041592       0.61694307 </v>
    <v>       0.64068364       0.42691208       0.44993123 </v>
    <v>       0.49015321       0.56753278       0.66482736 </v>
    <v>       0.51322871       0.66244914       0.56811129 </v>
    <v>       0.60523830       0.64819088       0.47271964 </v>
    <v>       0.57370584       0.53799898       0.39988256 </v>
    <v>       0.70806909       0.45397154       0.57479127 </v>
    <v>       0.59545671       0.53235733       0.57053744 </v>
    <v>       0.70051705       0.55252669       0.47514722 </v>
   </varray>
  </structure>
  <varray name="forces" >
   <v>      -0.03893712       0.09725178       0.08944125 </v>
   <v>       0.09419122       0.00325183       0.08756635 </v>
   <v>       0.01350433       0.02982611      -0.18290058 </v>
   <v>      -0.20055240      -0.14316802      -0.11145199 </v>
   <v>       0.03920442       0.01355291       0.09281924 </v>
   <v>       0.12870103       0.03923217      -0.20116446 </v>
   <v>       0.02094635       0.16647822      -0.08229500 </v>
   <v>       0.21383631      -0.03429359       0.03368109 </v>
   <v>      -0.09617745      -0.01938213       0.06412707 </v>
   <v>       0.01564024       0.01282306       0.18562316 </v>
   <v>       0.07270768      -0.01056353       0.10790339 </v>
   <v>       0.10283663       0.11143568       0.01362105 </v>
   <v>      -0.08142250       0.24660143       0.04746039 </v>
   <v>      -0.04726799       0.05375319       0.00677578 </v>
   <v>       0.01369761      -0.10859508      -0.10636177 </v>
   <v>      -0.13559301      -0.02826282       0.09753835 </v>
   <v>      -0.08056652       0.00249167       0.10285556 </v>
   <v>       0.10482581      -0.33451606      -0.22351473 </v>
   <v>       0.01605553       0.03760082       0.01177794 </v>
   <v>      -0.12426228       0.03943525       0.00139540 </v>
   <v>      -0.03136788      -0.17495288      -0.03489750 </v>
  </varray>
  <varray name="stress" >
   <v>      -1.60538093      -0.17146409      -0.10845952 </v>
   <v>      -0.17146409      -1.89678137       0.22846694 </v>
   <v>      -0.10845953       0.22846694      -1.22772251 </v>
  </varray>
  <energy>
   <i name="e_fr_energy">    -41.14243246 </i>
   <i name="e_wo_entrp">    -41.14243246 </i>
   <i name="e_0_energy">      0.00000000 </i>
  </energy>
  <time name="totalsc">   14.20   14.35</time>
 </calculation>
 <calculation>
  <scstep>
   <time name="dav">    1.89    1.89</time>
   <time name="total">    2.22    2.23</time>
   <energy>
    <i name="alphaZ">     46.95059147 </i>
    <i name="ewald">  34711.88000947 </i>
    <i name="hartreedc"> -55582.06552040 </i>
    <i name="XCdc">   -240.14162356 </i>
    <i name="pawpsdc">  22585.88003550 </i>
    <i name="pawaedc"> -21652.61345628 </i>
    <i name="eentropy">      0.00000000 </i>
    <i name="bandstr">  -1692.18142451 </i>
    <i name="atom">  21781.17123181 </i>
    <i name="e_fr_energy">    -41.12015651 </i>
    <i name="e_wo_entrp">    -41.12015651 </i>
    <i name="e_0_energy">    -41.12015651 </i>
   </energy>
  </scstep>
  <scstep>
   <time name="dav">    1.96    1.96</time>
   <time name="total">    2.29    2.29</time>
   <energy>
    <i name="e_fr_energy">    -41.21315815 </i>
    <i name="e_wo_entrp">    -41.21315815 </i>
    <i name="e_0_energy">    -41.21315815 </i>
   </energy>
  </scstep>
  <scstep>
   <time name="dav">    2.05    2.05</time>
   <time name="total">    2.38    2.41</time>
   <energy>
    <i name="e_fr_energy">    -41.21225254 </i>
    <i name="e_wo_entrp">    -41.21225254 </i>
    <i name="e_0_energy">    -41.21225254 </i>
   </energy>
  </scstep>
  <scstep>
   <time name="dav">    2.00    2.00</time>
   <time name="total">    2.32    2.33</time>
   <energy>
    <i name="e_fr_energy">    -41.20967221 </i>
    <i name="e_wo_entrp">    -41.20967221 </i>
    <i name="e_0_energy">    -41.20967221 </i>
   </energy>
  </scstep>
  <scstep>
   <time name="dav">    2.04    2.04</time>
   <time name="total">    2.36    2.42</time>
   <energy>
    <i name="e_fr_energy">    -41.20979525 </i>
    <i name="e_wo_entrp">    -41.20979525 </i>
    <i name="e_0_energy">    -41.20979525 </i>
   </energy>
  </scstep>
  <scstep>
   <time name="dav">    1.46    1.46</time>
   <time name="total">    1.69    3.42</time>
   <energy>
    <i name="alphaZ">     46.95059147 </i>
    <i name="ewald">  34711.88000947 </i>
    <i name="hartreedc"> -55584.93979198 </i>
    <i name="XCdc">   -240.06563576 </i>
    <i name="pawpsdc">  22539.52491842 </i>
    <i name="pawaedc"> -21605.46101707 </i>
    <i name="eentropy">      0.00000000 </i>
    <i name="bandstr">  -1690.27012807 </i>
    <i name="atom">  21781.17123181 </i>
    <i name="e_fr_energy">    -41.20982172 </i>
    <i name="e_wo_entrp">    -41.20982172 </i>
    <i name="e_0_energy">    -41.20982172 </i>
   </energy>
  </scstep>
  <structure>
   <crystal>
    <varray name="basis" >
     <v>      19.99112498       0.00000000       0.00000000 </v>
     <v>       0.00000000      19.99112498       0.00000000 </v>
     <v>       0.00000000       0.00000000      19.99112498 </v>
    </varray>
    <i name="volume">   7989.35469660 </i>
    <varray name="rec_basis" >
     <v>       0.05002220       0.00000000       0.00000000 </v>
     <v>       0.00000000       0.05002220       0.00000000 </v>
     <v>       0.00000000       0.00000000       0.05002220 </v>
    </varray>
   </crystal>
   <varray name="positions" >
    <v>       0.34470604       0.53113385       0.45129193 </v>
    <v>       0.36761862       0.53438850       0.59732703 </v>
    <v>       0.39519405       0.41583993       0.50997140 </v>
    <v>       0.47536831       0.63075861       0.40449015 </v>
    <v>       0.38148274       0.65047597       0.51180390 </v>
    <v>       0.44817816       0.47324332       0.37976438 </v>
    <v>       0.51216740       0.37152362       0.45277940 </v>
    <v>       0.47358435       0.53749413       0.50651079 </v>
    <v>       0.46861326       0.31146576       0.57206204 </v>
    <v>       0.39655895       0.66815200       0.65032538 </v>
    <v>       0.56537139       0.41434438       0.33275082 </v>
    <v>       0.59461363       0.37594949       0.57074585 </v>
    <v>       0.48307244       0.44136769       0.61784151 </v>
    <v>       0.64085029       0.42622908       0.44999122 </v>
    <v>       0.49054260       0.56707578       0.66433529 </v>
    <v>       0.51243580       0.66232939       0.56890375 </v>
    <v>       0.60504302       0.64855155       0.47398667 </v>
    <v>       0.57513453       0.53633801       0.39695283 </v>
    <v>       0.70961835       0.45413949       0.57602579 </v>
    <v>       0.59555946       0.53322932       0.57090761 </v>
    <v>       0.69998498       0.55163775       0.47431219 </v>
   </varray>
  </structure>
  <varray name="forces" >
   <v>       0.11953663       0.05781564       0.03949423 </v>
   <v>       0.12628582       0.03274199      -0.01501043 </v>
   <v>      -0.00337356       0.08516704      -0.06951288 </v>
   <v>      -0.12325204      -0.25501987      -0.03586788 </v>
   <v>       0.10138159      -0.04065206       0.09944139 </v>
   <v>       0.02234705       0.19077384      -0.01854647 </v>
   <v>       0.05795399       0.07122683       0.08291620 </v>
   <v>       0.12787522      -0.05413406      -0.07532963 </v>
   <v>      -0.00351763       0.12270402      -0.02277579 </v>
   <v>       0.06665146      -0.05162736       0.08593348 </v>
   <v>       0.08087790      -0.10189576      -0.03896844 </v>
   <v>      -0.07385401       0.15582464       0.03206296 </v>
   <v>      -0.00376887      -0.00059637      -0.10570109 </v>
   <v>       0.01705339       0.05639363       0.07534223 </v>
   <v>      -0.02295999       0.00952098      -0.01633100 </v>
   <v>      -0.14586051       0.01020448       0.09995972 </v>
   <v>      -0.15352068      -0.20982416      -0.02833396 </v>
   <v>       0.00159741       0.01835761      -0.01092690 </v>
   <v>      -0.11503563       0.08033369      -0.07300093 </v>
   <v>      -0.02343725      -0.02939292      -0.01067172 </v>
   <v>      -0.05298030      -0.14792183       0.00582691 </v>
  </varray>
  <varray name="stress" >
   <v>      -1.93418290      -0.12112052      -0.07503299 </v>
   <v>      -0.12112053      -2.07269452       0.15841383 </v>
   <v>      -0.07503300       0.15841382      -1.49722606 </v>
  </varray>
  <energy>
   <i name="e_fr_energy">    -41.20982172 </i>
   <i name="e_wo_entrp">    -41.20982172 </i>
   <i name="e_0_energy">      0.00000000 </i>
  </energy>
  <time name="totalsc">   16.51   18.52</time>
 </calculation>
 <calculation>
  <scstep>
   <time name="dav">    1.96    1.96</time>
   <time name="total">    2.29    2.31</time>
   <energy>
    <i name="alphaZ">     46.95059147 </i>
    <i name="ewald">  34656.67046361 </i>
    <i name="hartreedc"> -55530.11695266 </i>
    <i name="XCdc">   -240.13852083 </i>
    <i name="pawpsdc">  22539.78209315 </i>
    <i name="pawaedc"> -21605.71425170 </i>
    <i name="eentropy">      0.00000000 </i>
    <i name="bandstr">  -1689.81283898 </i>
    <i name="atom">  21781.17123181 </i>
    <i name="e_fr_energy">    -41.20818414 </i>
    <i name="e_wo_entrp">    -41.20818414 </i>
    <i name="e_0_energy">    -41.20818414 </i>
   </energy>
  </scstep>
  <scstep>
   <time name="dav">    2.00    2.00</time>
   <time name="total">    2.33    2.34</time>
   <energy>
    <i name="e_fr_energy">    -41.21226992 </i>
    <i name="e_wo_entrp">    -41.21226992 </i>
    <i name="e_0_energy">    -41.21226992 </i>
   </energy>
  </scstep>
  <scstep>
   <time name="dav">    2.03    2.03</time>
   <time name="total">    2.27    2.80</time>
   <energy>
    <i name="alphaZ">     46.95059147 </i>
    <i name="ewald">  34656.67046361 </i>
    <i name="hartreedc"> -55530.59839821 </i>
    <i name="XCdc">   -240.12482467 </i>
    <i name="pawpsdc">  22535.31606950 </i>
    <i name="pawaedc"> -21601.16638253 </i>
    <i name="eentropy">      0.00000000 </i>
    <i name="bandstr">  -1689.43098483 </i>
    <i name="atom">  21781.17123181 </i>
    <i name="e_fr_energy">    -41.21223385 </i>
    <i name="e_wo_entrp">    -41.21223385 </i>
    <i name="e_0_energy">    -41.21223385 </i>
   </energy>
  </scstep>
  <structure>
   <crystal>
    <varray name="basis" >
     <v>      19.99112498       0.00000000       0.00000000 </v>
     <v>       0.00000000      19.99112498       0.00000000 </v>
     <v>       0.00000000       0.00000000      19.99112498 </v>
    </varray>
    <i name="volume">   7989.35469660 </i>
    <varray name="rec_basis" >
     <v>       0.05002220       0.00000000       0.00000000 </v>
     <v>       0.00000000       0.05002220       0.00000000 </v>
     <v>       0.00000000       0.00000000       0.05002220 </v>
    </varray>
   </crystal>
   <varray name="positions" >
    <v>       0.34458451       0.53130887       0.45151536 </v>
    <v>       0.36767503       0.53434320       0.59761691 </v>
    <v>       0.39528434       0.41578137       0.50947521 </v>
    <v>       0.47514661       0.63042486       0.40405974 </v>
    <v>       0.38136044       0.65060506       0.51205786 </v>
    <v>       0.44818396       0.47318385       0.37914537 </v>
    <v>       0.51206988       0.37184486       0.45260601 </v>
    <v>       0.47372066       0.53754449       0.50649155 </v>
    <v>       0.46836862       0.31149863       0.57226953 </v>
    <v>       0.39648188       0.66829365       0.65086936 </v>
    <v>       0.56560051       0.41424348       0.33285319 </v>
    <v>       0.59480262       0.37600312       0.57078621 </v>
    <v>       0.48280600       0.44156747       0.61803009 </v>
    <v>       0.64088527       0.42608572       0.45000381 </v>
    <v>       0.49062434       0.56697986       0.66423201 </v>
    <v>       0.51226937       0.66230426       0.56907008 </v>
    <v>       0.60500203       0.64862726       0.47425262 </v>
    <v>       0.57543441       0.53598937       0.39633788 </v>
    <v>       0.70994355       0.45417474       0.57628492 </v>
    <v>       0.59558103       0.53341235       0.57098531 </v>
    <v>       0.69987330       0.55145116       0.47413692 </v>
   </varray>
  </structure>
  <varray name="forces" >
   <v>       0.14915174       0.05424568       0.03047172 </v>
   <v>       0.13019339       0.03985299      -0.03692976 </v>
   <v>      -0.00992842       0.09723420      -0.04785573 </v>
   <v>      -0.10799815      -0.27469792      -0.01608495 </v>
   <v>       0.11306840      -0.05122147       0.10225397 </v>
   <v>       0.00449360       0.21963600       0.01573217 </v>
   <v>       0.06863976       0.05064107       0.11444811 </v>
   <v>       0.11098943      -0.05762718      -0.09682503 </v>
   <v>       0.01556351       0.15022507      -0.04061940 </v>
   <v>       0.07681144      -0.06496551       0.06750775 </v>
   <v>       0.08338563      -0.12599468      -0.07066548 </v>
   <v>      -0.10947138       0.16411251       0.03596230 </v>
   <v>       0.01039749      -0.05495368      -0.13671008 </v>
   <v>       0.03016932       0.05617163       0.09022228 </v>
   <v>      -0.02995146       0.03719910       0.00465899 </v>
   <v>      -0.14871131       0.01900311       0.09916107 </v>
   <v>      -0.16568155      -0.24834141      -0.05350672 </v>
   <v>      -0.01859756       0.08710779       0.02820293 </v>
   <v>      -0.14246135       0.08855502      -0.09043914 </v>
   <v>      -0.00214903      -0.04403335      -0.01351463 </v>
   <v>      -0.05791348      -0.14214899       0.01452963 </v>
  </varray>
  <varray name="stress" >
   <v>      -1.99586927      -0.10875177      -0.06782309 </v>
   <v>      -0.10875177      -2.09956457       0.14777783 </v>
   <v>      -0.06782308       0.14777783      -1.53598965 </v>
  </varray>
  <energy>
   <i name="e_fr_energy">    -41.21223385 </i>
   <i name="e_wo_entrp">    -41.21223385 </i>
   <i name="e_0_energy">      0.00000000 </i>
  </energy>
  <time name="totalsc">   10.14   11.65</time>
 </calculation>
 <calculation>
  <scstep>
   <time name="dav">    1.89    1.89</time>
   <time name="total">    2.22    2.23</time>
   <energy>
    <i name="alphaZ">     46.95059147 </i>
    <i name="ewald">  34731.72908070 </i>
    <i name="hartreedc"> -55605.72598355 </i>
    <i name="XCdc">   -240.01798864 </i>
    <i name="pawpsdc">  22532.38528070 </i>
    <i name="pawaedc"> -21598.18459877 </i>
    <i name="eentropy">      0.00000000 </i>
    <i name="bandstr">  -1689.54306084 </i>
    <i name="atom">  21781.17123181 </i>
    <i name="e_fr_energy">    -41.23544711 </i>
    <i name="e_wo_entrp">    -41.23544711 </i>
    <i name="e_0_energy">    -41.23544711 </i>
   </energy>
  </scstep>
  <scstep>
   <time name="dav">    1.96    1.96</time>
   <time name="total">    2.29    2.29</time>
   <energy>
    <i name="e_fr_energy">    -41.25401921 </i>
    <i name="e_wo_entrp">    -41.25401921 </i>
    <i name="e_0_energy">    -41.25401921 </i>
[...]
       <r>    -0.8187     0.0000   129.0000 </r>
       <r>    -0.7799     0.0000   129.0000 </r>
       <r>    -0.7412     0.0000   129.0000 </r>
       <r>    -0.7025     0.0000   130.0000 </r>
       <r>    -0.6638     0.0000   130.0000 </r>
       <r>    -0.6251     0.0000   131.0000 </r>
       <r>    -0.5864     0.0000   131.0000 </r>
       <r>    -0.5477     0.0000   132.0000 </r>
       <r>    -0.5090     0.0000   132.0000 </r>
       <r>    -0.4703     0.0000   133.0000 </r>
       <r>    -0.4316     0.0000   133.0000 </r>
       <r>    -0.3929     0.0000   133.0000 </r>
       <r>    -0.3542     0.0000   134.0000 </r>
       <r>    -0.3154     0.0000   134.0000 </r>
       <r>    -0.2767     0.0000   134.0000 </r>
       <r>    -0.2380     0.0000   135.0000 </r>
       <r>    -0.1993     0.0000   135.0000 </r>
       <r>    -0.1606     0.0000   135.0000 </r>
       <r>    -0.1219     0.0000   136.0000 </r>
       <r>    -0.0832     0.0000   137.0000 </r>
       <r>    -0.0445     0.0000   137.0000 </r>
       <r>    -0.0058     0.0000   137.0000 </r>
       <r>     0.0329     0.0000   137.0000 </r>
       <r>     0.0716     0.0000   137.0000 </r>
       <r>     0.1104     0.0000   137.0000 </r>
       <r>     0.1491     0.0000   138.0000 </r>
       <r>     0.1878     0.0000   138.0000 </r>
       <r>     0.2265     0.0000   139.0000 </r>
       <r>     0.2652     0.0000   139.0000 </r>
       <r>     0.3039     0.0000   139.0000 </r>
       <r>     0.3426     0.0000   139.0000 </r>
       <r>     0.3813     0.0000   139.0000 </r>
       <r>     0.4200     0.0000   139.0000 </r>
       <r>     0.4587     0.0000   140.0000 </r>
       <r>     0.4974     0.0000   140.0000 </r>
       <r>     0.5361     0.0000   141.0000 </r>
       <r>     0.5749     0.0000   141.0000 </r>
       <r>     0.6136     0.0000   142.0000 </r>
       <r>     0.6523     0.0000   142.0000 </r>
       <r>     0.6910     0.0000   142.0000 </r>
       <r>     0.7297    22.9459   143.8882 </r>
       <r>     0.7684     0.0000   145.0000 </r>
       <r>     0.8071     0.0000   146.0000 </r>
       <r>     0.8458     0.0000   148.0000 </r>
       <r>     0.8845     0.0000   148.0000 </r>
       <r>     0.9232     0.0000   149.0000 </r>
       <r>     0.9619     0.0000   149.0000 </r>
       <r>     1.0006     0.0000   150.0000 </r>
       <r>     1.0394     0.0000   151.0000 </r>
       <r>     1.0781     0.0000   152.0000 </r>
       <r>     1.1168     0.0000   152.0000 </r>
       <r>     1.1555     0.0000   152.0000 </r>
       <r>     1.1942     0.0000   152.0000 </r>
       <r>     1.2329     0.0000   152.0000 </r>
       <r>     1.2716     0.0000   152.0000 </r>
       <r>     1.3103     0.0000   152.0000 </r>
       <r>     1.3490     0.0000   152.0000 </r>
       <r>     1.3877     0.0000   152.0000 </r>
       <r>     1.4264     0.0000   152.0000 </r>
       <r>     1.4652     0.0000   152.0000 </r>
       <r>     1.5039     0.0000   152.0000 </r>
       <r>     1.5426     0.0000   152.0000 </r>
       <r>     1.5813     0.0000   152.0000 </r>
       <r>     1.6200     0.0000   152.0000 </r>
      </set>
      <set comment="spin 2">
       <r>    -9.9926     0.0000     0.0000 </r>
       <r>    -9.9539     0.0000     0.0000 </r>
       <r>    -9.9152     0.0000     0.0000 </r>
       <r>    -9.8765     0.0000     0.0000 </r>
       <r>    -9.8378     0.0000     0.0000 </r>
       <r>    -9.7991     0.0000     0.0000 </r>
       <r>    -9.7604     0.0000     0.0000 </r>
       <r>    -9.7217     0.0000     0.0000 </r>
       <r>    -9.6829     0.0000     0.0000 </r>
       <r>    -9.6442     0.0000     0.0000 </r>
       <r>    -9.6055     0.0000     0.0000 </r>
       <r>    -9.5668     0.0000     0.0000 </r>
       <r>    -9.5281     0.0000     0.0000 </r>
       <r>    -9.4894     0.0000     0.0000 </r>
       <r>    -9.4507     0.0000     0.0000 </r>
       <r>    -9.4120     0.0000     1.0000 </r>
       <r>    -9.3733     0.0000     1.0000 </r>
       <r>    -9.3346     0.0000     1.0000 </r>
       <r>    -9.2959     0.0000     1.0000 </r>
       <r>    -9.2571     0.0000     1.0000 </r>
       <r>    -9.2184     0.0000     1.0000 </r>
       <r>    -9.1797     0.0000     1.0000 </r>
       <r>    -9.1410     0.0000     1.0000 </r>
       <r>    -9.1023     0.0000     2.0000 </r>
       <r>    -9.0636     0.0000     2.0000 </r>
       <r>    -9.0249     0.0000     2.0000 </r>
       <r>    -8.9862     0.0000     4.0000 </r>
       <r>    -8.9475     0.0000     5.0000 </r>
       <r>    -8.9088     0.0000     6.0000 </r>
       <r>    -8.8701     0.0000     7.0000 </r>
       <r>    -8.8314     0.0000     8.0000 </r>
       <r>    -8.7926     0.0000     9.0000 </r>
       <r>    -8.7539     0.0000     9.0000 </r>
       <r>    -8.7152     0.0000    10.0000 </r>
       <r>    -8.6765     0.0000    10.0000 </r>
       <r>    -8.6378     0.0000    11.0000 </r>
       <r>    -8.5991     0.0000    12.0000 </r>
       <r>    -8.5604     0.0000    15.0000 </r>
       <r>    -8.5217     0.0000    15.0000 </r>
       <r>    -8.4830     0.0000    16.0000 </r>
       <r>    -8.4443    25.8340    19.0000 </r>
       <r>    -8.4056     0.0000    19.0000 </r>
       <r>    -8.3668     0.0000    22.0000 </r>
       <r>    -8.3281     0.0000    24.0000 </r>
       <r>    -8.2894     0.0000    24.0000 </r>
       <r>    -8.2507     0.0000    26.0000 </r>
       <r>    -8.2120     0.0000    27.0000 </r>
       <r>    -8.1733     0.0000    28.0000 </r>
       <r>    -8.1346     0.0000    29.0000 </r>
       <r>    -8.0959     0.0000    31.0000 </r>
       <r>    -8.0572     0.0000    33.0000 </r>
       <r>    -8.0185     0.0000    34.0000 </r>
       <r>    -7.9798     0.0000    34.0000 </r>
       <r>    -7.9411     0.0000    35.0000 </r>
       <r>    -7.9023     0.0000    37.0000 </r>
       <r>    -7.8636     0.0000    37.0000 </r>
       <r>    -7.8249     0.0000    39.0000 </r>
       <r>    -7.7862     0.0000    40.0000 </r>
       <r>    -7.7475     0.0000    41.0000 </r>
       <r>    -7.7088     0.0000    43.0000 </r>
       <r>    -7.6701     0.0000    45.0000 </r>
       <r>    -7.6314     0.0000    46.0000 </r>
       <r>    -7.5927     0.0000    47.0000 </r>
       <r>    -7.5540     0.0000    48.0000 </r>
       <r>    -7.5153     0.0000    49.0000 </r>
       <r>    -7.4765     0.0000    51.0000 </r>
       <r>    -7.4378     0.0000    53.0000 </r>
       <r>    -7.3991     0.0000    53.0000 </r>
       <r>    -7.3604     0.0000    55.0000 </r>
       <r>    -7.3217     0.0000    56.0000 </r>
       <r>    -7.2830     0.0000    58.0000 </r>
       <r>    -7.2443     0.0000    60.0000 </r>
       <r>    -7.2056     0.0000    60.0000 </r>
       <r>    -7.1669     0.0000    62.0000 </r>
       <r>    -7.1282     0.0000    64.0000 </r>
       <r>    -7.0895     0.0000    66.0000 </r>
       <r>    -7.0508     0.0000    68.0000 </r>
       <r>    -7.0120     0.0000    69.0000 </r>
       <r>    -6.9733     0.0000    71.0000 </r>
       <r>    -6.9346     0.0000    74.0000 </r>
       <r>    -6.8959     0.0000    75.0000 </r>
       <r>    -6.8572     0.0000    77.0000 </r>
       <r>    -6.8185     0.0000    79.0000 </r>
       <r>    -6.7798     0.0000    82.0000 </r>
       <r>    -6.7411     0.0000    84.0000 </r>
       <r>    -6.7024     0.0000    85.0000 </r>
       <r>    -6.6637     0.0000    87.0000 </r>
       <r>    -6.6250     0.0000    89.0000 </r>
       <r>    -6.5862     0.0000    91.0000 </r>
       <r>    -6.5475     0.0000    93.0000 </r>
       <r>    -6.5088     0.0000    96.0000 </r>
       <r>    -6.4701     0.0000    98.0000 </r>
       <r>    -6.4314     0.0000    99.0000 </r>
       <r>    -6.3927     0.0000   102.0000 </r>
       <r>    -6.3540     0.0000   103.0000 </r>
       <r>    -6.3153     0.0000   105.0000 </r>
       <r>    -6.2766     0.0000   106.0000 </r>
       <r>    -6.2379     0.0000   107.0000 </r>
       <r>    -6.1992     0.0000   107.0000 </r>
       <r>    -6.1605     0.0000   109.0000 </r>
       <r>    -6.1217     0.0000   109.0000 </r>
       <r>    -6.0830     0.0000   109.0000 </r>
       <r>    -6.0443     0.0000   109.0000 </r>
       <r>    -6.0056     0.0000   109.0000 </r>
       <r>    -5.9669     0.0000   109.0000 </r>
       <r>    -5.9282     0.0000   109.0000 </r>
       <r>    -5.8895     0.0000   109.0000 </r>
       <r>    -5.8508     0.0000   109.0000 </r>
       <r>    -5.8121     0.0000   109.0000 </r>
       <r>    -5.7734     0.0000   109.0000 </r>
       <r>    -5.7347     0.0000   109.0000 </r>
       <r>    -5.6960     0.0000   109.0000 </r>
       <r>    -5.6572     0.0000   109.0000 </r>
       <r>    -5.6185     0.0000   109.0000 </r>
       <r>    -5.5798     0.0000   109.0000 </r>
       <r>    -5.5411     0.0000   109.0000 </r>
       <r>    -5.5024     0.0000   109.0000 </r>
       <r>    -5.4637     0.0000   109.0000 </r>
       <r>    -5.4250     0.0000   109.0000 </r>
       <r>    -5.3863     0.0000   109.0000 </r>
       <r>    -5.3476     0.0000   109.0000 </r>
       <r>    -5.3089     0.0000   109.0000 </r>
       <r>    -5.2702     0.0000   109.0000 </r>
       <r>    -5.2314     0.0000   110.0000 </r>
       <r>    -5.1927     0.0000   110.0000 </r>
       <r>    -5.1540     0.0000   110.0000 </r>
       <r>    -5.1153     0.0000   110.0000 </r>
       <r>    -5.0766     0.0000   110.0000 </r>
       <r>    -5.0379     0.0000   110.0000 </r>
       <r>    -4.9992     0.0000   110.0000 </r>
       <r>    -4.9605     0.0000   110.0000 </r>
       <r>    -4.9218     0.0000   111.0000 </r>
       <r>    -4.8831     0.0000   111.0000 </r>
       <r>    -4.8444     0.0000   111.0000 </r>
       <r>    -4.8057     0.0000   111.0000 </r>
       <r>    -4.7669     0.0000   111.0000 </r>
       <r>    -4.7282     0.0000   111.0000 </r>
       <r>    -4.6895     0.0000   111.0000 </r>
       <r>    -4.6508     0.0000   111.0000 </r>
       <r>    -4.6121     0.0000   111.0000 </r>
       <r>    -4.5734     0.0000   112.0000 </r>
       <r>    -4.5347     0.0000   112.0000 </r>
       <r>    -4.4960     0.0000   112.0000 </r>
       <r>    -4.4573     0.0000   112.0000 </r>
       <r>    -4.4186     0.0000   112.0000 </r>
       <r>    -4.3799     0.0000   113.0000 </r>
       <r>    -4.3411     0.0000   113.0000 </r>
       <r>    -4.3024     0.0000   113.0000 </r>
       <r>    -4.2637     0.0000   113.0000 </r>
       <r>    -4.2250     0.0000   113.0000 </r>
       <r>    -4.1863     0.0000   113.0000 </r>
       <r>    -4.1476     0.0000   113.0000 </r>
       <r>    -4.1089     0.0000   114.0000 </r>
       <r>    -4.0702     0.0000   114.0000 </r>
       <r>    -4.0315     0.0000   114.0000 </r>
       <r>    -3.9928     0.0000   114.0000 </r>
       <r>    -3.9541     0.0000   114.0000 </r>
       <r>    -3.9154     0.0000   114.0000 </r>
       <r>    -3.8766     0.0000   115.0000 </r>
       <r>    -3.8379     0.0000   115.0000 </r>
       <r>    -3.7992     0.0000   115.0000 </r>
       <r>    -3.7605     0.0000   115.0000 </r>
       <r>    -3.7218     0.0000   115.0000 </r>
       <r>    -3.6831     0.0000   115.0000 </r>
       <r>    -3.6444     0.0000   115.0000 </r>
       <r>    -3.6057     0.0000   115.0000 </r>
       <r>    -3.5670     0.0000   115.0000 </r>
       <r>    -3.5283     0.0000   115.0000 </r>
       <r>    -3.4896     0.0000   115.0000 </r>
       <r>    -3.4508     0.0000   115.0000 </r>
       <r>    -3.4121     0.0000   115.0000 </r>
       <r>    -3.3734     0.0000   115.0000 </r>
       <r>    -3.3347     0.0000   115.0000 </r>
       <r>    -3.2960     0.0000   115.0000 </r>
       <r>    -3.2573     0.0000   116.0000 </r>
       <r>    -3.2186     0.0000   116.0000 </r>
       <r>    -3.1799     0.0000   116.0000 </r>
       <r>    -3.1412     0.0000   116.0000 </r>
       <r>    -3.1025     0.0000   116.0000 </r>
       <r>    -3.0638     0.0000   116.0000 </r>
       <r>    -3.0251     0.0000   116.0000 </r>
       <r>    -2.9863     0.0000   117.0000 </r>
       <r>    -2.9476     0.0000   117.0000 </r>
       <r>    -2.9089     0.0000   117.0000 </r>
       <r>    -2.8702     0.0000   117.0000 </r>
       <r>    -2.8315     0.0000   117.0000 </r>
       <r>    -2.7928     0.0000   117.0000 </r>
       <r>    -2.7541     0.0000   118.0000 </r>
       <r>    -2.7154     0.0000   118.0000 </r>
       <r>    -2.6767     0.0000   118.0000 </r>
       <r>    -2.6380     0.0000   119.0000 </r>
       <r>    -2.5993     0.0000   119.0000 </r>
       <r>    -2.5605     0.0000   119.0000 </r>
       <r>    -2.5218     0.0000   120.0000 </r>
       <r>    -2.4831     0.0000   120.0000 </r>
       <r>    -2.4444     0.0000   120.0000 </r>
       <r>    -2.4057     0.0000   120.0000 </r>
       <r>    -2.3670     0.0000   120.0000 </r>
       <r>    -2.3283     0.0000   120.0000 </r>
       <r>    -2.2896     0.0000   121.0000 </r>
       <r>    -2.2509     0.0000   121.0000 </r>
       <r>    -2.2122     0.0000   121.0000 </r>
       <r>    -2.1735     0.0000   121.0000 </r>
       <r>    -2.1348     0.0000   121.0000 </r>
       <r>    -2.0960     0.0000   122.0000 </r>
       <r>    -2.0573     0.0000   122.0000 </r>
       <r>    -2.0186     0.0000   122.0000 </r>
       <r>    -1.9799     0.0000   123.0000 </r>
       <r>    -1.9412     0.0000   123.0000 </r>
       <r>    -1.9025     0.0000   123.0000 </r>
       <r>    -1.8638     0.0000   123.0000 </r>
       <r>    -1.8251     0.0000   124.0000 </r>
       <r>    -1.7864     0.0000   124.0000 </r>
       <r>    -1.7477     0.0000   124.0000 </r>
       <r>    -1.7090     0.0000   124.0000 </r>
       <r>    -1.6702     0.0000   124.0000 </r>
       <r>    -1.6315     0.0000   125.0000 </r>
       <r>    -1.5928     0.0000   125.0000 </r>
       <r>    -1.5541     0.0000   125.0000 </r>
       <r>    -1.5154     0.0000   125.0000 </r>
       <r>    -1.4767     0.0000   125.0000 </r>
       <r>    -1.4380     0.0000   125.0000 </r>
       <r>    -1.3993     0.0000   125.0000 </r>
       <r>    -1.3606     0.0000   126.0000 </r>
       <r>    -1.3219     0.0000   126.0000 </r>
       <r>    -1.2832     0.0000   126.0000 </r>
       <r>    -1.2445     0.0000   126.0000 </r>
       <r>    -1.2057     0.0000   126.0000 </r>
       <r>    -1.1670     0.0000   126.0000 </r>
       <r>    -1.1283     0.0000   126.0000 </r>
       <r>    -1.0896     0.0000   126.0000 </r>
       <r>    -1.0509     0.0000   126.0000 </r>
       <r>    -1.0122     0.0000   126.0000 </r>
       <r>    -0.9735     0.0000   127.0000 </r>
       <r>    -0.9348     0.0000   127.0000 </r>
       <r>    -0.8961     0.0000   127.0000 </r>
       <r>    -0.8574     0.0000   127.0000 </r>
       <r>    -0.8187     0.0000   128.0000 </r>
       <r>    -0.7799     0.0000   129.0000 </r>
       <r>    -0.7412     0.0000   129.0000 </r>
       <r>    -0.7025     0.0000   129.0000 </r>
       <r>    -0.6638     0.0000   130.0000 </r>
       <r>    -0.6251     0.0000   130.0000 </r>
       <r>    -0.5864     0.0000   131.0000 </r>
       <r>    -0.5477     0.0000   131.0000 </r>
       <r>    -0.5090     0.0000   131.0000 </r>
       <r>    -0.4703     0.0000   132.0000 </r>
       <r>    -0.4316     0.0000   133.0000 </r>
       <r>    -0.3929     0.0000   133.0000 </r>
       <r>    -0.3542     0.0000   133.0000 </r>
       <r>    -0.3154     0.0000   134.0000 </r>
       <r>    -0.2767     0.0000   134.0000 </r>
       <r>    -0.2380     0.0000   134.0000 </r>
       <r>    -0.1993     0.0000   135.0000 </r>
       <r>    -0.1606     0.0000   135.0000 </r>
       <r>    -0.1219     0.0000   135.0000 </r>
       <r>    -0.0832     0.0000   135.0000 </r>
       <r>    -0.0445     0.0000   136.0000 </r>
       <r>    -0.0058     0.0000   137.0000 </r>
       <r>     0.0329     0.0000   137.0000 </r>
       <r>     0.0716     0.0000   137.0000 </r>
       <r>     0.1104     0.0000   137.0000 </r>
       <r>     0.1491     0.0000   137.0000 </r>
       <r>     0.1878     0.0000   138.0000 </r>
       <r>     0.2265     0.0000   138.0000 </r>
       <r>     0.2652     0.0000   139.0000 </r>
       <r>     0.3039     0.0000   139.0000 </r>
       <r>     0.3426     0.0000   139.0000 </r>
       <r>     0.3813     0.0000   139.0000 </r>
       <r>     0.4200     0.0000   139.0000 </r>
       <r>     0.4587     0.0000   139.0000 </r>
       <r>     0.4974     0.0000   140.0000 </r>
       <r>     0.5361    16.2795   140.6302 </r>
       <r>     0.5749     0.0000   141.0000 </r>
       <r>     0.6136     0.0000   141.0000 </r>
       <r>     0.6523     0.0000   141.0000 </r>
       <r>     0.6910     0.0000   142.0000 </r>
       <r>     0.7297     0.0000   142.0000 </r>
       <r>     0.7684     0.0000   143.0000 </r>
       <r>     0.8071     0.0000   145.0000 </r>
       <r>     0.8458     0.0000   146.0000 </r>
       <r>     0.8845     0.0000   148.0000 </r>
       <r>     0.9232     0.0000   148.0000 </r>
       <r>     0.9619     0.0000   149.0000 </r>
       <r>     1.0006     0.0000   149.0000 </r>
       <r>     1.0394     0.0000   150.0000 </r>
       <r>     1.0781     0.0000   151.0000 </r>
       <r>     1.1168     0.0000   152.0000 </r>
       <r>     1.1555     0.0000   152.0000 </r>
       <r>     1.1942     0.0000   152.0000 </r>
       <r>     1.2329     0.0000   152.0000 </r>
       <r>     1.2716     0.0000   152.0000 </r>
       <r>     1.3103     0.0000   152.0000 </r>
       <r>     1.3490     0.0000   152.0000 </r>
       <r>     1.3877     0.0000   152.0000 </r>
       <r>     1.4264     0.0000   152.0000 </r>
       <r>     1.4652     0.0000   152.0000 </r>
       <r>     1.5039     0.0000   152.0000 </r>
       <r>     1.5426     0.0000   152.0000 </r>
       <r>     1.5813     0.0000   152.0000 </r>
       <r>     1.6200     0.0000   152.0000 </r>
      </set>
     </set>
    </array>
   </total>
  </dos>
 </calculation>
 <structure name="finalpos" >
  <crystal>
   <varray name="basis" >
    <v>      19.99112498       0.00000000       0.00000000 </v>
    <v>       0.00000000      19.99112498       0.00000000 </v>
    <v>       0.00000000       0.00000000      19.99112498 </v>
   </varray>
   <i name="volume">   7989.35469660 </i>
   <varray name="rec_basis" >
    <v>       0.05002220       0.00000000       0.00000000 </v>
    <v>       0.00000000       0.05002220       0.00000000 </v>
    <v>       0.00000000       0.00000000       0.05002220 </v>
   </varray>
  </crystal>
  <varray name="positions" >
   <v>       0.35498429       0.54661390       0.44905351 </v>
   <v>       0.37987654       0.54152187       0.59009344 </v>
   <v>       0.38592145       0.42012193       0.50239899 </v>
   <v>       0.45882776       0.60953389       0.37688112 </v>
   <v>       0.42384401       0.65466418       0.51478456 </v>
   <v>       0.44590255       0.46592210       0.36973866 </v>
   <v>       0.51390622       0.38494586       0.46316893 </v>
   <v>       0.48413998       0.52535925       0.49228756 </v>
   <v>       0.46013761       0.31252442       0.56581071 </v>
   <v>       0.40288384       0.66206431       0.65884150 </v>
   <v>       0.57319508       0.40010582       0.33917472 </v>
   <v>       0.59756320       0.38423131       0.57697201 </v>
   <v>       0.47682888       0.44024996       0.60921245 </v>
   <v>       0.64211252       0.43686618       0.45458899 </v>
   <v>       0.48618540       0.55324901       0.68401801 </v>
   <v>       0.53195046       0.65717970       0.60452624 </v>
   <v>       0.56180047       0.63893708       0.47231505 </v>
   <v>       0.57588350       0.53389063       0.37881874 </v>
   <v>       0.71166456       0.46987989       0.57121120 </v>
   <v>       0.58908068       0.53009399       0.58330951 </v>
   <v>       0.67900937       0.56771232       0.47587404 </v>
  </varray>
 </structure>
</modeling>
