 vasp.5.3.5 31Mar14 (build Dec 28 2015 18:29:22) gamma-only                     
  
 executed on             LinuxIFC date 2019.05.31  21:52:07
 running on   32 total cores
 distrk:  each k-point on   32 cores,    1 groups
 distr:  one band on NCORES_PER_BAND=   8 cores,    4 groups


--------------------------------------------------------------------------------------------------------


 INCAR:
 POTCAR:    PAW_PBE Ag 02Apr2005                  
 POTCAR:    PAW_PBE Ag 02Apr2005                  
   VRHFIN =Ag : s1 d10                                                          
   LEXCH  = PE                                                                  
   EATOM  =  1037.2675 eV,   76.2370 Ry                                         
                                                                                
   TITEL  = PAW_PBE Ag 02Apr2005                                                
   LULTRA =        F    use ultrasoft PP ?                                      
   IUNSCR =        1    unscreen: 0-lin 1-nonlin 2-no                           
   RPACOR =    2.000    partial core radius                                     
   POMASS =  107.868; ZVAL   =   11.000    mass and valenz                      
   RCORE  =    2.500    outmost cutoff radius                                   
   RWIGS  =    2.840; RWIGS  =    1.503    wigner-seitz radius (au A)           
   ENMAX  =  249.844; ENMIN  =  187.383 eV                                      
   ICORE  =        3    local potential                                         
   LCOR   =        T    correct aug charges                                     
   LPAW   =        T    paw PP                                                  
   EAUG   =  412.496                                                            
   DEXC   =    0.000                                                            
   RMAX   =    2.560    core radius for proj-oper                               
   RAUG   =    1.300    factor for augmentation sphere                          
   RDEP   =    2.576    radius for radial grids                                 
   RDEPT  =    2.072    core radius for aug-charge                              
                                                                                
   Atomic configuration                                                         
   12 entries                                                                   
     n  l   j            E        occ.                                          
     1  0  0.50    -25324.9161   2.0000                                         
     2  0  0.50     -3728.5341   2.0000                                         
     2  1  1.50     -3344.0404   6.0000                                         
     3  0  0.50      -683.5581   2.0000                                         
     3  1  1.50      -557.3225   6.0000                                         
     3  2  2.50      -358.3853  10.0000                                         
     4  0  0.50       -95.0341   2.0000                                         
     4  1  1.50       -58.5511   6.0000                                         
     4  2  2.50        -7.4440  10.0000                                         
     5  0  0.50        -4.4045   1.0000                                         
     5  1  0.50        -1.3606   0.0000                                         
     4  3  2.50        -1.3606   0.0000                                         
   Description                                                                  
     l       E           TYP  RCUT    TYP  RCUT                                 
     2     -7.4439781     23  2.400                                             
     2     -8.8045607     23  2.400                                             
     0     -4.4044681     23  2.400                                             
     0      1.9520038     23  2.400                                             
     1     -1.3605826     23  2.500                                             
     1     27.2116520     23  2.500                                             
     3     -4.0817478     23  2.400                                             
  local pseudopotential read in
  partial core-charges read in
  partial kinetic energy density read in
  atomic valenz-charges read in
  non local Contribution for L=           2  read in
    real space projection operators read in
  non local Contribution for L=           2  read in
    real space projection operators read in
  non local Contribution for L=           0  read in
    real space projection operators read in
  non local Contribution for L=           0  read in
    real space projection operators read in
  non local Contribution for L=           1  read in
    real space projection operators read in
  non local Contribution for L=           1  read in
    real space projection operators read in
    PAW grid and wavefunctions read in
 
   number of l-projection  operators is LMAX  =           6
   number of lm-projection operators is LMMAX =          18
 
  PAW_PBE Ag 02Apr2005                  :
 energy of atom  1       EATOM=-1037.2675
 kinetic energy error for atom=    0.0689 (will be added to EATOM!!)
 
 
 POSCAR: Ag10, -17.83664528 <s> Ag </s>          
  positions in direct lattice
  velocities in cartesian coordinates
 exchange correlation table for  LEXCH =        8
   RHO(1)=    0.500       N(1)  =     2000
   RHO(2)=  100.500       N(2)  =     4000
 


--------------------------------------------------------------------------------------------------------


 ion  position               nearest neighbor table
   1  0.474  0.551  0.311-   4 2.79   2 2.80   3 2.81
   2  0.460  0.435  0.396-   3 2.72   5 2.77   1 2.80   4 2.82   7 2.84
   3  0.579  0.507  0.399-   2 2.72   6 2.78   7 2.78   1 2.81   4 2.90
   4  0.455  0.569  0.452-   8 2.74   1 2.79   2 2.82   6 2.85   3 2.90   5 2.94   7 3.30
   5  0.396  0.450  0.522-   8 2.76   2 2.77   7 2.81   9 2.85   4 2.94
   6  0.583  0.577  0.523-   8 2.77   3 2.78  10 2.82   7 2.85   4 2.85
   7  0.539  0.438  0.518-   3 2.78   5 2.81   9 2.82   2 2.84   6 2.85  10 2.86   8 3.11   4 3.30

   8  0.460  0.556  0.591-   4 2.74   5 2.76   6 2.77  10 2.83   9 2.87   7 3.11
   9  0.471  0.418  0.644-  10 2.68   7 2.82   5 2.85   8 2.87
  10  0.583  0.499  0.644-   9 2.68   6 2.82   8 2.83   7 2.86
 
  LATTYP: Found a simple cubic cell.
 ALAT       =    19.4941109921
  
  Lattice vectors:
  
 A1 = (  19.4941109921,   0.0000000000,   0.0000000000)
 A2 = (   0.0000000000,  19.4941109921,   0.0000000000)
 A3 = (   0.0000000000,   0.0000000000,  19.4941109921)


Analysis of symmetry for initial positions (statically):
=====================================================================
 Subroutine PRICEL returns:
 Original cell was already a primitive cell.
 

 Routine SETGRP: Setting up the symmetry group for a 
 simple cubic supercell.


 Subroutine GETGRP returns: Found  1 space group operations
 (whereof  1 operations were pure point group operations)
 out of a pool of 48 trial point group operations.


The static configuration has the point symmetry C_1 .


Analysis of symmetry for dynamics (positions and initial velocities):
=====================================================================
 Subroutine PRICEL returns:
 Original cell was already a primitive cell.
 

 Routine SETGRP: Setting up the symmetry group for a 
 simple cubic supercell.


 Subroutine GETGRP returns: Found  1 space group operations
 (whereof  1 operations were pure point group operations)
 out of a pool of 48 trial point group operations.


The dynamic configuration has the point symmetry C_1 .


Analysis of magnetic symmetry:
=====================================================================
 Subroutine PRICEL returns:
 Original cell was already a primitive cell.
 

 Subroutine MAGSYM returns: Found  1 space group operations
 (whereof  1 operations were pure point group operations)
 out of a pool of  1 trial space group operations
 (whereof  1 operations were pure point group operations)
 and found also     1 'primitive' translations


The magnetic configuration has the point symmetry C_1 .
 
 
 KPOINTS: Gamma-point only                        
  k-points in reciprocal lattice
Space group operators:
 irot       det(A)        alpha          n_x          n_y          n_z        tau_x        tau_y        tau_z
    1     1.000000     0.000000     1.000000     0.000000     0.000000     0.000000     0.000000     0.000000


--------------------------------------------------------------------------------------------------------




 Dimension of arrays:
   k-points           NKPTS =      1   k-points in BZ     NKDIM =      1   number of bands    NBANDS=     72
   number of dos      NEDOS =    301   number of ions     NIONS =     10
   non local maximal  LDIM  =      6   non local SUM 2l+1 LMDIM =     18
   total plane-waves  NPLWV = 512000
   max r-space proj   IRMAX =      1   max aug-charges    IRDMAX=   3597
   dimension x,y,z NGX =    80 NGY =   80 NGZ =   80
   dimension x,y,z NGXF=   160 NGYF=  160 NGZF=  160
   support grid    NGXF=   160 NGYF=  160 NGZF=  160
   ions per type =              10
 NGX,Y,Z   is equivalent  to a cutoff of   6.82,  6.82,  6.82 a.u.
 NGXF,Y,Z  is equivalent  to a cutoff of  13.64, 13.64, 13.64 a.u.


 I would recommend the setting:
   dimension x,y,z NGX =    75 NGY =   75 NGZ =   75
 SYSTEM =  unknown system                          
 POSCAR =  Ag10, -17.83664528 <s> Ag </s>          

 Startparameter for this run:
   NWRITE =      2    write-flag & timer
   PREC   = normal    normal or accurate (medium, high low for compatibility)
   ISTART =      0    job   : 0-new  1-cont  2-samecut
   ICHARG =      2    charge: 1-file 2-atom 10-const
   ISPIN  =      2    spin polarized calculation?
   LNONCOLLINEAR =      F non collinear calculations
   LSORBIT =      F    spin-orbit coupling
   INIWAV =      1    electr: 0-lowe 1-rand  2-diag
   LASPH  =      F    aspherical Exc in radial PAW
   METAGGA=      F    non-selfconsistent MetaGGA calc.

 Electronic Relaxation 1
   ENCUT  =  249.8 eV  18.36 Ry    4.29 a.u.  25.12 25.12 25.12*2*pi/ulx,y,z
   ENINI  =  249.8     initial cutoff
   ENAUG  =  412.5 eV  augmentation charge cutoff
   NELM   =     60;   NELMIN=  2; NELMDL= -5     # of ELM steps 
   EDIFF  = 0.5E-04   stopping-criterion for ELM
   LREAL  =      F    real-space projection
   NLSPLINE    = F    spline interpolate recip. space projectors
   LCOMPAT=      F    compatible to vasp.4.4
   GGA_COMPAT  = T    GGA compatible to vasp.4.4-vasp.4.6
   LMAXPAW     = -100 max onsite density
   LMAXMIX     =    2 max onsite mixed and CHGCAR
   VOSKOWN=      0    Vosko Wilk Nusair interpolation
   ROPT   =    0.00000
 Ionic relaxation
   EDIFFG = 0.5E-03   stopping-criterion for IOM
   NSW    =   1000    number of steps for IOM
   NBLOCK =      1;   KBLOCK =   1000    inner block; outer block 
   IBRION =      2    ionic relax: 0-MD 1-quasi-New 2-CG
   NFREE  =      1    steps in history (QN), initial steepest desc. (CG)
   ISIF   =      2    stress and relaxation
   IWAVPR =     11    prediction:  0-non 1-charg 2-wave 3-comb
   ISYM   =      2    0-nonsym 1-usesym 2-fastsym
   LCORR  =      T    Harris-Foulkes like correction to forces

   POTIM  = 0.1000    time-step for ionic-motion
   TEIN   =    0.0    initial temperature
   TEBEG  =    0.0;   TEEND  =   0.0 temperature during run
   SMASS  =  -3.00    Nose mass-parameter (am)
   estimated Nose-frequenzy (Omega)   =  0.10E-29 period in steps =****** mass=  -0.868E-26a.u.
   SCALEE = 1.0000    scale energy and forces
   NPACO  =    256;   APACO  = 16.0  distance and # of slots for P.C.
   PSTRESS=    0.0 pullay stress

  Mass of Ions in am
   POMASS = 107.87
  Ionic Valenz
   ZVAL   =  11.00
  Atomic Wigner-Seitz radii
   RWIGS  =  -1.00
  virtual crystal weights 
   VCA    =   1.00
   NELECT =     110.0000    total number of electrons
   NUPDOWN=      -1.0000    fix difference up-down

 DOS related values:
   EMIN   =  10.00;   EMAX   =-10.00  energy-range for DOS
   EFERMI =   0.00
   ISMEAR =     0;   SIGMA  =   0.00  broadening in eV -4-tet -1-fermi 0-gaus

 Electronic relaxation 2 (details)
   IALGO  =     38    algorithm
   LDIAG  =      T    sub-space diagonalisation (order eigenvalues)
   LSUBROT=      F    optimize rotation matrix (better conditioning)
   TURBO    =      0    0=normal 1=particle mesh
   IRESTART =      0    0=no restart 2=restart with 2 vectors
   NREBOOT  =      0    no. of reboots
   NMIN     =      0    reboot dimension
   EREF     =   0.00    reference energy to select bands
   IMIX   =      4    mixing-type and parameters
     AMIX     =   0.40;   BMIX     =  1.00
     AMIX_MAG =   1.60;   BMIX_MAG =  1.00
     AMIN     =   0.10
     WC   =   100.;   INIMIX=   1;  MIXPRE=   1;  MAXMIX= -45

 Intra band minimization:
   WEIMIN = 0.0010     energy-eigenvalue tresh-hold
   EBREAK =  0.17E-06  absolut break condition
   DEPER  =   0.30     relativ break condition  

   TIME   =   0.40     timestep for ELM

  volume/ion in A,a.u.               =     740.82      4999.27
  Fermi-wavevector in a.u.,A,eV,Ry     =   0.402379  0.760387  2.202907  0.161909
  Thomas-Fermi vector in A             =   1.352607
 
 Write flags
   LWAVE  =      F    write WAVECAR
   LCHARG =      F    write CHGCAR
   LVTOT  =      F    write LOCPOT, total local potential
   LVHAR  =      F    write LOCPOT, Hartree potential only
   LELF   =      F    write electronic localiz. function (ELF)
   LORBIT =      0    0 simple, 1 ext, 2 COOP (PROOUT)


 Dipole corrections
   LMONO  =      F    monopole corrections only (constant potential shift)
   LDIPOL =      F    correct potential (dipole corrections)
   IDIPOL =      0    1-x, 2-y, 3-z, 4-all directions 
   EPSILON=  1.0000000 bulk dielectric constant

 Exchange correlation treatment:
   GGA     =    PE    GGA type
   LEXCH   =     8    internal setting for exchange type
   VOSKOWN=      0    Vosko Wilk Nusair interpolation
   LHFCALC =     F    Hartree Fock is set to
   LHFONE  =     F    Hartree Fock one center treatment
   AEXX    =    0.0000 exact exchange contribution

 Linear response parameters
   LEPSILON=     F    determine dielectric tensor
   LRPA    =     F    only Hartree local field effects (RPA)
   LNABLA  =     F    use nabla operator in PAW spheres
   LVEL    =     F    velocity operator in full k-point grid
   LINTERFAST=   F  fast interpolation
   KINTER  =     0    interpolate to denser k-point grid
   CSHIFT  =0.1000    complex shift for real part using Kramers Kronig
   OMEGAMAX=  -1.0    maximum frequency
   DEG_THRESHOLD= 0.2000000E-02 threshold for treating states as degnerate
   RTIME   =    0.100 relaxation time in fs

 Orbital magnetization related:
   ORBITALMAG=     F  switch on orbital magnetization
   LCHIMAG   =     F  perturbation theory with respect to B field
   DQ        =  0.001000  dq finite difference perturbation B field



--------------------------------------------------------------------------------------------------------


 conjugate gradient relaxation of ions
 charge density and potential will be updated during run
 spin polarized calculation
 Variant of blocked Davidson
 Davidson routine will perform the subspace rotation
 perform sub-space diagonalisation
    after iterative eigenvector-optimisation
 modified Broyden-mixing scheme, WC =      100.0
 initial mixing is a Kerker type mixing with AMIX =  0.4000 and BMIX =      1.0000
 Hartree-type preconditioning will be used
 using additional bands           17
 reciprocal scheme for non local part
 use partial core corrections
 calculate Harris-corrections to forces 
   (improved forces if not selfconsistent)
 use gradient corrections 
 use of overlap-Matrix (Vanderbilt PP)
 Gauss-broadening in eV      SIGMA  =   0.00


--------------------------------------------------------------------------------------------------------


  energy-cutoff  :      249.84
  volume of cell :     7408.16
      direct lattice vectors                 reciprocal lattice vectors
    19.494110992  0.000000000  0.000000000     0.051297543  0.000000000  0.000000000
     0.000000000 19.494110992  0.000000000     0.000000000  0.051297543  0.000000000
     0.000000000  0.000000000 19.494110992     0.000000000  0.000000000  0.051297543

  length of vectors
    19.494110992 19.494110992 19.494110992     0.051297543  0.051297543  0.051297543


 
 k-points in units of 2pi/SCALE and weight: Gamma-point only                        
   0.00000000  0.00000000  0.00000000       1.000
 
 k-points in reciprocal lattice and weights: Gamma-point only                        
   0.00000000  0.00000000  0.00000000       1.000
 
 position of ions in fractional coordinates (direct lattice) 
   0.47395537  0.55053086  0.31115264
   0.45958630  0.43544291  0.39595091
   0.57932564  0.50677100  0.39903768
   0.45518748  0.56910594  0.45160193
   0.39591224  0.45010595  0.52234615
   0.58286969  0.57749066  0.52282443
   0.53941046  0.43825445  0.51769448
   0.46018100  0.55550314  0.59128627
   0.47099344  0.41820279  0.64380801
   0.58257839  0.49859230  0.64429750
 
 position of ions in cartesian coordinates  (Angst):
   9.23933861 10.73210970  6.06564401
   8.95922639  8.48857239  7.71871094
  11.29343823  9.87905009  7.77888488
   8.87347522 11.09421436  8.80357821
   7.71795707  8.77441535 10.18267385
  11.36252642 11.25766701 10.19199753
  10.51532736  8.54338084 10.09199356
   8.97081949 10.82903994 11.52660019
   9.18159838  8.15249166 12.55046489
  11.35684780  9.71961363 12.56000692
 


--------------------------------------------------------------------------------------------------------


 use parallel FFT for wavefunctions z direction half grid
 k-point  1 :   0.0000 0.0000 0.0000  plane waves:   33270

 maximum and minimum number of plane-waves per node :      4162     4155

 maximum number of plane-waves:     33270
 maximum index in each direction: 
   IXMAX=   25   IYMAX=   25   IZMAX=   25
   IXMIN=  -25   IYMIN=  -25   IZMIN=    0

 WARNING: aliasing errors must be expected set NGX to 102 to avoid them
 WARNING: aliasing errors must be expected set NGY to 102 to avoid them
 WARNING: aliasing errors must be expected set NGZ to 102 to avoid them
 aliasing errors are usually negligible using standard VASP settings
 and one can safely disregard these warnings

 parallel 3D FFT for wavefunctions:
    minimum data exchange during FFTs selected (reduces bandwidth)
 parallel 3D FFT for charge:
    minimum data exchange during FFTs selected (reduces bandwidth)


 total amount of memory used by VASP on root node    53920. kBytes
========================================================================

   base      :      30000. kBytes
   nonl-proj :       1264. kBytes
   fftplans  :       5768. kBytes
   grid      :      14451. kBytes
   one-center:         31. kBytes
   wavefun   :       2406. kBytes
 
     INWAV:  cpu time    0.00: real time    0.00
 Broyden mixing: mesh for mixing (old mesh)
   NGX = 51   NGY = 51   NGZ = 51
  (NGX  =160   NGY  =160   NGZ  =160)
  gives a total of 132651 points

 initial charge density was supplied:
 charge density of overlapping atoms calculated
 number of electron     110.0000000 magnetization      10.0000000
 keeping initial charge density in first step


--------------------------------------------------------------------------------------------------------


 Maximum index for augmentation-charges          269 (set IRDMAX)


--------------------------------------------------------------------------------------------------------


 First call to EWALD:  gamma=   0.091
 Maximum number of real-space cells 3x 3x 3
 Maximum number of reciprocal cells 3x 3x 3

 FEWALD executed in parallel
    FEWALD:  cpu time    0.00: real time    0.00


----------------------------------------- Iteration    1(   1)  ---------------------------------------


    POTLOK:  cpu time    0.63: real time    0.63
    SETDIJ:  cpu time    0.02: real time    0.02
     EDDAV:  cpu time    1.63: real time    1.63
       DOS:  cpu time    0.00: real time    0.00
    --------------------------------------------
      LOOP:  cpu time    2.28: real time    2.31

 eigenvalue-minimisations  :   288
 total energy-change (2. order) : 0.9782831E+03  (-0.1587797E+04)
 number of electron     110.0000000 magnetization      10.0000000
 augmentation part      110.0000000 magnetization      10.0000000

 Free energy of the ion-electron system (eV)
  ---------------------------------------------------
  alpha Z        PSCENC =        11.48163873
  Ewald energy   TEWEN  =     10392.31283322
  -Hartree energ DENC   =    -20305.70650679
  -exchange      EXHF   =         0.00000000
  -V(xc)+E(xc)   XCENC  =      -112.16475012
  PAW double counting   =     10033.72178070    -9572.64608879
  entropy T*S    EENTRO =        -0.00000000
  eigenvalues    EBANDS =       159.29788413
  atomic energy  EATOM  =     10371.98630086
  ---------------------------------------------------
  free energy    TOTEN  =       978.28309193 eV

  energy without entropy =      978.28309193  energy(sigma->0) =      978.28309193


--------------------------------------------------------------------------------------------------------




----------------------------------------- Iteration    1(   2)  ---------------------------------------


     EDDAV:  cpu time    2.70: real time    2.70
       DOS:  cpu time    0.00: real time    0.00
    --------------------------------------------
      LOOP:  cpu time    2.70: real time    2.70

 eigenvalue-minimisations  :   544
 total energy-change (2. order) :-0.5689698E+03  (-0.4975640E+03)
 number of electron     110.0000000 magnetization      10.0000000
 augmentation part      110.0000000 magnetization      10.0000000

 Free energy of the ion-electron system (eV)
  ---------------------------------------------------
  alpha Z        PSCENC =        11.48163873
  Ewald energy   TEWEN  =     10392.31283322
  -Hartree energ DENC   =    -20305.70650679
  -exchange      EXHF   =         0.00000000
  -V(xc)+E(xc)   XCENC  =      -112.16475012
  PAW double counting   =     10033.72178070    -9572.64608879
  entropy T*S    EENTRO =         0.00000000
  eigenvalues    EBANDS =      -409.67192730
  atomic energy  EATOM  =     10371.98630086
  ---------------------------------------------------
  free energy    TOTEN  =       409.31328051 eV

  energy without entropy =      409.31328051  energy(sigma->0) =      409.31328051


--------------------------------------------------------------------------------------------------------




----------------------------------------- Iteration    1(   3)  ---------------------------------------


     EDDAV:  cpu time    2.25: real time    2.25
       DOS:  cpu time    0.00: real time    0.00
    --------------------------------------------
      LOOP:  cpu time    2.26: real time    2.26

 eigenvalue-minimisations  :   440
 total energy-change (2. order) :-0.3709683E+03  (-0.3464223E+03)
 number of electron     110.0000000 magnetization      10.0000000
 augmentation part      110.0000000 magnetization      10.0000000

 Free energy of the ion-electron system (eV)
  ---------------------------------------------------
  alpha Z        PSCENC =        11.48163873
  Ewald energy   TEWEN  =     10392.31283322
  -Hartree energ DENC   =    -20305.70650679
  -exchange      EXHF   =         0.00000000
  -V(xc)+E(xc)   XCENC  =      -112.16475012
  PAW double counting   =     10033.72178070    -9572.64608879
  entropy T*S    EENTRO =         0.00000000
  eigenvalues    EBANDS =      -780.64022750
  atomic energy  EATOM  =     10371.98630086
  ---------------------------------------------------
  free energy    TOTEN  =        38.34498030 eV

  energy without entropy =       38.34498030  energy(sigma->0) =       38.34498030


--------------------------------------------------------------------------------------------------------




----------------------------------------- Iteration    1(   4)  ---------------------------------------


     EDDAV:  cpu time    1.92: real time    1.92
       DOS:  cpu time    0.00: real time    0.00
    --------------------------------------------
      LOOP:  cpu time    1.92: real time    1.92

 eigenvalue-minimisations  :   360
 total energy-change (2. order) :-0.5454016E+02  (-0.4969830E+02)
 number of electron     110.0000000 magnetization      10.0000000
 augmentation part      110.0000000 magnetization      10.0000000

 Free energy of the ion-electron system (eV)
  ---------------------------------------------------
  alpha Z        PSCENC =        11.48163873
  Ewald energy   TEWEN  =     10392.31283322
  -Hartree energ DENC   =    -20305.70650679
  -exchange      EXHF   =         0.00000000
  -V(xc)+E(xc)   XCENC  =      -112.16475012
  PAW double counting   =     10033.72178070    -9572.64608879
  entropy T*S    EENTRO =         0.00000000
  eigenvalues    EBANDS =      -835.18038565
  atomic energy  EATOM  =     10371.98630086
  ---------------------------------------------------
  free energy    TOTEN  =       -16.19517785 eV

  energy without entropy =      -16.19517785  energy(sigma->0) =      -16.19517785


--------------------------------------------------------------------------------------------------------




----------------------------------------- Iteration    1(   5)  ---------------------------------------


     EDDAV:  cpu time    1.68: real time    1.68
       DOS:  cpu time    0.00: real time    0.00
    CHARGE:  cpu time    0.15: real time    0.15
    MIXING:  cpu time    0.01: real time    0.01
    --------------------------------------------
      LOOP:  cpu time    1.85: real time    1.85

 eigenvalue-minimisations  :   304
 total energy-change (2. order) :-0.1656175E+01  (-0.1652572E+01)
 number of electron     110.0000196 magnetization       8.4942634
 augmentation part       52.1518686 magnetization       8.6895142

 Broyden mixing:
  rms(total) = 0.17100E+01    rms(broyden)= 0.17098E+01
  rms(prec ) = 0.17466E+01
  weight for this iteration     100.00

 Free energy of the ion-electron system (eV)
  ---------------------------------------------------
  alpha Z        PSCENC =        11.48163873
  Ewald energy   TEWEN  =     10392.31283322
  -Hartree energ DENC   =    -20305.70650679
  -exchange      EXHF   =         0.00000000
  -V(xc)+E(xc)   XCENC  =      -112.16475012
  PAW double counting   =     10033.72178070    -9572.64608879
  entropy T*S    EENTRO =         0.00000000
  eigenvalues    EBANDS =      -836.83656059
  atomic energy  EATOM  =     10371.98630086
  ---------------------------------------------------
  free energy    TOTEN  =       -17.85135278 eV

  energy without entropy =      -17.85135278  energy(sigma->0) =      -17.85135278


--------------------------------------------------------------------------------------------------------




----------------------------------------- Iteration    1(   6)  ---------------------------------------


    POTLOK:  cpu time    0.60: real time    0.60
    SETDIJ:  cpu time    0.02: real time    0.02
     EDDAV:  cpu time    1.62: real time    1.62
       DOS:  cpu time    0.00: real time    0.00
    CHARGE:  cpu time    0.14: real time    0.15
    MIXING:  cpu time    0.02: real time    0.01
    --------------------------------------------
      LOOP:  cpu time    2.42: real time    2.42

 eigenvalue-minimisations  :   288
 total energy-change (2. order) : 0.1647057E+02  (-0.4598173E+01)
 number of electron     110.0000202 magnetization       7.5985293
 augmentation part       53.0703016 magnetization       4.8876981

 Broyden mixing:
  rms(total) = 0.80060E+00    rms(broyden)= 0.80050E+00
  rms(prec ) = 0.81908E+00
  weight for this iteration     100.00

 eigenvalues of (default mixing * dielectric matrix)
  average eigenvalue GAMMA=   0.8439
  0.8439

 Free energy of the ion-electron system (eV)
  ---------------------------------------------------
  alpha Z        PSCENC =        11.48163873
  Ewald energy   TEWEN  =     10392.31283322
  -Hartree energ DENC   =    -20279.57612936
  -exchange      EXHF   =         0.00000000
  -V(xc)+E(xc)   XCENC  =      -102.75434767
  PAW double counting   =     10321.43359233    -9866.17232590
  entropy T*S    EENTRO =         0.00000000
  eigenvalues    EBANDS =      -850.09234140
  atomic energy  EATOM  =     10371.98630086
  ---------------------------------------------------
  free energy    TOTEN  =        -1.38077920 eV

  energy without entropy =       -1.38077920  energy(sigma->0) =       -1.38077920


--------------------------------------------------------------------------------------------------------




----------------------------------------- Iteration    1(   7)  ---------------------------------------


    POTLOK:  cpu time    0.60: real time    0.60
    SETDIJ:  cpu time    0.02: real time    0.02
     EDDAV:  cpu time    1.72: real time    1.72
       DOS:  cpu time    0.00: real time    0.00
    CHARGE:  cpu time    0.15: real time    0.15
    MIXING:  cpu time    0.01: real time    0.01
    --------------------------------------------
      LOOP:  cpu time    2.51: real time    2.52

 eigenvalue-minimisations  :   312
 total energy-change (2. order) : 0.3561039E+00  (-0.2201529E+00)
 number of electron     110.0000201 magnetization       6.3710424
 augmentation part       53.0032796 magnetization       3.8051233

 Broyden mixing:
  rms(total) = 0.45189E+00    rms(broyden)= 0.45187E+00
  rms(prec ) = 0.46319E+00
  weight for this iteration     100.00

 eigenvalues of (default mixing * dielectric matrix)
  average eigenvalue GAMMA=   0.9392
  0.7536  1.1248

 Free energy of the ion-electron system (eV)
  ---------------------------------------------------
  alpha Z        PSCENC =        11.48163873
  Ewald energy   TEWEN  =     10392.31283322
  -Hartree energ DENC   =    -20300.98324192
  -exchange      EXHF   =         0.00000000
  -V(xc)+E(xc)   XCENC  =      -102.05099850
  PAW double counting   =     10492.81231351   -10041.43498812
  entropy T*S    EENTRO =         0.00000000
  eigenvalues    EBANDS =      -825.14853307
  atomic energy  EATOM  =     10371.98630086
  ---------------------------------------------------
  free energy    TOTEN  =        -1.02467531 eV

  energy without entropy =       -1.02467531  energy(sigma->0) =       -1.02467531


--------------------------------------------------------------------------------------------------------




----------------------------------------- Iteration    1(   8)  ---------------------------------------


    POTLOK:  cpu time    0.61: real time    0.61
    SETDIJ:  cpu time    0.02: real time    0.02
     EDDAV:  cpu time    1.76: real time    1.76
       DOS:  cpu time    0.00: real time    0.00
    CHARGE:  cpu time    0.15: real time    0.15
    MIXING:  cpu time    0.02: real time    0.02
    --------------------------------------------
      LOOP:  cpu time    2.55: real time    2.55

 eigenvalue-minimisations  :   320
 total energy-change (2. order) :-0.3312966E+01  (-0.1603730E+00)
 number of electron     110.0000200 magnetization       5.4834205
 augmentation part       52.9147121 magnetization       3.0368803

 Broyden mixing:
  rms(total) = 0.22949E+00    rms(broyden)= 0.22948E+00
  rms(prec ) = 0.23385E+00
  weight for this iteration     100.00

 eigenvalues of (default mixing * dielectric matrix)
  average eigenvalue GAMMA=   1.1700
  1.9739  0.9127  0.6232

 Free energy of the ion-electron system (eV)
  ---------------------------------------------------
  alpha Z        PSCENC =        11.48163873
  Ewald energy   TEWEN  =     10392.31283322
  -Hartree energ DENC   =    -20321.86986939
  -exchange      EXHF   =         0.00000000
  -V(xc)+E(xc)   XCENC  =      -104.36471167
  PAW double counting   =     10668.81208121   -10221.08898459
  entropy T*S    EENTRO =        -0.00000000
  eigenvalues    EBANDS =      -801.60692921
  atomic energy  EATOM  =     10371.98630086
  ---------------------------------------------------
  free energy    TOTEN  =        -4.33764085 eV

  energy without entropy =       -4.33764085  energy(sigma->0) =       -4.33764085


--------------------------------------------------------------------------------------------------------




----------------------------------------- Iteration    1(   9)  ---------------------------------------


    POTLOK:  cpu time    0.60: real time    0.61
    SETDIJ:  cpu time    0.02: real time    0.02
     EDDAV:  cpu time    1.72: real time    1.72
       DOS:  cpu time    0.00: real time    0.00
    CHARGE:  cpu time    0.15: real time    0.15
    MIXING:  cpu time    0.02: real time    0.02
    --------------------------------------------
      LOOP:  cpu time    2.51: real time    2.52

 eigenvalue-minimisations  :   312
 total energy-change (2. order) :-0.2865323E+01  (-0.8690876E-01)
 number of electron     110.0000200 magnetization       4.7162029
 augmentation part       52.9030262 magnetization       2.3556231

 Broyden mixing:
  rms(total) = 0.12930E+00    rms(broyden)= 0.12929E+00
  rms(prec ) = 0.13430E+00
  weight for this iteration     100.00

 eigenvalues of (default mixing * dielectric matrix)
  average eigenvalue GAMMA=   1.1873
  1.9841  0.6214  0.8084  1.3355

 Free energy of the ion-electron system (eV)
  ---------------------------------------------------
  alpha Z        PSCENC =        11.48163873
  Ewald energy   TEWEN  =     10392.31283322
  -Hartree energ DENC   =    -20327.38030005
  -exchange      EXHF   =         0.00000000
  -V(xc)+E(xc)   XCENC  =      -106.55514475
  PAW double counting   =     10735.98506920   -10289.68194141
  entropy T*S    EENTRO =         0.00000000
  eigenvalues    EBANDS =      -795.35141942
  atomic energy  EATOM  =     10371.98630086
  ---------------------------------------------------
  free energy    TOTEN  =        -7.20296362 eV

  energy without entropy =       -7.20296362  energy(sigma->0) =       -7.20296362


--------------------------------------------------------------------------------------------------------




----------------------------------------- Iteration    1(  10)  ---------------------------------------


    POTLOK:  cpu time    0.60: real time    0.60
    SETDIJ:  cpu time    0.02: real time    0.02
     EDDAV:  cpu time    1.68: real time    1.69
       DOS:  cpu time    0.00: real time    0.00
    CHARGE:  cpu time    0.14: real time    0.15
    MIXING:  cpu time    0.02: real time    0.02
    --------------------------------------------
      LOOP:  cpu time    2.48: real time    2.48

 eigenvalue-minimisations  :   304
 total energy-change (2. order) :-0.3539493E+01  (-0.1210690E+00)
 number of electron     110.0000198 magnetization       4.7138098
 augmentation part       52.9359005 magnetization       4.4347657

 Broyden mixing:
  rms(total) = 0.23706E+00    rms(broyden)= 0.23690E+00
  rms(prec ) = 0.25791E+00
  weight for this iteration     100.00

 eigenvalues of (default mixing * dielectric matrix)
  average eigenvalue GAMMA=   0.9698
  2.0144  1.3309  0.6227  0.8133  0.0675

 Free energy of the ion-electron system (eV)
  ---------------------------------------------------
  alpha Z        PSCENC =        11.48163873
  Ewald energy   TEWEN  =     10392.31283322
  -Hartree energ DENC   =    -20324.99579303
  -exchange      EXHF   =         0.00000000
  -V(xc)+E(xc)   XCENC  =      -109.20724983
  PAW double counting   =     10733.64819173   -10287.49843829
  entropy T*S    EENTRO =         0.00000000
  eigenvalues    EBANDS =      -798.46994031
  atomic energy  EATOM  =     10371.98630086
  ---------------------------------------------------
  free energy    TOTEN  =       -10.74245692 eV

  energy without entropy =      -10.74245692  energy(sigma->0) =      -10.74245692


--------------------------------------------------------------------------------------------------------




----------------------------------------- Iteration    1(  11)  ---------------------------------------


    POTLOK:  cpu time    0.61: real time    0.61
    SETDIJ:  cpu time    0.02: real time    0.02
     EDDAV:  cpu time    1.78: real time    1.78
       DOS:  cpu time    0.00: real time    0.00
    CHARGE:  cpu time    0.14: real time    0.15
    MIXING:  cpu time    0.02: real time    0.02
    --------------------------------------------
      LOOP:  cpu time    2.58: real time    2.58

 eigenvalue-minimisations  :   328
 total energy-change (2. order) : 0.6615014E-01  (-0.2209779E-02)
 number of electron     110.0000198 magnetization       4.7302167
 augmentation part       52.9276259 magnetization       4.4597375

 Broyden mixing:
  rms(total) = 0.23569E+00    rms(broyden)= 0.23569E+00
  rms(prec ) = 0.25668E+00
  weight for this iteration     100.00

 eigenvalues of (default mixing * dielectric matrix)
  average eigenvalue GAMMA=   0.8274
  2.1191  1.2373  0.6217  0.8148  0.1007  0.0710

 Free energy of the ion-electron system (eV)
  ---------------------------------------------------
  alpha Z        PSCENC =        11.48163873
  Ewald energy   TEWEN  =     10392.31283322
  -Hartree energ DENC   =    -20325.01006849
  -exchange      EXHF   =         0.00000000
  -V(xc)+E(xc)   XCENC  =      -109.13401024
  PAW double counting   =     10733.70733325   -10287.55918316
  entropy T*S    EENTRO =         0.00000000
  eigenvalues    EBANDS =      -798.46115096
  atomic energy  EATOM  =     10371.98630086
  ---------------------------------------------------
  free energy    TOTEN  =       -10.67630679 eV

  energy without entropy =      -10.67630679  energy(sigma->0) =      -10.67630679


--------------------------------------------------------------------------------------------------------




----------------------------------------- Iteration    1(  12)  ---------------------------------------


    POTLOK:  cpu time    0.61: real time    0.61
    SETDIJ:  cpu time    0.02: real time    0.02
     EDDAV:  cpu time    1.71: real time    1.71
       DOS:  cpu time    0.00: real time    0.00
    CHARGE:  cpu time    0.15: real time    0.15
    MIXING:  cpu time    0.02: real time    0.02
    --------------------------------------------
      LOOP:  cpu time    2.51: real time    2.52

 eigenvalue-minimisations  :   312
 total energy-change (2. order) : 0.2197205E-02  (-0.1072653E-02)
 number of electron     110.0000198 magnetization       4.6080514
 augmentation part       52.9086853 magnetization       4.3302115

 Broyden mixing:
  rms(total) = 0.23970E+00    rms(broyden)= 0.23970E+00
  rms(prec ) = 0.26130E+00
  weight for this iteration     100.00

 eigenvalues of (default mixing * dielectric matrix)
  average eigenvalue GAMMA=   0.7581
  2.0981  1.2529  0.8140  0.6195  0.1864  0.1864  0.1497

 Free energy of the ion-electron system (eV)
  ---------------------------------------------------
  alpha Z        PSCENC =        11.48163873
  Ewald energy   TEWEN  =     10392.31283322
  -Hartree energ DENC   =    -20327.16508886
  -exchange      EXHF   =         0.00000000
  -V(xc)+E(xc)   XCENC  =      -109.08409015
  PAW double counting   =     10750.69922620   -10304.64134238
  entropy T*S    EENTRO =         0.00000000
  eigenvalues    EBANDS =      -796.26358720
  atomic energy  EATOM  =     10371.98630086
  ---------------------------------------------------
  free energy    TOTEN  =       -10.67410958 eV

  energy without entropy =      -10.67410958  energy(sigma->0) =      -10.67410958


--------------------------------------------------------------------------------------------------------




----------------------------------------- Iteration    1(  13)  ---------------------------------------


    POTLOK:  cpu time    0.61: real time    0.61
    SETDIJ:  cpu time    0.02: real time    0.02
     EDDAV:  cpu time    1.61: real time    1.61
       DOS:  cpu time    0.00: real time    0.00
    CHARGE:  cpu time    0.14: real time    0.15
    MIXING:  cpu time    0.02: real time    0.02
    --------------------------------------------
      LOOP:  cpu time    2.41: real time    2.41

 eigenvalue-minimisations  :   288
 total energy-change (2. order) :-0.2724529E+00  (-0.3237329E-02)
 number of electron     110.0000198 magnetization       3.5663476
 augmentation part       52.9331551 magnetization       3.3086753

 Broyden mixing:
  rms(total) = 0.23152E+00    rms(broyden)= 0.23152E+00
  rms(prec ) = 0.25234E+00
  weight for this iteration     100.00

 eigenvalues of (default mixing * dielectric matrix)
  average eigenvalue GAMMA=   0.9610
  2.3387  1.0876  1.0876  1.1379  0.8434  0.6401  0.2765  0.2765

 Free energy of the ion-electron system (eV)
  ---------------------------------------------------
  alpha Z        PSCENC =        11.48163873
  Ewald energy   TEWEN  =     10392.31283322
  -Hartree energ DENC   =    -20324.39650381
  -exchange      EXHF   =         0.00000000
  -V(xc)+E(xc)   XCENC  =      -109.33382604
  PAW double counting   =     10721.25597458   -10275.25093453
  entropy T*S    EENTRO =         0.00000000
  eigenvalues    EBANDS =      -799.00204546
  atomic energy  EATOM  =     10371.98630086
  ---------------------------------------------------
  free energy    TOTEN  =       -10.94656245 eV

  energy without entropy =      -10.94656245  energy(sigma->0) =      -10.94656245


--------------------------------------------------------------------------------------------------------




----------------------------------------- Iteration    1(  14)  ---------------------------------------


    POTLOK:  cpu time    0.61: real time    0.61
    SETDIJ:  cpu time    0.02: real time    0.02
     EDDAV:  cpu time    1.61: real time    1.61
       DOS:  cpu time    0.00: real time    0.00
    CHARGE:  cpu time    0.14: real time    0.15
    MIXING:  cpu time    0.02: real time    0.02
    --------------------------------------------
      LOOP:  cpu time    2.41: real time    2.42

 eigenvalue-minimisations  :   288
 total energy-change (2. order) :-0.1958608E+01  (-0.1079184E+00)
 number of electron     110.0000199 magnetization       2.1348225
 augmentation part       53.0710560 magnetization       2.0012902

 Broyden mixing:
  rms(total) = 0.34783E+00    rms(broyden)= 0.34783E+00
  rms(prec ) = 0.36298E+00
  weight for this iteration     100.00

 eigenvalues of (default mixing * dielectric matrix)
  average eigenvalue GAMMA=   1.1382
  2.8550  1.8819  1.8819  1.0539  0.7968  0.5826  0.5826  0.3042  0.3042

 Free energy of the ion-electron system (eV)
  ---------------------------------------------------
  alpha Z        PSCENC =        11.48163873
  Ewald energy   TEWEN  =     10392.31283322
  -Hartree energ DENC   =    -20308.80343899
  -exchange      EXHF   =         0.00000000
  -V(xc)+E(xc)   XCENC  =      -111.04507726
  PAW double counting   =     10519.66996584   -10074.36895781
  entropy T*S    EENTRO =         0.00000000
  eigenvalues    EBANDS =      -814.13843458
  atomic energy  EATOM  =     10371.98630086
  ---------------------------------------------------
  free energy    TOTEN  =       -12.90517000 eV

  energy without entropy =      -12.90517000  energy(sigma->0) =      -12.90517000


--------------------------------------------------------------------------------------------------------




----------------------------------------- Iteration    1(  15)  ---------------------------------------


    POTLOK:  cpu time    0.61: real time    0.61
    SETDIJ:  cpu time    0.02: real time    0.02
     EDDAV:  cpu time    1.68: real time    1.68
       DOS:  cpu time    0.00: real time    0.00
    CHARGE:  cpu time    0.14: real time    0.15
    MIXING:  cpu time    0.02: real time    0.02
    --------------------------------------------
      LOOP:  cpu time    2.48: real time    2.49

 eigenvalue-minimisations  :   304
 total energy-change (2. order) :-0.1961802E+01  (-0.1440676E+00)
 number of electron     110.0000200 magnetization       1.2479612
 augmentation part       53.2105453 magnetization       1.2416194

 Broyden mixing:
  rms(total) = 0.58856E+00    rms(broyden)= 0.58855E+00
  rms(prec ) = 0.60757E+00
  weight for this iteration     100.00

 eigenvalues of (default mixing * dielectric matrix)
  average eigenvalue GAMMA=   1.2514
  3.8299  2.0491  2.0491  0.9869  0.9136  0.7315  0.7315  0.6245  0.2990  0.2990

 Free energy of the ion-electron system (eV)
  ---------------------------------------------------
  alpha Z        PSCENC =        11.48163873
  Ewald energy   TEWEN  =     10392.31283322
  -Hartree energ DENC   =    -20291.81455363
  -exchange      EXHF   =         0.00000000
  -V(xc)+E(xc)   XCENC  =      -112.70638114
  PAW double counting   =     10286.24801970    -9841.63529070
  entropy T*S    EENTRO =         0.00000000
  eigenvalues    EBANDS =      -830.73953931
  atomic energy  EATOM  =     10371.98630086
  ---------------------------------------------------
  free energy    TOTEN  =       -14.86697226 eV

  energy without entropy =      -14.86697226  energy(sigma->0) =      -14.86697226


--------------------------------------------------------------------------------------------------------




----------------------------------------- Iteration    1(  16)  ---------------------------------------


    POTLOK:  cpu time    0.61: real time    0.61
    SETDIJ:  cpu time    0.02: real time    0.02
     EDDAV:  cpu time    1.74: real time    1.74
       DOS:  cpu time    0.00: real time    0.00
    CHARGE:  cpu time    0.15: real time    0.15
    MIXING:  cpu time    0.02: real time    0.03
    --------------------------------------------
      LOOP:  cpu time    2.54: real time    2.55

 eigenvalue-minimisations  :   320
 total energy-change (2. order) :-0.9681161E+00  (-0.3019584E-01)
 number of electron     110.0000200 magnetization       0.6562065
 augmentation part       53.2402052 magnetization       0.7038866

 Broyden mixing:
  rms(total) = 0.64492E+00    rms(broyden)= 0.64492E+00
  rms(prec ) = 0.66469E+00
  weight for this iteration     100.00

 eigenvalues of (default mixing * dielectric matrix)
  average eigenvalue GAMMA=   1.2712
  4.3535  1.8182  1.8182  1.3817  1.1366  0.9861  0.6431  0.6232  0.6232  0.2997
  0.2997

 Free energy of the ion-electron system (eV)
  ---------------------------------------------------
  alpha Z        PSCENC =        11.48163873
  Ewald energy   TEWEN  =     10392.31283322
  -Hartree energ DENC   =    -20286.71018377
  -exchange      EXHF   =         0.00000000
  -V(xc)+E(xc)   XCENC  =      -113.53171355
  PAW double counting   =     10218.73372990    -9774.21957996
  entropy T*S    EENTRO =         0.00000000
  eigenvalues    EBANDS =      -835.88811378
  atomic energy  EATOM  =     10371.98630086
  ---------------------------------------------------
  free energy    TOTEN  =       -15.83508835 eV

  energy without entropy =      -15.83508835  energy(sigma->0) =      -15.83508835


--------------------------------------------------------------------------------------------------------




----------------------------------------- Iteration    1(  17)  ---------------------------------------


    POTLOK:  cpu time    0.61: real time    0.61
    SETDIJ:  cpu time    0.02: real time    0.02
     EDDAV:  cpu time    1.78: real time    1.78
       DOS:  cpu time    0.00: real time    0.00
    CHARGE:  cpu time    0.14: real time    0.14
    MIXING:  cpu time    0.03: real time    0.03
    --------------------------------------------
      LOOP:  cpu time    2.59: real time    2.59

 eigenvalue-minimisations  :   328
 total energy-change (2. order) :-0.6872799E+00  (-0.8786840E-02)
 number of electron     110.0000200 magnetization       0.1587418
 augmentation part       53.2420449 magnetization       0.2319906

 Broyden mixing:
  rms(total) = 0.64083E+00    rms(broyden)= 0.64083E+00
  rms(prec ) = 0.66052E+00
  weight for this iteration     100.00

 eigenvalues of (default mixing * dielectric matrix)
  average eigenvalue GAMMA=   1.4149
  5.4680  2.1601  1.9660  1.9660  1.1685  0.9182  0.7376  0.7376  0.6565  0.6011
  0.2995  0.2995

 Free energy of the ion-electron system (eV)
  ---------------------------------------------------
  alpha Z        PSCENC =        11.48163873
  Ewald energy   TEWEN  =     10392.31283322
  -Hartree energ DENC   =    -20284.60154255
  -exchange      EXHF   =         0.00000000
  -V(xc)+E(xc)   XCENC  =      -114.16469708
  PAW double counting   =     10215.32780056    -9770.55684831
  entropy T*S    EENTRO =         0.00000000
  eigenvalues    EBANDS =      -838.30785371
  atomic energy  EATOM  =     10371.98630086
  ---------------------------------------------------
  free energy    TOTEN  =       -16.52236828 eV

  energy without entropy =      -16.52236828  energy(sigma->0) =      -16.52236828


--------------------------------------------------------------------------------------------------------




----------------------------------------- Iteration    1(  18)  ---------------------------------------


    POTLOK:  cpu time    0.61: real time    0.61
    SETDIJ:  cpu time    0.02: real time    0.02
     EDDAV:  cpu time    1.61: real time    1.61
       DOS:  cpu time    0.00: real time    0.00
    CHARGE:  cpu time    0.14: real time    0.15
    MIXING:  cpu time    0.03: real time    0.03
    --------------------------------------------
      LOOP:  cpu time    2.42: real time    2.42

 eigenvalue-minimisations  :   288
 total energy-change (2. order) :-0.5734485E+00  (-0.7734269E-02)
 number of electron     110.0000200 magnetization       0.0313338
 augmentation part       53.2042352 magnetization       0.1143239

 Broyden mixing:
  rms(total) = 0.55181E+00    rms(broyden)= 0.55181E+00
  rms(prec ) = 0.56916E+00
  weight for this iteration     100.00

 eigenvalues of (default mixing * dielectric matrix)
  average eigenvalue GAMMA=   1.4504
  5.6143  2.3835  2.3835  2.1528  1.2298  0.8991  0.8991  0.8770  0.2996  0.2996
  0.5885  0.5885  0.6405

 Free energy of the ion-electron system (eV)
  ---------------------------------------------------
  alpha Z        PSCENC =        11.48163873
  Ewald energy   TEWEN  =     10392.31283322
  -Hartree energ DENC   =    -20287.48202313
  -exchange      EXHF   =         0.00000000
  -V(xc)+E(xc)   XCENC  =      -114.69536685
  PAW double counting   =     10277.21177314    -9832.14470983
  entropy T*S    EENTRO =         0.00000000
  eigenvalues    EBANDS =      -835.76626292
  atomic energy  EATOM  =     10371.98630086
  ---------------------------------------------------
  free energy    TOTEN  =       -17.09581679 eV

  energy without entropy =      -17.09581679  energy(sigma->0) =      -17.09581679


--------------------------------------------------------------------------------------------------------




----------------------------------------- Iteration    1(  19)  ---------------------------------------


    POTLOK:  cpu time    0.60: real time    0.61
    SETDIJ:  cpu time    0.02: real time    0.02
     EDDAV:  cpu time    1.75: real time    1.75
       DOS:  cpu time    0.00: real time    0.00
    CHARGE:  cpu time    0.14: real time    0.15
    MIXING:  cpu time    0.03: real time    0.03
    --------------------------------------------
      LOOP:  cpu time    2.56: real time    2.56

 eigenvalue-minimisations  :   320
 total energy-change (2. order) :-0.2756737E+00  (-0.1428741E-01)
 number of electron     110.0000199 magnetization      -0.0944198
 augmentation part       53.1231298 magnetization      -0.0309759

 Broyden mixing:
  rms(total) = 0.38566E+00    rms(broyden)= 0.38566E+00
  rms(prec ) = 0.39756E+00
  weight for this iteration     100.00

 eigenvalues of (default mixing * dielectric matrix)
  average eigenvalue GAMMA=   1.6000
  5.7145  3.2346  3.2346  2.5930  1.2473  1.2473  0.9697  0.9697  0.2996  0.2996
  0.6676  0.6676  0.6274  0.6274

 Free energy of the ion-electron system (eV)
  ---------------------------------------------------
  alpha Z        PSCENC =        11.48163873
  Ewald energy   TEWEN  =     10392.31283322
  -Hartree energ DENC   =    -20295.61867492
  -exchange      EXHF   =         0.00000000
  -V(xc)+E(xc)   XCENC  =      -114.91261145
  PAW double counting   =     10398.91848125    -9953.46509172
  entropy T*S    EENTRO =         0.00000000
  eigenvalues    EBANDS =      -828.07436649
  atomic energy  EATOM  =     10371.98630086
  ---------------------------------------------------
  free energy    TOTEN  =       -17.37149053 eV

  energy without entropy =      -17.37149053  energy(sigma->0) =      -17.37149053


--------------------------------------------------------------------------------------------------------




----------------------------------------- Iteration    1(  20)  ---------------------------------------


    POTLOK:  cpu time    0.61: real time    0.61
    SETDIJ:  cpu time    0.02: real time    0.02
     EDDAV:  cpu time    1.72: real time    1.72
       DOS:  cpu time    0.00: real time    0.00
    CHARGE:  cpu time    0.14: real time    0.14
    MIXING:  cpu time    0.03: real time    0.03
    --------------------------------------------
      LOOP:  cpu time    2.53: real time    2.53

 eigenvalue-minimisations  :   312
 total energy-change (2. order) :-0.2684720E+00  (-0.2476394E-01)
 number of electron     110.0000199 magnetization      -0.1670030
 augmentation part       53.0161098 magnetization      -0.1334464

 Broyden mixing:
  rms(total) = 0.15715E+00    rms(broyden)= 0.15714E+00
  rms(prec ) = 0.16226E+00
  weight for this iteration     100.00

 eigenvalues of (default mixing * dielectric matrix)
  average eigenvalue GAMMA=   1.6962
  6.6086  3.6595  3.6595  2.6182  1.5071  1.5071  1.0640  0.2996  0.2996  0.8505
  0.7307  0.7307  0.6684  0.6198  0.6198

 Free energy of the ion-electron system (eV)
  ---------------------------------------------------
  alpha Z        PSCENC =        11.48163873
  Ewald energy   TEWEN  =     10392.31283322
  -Hartree energ DENC   =    -20305.95452931
  -exchange      EXHF   =         0.00000000
  -V(xc)+E(xc)   XCENC  =      -115.07270467
  PAW double counting   =     10570.69898888   -10124.56225830
  entropy T*S    EENTRO =         0.00000000
  eigenvalues    EBANDS =      -818.53023197
  atomic energy  EATOM  =     10371.98630086
  ---------------------------------------------------
  free energy    TOTEN  =       -17.63996257 eV

  energy without entropy =      -17.63996257  energy(sigma->0) =      -17.63996257


--------------------------------------------------------------------------------------------------------




----------------------------------------- Iteration    1(  21)  ---------------------------------------


    POTLOK:  cpu time    0.61: real time    0.61
    SETDIJ:  cpu time    0.02: real time    0.02
     EDDAV:  cpu time    1.75: real time    1.75
       DOS:  cpu time    0.00: real time    0.00
    CHARGE:  cpu time    0.14: real time    0.15
    MIXING:  cpu time    0.03: real time    0.03
    --------------------------------------------
      LOOP:  cpu time    2.56: real time    2.56

 eigenvalue-minimisations  :   320
 total energy-change (2. order) :-0.7731331E-01  (-0.9378014E-02)
 number of electron     110.0000198 magnetization      -0.1201948
 augmentation part       52.9543804 magnetization      -0.1077422

 Broyden mixing:
  rms(total) = 0.29294E-01    rms(broyden)= 0.29280E-01
  rms(prec ) = 0.31508E-01
  weight for this iteration     100.00

 eigenvalues of (default mixing * dielectric matrix)
  average eigenvalue GAMMA=   1.6648
  6.4082  4.0285  4.0285  2.1629  1.6496  1.6496  1.1599  0.2996  0.2996  0.8029
  0.8029  0.8604  0.6290  0.6290  0.6336  0.5931

 Free energy of the ion-electron system (eV)
  ---------------------------------------------------
  alpha Z        PSCENC =        11.48163873
  Ewald energy   TEWEN  =     10392.31283322
  -Hartree energ DENC   =    -20311.75734245
  -exchange      EXHF   =         0.00000000
  -V(xc)+E(xc)   XCENC  =      -115.07664285
  PAW double counting   =     10676.14353024   -10229.62594951
  entropy T*S    EENTRO =         0.00000000
  eigenvalues    EBANDS =      -813.18164410
  atomic energy  EATOM  =     10371.98630086
  ---------------------------------------------------
  free energy    TOTEN  =       -17.71727587 eV

  energy without entropy =      -17.71727587  energy(sigma->0) =      -17.71727587


--------------------------------------------------------------------------------------------------------




----------------------------------------- Iteration    1(  22)  ---------------------------------------


    POTLOK:  cpu time    0.61: real time    0.61
    SETDIJ:  cpu time    0.02: real time    0.02
     EDDAV:  cpu time    1.81: real time    1.81
       DOS:  cpu time    0.00: real time    0.00
    CHARGE:  cpu time    0.14: real time    0.15
    MIXING:  cpu time    0.04: real time    0.04
    --------------------------------------------
      LOOP:  cpu time    2.63: real time    2.64

 eigenvalue-minimisations  :   336
 total energy-change (2. order) :-0.6946968E-02  (-0.3471791E-03)
 number of electron     110.0000198 magnetization      -0.0668172
 augmentation part       52.9468263 magnetization      -0.0597564

 Broyden mixing:
  rms(total) = 0.16670E-01    rms(broyden)= 0.16668E-01
  rms(prec ) = 0.18835E-01
  weight for this iteration     100.00

 eigenvalues of (default mixing * dielectric matrix)
  average eigenvalue GAMMA=   1.6376
  6.3745  4.2457  4.2457  1.9502  1.7448  1.7448  1.0995  0.8671  0.8671  0.8989
  0.2996  0.2996  0.6723  0.6723  0.6414  0.6077  0.6077

 Free energy of the ion-electron system (eV)
  ---------------------------------------------------
  alpha Z        PSCENC =        11.48163873
  Ewald energy   TEWEN  =     10392.31283322
  -Hartree energ DENC   =    -20312.18132858
  -exchange      EXHF   =         0.00000000
  -V(xc)+E(xc)   XCENC  =      -115.07433685
  PAW double counting   =     10689.07714305   -10242.52930922
  entropy T*S    EENTRO =         0.00000000
  eigenvalues    EBANDS =      -812.79716404
  atomic energy  EATOM  =     10371.98630086
  ---------------------------------------------------
  free energy    TOTEN  =       -17.72422284 eV

  energy without entropy =      -17.72422284  energy(sigma->0) =      -17.72422284


--------------------------------------------------------------------------------------------------------




----------------------------------------- Iteration    1(  23)  ---------------------------------------


    POTLOK:  cpu time    0.61: real time    0.60
    SETDIJ:  cpu time    0.02: real time    0.02
     EDDAV:  cpu time    1.67: real time    1.67
       DOS:  cpu time    0.00: real time    0.00
    CHARGE:  cpu time    0.14: real time    0.14
    MIXING:  cpu time    0.04: real time    0.04
    --------------------------------------------
      LOOP:  cpu time    2.49: real time    2.50

 eigenvalue-minimisations  :   304
 total energy-change (2. order) :-0.6662527E-02  (-0.1432234E-03)
 number of electron     110.0000198 magnetization       0.0089374
 augmentation part       52.9404845 magnetization       0.0113635

 Broyden mixing:
  rms(total) = 0.15364E-01    rms(broyden)= 0.15363E-01
  rms(prec ) = 0.16957E-01
  weight for this iteration     100.00

 eigenvalues of (default mixing * dielectric matrix)
  average eigenvalue GAMMA=   1.6580
  5.1929  5.1929  4.2722  2.2614  1.9615  1.9615  1.2420  1.2420  0.2996  0.2996
  0.9392  0.9392  0.7412  0.7412  0.6464  0.6464  0.6322  0.6322

 Free energy of the ion-electron system (eV)
  ---------------------------------------------------
  alpha Z        PSCENC =        11.48163873
  Ewald energy   TEWEN  =     10392.31283322
  -Hartree energ DENC   =    -20312.17267594
  -exchange      EXHF   =         0.00000000
  -V(xc)+E(xc)   XCENC  =      -115.07699166
  PAW double counting   =     10699.05162765   -10252.47556579
  entropy T*S    EENTRO =         0.00000000
  eigenvalues    EBANDS =      -812.83805243
  atomic energy  EATOM  =     10371.98630086
  ---------------------------------------------------
  free energy    TOTEN  =       -17.73088537 eV

  energy without entropy =      -17.73088537  energy(sigma->0) =      -17.73088537


--------------------------------------------------------------------------------------------------------




----------------------------------------- Iteration    1(  24)  ---------------------------------------


    POTLOK:  cpu time    0.60: real time    0.61
    SETDIJ:  cpu time    0.02: real time    0.02
     EDDAV:  cpu time    1.68: real time    1.68
       DOS:  cpu time    0.00: real time    0.00
    CHARGE:  cpu time    0.15: real time    0.15
    MIXING:  cpu time    0.04: real time    0.04
    --------------------------------------------
      LOOP:  cpu time    2.50: real time    2.50

 eigenvalue-minimisations  :   304
 total energy-change (2. order) :-0.9048454E-02  (-0.4076706E-03)
 number of electron     110.0000198 magnetization       0.0100761
 augmentation part       52.9287786 magnetization       0.0042424

 Broyden mixing:
  rms(total) = 0.38808E-01    rms(broyden)= 0.38808E-01
  rms(prec ) = 0.40214E-01
  weight for this iteration     100.00

 eigenvalues of (default mixing * dielectric matrix)
  average eigenvalue GAMMA=   1.6401
  5.2210  5.2210  3.6107  3.2850  2.0373  2.0373  1.1984  1.1984  0.2996  0.2996
  0.8924  0.8924  0.9346  0.8480  0.6577  0.6577  0.6197  0.6197  0.6319

 Free energy of the ion-electron system (eV)
  ---------------------------------------------------
  alpha Z        PSCENC =        11.48163873
  Ewald energy   TEWEN  =     10392.31283322
  -Hartree energ DENC   =    -20312.38534733
  -exchange      EXHF   =         0.00000000
  -V(xc)+E(xc)   XCENC  =      -115.07778431
  PAW double counting   =     10718.26431278   -10271.61286260
  entropy T*S    EENTRO =        -0.00000000
  eigenvalues    EBANDS =      -812.70902516
  atomic energy  EATOM  =     10371.98630086
  ---------------------------------------------------
  free energy    TOTEN  =       -17.73993382 eV

  energy without entropy =      -17.73993382  energy(sigma->0) =      -17.73993382


--------------------------------------------------------------------------------------------------------




----------------------------------------- Iteration    1(  25)  ---------------------------------------


    POTLOK:  cpu time    0.61: real time    0.61
    SETDIJ:  cpu time    0.02: real time    0.02
     EDDAV:  cpu time    1.68: real time    1.68
       DOS:  cpu time    0.00: real time    0.00
    CHARGE:  cpu time    0.14: real time    0.14
    MIXING:  cpu time    0.05: real time    0.05
    --------------------------------------------
      LOOP:  cpu time    2.51: real time    2.51

 eigenvalue-minimisations  :   304
 total energy-change (2. order) :-0.3597799E-02  (-0.7306237E-04)
 number of electron     110.0000198 magnetization       0.0287806
 augmentation part       52.9349481 magnetization       0.0240717

 Broyden mixing:
  rms(total) = 0.28483E-01    rms(broyden)= 0.28483E-01
  rms(prec ) = 0.29493E-01
  weight for this iteration     100.00

 eigenvalues of (default mixing * dielectric matrix)
  average eigenvalue GAMMA=   1.6679
  5.4301  5.4301  3.7963  3.6307  2.0585  2.0585  1.2254  1.2254  0.2996  0.2996
  1.0958  0.9457  0.9457  0.9676  0.6967  0.6967  0.6538  0.6538  0.6327  0.6164

 Free energy of the ion-electron system (eV)
  ---------------------------------------------------
  alpha Z        PSCENC =        11.48163873
  Ewald energy   TEWEN  =     10392.31283322
  -Hartree energ DENC   =    -20311.33975580
  -exchange      EXHF   =         0.00000000
  -V(xc)+E(xc)   XCENC  =      -115.09708595
  PAW double counting   =     10710.78896929   -10264.15194445
  entropy T*S    EENTRO =        -0.00000000
  eigenvalues    EBANDS =      -813.72448752
  atomic energy  EATOM  =     10371.98630086
  ---------------------------------------------------
  free energy    TOTEN  =       -17.74353162 eV

  energy without entropy =      -17.74353162  energy(sigma->0) =      -17.74353162


--------------------------------------------------------------------------------------------------------




----------------------------------------- Iteration    1(  26)  ---------------------------------------


    POTLOK:  cpu time    0.60: real time    0.61
    SETDIJ:  cpu time    0.02: real time    0.02
     EDDAV:  cpu time    1.65: real time    1.65
       DOS:  cpu time    0.00: real time    0.00
    CHARGE:  cpu time    0.15: real time    0.14
    MIXING:  cpu time    0.05: real time    0.05
    --------------------------------------------
      LOOP:  cpu time    2.48: real time    2.48

 eigenvalue-minimisations  :   296
 total energy-change (2. order) :-0.4745987E-02  (-0.2139699E-03)
 number of electron     110.0000198 magnetization       0.0276231
 augmentation part       52.9450164 magnetization       0.0250165

 Broyden mixing:
  rms(total) = 0.10483E-01    rms(broyden)= 0.10482E-01
  rms(prec ) = 0.10787E-01
  weight for this iteration     100.00

 eigenvalues of (default mixing * dielectric matrix)
  average eigenvalue GAMMA=   1.6820
  5.6485  5.6485  3.8543  3.8543  2.0911  2.0911  1.5800  1.3782  0.2996  0.2996
  0.9528  0.9528  0.9344  0.9344  0.9093  0.6784  0.6784  0.6311  0.6311  0.6501
  0.6250

 Free energy of the ion-electron system (eV)
  ---------------------------------------------------
  alpha Z        PSCENC =        11.48163873
  Ewald energy   TEWEN  =     10392.31283322
  -Hartree energ DENC   =    -20309.45933456
  -exchange      EXHF   =         0.00000000
  -V(xc)+E(xc)   XCENC  =      -115.12728768
  PAW double counting   =     10696.66645876   -10250.06987911
  entropy T*S    EENTRO =         0.00000000
  eigenvalues    EBANDS =      -815.53900784
  atomic energy  EATOM  =     10371.98630086
  ---------------------------------------------------
  free energy    TOTEN  =       -17.74827761 eV

  energy without entropy =      -17.74827761  energy(sigma->0) =      -17.74827761


--------------------------------------------------------------------------------------------------------




----------------------------------------- Iteration    1(  27)  ---------------------------------------


    POTLOK:  cpu time    0.60: real time    0.60
    SETDIJ:  cpu time    0.02: real time    0.02
     EDDAV:  cpu time    1.40: real time    1.40
       DOS:  cpu time    0.00: real time    0.00
    CHARGE:  cpu time    0.14: real time    0.14
    MIXING:  cpu time    0.06: real time    0.06
    --------------------------------------------
      LOOP:  cpu time    2.24: real time    2.24

 eigenvalue-minimisations  :   232
 total energy-change (2. order) :-0.2204082E-02  (-0.1741030E-04)
 number of electron     110.0000198 magnetization       0.0217905
 augmentation part       52.9468045 magnetization       0.0199069

 Broyden mixing:
  rms(total) = 0.61972E-02    rms(broyden)= 0.61971E-02
  rms(prec ) = 0.64211E-02
  weight for this iteration     100.00

 eigenvalues of (default mixing * dielectric matrix)
  average eigenvalue GAMMA=   1.7273
  5.9450  5.9450  4.1826  4.1826  2.0979  2.0979  2.0862  1.3148  1.1020  1.1020
  0.2996  0.2996  0.9009  0.9009  0.9165  0.7043  0.7043  0.6657  0.6657  0.6391
  0.6391  0.6090

 Free energy of the ion-electron system (eV)
  ---------------------------------------------------
  alpha Z        PSCENC =        11.48163873
  Ewald energy   TEWEN  =     10392.31283322
  -Hartree energ DENC   =    -20308.96964529
  -exchange      EXHF   =         0.00000000
  -V(xc)+E(xc)   XCENC  =      -115.13493505
  PAW double counting   =     10694.10229315   -10247.51705472
  entropy T*S    EENTRO =         0.00000000
  eigenvalues    EBANDS =      -816.01191259
  atomic energy  EATOM  =     10371.98630086
  ---------------------------------------------------
  free energy    TOTEN  =       -17.75048169 eV

  energy without entropy =      -17.75048169  energy(sigma->0) =      -17.75048169


--------------------------------------------------------------------------------------------------------




----------------------------------------- Iteration    1(  28)  ---------------------------------------


    POTLOK:  cpu time    0.61: real time    0.61
    SETDIJ:  cpu time    0.02: real time    0.02
     EDDAV:  cpu time    1.40: real time    1.40
       DOS:  cpu time    0.00: real time    0.00
    CHARGE:  cpu time    0.15: real time    0.15
    MIXING:  cpu time    0.07: real time    0.07
    --------------------------------------------
      LOOP:  cpu time    2.25: real time    2.26

 eigenvalue-minimisations  :   232
 total energy-change (2. order) :-0.1465772E-02  (-0.1171141E-04)
 number of electron     110.0000198 magnetization       0.0140299
 augmentation part       52.9487483 magnetization       0.0128531

 Broyden mixing:
  rms(total) = 0.25227E-02    rms(broyden)= 0.25226E-02
  rms(prec ) = 0.27114E-02
  weight for this iteration     100.00

 eigenvalues of (default mixing * dielectric matrix)
  average eigenvalue GAMMA=   1.7122
  5.8857  5.8857  4.3962  4.0950  2.1461  2.1461  1.9314  1.9314  1.1165  1.1165
  0.2996  0.2996  0.9276  0.9276  0.8866  0.7912  0.7912  0.6645  0.6645  0.6189
  0.6189  0.6408  0.5993

 Free energy of the ion-electron system (eV)
  ---------------------------------------------------
  alpha Z        PSCENC =        11.48163873
  Ewald energy   TEWEN  =     10392.31283322
  -Hartree energ DENC   =    -20308.54022777
  -exchange      EXHF   =         0.00000000
  -V(xc)+E(xc)   XCENC  =      -115.14117464
  PAW double counting   =     10691.59490845   -10245.01929407
  entropy T*S    EENTRO =         0.00000000
  eigenvalues    EBANDS =      -816.42693224
  atomic energy  EATOM  =     10371.98630086
  ---------------------------------------------------
  free energy    TOTEN  =       -17.75194746 eV

  energy without entropy =      -17.75194746  energy(sigma->0) =      -17.75194746


--------------------------------------------------------------------------------------------------------




----------------------------------------- Iteration    1(  29)  ---------------------------------------


    POTLOK:  cpu time    0.60: real time    0.60
    SETDIJ:  cpu time    0.02: real time    0.02
     EDDAV:  cpu time    1.36: real time    1.36
       DOS:  cpu time    0.00: real time    0.00
    CHARGE:  cpu time    0.14: real time    0.14
    MIXING:  cpu time    0.08: real time    0.07
    --------------------------------------------
      LOOP:  cpu time    2.21: real time    2.22

 eigenvalue-minimisations  :   224
 total energy-change (2. order) :-0.4430277E-03  (-0.8336495E-05)
 number of electron     110.0000198 magnetization       0.0057911
 augmentation part       52.9503745 magnetization       0.0055043

 Broyden mixing:
  rms(total) = 0.20026E-02    rms(broyden)= 0.20025E-02
  rms(prec ) = 0.21882E-02
  weight for this iteration     100.00

 eigenvalues of (default mixing * dielectric matrix)
  average eigenvalue GAMMA=   1.7497
  5.9248  5.9248  5.6535  3.2321  3.2321  2.1260  2.1260  1.4429  1.4429  0.2996
  0.2996  1.0661  1.0661  1.0386  0.8773  0.8773  0.8099  0.6840  0.6840  0.6548
  0.6548  0.6354  0.6354  0.6052

 Free energy of the ion-electron system (eV)
  ---------------------------------------------------
  alpha Z        PSCENC =        11.48163873
  Ewald energy   TEWEN  =     10392.31283322
  -Hartree energ DENC   =    -20308.22953506
  -exchange      EXHF   =         0.00000000
  -V(xc)+E(xc)   XCENC  =      -115.14494642
  PAW double counting   =     10689.06524657   -10242.49970816
  entropy T*S    EENTRO =         0.00000000
  eigenvalues    EBANDS =      -816.72422023
  atomic energy  EATOM  =     10371.98630086
  ---------------------------------------------------
  free energy    TOTEN  =       -17.75239049 eV

  energy without entropy =      -17.75239049  energy(sigma->0) =      -17.75239049


--------------------------------------------------------------------------------------------------------




----------------------------------------- Iteration    1(  30)  ---------------------------------------


    POTLOK:  cpu time    0.60: real time    0.60
    SETDIJ:  cpu time    0.02: real time    0.02
     EDDAV:  cpu time    1.30: real time    1.30
       DOS:  cpu time    0.00: real time    0.00
    CHARGE:  cpu time    0.15: real time    0.15
    MIXING:  cpu time    0.08: real time    0.08
    --------------------------------------------
      LOOP:  cpu time    2.15: real time    2.15

 eigenvalue-minimisations  :   208
 total energy-change (2. order) :-0.1083897E-03  (-0.2629462E-05)
 number of electron     110.0000198 magnetization       0.0007606
 augmentation part       52.9505348 magnetization       0.0008895

 Broyden mixing:
  rms(total) = 0.27401E-02    rms(broyden)= 0.27401E-02
  rms(prec ) = 0.28527E-02
  weight for this iteration     100.00

 eigenvalues of (default mixing * dielectric matrix)
  average eigenvalue GAMMA=   1.7566
  5.9625  5.9625  6.0154  3.3384  3.3384  2.1212  2.1212  1.7314  1.7314  1.0932
  1.0932  0.2996  0.2996  0.8941  0.8941  0.8935  0.8935  0.6887  0.6887  0.6790
  0.6790  0.6765  0.6131  0.6131  0.5934

 Free energy of the ion-electron system (eV)
  ---------------------------------------------------
  alpha Z        PSCENC =        11.48163873
  Ewald energy   TEWEN  =     10392.31283322
  -Hartree energ DENC   =    -20308.11938692
  -exchange      EXHF   =         0.00000000
  -V(xc)+E(xc)   XCENC  =      -115.14521370
  PAW double counting   =     10688.36265129   -10241.80367770
  entropy T*S    EENTRO =         0.00000000
  eigenvalues    EBANDS =      -816.82764465
  atomic energy  EATOM  =     10371.98630086
  ---------------------------------------------------
  free energy    TOTEN  =       -17.75249888 eV

  energy without entropy =      -17.75249888  energy(sigma->0) =      -17.75249888


--------------------------------------------------------------------------------------------------------




----------------------------------------- Iteration    1(  31)  ---------------------------------------


    POTLOK:  cpu time    0.61: real time    0.61
    SETDIJ:  cpu time    0.02: real time    0.02
     EDDAV:  cpu time    1.30: real time    1.30
       DOS:  cpu time    0.00: real time    0.00
    CHARGE:  cpu time    0.14: real time    0.15
    MIXING:  cpu time    0.08: real time    0.08
    --------------------------------------------
      LOOP:  cpu time    2.16: real time    2.17

 eigenvalue-minimisations  :   208
 total energy-change (2. order) :-0.5628805E-04  (-0.1131311E-05)
 number of electron     110.0000198 magnetization      -0.0025375
 augmentation part       52.9508484 magnetization      -0.0021351

 Broyden mixing:
  rms(total) = 0.31001E-02    rms(broyden)= 0.31001E-02
  rms(prec ) = 0.32071E-02
  weight for this iteration     100.00

 eigenvalues of (default mixing * dielectric matrix)
  average eigenvalue GAMMA=   1.7623
  6.4504  5.9591  5.9591  3.3765  3.3765  2.3570  1.9893  1.9893  1.8251  1.1593
  1.1593  0.2996  0.2996  0.9431  0.9431  0.8728  0.8728  0.8423  0.6902  0.6902
  0.6540  0.6540  0.6394  0.6195  0.6195  0.5794

 Free energy of the ion-electron system (eV)
  ---------------------------------------------------
  alpha Z        PSCENC =        11.48163873
  Ewald energy   TEWEN  =     10392.31283322
  -Hartree energ DENC   =    -20308.05099090
  -exchange      EXHF   =         0.00000000
  -V(xc)+E(xc)   XCENC  =      -115.14550878
  PAW double counting   =     10687.99264982   -10241.43438732
  entropy T*S    EENTRO =         0.00000000
  eigenvalues    EBANDS =      -816.89509080
  atomic energy  EATOM  =     10371.98630086
  ---------------------------------------------------
  free energy    TOTEN  =       -17.75255517 eV

  energy without entropy =      -17.75255517  energy(sigma->0) =      -17.75255517


--------------------------------------------------------------------------------------------------------




----------------------------------------- Iteration    1(  32)  ---------------------------------------


    POTLOK:  cpu time    0.61: real time    0.61
    SETDIJ:  cpu time    0.02: real time    0.02
     EDDAV:  cpu time    1.40: real time    1.40
       DOS:  cpu time    0.00: real time    0.00
    --------------------------------------------
      LOOP:  cpu time    2.04: real time    2.04

 eigenvalue-minimisations  :   232
 total energy-change (2. order) : 0.2413441E-04  (-0.7280557E-06)
 number of electron     110.0000198 magnetization      -0.0025375
 augmentation part       52.9508484 magnetization      -0.0021351

 Free energy of the ion-electron system (eV)
  ---------------------------------------------------
  alpha Z        PSCENC =        11.48163873
  Ewald energy   TEWEN  =     10392.31283322
  -Hartree energ DENC   =    -20308.05454765
  -exchange      EXHF   =         0.00000000
  -V(xc)+E(xc)   XCENC  =      -115.14494890
  PAW double counting   =     10688.60765127   -10242.04715702
  entropy T*S    EENTRO =         0.00000000
  eigenvalues    EBANDS =      -816.89430153
  atomic energy  EATOM  =     10371.98630086
  ---------------------------------------------------
  free energy    TOTEN  =       -17.75253104 eV

  energy without entropy =      -17.75253104  energy(sigma->0) =      -17.75253104


--------------------------------------------------------------------------------------------------------




 average (electrostatic) potential at core
  the test charge radii are     1.1249
  (the norm of the test charge is              1.0000)
       1 -82.0346       2 -82.5062       3 -82.4730       4 -82.3136       5 -82.4051
       6 -82.3994       7 -82.3862       8 -82.4292       9 -82.4072      10 -82.4296
 
 
 
 E-fermi :  -4.1111     XC(G=0):  -0.6184     alpha+bet : -0.3098


 spin component 1

 k-point     1 :       0.0000    0.0000    0.0000
  band No.  band energies     occupation 
      1      -9.1742      1.00000
      2      -9.0077      1.00000
      3      -8.9091      1.00000
      4      -8.7918      1.00000
      5      -8.7695      1.00000
      6      -8.6750      1.00000
      7      -8.6661      1.00000
      8      -8.5671      1.00000
      9      -8.5384      1.00000
     10      -8.4945      1.00000
     11      -8.4338      1.00000
     12      -8.3785      1.00000
     13      -8.3242      1.00000
     14      -8.2989      1.00000
     15      -8.2599      1.00000
     16      -8.1998      1.00000
     17      -8.1035      1.00000
     18      -8.0654      1.00000
     19      -7.9352      1.00000
     20      -7.9140      1.00000
     21      -7.8405      1.00000
     22      -7.7251      1.00000
     23      -7.6103      1.00000
     24      -7.5841      1.00000
     25      -7.4859      1.00000
     26      -7.3723      1.00000
     27      -7.3624      1.00000
     28      -7.2836      1.00000
     29      -7.2657      1.00000
     30      -7.2337      1.00000
     31      -7.2220      1.00000
     32      -7.1519      1.00000
     33      -7.1144      1.00000
     34      -7.1078      1.00000
     35      -7.0679      1.00000
     36      -7.0643      1.00000
     37      -7.0509      1.00000
     38      -6.9896      1.00000
     39      -6.9493      1.00000
     40      -6.9220      1.00000
     41      -6.8735      1.00000
     42      -6.8641      1.00000
     43      -6.8412      1.00000
     44      -6.7765      1.00000
     45      -6.7458      1.00000
     46      -6.7357      1.00000
     47      -6.7241      1.00000
     48      -6.6714      1.00000
     49      -6.6273      1.00000
     50      -6.5561      1.00000
     51      -6.5066      1.00000
     52      -6.0017      1.00000
     53      -5.0807      1.00000
[...]
      4      -8.7903      1.00000
      5      -8.7677      1.00000
      6      -8.6738      1.00000
      7      -8.6640      1.00000
      8      -8.5652      1.00000
      9      -8.5353      1.00000
     10      -8.4938      1.00000
     11      -8.4339      1.00000
     12      -8.3781      1.00000
     13      -8.3222      1.00000
     14      -8.2976      1.00000
     15      -8.2581      1.00000
     16      -8.1983      1.00000
     17      -8.1031      1.00000
     18      -8.0636      1.00000
     19      -7.9351      1.00000
     20      -7.9119      1.00000
     21      -7.8402      1.00000
     22      -7.7238      1.00000
     23      -7.6092      1.00000
     24      -7.5834      1.00000
     25      -7.4855      1.00000
     26      -7.3716      1.00000
     27      -7.3615      1.00000
     28      -7.2828      1.00000
     29      -7.2647      1.00000
     30      -7.2326      1.00000
     31      -7.2210      1.00000
     32      -7.1511      1.00000
     33      -7.1136      1.00000
     34      -7.1073      1.00000
     35      -7.0670      1.00000
     36      -7.0636      1.00000
     37      -7.0500      1.00000
     38      -6.9886      1.00000
     39      -6.9481      1.00000
     40      -6.9215      1.00000
     41      -6.8728      1.00000
     42      -6.8636      1.00000
     43      -6.8409      1.00000
     44      -6.7757      1.00000
     45      -6.7446      1.00000
     46      -6.7353      1.00000
     47      -6.7232      1.00000
     48      -6.6703      1.00000
     49      -6.6267      1.00000
     50      -6.5550      1.00000
     51      -6.5068      1.00000
     52      -6.0015      1.00000
     53      -5.0810      1.00000
     54      -4.4122      1.00000
     55      -4.1214      1.00000
     56      -3.4182      0.00000
     57      -2.7656      0.00000
     58      -2.6398      0.00000
     59      -2.1357      0.00000
     60      -2.1096      0.00000
     61      -1.5279      0.00000
     62      -1.3160      0.00000
     63      -0.9534      0.00000
     64      -0.8690      0.00000
     65      -0.5089      0.00000
     66      -0.4312      0.00000
     67      -0.2655      0.00000
     68      -0.0656      0.00000
     69       0.2282      0.00000
     70       0.2554      0.00000
     71       0.3317      0.00000
     72       0.5037      0.00000

 spin component 2

 k-point     1 :       0.0000    0.0000    0.0000
  band No.  band energies     occupation 
      1      -9.1721      1.00000
      2      -9.0061      1.00000
      3      -8.9084      1.00000
      4      -8.7902      1.00000
      5      -8.7677      1.00000
      6      -8.6738      1.00000
      7      -8.6640      1.00000
      8      -8.5652      1.00000
      9      -8.5353      1.00000
     10      -8.4938      1.00000
     11      -8.4339      1.00000
     12      -8.3781      1.00000
     13      -8.3222      1.00000
     14      -8.2976      1.00000
     15      -8.2581      1.00000
     16      -8.1983      1.00000
     17      -8.1031      1.00000
     18      -8.0636      1.00000
     19      -7.9351      1.00000
     20      -7.9119      1.00000
     21      -7.8402      1.00000
     22      -7.7238      1.00000
     23      -7.6092      1.00000
     24      -7.5834      1.00000
     25      -7.4855      1.00000
     26      -7.3716      1.00000
     27      -7.3615      1.00000
     28      -7.2828      1.00000
     29      -7.2647      1.00000
     30      -7.2326      1.00000
     31      -7.2210      1.00000
     32      -7.1511      1.00000
     33      -7.1136      1.00000
     34      -7.1073      1.00000
     35      -7.0670      1.00000
     36      -7.0636      1.00000
     37      -7.0500      1.00000
     38      -6.9886      1.00000
     39      -6.9481      1.00000
     40      -6.9215      1.00000
     41      -6.8728      1.00000
     42      -6.8636      1.00000
     43      -6.8409      1.00000
     44      -6.7757      1.00000
     45      -6.7446      1.00000
     46      -6.7353      1.00000
     47      -6.7232      1.00000
     48      -6.6703      1.00000
     49      -6.6267      1.00000
     50      -6.5550      1.00000
     51      -6.5068      1.00000
     52      -6.0015      1.00000
     53      -5.0811      1.00000
     54      -4.4122      1.00000
     55      -4.1215      1.00000
     56      -3.4184      0.00000
     57      -2.7658      0.00000
     58      -2.6403      0.00000
     59      -2.1361      0.00000
     60      -2.1101      0.00000
     61      -1.5289      0.00000
     62      -1.3168      0.00000
     63      -0.9548      0.00000
     64      -0.8703      0.00000
     65      -0.5116      0.00000
     66      -0.4371      0.00000
     67      -0.2678      0.00000
     68      -0.0704      0.00000
     69       0.2248      0.00000
     70       0.2521      0.00000
     71       0.3243      0.00000
     72       0.4818      0.00000


--------------------------------------------------------------------------------------------------------


 soft charge-density along one line, spin component           1
         0         1         2         3         4         5         6         7         8         9
 total charge-density along one line
 
 soft charge-density along one line, spin component           2
         0         1         2         3         4         5         6         7         8         9
 total charge-density along one line
 
 pseudopotential strength for first ion, spin component:           1
-10.215  -0.003  -0.002   0.011   0.003 -10.193  -0.003  -0.001
 -0.003 -10.233   0.000   0.002  -0.011  -0.003 -10.211   0.000
 -0.002   0.000 -10.239   0.001  -0.002  -0.001   0.000 -10.216
  0.011   0.002   0.001 -10.231  -0.008   0.010   0.002   0.001
  0.003  -0.011  -0.002  -0.008 -10.218   0.003  -0.011  -0.001
-10.193  -0.003  -0.001   0.010   0.003 -10.148  -0.003  -0.001
 -0.003 -10.211   0.000   0.002  -0.011  -0.003 -10.165   0.000
 -0.001   0.000 -10.216   0.001  -0.001  -0.001   0.000 -10.170
  0.010   0.002   0.001 -10.209  -0.007   0.010   0.002   0.001
  0.003  -0.011  -0.001  -0.007 -10.197   0.003  -0.010  -0.001
 -0.001  -0.005   0.005   0.002  -0.001  -0.001  -0.005   0.005
 -0.002  -0.008   0.007   0.003  -0.001  -0.002  -0.008   0.007
 -0.005  -0.025  -0.007  -0.000  -0.012  -0.005  -0.024  -0.007
 -0.000   0.012  -0.028  -0.005  -0.000  -0.000   0.012  -0.027
  0.012  -0.000   0.003  -0.025  -0.005   0.012  -0.000   0.003
 -0.006  -0.029  -0.009  -0.000  -0.015  -0.006  -0.028  -0.009
 -0.000   0.014  -0.033  -0.006  -0.000  -0.000   0.014  -0.032
  0.015  -0.000   0.004  -0.030  -0.006   0.014  -0.000   0.004
 pseudopotential strength for first ion, spin component:           2
-10.215  -0.003  -0.002   0.011   0.003 -10.193  -0.003  -0.001
 -0.003 -10.233   0.000   0.002  -0.011  -0.003 -10.211   0.000
 -0.002   0.000 -10.239   0.001  -0.002  -0.001   0.000 -10.216
  0.011   0.002   0.001 -10.231  -0.008   0.010   0.002   0.001
  0.003  -0.011  -0.002  -0.008 -10.218   0.003  -0.011  -0.001
-10.193  -0.003  -0.001   0.010   0.003 -10.148  -0.003  -0.001
 -0.003 -10.211   0.000   0.002  -0.011  -0.003 -10.165   0.000
 -0.001   0.000 -10.216   0.001  -0.001  -0.001   0.000 -10.170
  0.010   0.002   0.001 -10.209  -0.007   0.010   0.002   0.001
  0.003  -0.011  -0.001  -0.007 -10.197   0.003  -0.010  -0.001
 -0.001  -0.005   0.005   0.002  -0.001  -0.001  -0.005   0.005
 -0.002  -0.008   0.007   0.003  -0.001  -0.002  -0.008   0.007
 -0.005  -0.025  -0.007  -0.000  -0.012  -0.005  -0.024  -0.007
 -0.000   0.012  -0.028  -0.005  -0.000  -0.000   0.012  -0.027
  0.012  -0.000   0.003  -0.025  -0.005   0.012  -0.000   0.003
 -0.006  -0.029  -0.009  -0.000  -0.015  -0.006  -0.028  -0.009
 -0.000   0.014  -0.033  -0.006  -0.000  -0.000   0.014  -0.032
  0.015  -0.000   0.004  -0.030  -0.006   0.014  -0.000   0.004
 total augmentation occupancy for first ion, spin component:           1
  2.278   0.055   0.005  -0.047   0.028  -0.239  -0.051  -0.009   0.094   0.006   0.120  -0.023  -0.016   0.015   0.022  -0.002
  0.055   2.473  -0.126  -0.041   0.043  -0.051  -0.506   0.079   0.057  -0.094   0.355  -0.093  -0.075   0.068   0.017  -0.011
  0.005  -0.126   2.450   0.073  -0.002  -0.008   0.079  -0.511  -0.037  -0.007  -0.372   0.098   0.012  -0.099  -0.006  -0.006
 -0.047  -0.041   0.073   2.408  -0.012   0.094   0.057  -0.037  -0.435  -0.045  -0.154   0.046   0.017  -0.034  -0.055  -0.001
  0.028   0.043  -0.002  -0.012   2.255   0.006  -0.094  -0.007  -0.045  -0.252   0.078  -0.015  -0.021   0.009  -0.007  -0.006
 -0.239  -0.051  -0.008   0.094   0.006   0.183   0.048   0.011  -0.134  -0.033  -0.102   0.020   0.016  -0.016  -0.040  -0.001
 -0.051  -0.506   0.079   0.057  -0.094   0.048   0.513  -0.043  -0.072   0.137  -0.299   0.074   0.110  -0.071  -0.018  -0.008
 -0.009   0.079  -0.511  -0.037  -0.007   0.011  -0.043   0.540   0.008   0.013   0.324  -0.080   0.007   0.135  -0.006  -0.000
  0.094   0.057  -0.037  -0.435  -0.045  -0.134  -0.072   0.008   0.436   0.091   0.131  -0.037  -0.017   0.033   0.091   0.001
  0.006  -0.094  -0.007  -0.045  -0.252  -0.033   0.137   0.013   0.091   0.224  -0.065   0.012   0.041  -0.009   0.026  -0.003
  0.120   0.355  -0.372  -0.154   0.078  -0.102  -0.299   0.324   0.131  -0.065   1.775  -0.156  -0.101   0.214   0.049   0.009
 -0.023  -0.093   0.098   0.046  -0.015   0.020   0.074  -0.080  -0.037   0.012  -0.156   0.033   0.018  -0.040  -0.010  -0.001
 -0.016  -0.075   0.012   0.017  -0.021   0.016   0.110   0.007  -0.017   0.041  -0.101   0.018   0.030  -0.016  -0.006  -0.002
  0.015   0.068  -0.099  -0.034   0.009  -0.016  -0.071   0.135   0.033  -0.009   0.214  -0.040  -0.016   0.055   0.008   0.001
  0.022   0.017  -0.006  -0.055  -0.007  -0.040  -0.018  -0.006   0.091   0.026   0.049  -0.010  -0.006   0.008   0.024   0.000
 -0.002  -0.011  -0.006  -0.001  -0.006  -0.001  -0.008  -0.000   0.001  -0.003   0.009  -0.001  -0.002   0.001   0.000   0.000
 -0.001   0.002  -0.010  -0.001  -0.001   0.001   0.006  -0.010  -0.003   0.001  -0.019   0.003   0.001  -0.005  -0.001  -0.000
  0.006  -0.001   0.003  -0.012  -0.003   0.003   0.001   0.000  -0.006  -0.002  -0.004   0.001   0.000  -0.001  -0.002  -0.000
 total augmentation occupancy for first ion, spin component:           2
  0.000   0.000  -0.000   0.000   0.000  -0.000  -0.000   0.000   0.000  -0.000   0.000  -0.000   0.000   0.000  -0.000  -0.000
  0.000   0.000  -0.000  -0.000  -0.000  -0.000  -0.000   0.000   0.000  -0.000   0.000   0.000   0.000   0.000   0.000   0.000
 -0.000  -0.000   0.000   0.000  -0.000   0.000   0.000  -0.000  -0.000   0.000  -0.000   0.000   0.000   0.000  -0.000   0.000
  0.000  -0.000   0.000   0.000  -0.000   0.000   0.000  -0.000  -0.000   0.000  -0.000  -0.000   0.000  -0.000   0.000  -0.000
  0.000  -0.000  -0.000  -0.000   0.000  -0.000  -0.000  -0.000   0.000  -0.000   0.000  -0.000   0.000   0.000  -0.000  -0.000
 -0.000  -0.000   0.000   0.000  -0.000   0.000   0.000  -0.000  -0.000  -0.000  -0.000   0.000   0.000  -0.000  -0.000   0.000
 -0.000  -0.000   0.000   0.000  -0.000   0.000   0.000  -0.000  -0.000   0.000  -0.000   0.000   0.000  -0.000  -0.000   0.000
  0.000   0.000  -0.000  -0.000  -0.000  -0.000  -0.000   0.000   0.000   0.000   0.000  -0.000  -0.000   0.000   0.000  -0.000
  0.000   0.000  -0.000  -0.000   0.000  -0.000  -0.000   0.000   0.000   0.000   0.000  -0.000   0.000   0.000   0.000  -0.000
 -0.000  -0.000   0.000   0.000  -0.000  -0.000   0.000   0.000   0.000   0.000  -0.000   0.000   0.000  -0.000  -0.000   0.000
  0.000   0.000  -0.000  -0.000   0.000  -0.000  -0.000   0.000   0.000  -0.000  -0.000   0.000  -0.000   0.000   0.000   0.000
 -0.000   0.000   0.000  -0.000  -0.000   0.000   0.000  -0.000  -0.000   0.000   0.000   0.000  -0.000  -0.000  -0.000   0.000
  0.000   0.000   0.000   0.000   0.000   0.000   0.000  -0.000   0.000   0.000  -0.000  -0.000  -0.000  -0.000   0.000  -0.000
  0.000   0.000   0.000  -0.000   0.000  -0.000  -0.000   0.000   0.000  -0.000   0.000  -0.000  -0.000   0.000   0.000   0.000
 -0.000   0.000  -0.000   0.000  -0.000  -0.000  -0.000   0.000   0.000  -0.000   0.000  -0.000   0.000   0.000  -0.000  -0.000
 -0.000   0.000   0.000  -0.000  -0.000   0.000   0.000  -0.000  -0.000   0.000   0.000   0.000  -0.000   0.000  -0.000   0.000
 -0.000  -0.000  -0.000   0.000  -0.000   0.000   0.000   0.000  -0.000   0.000  -0.000   0.000   0.000  -0.000  -0.000  -0.000
  0.000  -0.000  -0.000  -0.000   0.000  -0.000   0.000   0.000   0.000   0.000  -0.000   0.000   0.000  -0.000  -0.000   0.000


------------------------ aborting loop because EDIFF is reached ----------------------------------------


    CHARGE:  cpu time    0.14: real time    0.14
    FORLOC:  cpu time    0.02: real time    0.02
    FORNL :  cpu time    0.75: real time    0.75
    STRESS:  cpu time    0.79: real time    0.79
    FORCOR:  cpu time    0.59: real time    0.59
    FORHAR:  cpu time    0.08: real time    0.07
    MIXING:  cpu time    0.01: real time    0.01
    OFIELD:  cpu time    0.00: real time    0.00

  FORCE on cell =-STRESS in cart. coord.  units (eV):
  Direction    XX          YY          ZZ          XY          YZ          ZX
  --------------------------------------------------------------------------------------
  Alpha Z    11.48164    11.48164    11.48164
  Ewald    2190.56364  1474.71882  6726.22552   875.90213  -860.33912   478.19707
  Hartree  5613.30896  5039.26386  9654.78705   699.68212  -737.62299   410.42220
  E(xc)    -579.73378  -580.13820  -578.47087     0.51983    -0.37592     0.19790
  Local   -9414.33248 -8130.91589-17987.26227 -1567.73422  1596.95694  -888.20349
  n-local  -115.22085  -114.26963  -113.69044    -1.35232    -0.37538     0.21719
  augment   918.22645   919.86293   916.03021    -1.96749     0.58579    -0.27887
  Kinetic  1372.26878  1376.40854  1367.35383    -5.08219     1.15157    -0.54324
  Fock        0.00000     0.00000     0.00000     0.00000     0.00000     0.00000
  -------------------------------------------------------------------------------------
  Total      -3.43764    -3.58792    -3.54533    -0.03213    -0.01909     0.00876
  in kB      -0.74346    -0.77597    -0.76676    -0.00695    -0.00413     0.00189
  external pressure =       -0.76 kB  Pullay stress =        0.00 kB


 VOLUME and BASIS-vectors are now :
 -----------------------------------------------------------------------------
  energy-cutoff  :      249.84
  volume of cell :     7408.16
      direct lattice vectors                 reciprocal lattice vectors
    19.494110992  0.000000000  0.000000000     0.051297543  0.000000000  0.000000000
     0.000000000 19.494110992  0.000000000     0.000000000  0.051297543  0.000000000
     0.000000000  0.000000000 19.494110992     0.000000000  0.000000000  0.051297543

  length of vectors
    19.494110992 19.494110992 19.494110992     0.051297543  0.051297543  0.051297543


 FORCES acting on ions
    electron-ion (+dipol)            ewald-force                    non-local-force                 convergence-correction
 -----------------------------------------------------------------------------------------------
   0.149E+03 -.285E+03 0.777E+03   -.147E+03 0.283E+03 -.771E+03   -.117E+01 0.258E+01 -.528E+01   0.800E-02 -.445E-01 -.123E-01
   0.307E+03 0.629E+03 0.569E+03   -.305E+03 -.625E+03 -.566E+03   -.260E+01 -.359E+01 -.327E+01   0.171E-01 0.797E-02 0.126E-01
   -.721E+03 0.123E+02 0.544E+03   0.717E+03 -.132E+02 -.541E+03   0.425E+01 0.919E+00 -.334E+01   -.117E-01 0.359E-01 -.445E-02
   0.444E+03 -.671E+03 0.230E+03   -.443E+03 0.670E+03 -.228E+03   -.988E+00 0.147E+01 -.172E+01   -.452E-01 0.160E-01 -.392E-02
   0.841E+03 0.357E+03 -.748E+02   -.836E+03 -.355E+03 0.741E+02   -.503E+01 -.182E+01 0.705E+00   -.165E-01 0.159E-01 -.269E-01
   -.642E+03 -.649E+03 -.851E+02   0.638E+03 0.645E+03 0.846E+02   0.358E+01 0.394E+01 0.442E+00   0.155E-01 -.215E-01 -.402E-02
   -.435E+03 0.666E+03 -.226E+02   0.435E+03 -.665E+03 0.205E+02   0.642E+00 -.110E+01 0.206E+01   0.781E-02 0.325E-01 0.218E-01
   0.412E+03 -.584E+03 -.569E+03   -.411E+03 0.583E+03 0.565E+03   -.117E+01 0.140E+01 0.399E+01   0.413E-02 0.893E-02 0.205E-01
   0.230E+03 0.550E+03 -.678E+03   -.227E+03 -.546E+03 0.675E+03   -.335E+01 -.423E+01 0.281E+01   -.220E-01 -.107E-02 0.504E-02
   -.584E+03 -.263E+02 -.690E+03   0.579E+03 0.247E+02 0.687E+03   0.513E+01 0.167E+01 0.288E+01   0.243E-01 -.299E-01 -.305E-02
 -----------------------------------------------------------------------------------------------
   0.738E+00 -.126E+01 0.766E+00   -.114E-12 -.227E-12 0.000E+00   -.708E+00 0.124E+01 -.722E+00   -.187E-01 0.202E-01 0.545E-02
 
 
 POSITION                                       TOTAL-FORCE (eV/Angst)
 -----------------------------------------------------------------------------------
      9.23979     10.73021      6.06508         0.007862     -0.037469     -0.013136
      8.96004      8.48878      7.71929         0.017765      0.000944      0.012081
     11.29303      9.88060      7.77869        -0.007744      0.031467     -0.003265
      8.87169     11.09468      8.80356        -0.033769      0.009987      0.001682
      7.71742      8.77494     10.18134        -0.008473      0.012637     -0.023244
     11.36327     11.25666     10.19174         0.012707     -0.018271     -0.003362
     10.51571      8.54459     10.09293         0.004861      0.022981      0.016834
      8.97110     10.82939     11.52754         0.007694      0.004641      0.015644
      9.18061      8.15233     12.55056        -0.019111      0.000004     -0.000370
     11.35789      9.71837     12.55982         0.018208     -0.026921     -0.002865
 -----------------------------------------------------------------------------------
    total drift:                                0.010844      0.009301      0.050176


--------------------------------------------------------------------------------------------------------



  FREE ENERGIE OF THE ION-ELECTRON SYSTEM (eV)
  ---------------------------------------------------
  free  energy   TOTEN  =       -17.75324938 eV

  energy  without entropy=      -17.75324938  energy(sigma->0) =      -17.75324938
 
 d Force = 0.3597537E-03[ 0.321E-03, 0.399E-03]  d Energy = 0.4321419E-03-0.724E-04
 d Force = 0.5994394E+00[ 0.601E+00, 0.598E+00]  d Ewald  = 0.5994395E+00-0.809E-07


--------------------------------------------------------------------------------------------------------


    POTLOK:  cpu time    0.64: real time    0.64


--------------------------------------------------------------------------------------------------------




--------------------------------------------------------------------------------------------------------


  
 reached required accuracy - stopping structural energy minimisation
     LOOP+:  cpu time    7.98: real time    8.00
    4ORBIT:  cpu time    0.00: real time    0.00

 total amount of memory used by VASP on root node    53920. kBytes
========================================================================

   base      :      30000. kBytes
   nonl-proj :       1264. kBytes
   fftplans  :       5768. kBytes
   grid      :      14451. kBytes
   one-center:         31. kBytes
   wavefun   :       2406. kBytes
 
  
  
 General timing and accounting informations for this job:
 ========================================================
  
                  Total CPU time used (sec):       98.650
                            User time (sec):       97.362
                          System time (sec):        1.288
                         Elapsed time (sec):       99.308
  
                   Maximum memory used (kb):       61816.
                   Average memory used (kb):           0.
  
                          Minor page faults:       113378
                          Major page faults:            0
                 Voluntary context switches:         1893
