       N       E                     dE             d eps       ncg     rms          rms(c)
DAV:   1     0.185125144053E+04    0.18513E+04   -0.36606E+04   544   0.579E+02
DAV:   2     0.478595681038E+03   -0.13727E+04   -0.12187E+04   968   0.133E+02
DAV:   3    -0.780454612786E+01   -0.48640E+03   -0.44795E+03   736   0.898E+01
DAV:   4    -0.368428178142E+02   -0.29038E+02   -0.28740E+02   592   0.248E+01
DAV:   5    -0.372447769812E+02   -0.40196E+00   -0.40125E+00   624   0.346E+00    0.252E+01
DAV:   6    -0.118228658998E+02    0.25422E+02   -0.79866E+01   544   0.160E+01    0.130E+01
DAV:   7    -0.999899399668E+01    0.18239E+01   -0.40231E+00   592   0.569E+00    0.739E+00
DAV:   8    -0.118323255386E+02   -0.18333E+01   -0.17261E+00   568   0.306E+00    0.363E+00
DAV:   9    -0.150149411902E+02   -0.31826E+01   -0.75817E-01   600   0.165E+00    0.202E+00
DAV:  10    -0.206843508065E+02   -0.56694E+01   -0.16638E+00   560   0.220E+00    0.263E+00
DAV:  11    -0.208583416870E+02   -0.17399E+00   -0.36636E-02   656   0.413E-01    0.248E+00
DAV:  12    -0.226351905948E+02   -0.17768E+01   -0.37116E-01   552   0.138E+00    0.206E+00
DAV:  13    -0.287827148364E+02   -0.61475E+01   -0.32738E+00   552   0.343E+00    0.219E+00
DAV:  14    -0.291362383201E+02   -0.35352E+00   -0.91907E-02   640   0.714E-01    0.194E+00
DAV:  15    -0.307884867882E+02   -0.16522E+01   -0.34868E-01   576   0.105E+00    0.153E+00
DAV:  16    -0.336566296507E+02   -0.28681E+01   -0.12306E+00   576   0.164E+00    0.770E-01
DAV:  17    -0.348824470794E+02   -0.12258E+01   -0.35770E-01   552   0.130E+00    0.573E-01
DAV:  18    -0.353424709585E+02   -0.46002E+00   -0.48727E-02   584   0.416E-01    0.396E-01
DAV:  19    -0.361633403047E+02   -0.82087E+00   -0.83374E-02   560   0.465E-01    0.242E-01
DAV:  20    -0.364257158889E+02   -0.26238E+00   -0.10431E-02   576   0.228E-01    0.170E-01
DAV:  21    -0.365305940155E+02   -0.10488E+00   -0.37338E-03   592   0.104E-01    0.957E-02
DAV:  22    -0.366162383019E+02   -0.85644E-01   -0.42025E-03   576   0.106E-01    0.626E-02
DAV:  23    -0.366340990617E+02   -0.17861E-01   -0.12203E-03   464   0.693E-02    0.406E-02
DAV:  24    -0.366355762042E+02   -0.14771E-02   -0.48649E-04   360   0.395E-02    0.230E-02
DAV:  25    -0.366375126888E+02   -0.19365E-02   -0.39784E-04   400   0.337E-02    0.167E-02
DAV:  26    -0.366389614398E+02   -0.14488E-02   -0.15407E-04   392   0.177E-02    0.984E-03
DAV:  27    -0.366407133771E+02   -0.17519E-02   -0.55687E-05   376   0.155E-02    0.638E-03
DAV:  28    -0.366413870268E+02   -0.67365E-03   -0.28140E-05   392   0.962E-03    0.611E-03
DAV:  29    -0.366414746176E+02   -0.87591E-04   -0.10738E-05   352   0.930E-03
   1 F= -.36641475E+02 E0= -.36641475E+02  d E =-.366415E+02  mag=     1.0006
       N       E                     dE             d eps       ncg     rms          rms(c)
DAV:   1    -0.366715534309E+02   -0.30166E-01   -0.21544E+00   592   0.341E+00    0.113E-01
DAV:   2    -0.366725615372E+02   -0.10081E-02   -0.10207E-02   568   0.330E-01    0.808E-02
DAV:   3    -0.366725559655E+02    0.55717E-05   -0.18653E-04   360   0.518E-02
   2 F= -.36672556E+02 E0= -.36672556E+02  d E =-.310813E-01  mag=     1.0003
       N       E                     dE             d eps       ncg     rms          rms(c)
DAV:   1    -0.367455076062E+02   -0.72946E-01   -0.19437E+01   560   0.102E+01    0.326E-01
DAV:   2    -0.367542201838E+02   -0.87126E-02   -0.91551E-02   584   0.989E-01    0.239E-01
DAV:   3    -0.367540553325E+02    0.16485E-03   -0.17397E-03   584   0.150E-01    0.153E-01
DAV:   4    -0.367539179322E+02    0.13740E-03   -0.70503E-04   576   0.754E-02    0.308E-02
DAV:   5    -0.367539458733E+02   -0.27941E-04   -0.25033E-05   360   0.233E-02
   3 F= -.36753946E+02 E0= -.36753946E+02  d E =-.112471E+00  mag=     1.0001
       N       E                     dE             d eps       ncg     rms          rms(c)
DAV:   1    -0.368342792227E+02   -0.80361E-01   -0.77744E+01   544   0.205E+01    0.574E-01
DAV:   2    -0.368693730472E+02   -0.35094E-01   -0.36468E-01   560   0.199E+00    0.453E-01
DAV:   3    -0.368688953183E+02    0.47773E-03   -0.65525E-03   584   0.283E-01    0.308E-01
DAV:   4    -0.368682542102E+02    0.64111E-03   -0.28557E-03   560   0.143E-01    0.811E-02
DAV:   5    -0.368683484875E+02   -0.94277E-04   -0.11331E-04   368   0.460E-02
   4 F= -.36868348E+02 E0= -.36868348E+02  d E =-.226874E+00  mag=     1.0000
       N       E                     dE             d eps       ncg     rms          rms(c)
DAV:   1    -0.367868998808E+02    0.81354E-01   -0.31358E+02   544   0.415E+01    0.979E-01
DAV:   2    -0.369301730847E+02   -0.14327E+00   -0.14796E+00   560   0.405E+00    0.848E-01
DAV:   3    -0.369296643209E+02    0.50876E-03   -0.25082E-02   576   0.538E-01    0.613E-01
DAV:   4    -0.369268760360E+02    0.27883E-02   -0.81310E-03   552   0.240E-01    0.261E-01
DAV:   5    -0.369272126307E+02   -0.33659E-03   -0.16634E-03   592   0.119E-01    0.758E-02
DAV:   6    -0.369273729793E+02   -0.16035E-03   -0.19449E-04   392   0.335E-02    0.457E-02
DAV:   7    -0.369276080920E+02   -0.23511E-03   -0.12294E-04   376   0.283E-02    0.159E-02
DAV:   8    -0.369278233916E+02   -0.21530E-03   -0.24705E-05   384   0.137E-02    0.606E-03
DAV:   9    -0.369279581177E+02   -0.13473E-03   -0.73510E-06   376   0.668E-03    0.324E-03
DAV:  10    -0.369280465643E+02   -0.88447E-04   -0.29115E-06   368   0.320E-03
   5 F= -.36928047E+02 E0= -.36928047E+02  d E =-.286572E+00  mag=     1.0000
       N       E                     dE             d eps       ncg     rms          rms(c)
DAV:   1    -0.369271596507E+02    0.79847E-03   -0.11808E+01   560   0.797E+00    0.199E-01
DAV:   2    -0.369326632010E+02   -0.55036E-02   -0.56724E-02   584   0.779E-01    0.138E-01
DAV:   3    -0.369326056523E+02    0.57549E-04   -0.10267E-03   584   0.109E-01    0.931E-02
DAV:   4    -0.369325489436E+02    0.56709E-04   -0.34485E-04   512   0.500E-02
   6 F= -.36932549E+02 E0= -.36932549E+02  d E =-.291074E+00  mag=     1.0000
       N       E                     dE             d eps       ncg     rms          rms(c)
DAV:   1    -0.369535489049E+02   -0.20943E-01   -0.12845E+01   560   0.830E+00    0.210E-01
DAV:   2    -0.369596353128E+02   -0.60864E-02   -0.61567E-02   560   0.808E-01    0.170E-01
DAV:   3    -0.369596083538E+02    0.26959E-04   -0.10689E-03   584   0.106E-01    0.109E-01
DAV:   4    -0.369595278614E+02    0.80492E-04   -0.38399E-04   504   0.538E-02
   7 F= -.36959528E+02 E0= -.36959528E+02  d E =-.269789E-01  mag=     1.0000
       N       E                     dE             d eps       ncg     rms          rms(c)
DAV:   1    -0.369565733000E+02    0.30351E-02   -0.50708E+01   544   0.165E+01    0.416E-01
DAV:   2    -0.369805362222E+02   -0.23963E-01   -0.24548E-01   576   0.161E+00    0.321E-01
DAV:   3    -0.369803941768E+02    0.14205E-03   -0.42407E-03   576   0.212E-01    0.204E-01
DAV:   4    -0.369801202644E+02    0.27391E-03   -0.12767E-03   568   0.988E-02    0.778E-02
DAV:   5    -0.369802103213E+02   -0.90057E-04   -0.13274E-04   384   0.394E-02
   8 F= -.36980210E+02 E0= -.36980210E+02  d E =-.476614E-01  mag=     1.0000
       N       E                     dE             d eps       ncg     rms          rms(c)
DAV:   1    -0.369931282323E+02   -0.13008E-01   -0.21479E+01   544   0.107E+01    0.256E-01
DAV:   2    -0.370035295695E+02   -0.10401E-01   -0.10417E-01   576   0.105E+00    0.177E-01
DAV:   3    -0.370034701567E+02    0.59413E-04   -0.17308E-03   584   0.137E-01    0.118E-01
DAV:   4    -0.370033722195E+02    0.97937E-04   -0.60268E-04   576   0.632E-02
   9 F= -.37003372E+02 E0= -.37003372E+02  d E =-.231619E-01  mag=     1.0000
       N       E                     dE             d eps       ncg     rms          rms(c)
DAV:   1    -0.369830802952E+02    0.20390E-01   -0.71650E+01   544   0.196E+01    0.518E-01
DAV:   2    -0.370179503970E+02   -0.34870E-01   -0.35133E-01   568   0.192E+00    0.330E-01
DAV:   3    -0.370175708746E+02    0.37952E-03   -0.60109E-03   600   0.258E-01    0.213E-01
DAV:   4    -0.370171247716E+02    0.44610E-03   -0.20478E-03   576   0.118E-01    0.606E-02
DAV:   5    -0.370171748039E+02   -0.50032E-04   -0.96505E-05   368   0.354E-02
  10 F= -.37017175E+02 E0= -.37017175E+02  d E =-.369645E-01  mag=     1.0000
       N       E                     dE             d eps       ncg     rms          rms(c)
DAV:   1    -0.370223247315E+02   -0.52000E-02   -0.26024E+01   544   0.117E+01    0.193E-01
DAV:   2    -0.370349256874E+02   -0.12601E-01   -0.12409E-01   568   0.114E+00    0.163E-01
DAV:   3    -0.370348461842E+02    0.79503E-04   -0.19283E-03   616   0.140E-01    0.118E-01
DAV:   4    -0.370345898192E+02    0.25637E-03   -0.48119E-04   568   0.564E-02    0.627E-02
DAV:   5    -0.370345996095E+02   -0.97903E-05   -0.38721E-04   536   0.482E-02
  11 F= -.37034600E+02 E0= -.37034600E+02  d E =-.174248E-01  mag=     1.0000
       N       E                     dE             d eps       ncg     rms          rms(c)
DAV:   1    -0.369447468795E+02    0.89843E-01   -0.23676E+02   544   0.356E+01    0.727E-01
DAV:   2    -0.370601574644E+02   -0.11541E+00   -0.11538E+00   560   0.349E+00    0.494E-01
DAV:   3    -0.370587895273E+02    0.13679E-02   -0.18506E-02   600   0.439E-01    0.335E-01
DAV:   4    -0.370565013625E+02    0.22882E-02   -0.46904E-03   560   0.174E-01    0.161E-01
DAV:   5    -0.370564946336E+02    0.67290E-05   -0.20389E-03   560   0.112E-01    0.487E-02
DAV:   6    -0.370565944881E+02   -0.99855E-04   -0.11101E-04   384   0.254E-02
  12 F= -.37056594E+02 E0= -.37056594E+02  d E =-.394197E-01  mag=     1.0000
       N       E                     dE             d eps       ncg     rms          rms(c)
DAV:   1    -0.370496396458E+02    0.68550E-02   -0.66742E+01   544   0.189E+01    0.410E-01
DAV:   2    -0.370803588602E+02   -0.30719E-01   -0.30946E-01   560   0.181E+00    0.357E-01
DAV:   3    -0.370798883702E+02    0.47049E-03   -0.48497E-03   608   0.216E-01    0.256E-01
DAV:   4    -0.370789888825E+02    0.89949E-03   -0.25137E-03   568   0.129E-01    0.943E-02
DAV:   5    -0.370790811713E+02   -0.92289E-04   -0.30157E-04   464   0.521E-02
  13 F= -.37079081E+02 E0= -.37079081E+02  d E =-.224867E-01  mag=     1.0000
       N       E                     dE             d eps       ncg     rms          rms(c)
DAV:   1    -0.370761455305E+02    0.28434E-02   -0.82933E+00   544   0.667E+00    0.148E-01
DAV:   2    -0.370800593651E+02   -0.39138E-02   -0.39160E-02   568   0.638E-01    0.114E-01
DAV:   3    -0.370800388722E+02    0.20493E-04   -0.61915E-04   576   0.765E-02
  14 F= -.37080039E+02 E0= -.37080039E+02  d E =-.234444E-01  mag=     1.0000
       N       E                     dE             d eps       ncg     rms          rms(c)
DAV:   1    -0.370665586624E+02    0.13501E-01   -0.49500E+01   544   0.163E+01    0.385E-01
DAV:   2    -0.370898913893E+02   -0.23333E-01   -0.23491E-01   552   0.156E+00    0.305E-01
DAV:   3    -0.370895685809E+02    0.32281E-03   -0.37458E-03   568   0.187E-01    0.209E-01
DAV:   4    -0.370891430937E+02    0.42549E-03   -0.17896E-03   544   0.109E-01    0.627E-02
DAV:   5    -0.370892386501E+02   -0.95556E-04   -0.98268E-05   384   0.353E-02
  15 F= -.37089239E+02 E0= -.37089239E+02  d E =-.919978E-02  mag=     1.0000
       N       E                     dE             d eps       ncg     rms          rms(c)
DAV:   1    -0.370891956421E+02   -0.52548E-04   -0.10440E+00   568   0.236E+00    0.547E-02
DAV:   2    -0.370897385507E+02   -0.54291E-03   -0.48360E-03   584   0.225E-01    0.454E-02
DAV:   3    -0.370897617981E+02   -0.23247E-04   -0.71933E-05   368   0.268E-02
  16 F= -.37089762E+02 E0= -.37089762E+02  d E =-.972293E-02  mag=     1.0000
       N       E                     dE             d eps       ncg     rms          rms(c)
DAV:   1    -0.370889385064E+02    0.80004E-03   -0.19701E+01   544   0.103E+01    0.177E-01
DAV:   2    -0.370982262550E+02   -0.92877E-02   -0.91735E-02   576   0.974E-01    0.157E-01
DAV:   3    -0.370981324730E+02    0.93782E-04   -0.13627E-03   592   0.112E-01    0.116E-01
DAV:   4    -0.370978588150E+02    0.27366E-03   -0.60427E-04   568   0.611E-02    0.508E-02
DAV:   5    -0.370978706122E+02   -0.11797E-04   -0.16239E-04   368   0.352E-02
  17 F= -.37097871E+02 E0= -.37097871E+02  d E =-.810881E-02  mag=     1.0000
       N       E                     dE             d eps       ncg     rms          rms(c)
DAV:   1    -0.370943469171E+02    0.35119E-02   -0.10986E+01   544   0.767E+00    0.138E-01
DAV:   2    -0.370995194435E+02   -0.51725E-02   -0.51407E-02   560   0.727E-01    0.115E-01
DAV:   3    -0.370994654051E+02    0.54038E-04   -0.76001E-04   584   0.837E-02
  18 F= -.37099465E+02 E0= -.37099465E+02  d E =-.970361E-02  mag=     1.0000
       N       E                     dE             d eps       ncg     rms          rms(c)
DAV:   1    -0.370997628165E+02   -0.24337E-03   -0.12114E+01   544   0.805E+00    0.134E-01
DAV:   2    -0.371053277412E+02   -0.55649E-02   -0.55518E-02   568   0.763E-01    0.122E-01
DAV:   3    -0.371052474608E+02    0.80280E-04   -0.83405E-04   600   0.891E-02
  19 F= -.37105247E+02 E0= -.37105247E+02  d E =-.578206E-02  mag=     1.0000
       N       E                     dE             d eps       ncg     rms          rms(c)
DAV:   1    -0.370612261459E+02    0.44102E-01   -0.10950E+02   544   0.243E+01    0.445E-01
DAV:   2    -0.371120497370E+02   -0.50824E-01   -0.50880E-01   584   0.232E+00    0.358E-01
DAV:   3    -0.371110875934E+02    0.96214E-03   -0.78263E-03   608   0.280E-01    0.259E-01
DAV:   4    -0.371097035031E+02    0.13841E-02   -0.32784E-03   544   0.142E-01    0.110E-01
DAV:   5    -0.371099149286E+02   -0.21143E-03   -0.10330E-03   568   0.813E-02    0.401E-02
DAV:   6    -0.371101264836E+02   -0.21155E-03   -0.45427E-05   376   0.163E-02    0.255E-02
DAV:   7    -0.371104227727E+02   -0.29629E-03   -0.60032E-05   368   0.172E-02    0.690E-03
DAV:   8    -0.371105964917E+02   -0.17372E-03   -0.11130E-05   384   0.802E-03    0.257E-03
DAV:   9    -0.371106845571E+02   -0.88065E-04   -0.30623E-06   344   0.378E-03
  20 F= -.37110685E+02 E0= -.37110685E+02  d E =-.112192E-01  mag=     1.0000
       N       E                     dE             d eps       ncg     rms          rms(c)
DAV:   1    -0.371122196361E+02   -0.16231E-02   -0.89067E+00   560   0.692E+00    0.212E-01
DAV:   2    -0.371162891344E+02   -0.40695E-02   -0.42411E-02   576   0.668E-01    0.166E-01
DAV:   3    -0.371162340338E+02    0.55101E-04   -0.78775E-04   584   0.880E-02
  21 F= -.37116234E+02 E0= -.37116234E+02  d E =-.554948E-02  mag=     1.0000
       N       E                     dE             d eps       ncg     rms          rms(c)
DAV:   1    -0.371162034101E+02    0.85724E-04   -0.65324E-03   568   0.192E-01    0.323E-02
DAV:   2    -0.371162221223E+02   -0.18712E-04   -0.42799E-05   352   0.229E-02
  22 F= -.37116222E+02 E0= -.37116222E+02  d E =-.553757E-02  mag=     1.0000
       N       E                     dE             d eps       ncg     rms          rms(c)
DAV:   1    -0.371163127334E+02   -0.10932E-03   -0.48023E+00   544   0.509E+00    0.105E-01
DAV:   2    -0.371185511643E+02   -0.22384E-02   -0.22556E-02   576   0.487E-01    0.905E-02
DAV:   3    -0.371185357881E+02    0.15376E-04   -0.35060E-04   472   0.610E-02
  23 F= -.37118536E+02 E0= -.37118536E+02  d E =-.231367E-02  mag=     1.0000
       N       E                     dE             d eps       ncg     rms          rms(c)
DAV:   1    -0.371184679531E+02    0.83211E-04   -0.12146E-02   568   0.253E-01    0.210E-02
DAV:   2    -0.371184851435E+02   -0.17190E-04   -0.64431E-05   352   0.300E-02
  24 F= -.37118485E+02 E0= -.37118485E+02  d E =-.226302E-02  mag=     1.0000
       N       E                     dE             d eps       ncg     rms          rms(c)
DAV:   1    -0.371189541614E+02   -0.48621E-03   -0.16476E+00   560   0.297E+00    0.496E-02
DAV:   2    -0.371197199281E+02   -0.76577E-03   -0.77210E-03   568   0.285E-01    0.423E-02
DAV:   3    -0.371197117528E+02    0.81753E-05   -0.10705E-04   344   0.352E-02
  25 F= -.37119712E+02 E0= -.37119712E+02  d E =-.122661E-02  mag=     1.0000
       N       E                     dE             d eps       ncg     rms          rms(c)
DAV:   1    -0.371199625888E+02   -0.24266E-03   -0.43443E-01   560   0.153E+00    0.316E-02
DAV:   2    -0.371201546448E+02   -0.19206E-03   -0.19419E-03   576   0.143E-01    0.274E-02
DAV:   3    -0.371201512864E+02    0.33584E-05   -0.26377E-05   344   0.170E-02
  26 F= -.37120151E+02 E0= -.37120151E+02  d E =-.166614E-02  mag=     1.0000
       N       E                     dE             d eps       ncg     rms          rms(c)
DAV:   1    -0.371204763322E+02   -0.32169E-03   -0.64795E-01   552   0.185E+00    0.347E-02
DAV:   2    -0.371207836815E+02   -0.30735E-03   -0.30853E-03   576   0.178E-01    0.298E-02
DAV:   3    -0.371207834210E+02    0.26050E-06   -0.42899E-05   352   0.217E-02
  27 F= -.37120783E+02 E0= -.37120783E+02  d E =-.632135E-03  mag=     1.0000
       N       E                     dE             d eps       ncg     rms          rms(c)
DAV:   1    -0.371208969064E+02   -0.11322E-03   -0.69497E-01   568   0.192E+00    0.413E-02
DAV:   2    -0.371212175430E+02   -0.32064E-03   -0.32779E-03   576   0.184E-01    0.345E-02
DAV:   3    -0.371212130921E+02    0.44509E-05   -0.45502E-05   352   0.221E-02
  28 F= -.37121213E+02 E0= -.37121213E+02  d E =-.106181E-02  mag=     1.0000
       N       E                     dE             d eps       ncg     rms          rms(c)
DAV:   1    -0.371215140647E+02   -0.29652E-03   -0.35081E-01   576   0.136E+00    0.195E-02
DAV:   2    -0.371216749854E+02   -0.16092E-03   -0.16047E-03   584   0.127E-01    0.175E-02
DAV:   3    -0.371216738417E+02    0.11437E-05   -0.20239E-05   336   0.144E-02
  29 F= -.37121674E+02 E0= -.37121674E+02  d E =-.460750E-03  mag=     1.0000
       N       E                     dE             d eps       ncg     rms          rms(c)
DAV:   1    -0.371213361636E+02    0.33882E-03   -0.31456E+00   544   0.406E+00    0.613E-02
DAV:   2    -0.371227870036E+02   -0.14508E-02   -0.14466E-02   568   0.383E-01    0.534E-02
DAV:   3    -0.371227679849E+02    0.19019E-04   -0.18935E-04   376   0.438E-02
  30 F= -.37122768E+02 E0= -.37122768E+02  d E =-.155489E-02  mag=     1.0000
       N       E                     dE             d eps       ncg     rms          rms(c)
DAV:   1    -0.371228380879E+02   -0.51084E-04   -0.27144E-01   584   0.119E+00    0.306E-02
DAV:   2    -0.371229547900E+02   -0.11670E-03   -0.12003E-03   568   0.110E-01    0.217E-02
DAV:   3    -0.371229537954E+02    0.99456E-06   -0.19547E-05   328   0.141E-02
  31 F= -.37122954E+02 E0= -.37122954E+02  d E =-.185811E-03  mag=     1.0000
       N       E                     dE             d eps       ncg     rms          rms(c)
DAV:   1    -0.371229535518E+02    0.12381E-05   -0.16750E-03   560   0.926E-02    0.307E-03
DAV:   2    -0.371229609111E+02   -0.73593E-05   -0.70754E-06   352   0.949E-03
  32 F= -.37122961E+02 E0= -.37122961E+02  d E =-.192926E-03  mag=     1.0000
