unknown system                          
           1
    22.989724    0.000000    0.000000
     0.000000   22.989724    0.000000
     0.000000    0.000000   22.989724
   Ag
  39
Direct configuration=     1
   0.58201134  0.54708928  0.31212162
   0.60769667  0.57954603  0.67206177
   0.55935037  0.63477297  0.39043069
   0.48619597  0.41120629  0.41965554
   0.46860526  0.74202312  0.55934956
   0.48004761  0.53921403  0.37225889
   0.65624406  0.66290769  0.45485420
   0.66412687  0.55570380  0.39757690
   0.58860477  0.28798729  0.55280086
   0.48554460  0.58162835  0.69503375
   0.37714651  0.68472175  0.51184704
   0.54438666  0.67336056  0.62495217
   0.53316748  0.36575587  0.62418689
   0.48802658  0.46074365  0.67808538
   0.59262010  0.45534113  0.38775585
   0.39895532  0.52497681  0.63289265
   0.64516110  0.39258374  0.57474086
   0.67277774  0.46017270  0.47474128
   0.55944741  0.51219561  0.75938139
   0.45470565  0.63306487  0.44331644
   0.43343522  0.42122970  0.58246710
   0.54848258  0.68415910  0.50038608
   0.34832353  0.48513052  0.52894166
   0.71745461  0.57014493  0.50185235
   0.65683772  0.51056644  0.58469701
   0.38302105  0.48133988  0.40612246
   0.43103932  0.63802507  0.60685164
   0.50960696  0.44705199  0.30640565
   0.34833766  0.58314373  0.45299499
   0.60731272  0.45044001  0.67251959
   0.54791001  0.45205884  0.53647001
   0.63737020  0.62831357  0.56709128
   0.48680748  0.33225421  0.51413825
   0.52734281  0.55826594  0.58385417
   0.57067001  0.55002315  0.47364289
   0.32520977  0.59321879  0.56978574
   0.59510701  0.36712784  0.46347441
   0.45723235  0.52235759  0.49694110
   0.38767835  0.38415457  0.47732129
Direct configuration=     2
   0.58205269  0.54707558  0.31193659
   0.60774737  0.57951209  0.67221794
   0.55943855  0.63483670  0.39023160
   0.48621535  0.41129602  0.41967272
   0.46853923  0.74216808  0.55941482
   0.48007401  0.53931526  0.37240798
   0.65632179  0.66298689  0.45473804
   0.66419394  0.55575241  0.39743116
   0.58874640  0.28775348  0.55284039
   0.48557624  0.58169485  0.69515028
   0.37700178  0.68485283  0.51178552
   0.54433922  0.67349586  0.62504766
   0.53317768  0.36563102  0.62423179
   0.48808520  0.46076500  0.67816011
   0.59267542  0.45545435  0.38771473
   0.39889041  0.52499806  0.63283012
   0.64525503  0.39239576  0.57474446
   0.67281871  0.46018145  0.47480649
   0.55949827  0.51218422  0.75959753
   0.45476695  0.63312687  0.44324707
   0.43343073  0.42115189  0.58241381
   0.54853172  0.68409004  0.50039944
   0.34810807  0.48507228  0.52892217
   0.71764855  0.57012248  0.50187637
   0.65689168  0.51060385  0.58464555
   0.38299030  0.48118531  0.40608234
   0.43098504  0.63810237  0.60689306
   0.50954172  0.44692366  0.30621094
   0.34825135  0.58320108  0.45293266
   0.60731594  0.45039169  0.67257239
   0.54785866  0.45192926  0.53646215
   0.63737304  0.62838297  0.56709951
   0.48682736  0.33225413  0.51413545
   0.52730141  0.55835276  0.58406215
   0.57073224  0.55016328  0.47353670
   0.32506626  0.59329657  0.56990462
   0.59513570  0.36694479  0.46351396
   0.45707845  0.52227506  0.49682501
   0.38751894  0.38408117  0.47730614
Direct configuration=     3
   0.58217674  0.54703450  0.31138149
   0.60789946  0.57941030  0.67268646
   0.55970308  0.63502790  0.38963431
   0.48627351  0.41156521  0.41972427
   0.46834116  0.74260296  0.55961060
   0.48015323  0.53961893  0.37285525
   0.65655498  0.66322449  0.45438957
   0.66439514  0.55589825  0.39699396
   0.58917127  0.28705203  0.55295898
   0.48567116  0.58189435  0.69549987
   0.37656761  0.68524607  0.51160095
   0.54419689  0.67390177  0.62533413
   0.53320829  0.36525648  0.62436646
   0.48826109  0.46082904  0.67838430
   0.59284135  0.45579401  0.38759136
   0.39869569  0.52506180  0.63264253
   0.64553679  0.39183182  0.57475524
   0.67294165  0.46020768  0.47500213
   0.55965085  0.51215003  0.76024594
   0.45495087  0.63331287  0.44303895
   0.43341726  0.42091845  0.58225392
   0.54867916  0.68388286  0.50043950
   0.34746170  0.48489756  0.52886371
   0.71823038  0.57005515  0.50194846
   0.65705354  0.51071606  0.58449115
   0.38289806  0.48072159  0.40596199
   0.43082221  0.63833429  0.60701733
   0.50934601  0.44653869  0.30562681
   0.34799244  0.58337312  0.45274566
   0.60732559  0.45024671  0.67273079
   0.54770461  0.45154051  0.53643857
   0.63738158  0.62859117  0.56712420
   0.48688699  0.33225389  0.51412704
   0.52717720  0.55861323  0.58468609
   0.57091891  0.55058368  0.47321815
   0.32463574  0.59352989  0.57026127
   0.59522178  0.36639564  0.46363262
   0.45661676  0.52202745  0.49647675
   0.38704070  0.38386099  0.47726067
Direct configuration=     4
   0.58242483  0.54695233  0.31027130
   0.60820364  0.57920670  0.67362348
   0.56023214  0.63541031  0.38843972
   0.48638983  0.41210360  0.41982735
   0.46794500  0.74347271  0.56000216
   0.48031168  0.54022627  0.37374979
   0.65702137  0.66369968  0.45369262
   0.66479753  0.55618991  0.39611956
   0.59002102  0.28564914  0.55319616
   0.48586099  0.58229336  0.69619904
   0.37569926  0.68603255  0.51123182
   0.54391223  0.67471360  0.62590707
   0.53326950  0.36450739  0.62463582
   0.48861287  0.46095713  0.67883269
   0.59317322  0.45647334  0.38734461
   0.39830625  0.52518927  0.63226734
   0.64610033  0.39070393  0.57477680
   0.67318751  0.46026014  0.47539341
   0.55995602  0.51208166  0.76154278
   0.45531871  0.63368487  0.44262272
   0.43339031  0.42045158  0.58193413
   0.54897404  0.68346849  0.50051961
   0.34616895  0.48454812  0.52874679
   0.71939404  0.56992047  0.50209262
   0.65737725  0.51094049  0.58418235
   0.38271359  0.47979416  0.40572130
   0.43049653  0.63879811  0.60726587
   0.50895457  0.44576875  0.30445855
   0.34747462  0.58371720  0.45237166
   0.60734489  0.44995675  0.67304759
   0.54739651  0.45076303  0.53639140
   0.63739864  0.62900757  0.56717359
   0.48700625  0.33225342  0.51411022
   0.52692879  0.55913417  0.58593397
   0.57129226  0.55142448  0.47258103
   0.32377470  0.59399654  0.57097455
   0.59539393  0.36529734  0.46386994
   0.45569337  0.52153223  0.49578021
   0.38608422  0.38342063  0.47716973
Direct configuration=     5
   0.58292103  0.54678799  0.30805092
   0.60881201  0.57879951  0.67549754
   0.56129025  0.63617511  0.38605056
   0.48662246  0.41318037  0.42003353
   0.46715268  0.74521223  0.56078527
   0.48062857  0.54144095  0.37553888
   0.65795414  0.66465007  0.45229872
   0.66560232  0.55677324  0.39437076
   0.59172051  0.28284335  0.55367053
   0.48624067  0.58309137  0.69759740
   0.37396257  0.68760550  0.51049355
   0.54334291  0.67633726  0.62705296
   0.53339194  0.36300920  0.62517453
   0.48931642  0.46121330  0.67972948
   0.59383697  0.45783198  0.38685113
   0.39752736  0.52544422  0.63151696
   0.64722740  0.38844816  0.57481993
   0.67367924  0.46036507  0.47617597
   0.56056635  0.51194491  0.76413644
   0.45605439  0.63442886  0.44179026
   0.43333641  0.41951784  0.58129457
   0.54956380  0.68263977  0.50067985
   0.34358346  0.48384924  0.52851294
   0.72172136  0.56965113  0.50238096
   0.65802469  0.51138934  0.58356475
   0.38234465  0.47793929  0.40523992
   0.42984519  0.63972576  0.60776295
   0.50817170  0.44422886  0.30212204
   0.34643898  0.58440536  0.45162366
   0.60738350  0.44937684  0.67368120
   0.54678032  0.44920805  0.53629707
   0.63743278  0.62984037  0.56727237
   0.48724477  0.33225247  0.51407659
   0.52643196  0.56017603  0.58842974
   0.57203896  0.55310608  0.47130680
   0.32205261  0.59492985  0.57240112
   0.59573823  0.36310075  0.46434457
   0.45384659  0.52054178  0.49438714
   0.38417127  0.38253991  0.47698786
Direct configuration=     6
   0.58275176  0.54649562  0.30725502
   0.60906791  0.57868794  0.67593253
   0.56188093  0.63663893  0.38512433
   0.48681593  0.41363170  0.42020849
   0.46702228  0.74535002  0.56082412
   0.48124558  0.54086914  0.37542390
   0.65836475  0.66461300  0.45196953
   0.66610947  0.55713121  0.39394898
   0.59201518  0.28178101  0.55387841
   0.48615015  0.58338500  0.69826572
   0.37373794  0.68775484  0.51023703
   0.54328032  0.67679225  0.62756327
   0.53356315  0.36248626  0.62525150
   0.48930655  0.46141602  0.67954680
   0.59367662  0.45779254  0.38692690
   0.39782941  0.52536340  0.63112978
   0.64734008  0.38805243  0.57494664
   0.67353213  0.46032688  0.47622852
   0.56084324  0.51176830  0.76494429
   0.45576409  0.63519277  0.44202612
   0.43323340  0.41963032  0.58129141
   0.54944126  0.68240861  0.50096111
   0.34272767  0.48389221  0.52854239
   0.72214967  0.56986629  0.50213153
   0.65776178  0.51120624  0.58376137
   0.38199477  0.47763832  0.40489225
   0.42940982  0.64030736  0.60787018
   0.50812158  0.44436108  0.30213852
   0.34645083  0.58454858  0.45161223
   0.60755935  0.44926346  0.67357064
   0.54672352  0.44957331  0.53617261
   0.63740827  0.62988423  0.56729808
   0.48752870  0.33214726  0.51409709
   0.52624670  0.55970109  0.58783165
   0.57165451  0.55351873  0.47187840
   0.32157405  0.59535576  0.57256689
   0.59605780  0.36286543  0.46419336
   0.45393945  0.52037185  0.49462113
   0.38372081  0.38193203  0.47693868
Direct configuration=     7
   0.58224396  0.54561853  0.30486732
   0.60983563  0.57835322  0.67723749
   0.56365295  0.63803039  0.38234565
   0.48739632  0.41498569  0.42073337
   0.46663107  0.74576339  0.56094068
   0.48309661  0.53915370  0.37507897
   0.65959658  0.66450176  0.45098195
   0.66763091  0.55820509  0.39268363
   0.59289916  0.27859399  0.55450207
   0.48587860  0.58426586  0.70027070
   0.37306405  0.68820286  0.50946745
   0.54309256  0.67815721  0.62909419
   0.53407678  0.36091744  0.62548241
   0.48927696  0.46202420  0.67899877
   0.59319558  0.45767421  0.38715422
   0.39873556  0.52512097  0.62996822
   0.64767810  0.38686523  0.57532679
   0.67309078  0.46021231  0.47638617
   0.56167392  0.51123845  0.76736784
   0.45489321  0.63748451  0.44273369
   0.43292436  0.41996777  0.58128194
   0.54907365  0.68171515  0.50180490
   0.34016030  0.48402113  0.52863073
   0.72343461  0.57051177  0.50138324
   0.65697305  0.51065695  0.58435125
   0.38094512  0.47673538  0.40384922
   0.42810371  0.64205216  0.60819186
   0.50797122  0.44475774  0.30218797
   0.34648638  0.58497822  0.45157795
   0.60808689  0.44892331  0.67323896
   0.54655314  0.45066906  0.53579924
   0.63733476  0.63001580  0.56737522
   0.48838049  0.33183163  0.51415857
   0.52569092  0.55827625  0.58603737
   0.57050116  0.55475667  0.47359321
   0.32013835  0.59663350  0.57306419
   0.59701652  0.36215948  0.46373975
   0.45421806  0.51986205  0.49532309
   0.38236944  0.38010839  0.47679115
Direct configuration=     8
   0.58244562  0.54596684  0.30581552
   0.60953076  0.57848614  0.67671927
   0.56294925  0.63747781  0.38344912
   0.48716584  0.41444799  0.42052493
   0.46678643  0.74559924  0.56089439
   0.48236153  0.53983493  0.37521595
   0.65910740  0.66454593  0.45137413
   0.66702672  0.55777863  0.39318612
   0.59254811  0.27985961  0.55425440
   0.48598644  0.58391605  0.69947449
   0.37333166  0.68802494  0.50977306
   0.54316712  0.67761516  0.62848623
   0.53387281  0.36154044  0.62539071
   0.48928871  0.46178268  0.67921640
   0.59338661  0.45772120  0.38706395
   0.39837571  0.52521724  0.63042950
   0.64754387  0.38733669  0.57517583
   0.67326604  0.46025781  0.47632357
   0.56134404  0.51144886  0.76640541
   0.45523905  0.63657442  0.44245270
   0.43304709  0.41983376  0.58128570
   0.54921964  0.68199053  0.50146982
   0.34117985  0.48396994  0.52859565
   0.72292434  0.57025544  0.50168040
   0.65728627  0.51087509  0.58411700
   0.38136196  0.47709395  0.40426343
   0.42862239  0.64135927  0.60806411
   0.50803093  0.44460022  0.30216834
   0.34647226  0.58480760  0.45159156
   0.60787739  0.44905839  0.67337068
   0.54662080  0.45023392  0.53594752
   0.63736396  0.62996355  0.56734458
   0.48804223  0.33195697  0.51413415
   0.52591163  0.55884208  0.58674991
   0.57095917  0.55426506  0.47291223
   0.32070849  0.59612609  0.57286670
   0.59663580  0.36243983  0.46391989
   0.45410742  0.52006450  0.49504433
   0.38290609  0.38083259  0.47684974
Direct configuration=     9
   0.58241212  0.54561438  0.30535084
   0.60930959  0.57836826  0.67668382
   0.56324542  0.63749174  0.38312549
   0.48697246  0.41464108  0.42107018
   0.46680930  0.74540526  0.56071634
   0.48296396  0.53950269  0.37553980
   0.65922112  0.66430978  0.45135871
   0.66692036  0.55787044  0.39291283
   0.59252675  0.27937139  0.55428584
   0.48601711  0.58411597  0.69933289
   0.37312365  0.68807895  0.50979752
   0.54315628  0.67737541  0.62892373
   0.53403631  0.36132620  0.62521099
   0.48957984  0.46207309  0.67885518
   0.59332954  0.45788505  0.38726909
   0.39886952  0.52559346  0.62986192
   0.64720100  0.38713090  0.57516181
   0.67295303  0.46045108  0.47627933
   0.56169019  0.51114734  0.76646829
   0.45547757  0.63668552  0.44211601
   0.43296814  0.41990876  0.58107264
   0.54915689  0.68167010  0.50164158
   0.34091402  0.48414590  0.52852076
   0.72268660  0.57034530  0.50149526
   0.65703569  0.51082637  0.58409147
   0.38118178  0.47717384  0.40423305
   0.42837203  0.64167182  0.60845959
   0.50807653  0.44492149  0.30253222
   0.34678918  0.58459055  0.45178187
   0.60778395  0.44904072  0.67341029
   0.54700190  0.45031833  0.53583299
   0.63724668  0.62968297  0.56741839
   0.48843908  0.33200181  0.51420474
   0.52566378  0.55885492  0.58695723
   0.57073706  0.55499875  0.47312223
   0.32059861  0.59640478  0.57286167
   0.59694126  0.36243811  0.46399725
   0.45377351  0.52006202  0.49517819
   0.38281961  0.38050686  0.47686937
Direct configuration=    10
   0.58231165  0.54455701  0.30395679
   0.60864610  0.57801460  0.67657747
   0.56413394  0.63753352  0.38215460
   0.48639232  0.41522034  0.42270591
   0.46687793  0.74482332  0.56018218
   0.48477124  0.53850598  0.37651135
   0.65956228  0.66360132  0.45131244
   0.66660127  0.55814588  0.39209294
   0.59246268  0.27790674  0.55438014
   0.48610914  0.58471574  0.69890811
   0.37249961  0.68824096  0.50987089
   0.54312376  0.67665615  0.63023620
   0.53452683  0.36068345  0.62467183
   0.49045323  0.46294431  0.67777152
   0.59315832  0.45837659  0.38788453
   0.40035097  0.52672212  0.62815920
   0.64617239  0.38651355  0.57511977
   0.67201398  0.46103092  0.47614661
   0.56272865  0.51024277  0.76665694
   0.45619311  0.63701881  0.44110595
   0.43273129  0.42013376  0.58043348
   0.54896865  0.68070881  0.50215687
   0.34011653  0.48467378  0.52829609
   0.72197339  0.57061489  0.50093984
   0.65628394  0.51068023  0.58401488
   0.38064124  0.47741349  0.40414192
   0.42762093  0.64260948  0.60964605
   0.50821332  0.44588531  0.30362386
   0.34773993  0.58393941  0.45235281
   0.60750361  0.44898771  0.67352915
   0.54814520  0.45057157  0.53548943
   0.63689484  0.62884121  0.56763981
   0.48962964  0.33213633  0.51441652
   0.52492024  0.55889342  0.58757916
   0.57007072  0.55719983  0.47375222
   0.32026894  0.59724087  0.57284655
   0.59785766  0.36243295  0.46422936
   0.45277179  0.52005458  0.49557978
   0.38256017  0.37952968  0.47692827
Direct configuration=    11
   0.58226248  0.54403965  0.30327471
   0.60832147  0.57784156  0.67652544
   0.56456868  0.63755396  0.38167956
   0.48610846  0.41550376  0.42350626
   0.46691150  0.74453859  0.55992082
   0.48565552  0.53801830  0.37698671
   0.65972920  0.66325468  0.45128981
   0.66644514  0.55828064  0.39169177
   0.59243132  0.27719010  0.55442628
   0.48615416  0.58500920  0.69870026
   0.37219428  0.68832024  0.50990679
   0.54310784  0.67630423  0.63087838
   0.53476683  0.36036897  0.62440803
   0.49088057  0.46337059  0.67724130
   0.59307454  0.45861710  0.38818566
   0.40107582  0.52727435  0.62732608
   0.64566911  0.38621149  0.57509920
   0.67155451  0.46131462  0.47608167
   0.56323676  0.50980018  0.76674925
   0.45654322  0.63718188  0.44061173
   0.43261541  0.42024385  0.58012074
   0.54887655  0.68023846  0.50240900
   0.33972634  0.48493207  0.52818617
   0.72162443  0.57074680  0.50066808
   0.65591612  0.51060872  0.58397740
   0.38037676  0.47753075  0.40409733
   0.42725343  0.64306827  0.61022656
   0.50828025  0.44635689  0.30415799
   0.34820512  0.58362081  0.45263216
   0.60736644  0.44896177  0.67358731
   0.54870460  0.45069548  0.53532132
   0.63672269  0.62842935  0.56774815
   0.49021216  0.33220215  0.51452013
   0.52455643  0.55891226  0.58788347
   0.56974469  0.55827679  0.47406047
   0.32010764  0.59764996  0.57283915
   0.59830604  0.36243043  0.46434292
   0.45228166  0.52005094  0.49577627
   0.38243322  0.37905156  0.47695709
Direct configuration=    12
   0.58274542  0.54397415  0.30272751
   0.60808565  0.57751031  0.67660773
   0.56488470  0.63726610  0.38105996
   0.48598169  0.41579076  0.42446699
   0.46711402  0.74401984  0.55946308
   0.48639072  0.53795725  0.37839964
   0.65945768  0.66328802  0.45152009
   0.66580300  0.55813466  0.39114611
   0.59236198  0.27675891  0.55420035
   0.48624313  0.58514293  0.69922086
   0.37228647  0.68803280  0.50974495
   0.54301153  0.67607561  0.63111306
   0.53454125  0.36046577  0.62441545
   0.49111933  0.46372246  0.67625051
   0.59264711  0.45892429  0.38868237
   0.40172263  0.52782864  0.62593407
   0.64546526  0.38595593  0.57520661
   0.67124258  0.46191522  0.47635068
   0.56372985  0.50950729  0.76650591
   0.45663657  0.63710561  0.43989142
   0.43301181  0.42020892  0.57965445
   0.54901007  0.67987279  0.50261096
   0.33951229  0.48484690  0.52809035
   0.72106285  0.57040539  0.50059601
   0.65575055  0.51034794  0.58375939
   0.38049842  0.47739654  0.40424822
   0.42664249  0.64413098  0.61083892
   0.50796860  0.44600123  0.30446726
   0.34874677  0.58365278  0.45304708
   0.60772211  0.44853927  0.67349891
   0.54888158  0.45143910  0.53505781
   0.63641175  0.62817893  0.56792154
   0.49046689  0.33230633  0.51459314
   0.52410972  0.55878482  0.58789853
   0.56946749  0.55925318  0.47435040
   0.32003781  0.59788934  0.57285245
   0.59857787  0.36211639  0.46430558
   0.45224929  0.52019216  0.49621233
   0.38240248  0.37906186  0.47709071
Direct configuration=    13
   0.58341813  0.54388291  0.30196528
   0.60775716  0.57704888  0.67672236
   0.56532491  0.63686512  0.38019687
   0.48580509  0.41619055  0.42580526
   0.46739613  0.74329725  0.55882547
   0.48741483  0.53787221  0.38036782
   0.65907944  0.66333446  0.45184087
   0.66490851  0.55793131  0.39038601
   0.59226538  0.27615828  0.55388564
   0.48636705  0.58532921  0.69994603
   0.37241488  0.68763240  0.50951952
   0.54287737  0.67575716  0.63143997
   0.53422702  0.36060061  0.62442579
   0.49145191  0.46421262  0.67487038
   0.59205172  0.45935221  0.38937427
   0.40262362  0.52860075  0.62399504
   0.64518131  0.38559995  0.57535623
   0.67080808  0.46275184  0.47672542
   0.56441671  0.50909930  0.76616696
   0.45676662  0.63699936  0.43888805
   0.43356400  0.42016026  0.57900492
   0.54919606  0.67936341  0.50289227
   0.33921412  0.48472826  0.52795687
   0.72028059  0.56992983  0.50049562
   0.65551992  0.50998467  0.58345571
   0.38066789  0.47720957  0.40445842
   0.42579148  0.64561131  0.61169192
   0.50753449  0.44550579  0.30489806
   0.34950129  0.58369731  0.45362505
   0.60821754  0.44795073  0.67337577
   0.54912812  0.45247495  0.53469073
   0.63597861  0.62783010  0.56816308
   0.49082172  0.33245146  0.51469484
   0.52348746  0.55860730  0.58791952
   0.56908135  0.56061327  0.47475426
   0.31994054  0.59822278  0.57287098
   0.59895652  0.36167893  0.46425357
   0.45220420  0.52038889  0.49681975
   0.38235966  0.37907621  0.47727684
Direct configuration=    14
   0.58378764  0.54368660  0.30176690
   0.60785933  0.57662416  0.67660188
   0.56540702  0.63672530  0.37968834
   0.48610276  0.41641621  0.42616998
   0.46768218  0.74326677  0.55811605
   0.48807424  0.53720061  0.38072377
   0.65862387  0.66347965  0.45204877
   0.66459575  0.55801981  0.39047395
   0.59210405  0.27632037  0.55357494
   0.48613609  0.58535180  0.70051163
   0.37304773  0.68743130  0.50915365
   0.54258957  0.67572116  0.63118237
   0.53386495  0.36075363  0.62457774
   0.49180953  0.46470888  0.67409933
   0.59112337  0.45941207  0.38981026
   0.40315114  0.52913891  0.62262235
   0.64517374  0.38532466  0.57519469
   0.67043942  0.46256912  0.47660741
   0.56451580  0.50885188  0.76574735
   0.45675092  0.63763127  0.43832060
   0.43403446  0.42011118  0.57853185
   0.54911299  0.67954665  0.50257420
   0.33910568  0.48431154  0.52786290
   0.71993309  0.56975220  0.50038532
   0.65551369  0.50983833  0.58405039
   0.38118014  0.47705027  0.40473482
   0.42516538  0.64646557  0.61295899
   0.50694942  0.44511922  0.30565787
   0.34968974  0.58366268  0.45375181
   0.60892935  0.44726435  0.67338344
   0.54939259  0.45282381  0.53430360
   0.63584683  0.62762003  0.56857458
   0.49067863  0.33219165  0.51476739
   0.52324988  0.55911057  0.58846764
   0.56946461  0.56100848  0.47494514
   0.31971772  0.59814506  0.57293105
   0.59891966  0.36145169  0.46424283
   0.45210418  0.52063953  0.49740605
   0.38217426  0.37925446  0.47747958
Direct configuration=    15
   0.58410559  0.54351768  0.30159620
   0.60794724  0.57625870  0.67649822
   0.56547767  0.63660498  0.37925077
   0.48635889  0.41661038  0.42648381
   0.46792832  0.74324055  0.55750562
   0.48864164  0.53662272  0.38103005
   0.65823186  0.66360459  0.45222766
   0.66432663  0.55809596  0.39054963
   0.59196524  0.27645985  0.55330759
   0.48593736  0.58537123  0.70099830
   0.37359227  0.68725825  0.50883884
   0.54234193  0.67569019  0.63096072
   0.53355341  0.36088529  0.62470849
   0.49211725  0.46513589  0.67343586
   0.59032456  0.45946357  0.39018541
   0.40360505  0.52960197  0.62144119
   0.64516724  0.38508778  0.57505570
   0.67012220  0.46241189  0.47650587
   0.56460107  0.50863898  0.76538630
   0.45673741  0.63817502  0.43783234
   0.43443927  0.42006895  0.57812480
   0.54904151  0.67970433  0.50230051
   0.33901236  0.48395297  0.52778204
   0.71963408  0.56959935  0.50029040
   0.65550834  0.50971240  0.58456210
   0.38162091  0.47691319  0.40497265
   0.42462664  0.64720063  0.61404926
   0.50644599  0.44478659  0.30631166
   0.34985189  0.58363289  0.45386088
   0.60954184  0.44667375  0.67339003
   0.54962015  0.45312399  0.53397048
   0.63573344  0.62743928  0.56892866
   0.49055550  0.33196808  0.51482981
   0.52304545  0.55954362  0.58893928
   0.56979440  0.56134855  0.47510939
   0.31952599  0.59807818  0.57298273
   0.59888794  0.36125616  0.46423358
   0.45201812  0.52085519  0.49791054
   0.38201473  0.37940784  0.47765403
Direct configuration=    16
   0.58423969  0.54300700  0.30174544
   0.60812285  0.57609006  0.67658075
   0.56519085  0.63663916  0.37918825
   0.48591533  0.41597178  0.42691465
   0.46782790  0.74372566  0.55715023
   0.48863028  0.53681219  0.38093712
   0.65802367  0.66361587  0.45228562
   0.66455009  0.55825842  0.39106150
   0.59178037  0.27677535  0.55320831
   0.48550978  0.58551321  0.70135126
   0.37435217  0.68714305  0.50899792
   0.54199097  0.67590687  0.63059565
   0.53349244  0.36087086  0.62468692
   0.49283481  0.46563905  0.67307645
   0.59050122  0.45967375  0.39035916
   0.40402942  0.52970374  0.62094297
   0.64524105  0.38492259  0.57469748
   0.66982040  0.46190707  0.47659860
   0.56426174  0.50835074  0.76504477
   0.45697534  0.63858660  0.43686008
   0.43461512  0.42023936  0.57797082
   0.54921252  0.68004343  0.50164579
   0.33878282  0.48366120  0.52760909
   0.71939699  0.56958256  0.50032946
   0.65611272  0.50950839  0.58477846
   0.38221757  0.47701339  0.40516666
   0.42395148  0.64794137  0.61530984
   0.50553531  0.44428861  0.30676624
   0.34975179  0.58330286  0.45364952
   0.60982763  0.44599112  0.67394276
   0.54999142  0.45318231  0.53384353
   0.63570857  0.62743533  0.56892612
   0.49009070  0.33144608  0.51476886
   0.52330475  0.56019620  0.58903078
   0.57036250  0.56127784  0.47543495
   0.31930713  0.59809337  0.57276873
   0.59847785  0.36105594  0.46414628
   0.45218480  0.52145487  0.49800846
   0.38187935  0.37917415  0.47762193
Direct configuration=    17
   0.58437375  0.54249649  0.30189463
   0.60829840  0.57592146  0.67666326
   0.56490412  0.63667334  0.37912574
   0.48547192  0.41533338  0.42734535
   0.46772751  0.74421062  0.55679496
   0.48861893  0.53700159  0.38084422
   0.65781554  0.66362715  0.45234357
   0.66477349  0.55842082  0.39157321
   0.59159556  0.27709076  0.55310906
   0.48508233  0.58565513  0.70170410
   0.37511183  0.68702788  0.50915694
   0.54164012  0.67612348  0.63023070
   0.53343150  0.36085643  0.62466536
   0.49355214  0.46614206  0.67271716
   0.59067782  0.45988385  0.39053286
   0.40445366  0.52980547  0.62044491
   0.64531484  0.38475746  0.57433937
   0.66951870  0.46140241  0.47669129
   0.56392252  0.50806260  0.76470335
   0.45721319  0.63899806  0.43588813
   0.43479091  0.42040972  0.57781690
   0.54938347  0.68038241  0.50099129
   0.33855335  0.48336953  0.52743620
   0.71915997  0.56956578  0.50036850
   0.65671690  0.50930444  0.58499475
   0.38281404  0.47711356  0.40536059
   0.42327655  0.64868187  0.61657003
   0.50462493  0.44379080  0.30722068
   0.34965173  0.58297293  0.45343822
   0.61011333  0.44530871  0.67449530
   0.55036257  0.45324060  0.53371663
   0.63568371  0.62743138  0.56892358
   0.48962605  0.33092425  0.51470792
   0.52356396  0.56084856  0.58912225
   0.57093042  0.56120715  0.47576040
   0.31908834  0.59810856  0.57255481
   0.59806788  0.36085579  0.46405901
   0.45235142  0.52205435  0.49810634
   0.38174401  0.37894054  0.47758983
Direct configuration=    18
   0.58442917  0.54197270  0.30238153
   0.60827700  0.57590306  0.67667909
   0.56502967  0.63653520  0.37911382
   0.48564891  0.41476576  0.42739431
   0.46777346  0.74460107  0.55683273
   0.48852107  0.53724936  0.38062184
   0.65804856  0.66370347  0.45211320
   0.66497949  0.55848520  0.39161472
   0.59144082  0.27706236  0.55319231
   0.48481758  0.58595221  0.70163832
   0.37579077  0.68635305  0.50934477
   0.54131797  0.67642548  0.62989135
   0.53351137  0.36090761  0.62434710
   0.49420606  0.46651455  0.67201028
   0.59015519  0.45975911  0.39037698
   0.40464691  0.53008320  0.62032507
   0.64543840  0.38474250  0.57433048
   0.66971398  0.46106123  0.47715080
   0.56343626  0.50792116  0.76487690
   0.45675176  0.63941397  0.43509299
   0.43493596  0.42064423  0.57764445
   0.54926680  0.68091071  0.50069732
   0.33850023  0.48331761  0.52720469
   0.71915385  0.56945926  0.50059618
   0.65735847  0.50890662  0.58547163
   0.38333270  0.47713108  0.40536453
   0.42250354  0.64946292  0.61776816
   0.50339728  0.44347922  0.30810481
   0.34973670  0.58304264  0.45329401
   0.61069784  0.44478520  0.67467189
   0.55049696  0.45342354  0.53390848
   0.63549780  0.62751090  0.56885936
   0.48904760  0.33025316  0.51491207
   0.52391724  0.56137012  0.58889717
   0.57143661  0.56100814  0.47586906
   0.31931808  0.59809236  0.57210529
   0.59737333  0.36056880  0.46375189
   0.45277912  0.52279466  0.49797640
   0.38131690  0.37842800  0.47757545
Direct configuration=    19
   0.58449868  0.54131573  0.30299223
   0.60825016  0.57587997  0.67669894
   0.56518714  0.63636194  0.37909886
   0.48587090  0.41405382  0.42745571
   0.46783110  0.74509080  0.55688011
   0.48839833  0.53756012  0.38034293
   0.65834082  0.66379920  0.45182427
   0.66523787  0.55856594  0.39166677
   0.59124674  0.27702675  0.55329674
   0.48448551  0.58632483  0.70155581
   0.37664235  0.68550664  0.50958035
   0.54091391  0.67680426  0.62946571
   0.53361154  0.36097181  0.62394792
   0.49502624  0.46698176  0.67112367
   0.58949967  0.45960264  0.39018147
   0.40488930  0.53043155  0.62017475
   0.64559339  0.38472374  0.57431933
   0.66995890  0.46063330  0.47772715
   0.56282637  0.50774377  0.76509458
   0.45617300  0.63993562  0.43409568
   0.43511789  0.42093836  0.57742815
   0.54912045  0.68157333  0.50032860
   0.33843361  0.48325249  0.52691431
   0.71914618  0.56932565  0.50088176
   0.65816317  0.50840764  0.58606975
   0.38398325  0.47715305  0.40536946
   0.42153398  0.65044256  0.61927092
   0.50185748  0.44308843  0.30921374
   0.34984328  0.58313007  0.45311313
   0.61143097  0.44412857  0.67489339
   0.55066553  0.45365298  0.53414912
   0.63526461  0.62761063  0.56877881
   0.48832206  0.32941145  0.51516812
   0.52436034  0.56202428  0.58861486
   0.57207151  0.56075853  0.47600534
   0.31960622  0.59807204  0.57154147
   0.59650218  0.36020885  0.46336669
   0.45331556  0.52372321  0.49781342
   0.38078120  0.37778513  0.47755740
Direct configuration=    20
   0.58447618  0.54102686  0.30318809
   0.60798686  0.57575030  0.67673383
   0.56545034  0.63616306  0.37925241
   0.48579988  0.41352919  0.42785151
   0.46779620  0.74530658  0.55720440
   0.48827899  0.53799446  0.38033876
   0.65859721  0.66382063  0.45163794
   0.66535701  0.55831639  0.39153380
   0.59117669  0.27678942  0.55339627
   0.48452012  0.58651963  0.70127677
   0.37714649  0.68515287  0.50993730
   0.54064477  0.67703781  0.62932986
   0.53373755  0.36110326  0.62351978
   0.49579480  0.46737102  0.67020907
   0.58947414  0.45930692  0.39068174
   0.40502250  0.53079594  0.62011317
   0.64565820  0.38449166  0.57428355
   0.66986727  0.46036888  0.47768703
   0.56245177  0.50766606  0.76511012
   0.45596135  0.64038367  0.43340117
   0.43508714  0.42111532  0.57694867
   0.54891978  0.68173960  0.50001789
   0.33880965  0.48330344  0.52661069
   0.71913683  0.56921115  0.50113489
   0.65868742  0.50841038  0.58661679
   0.38452137  0.47688092  0.40543131
   0.42085045  0.65129428  0.62030541
   0.50052079  0.44281701  0.30979795
   0.34997332  0.58313763  0.45282891