13
Energy = -49.76835367 eV
Ni 11.4091699509912 11.909240903024372 10.283900018194453
Ni 10.47395671677041 11.226504898303874 12.434469849638855
Ni 11.896430251684052 11.023730615323132 14.244047421356088
Ni 13.37815882708017 13.12512198160775 10.281730597981756
Ni 12.730503094400607 12.09973721964344 12.306883188837762
Ni 11.161085975119848 13.180076474348509 13.681432798368812
Ni 12.178043717416028 14.340980165681025 11.888621320415501
Ni 10.134172871063015 13.36167074355721 11.540663314312308
Ni 11.360042389456506 14.195291600519038 9.70331527521883
Ni 13.536141890772786 10.786868896208675 10.531624670137756
Ni 11.481746456488985 9.69090445635634 11.033940842484068
Ni 10.97528401271193 9.080265320706967 13.257811822107577
Ni 13.116259802971076 9.810602224719684 12.642554380946583
