12
Energy = -45.41088893 eV
Ni 10.59398368763965 9.124648620107621 8.798157245333144
Ni 8.968654598061713 10.349952895789603 10.066567799847881
Ni 9.195230858930843 10.665364161039816 7.595777249866251
Ni 9.876821422473546 6.844859149593017 8.441832921884973
Ni 9.33638900788055 8.018793683150022 10.474316225429993
Ni 7.0644089515513535 8.799648958328119 10.445367462016222
Ni 8.287801488680799 8.803664268536563 8.526510349750502
Ni 7.8979533632758 7.01155638586127 7.064582889539205
Ni 9.706617209532993 8.49511291616928 6.693621899084961
Ni 6.126598420941263 8.125064846325225 8.235522857325687
Ni 7.6707871678206425 6.718160305179308 9.40565283558645
Ni 7.454615777121922 9.294557868997018 6.465009600203361
