14
Energy = -54.01580688 eV
Ni 14.016127770879017 10.364028844740842 10.54585495964622
Ni 9.783107656181409 11.699829816581039 10.542149278180885
Ni 8.830602613263077 12.402086438115061 12.620197137971124
Ni 12.053812598030271 10.138819624356428 11.810799255466216
Ni 11.140907225506616 12.329604979743532 12.370284364203405
Ni 10.68691349769493 10.972333176173354 8.520462316707576
Ni 8.00580506702865 10.49180633290717 11.448023906187757
Ni 10.195758575574278 8.721136779145622 8.388257835291883
Ni 8.518499740965634 10.185504719489774 9.157875646544035
Ni 10.04579131138898 9.361631486082363 10.685575597848668
Ni 13.470642277829668 11.965726677905078 12.16245137075071
Ni 12.110941969558926 9.434512095312876 9.503669773450893
Ni 12.17291540618985 11.777633003868765 10.213607602572232
Ni 9.909020454808585 10.376054919179937 12.804950035354176
