16
Energy = -56.4066518 eV
Ni 10.279531299464859 11.33876822228332 8.434076262210729
Ni 11.98938079991623 9.840748311150623 8.875483526250566
Ni 8.628850063508732 12.066043671569373 9.924818314342787
Ni 10.587414159985546 10.920793974694428 10.64380736901049
Ni 11.550615595627697 7.538395783122322 9.66271498798089
Ni 7.850018602769682 10.485061915810457 8.055108782528599
Ni 7.923154669767342 7.748701096808374 8.209165744192768
Ni 12.226558414328313 7.831756945050538 7.679720950241449
Ni 6.363718345174408 11.580545126038464 9.804810845683386
Ni 7.444266018236077 7.632861485815081 10.776854524233638
Ni 10.039338755725732 8.982596357819746 7.1812862265381145
Ni 9.226918281658566 6.357900635858124 10.010613822576792
Ni 7.621642414240063 10.45856530938535 11.14346549279229
Ni 10.248398076011256 6.659755308536077 7.984469523225914
Ni 6.3189811961820554 9.259271576659902 9.620061715630039
Ni 9.290744426157927 9.045747590101548 9.466745282078662
