22
Energy = -90.61438316 eV
Ni 11.755872856037437 7.4845011785868065 9.881759887703975
Ni 12.14306520524042 8.09301240361311 7.725936902862941
Ni 11.823600245150729 8.778531748003983 11.78841131721187
Ni 9.768396020115038 7.149360342662278 8.412063301417462
Ni 10.214239669276507 8.745396284594818 6.539512986431296
Ni 9.689099537031115 7.9611640700567765 10.800600024931729
Ni 10.401413025248534 9.258709169712153 8.80484100284101
Ni 7.762065484784322 7.715652104572436 9.599507555006607
Ni 9.74354123855688 9.222042370914938 12.739126247698207
Ni 9.62481099396785 10.983019622826376 6.968464737752445
Ni 8.27469708037483 9.196159269147078 7.844846157068453
Ni 12.355032565927864 9.908377559468947 9.75833279457658
Ni 7.572543423734037 9.020244614471421 11.674946750697384
Ni 10.863568846550493 10.889226375071605 11.399229430779013
Ni 6.680187631355613 9.757460473817908 9.487704488261983
Ni 8.662428895362353 11.212599870104318 12.525772538534357
Ni 10.605291279540257 11.597521452828571 9.058610173207052
Ni 8.918509739533748 10.204809181408466 10.33785039466884
Ni 11.892692330986145 10.433272007672706 7.412434946068515
Ni 9.209939154199171 12.569845210318675 10.664203913061879
Ni 7.047884354889689 11.551189402031687 10.868287256248296
Ni 8.12367318377642 11.548828058449573 8.657160371569024
