36
Energy = -155.95540832 eV
Ni 6.432138094925651 8.95302056179994 11.230180440995959
Ni 6.125782609534907 8.100078076036942 8.86619016302025
Ni 8.01324485933673 7.467699661742092 12.34626387813733
Ni 6.959156009781211 6.672154629779465 10.44846595802026
Ni 6.932335604114066 11.362256674800632 11.415945272008688
Ni 8.479478149690452 9.75913841144958 12.211447832075363
Ni 6.570614795692727 10.296199716029856 9.249136340785306
Ni 9.529536557039775 11.890936487640031 12.08764118846079
Ni 8.437828939727877 8.623860413146765 10.044560862810394
Ni 9.313792807842345 6.389246679456816 10.613773023384365
Ni 10.257199957429018 8.06142706601525 11.960218317120116
Ni 8.18165406836929 6.956171391625429 8.381209878555364
Ni 8.613098833610648 11.312780853143096 9.831276978812342
Ni 7.881852202502123 11.495430138437726 7.596248433508178
Ni 11.843768523929878 6.9547320223929 10.61420168535876
Ni 10.396776527904695 7.381491816919734 8.854850763684096
Ni 7.782132891906473 9.102736730895417 7.469848146533132
Ni 6.628501787296507 12.639291026739448 9.31530465372917
Ni 11.969997948772683 8.99082885198666 9.421203475621107
Ni 12.435014459438564 9.065489806178661 11.748092755776327
Ni 9.957951187754897 8.127467256096288 6.723168505614593
Ni 8.715869097757137 13.49919612224181 8.607596672732566
Ni 10.741491227962138 10.109950566775703 13.091573782443769
Ni 8.237958647057365 13.404448154742521 10.917609330416433
Ni 12.299694042908966 7.7961628081472165 7.499328551596136
Ni 9.357122010480385 10.34224386817464 6.149482564838329
Ni 13.943553031126696 8.103090659913306 10.068307197112238
Ni 9.844534373261423 9.786153791686933 8.449883472805471
Ni 10.397094034113074 10.080685531247642 10.763995579125078
Ni 11.61657977964169 10.007499263455307 6.9513431159764325
Ni 10.276244176488241 11.964065453625823 7.664256618944468
Ni 13.821649751385316 10.452574591162515 10.383301799968402
Ni 13.723171522514797 9.686727765843342 8.118096869106557
Ni 10.481742256428335 12.689634372951053 9.996053709219092
Ni 12.082181947398775 11.272558487544217 9.019351178275835
Ni 11.990335553662755 11.530014013004983 11.511356220660288
