31
Energy = -131.21617678 eV
Ni 7.040584638001497 8.526492160598671 11.736872129901124
Ni 10.10635773905214 10.980271284489884 13.053250996975548
Ni 8.296313855692407 7.066642391223791 7.695922606419298
Ni 8.041380181042582 11.273852965926917 9.372995479597467
Ni 12.11598114060315 11.11931213029651 9.7069062799966
Ni 10.710900819350885 7.339223889388254 10.920470799885
Ni 9.448763305116854 8.51838018475213 12.708358664165427
Ni 11.757726839303665 13.370220713556387 10.274973601533889
Ni 10.252227118600134 12.419759739265086 8.599423848553203
Ni 8.761244968301233 8.275471776982695 10.049879475244008
Ni 12.215398836109074 8.772583739185986 9.493154511966521
Ni 10.964754902075507 9.648982519304345 11.306030368738996
Ni 8.58670335506735 10.221978977020918 11.436239513319357
Ni 12.135678183490265 8.559183783846041 7.17253772588344
Ni 9.820758523597437 8.92567606064234 6.77140290460389
Ni 10.712012947162439 13.351993841591613 12.464872276748062
Ni 10.503191222930154 7.49078882432882 8.504739849938336
Ni 13.45306064206827 10.332553178787126 8.026089357496275
Ni 7.875978504694603 9.316901311452328 7.974372051809056
Ni 12.566283867820617 12.693757292596734 8.10104194653214
Ni 11.357716317494253 10.785739172673155 7.1994100130721925
Ni 8.431155554669749 6.610938322000959 11.697473584581575
Ni 6.3104607417960095 9.3030320413699 9.652259782136143
Ni 9.96027651820216 11.91738631675295 10.838653995754012
Ni 6.083611073435399 7.861623314897192 7.830265671902859
Ni 6.47383330413523 10.957326329676905 11.202097661721563
Ni 10.084017043072153 9.967566894664762 9.015227036196036
Ni 6.948870523624399 6.928605731607574 9.802901526562993
Ni 12.11703217368846 11.651085443791517 11.965379651926446
Ni 9.165854192663655 5.937092338484907 9.583334599384662
Ni 8.982725278033396 11.156431639737969 7.124316398348234
