33
Energy = -139.82920009 eV
Ni 16.061147004480866 14.000925537730367 7.5559261704808875
Ni 9.19252620835902 8.351674084340553 13.29310416117406
Ni 8.663066928562907 14.267107090679122 11.311126937811535
Ni 13.405899570695029 11.438614008530111 8.521558137578873
Ni 10.441121342108914 14.257449389144448 12.972918394740914
Ni 11.673688409377286 8.35170835247469 13.263458717748854
Ni 13.918167464655191 13.72165644745321 8.155905553681167
Ni 12.117329122909311 10.78635793577343 13.342733445846859
Ni 10.49484616319527 8.668227836935024 9.632659113672457
Ni 14.727129909260658 10.677147926557158 10.367673537930926
Ni 7.757808281417346 12.144959401518296 11.084820355608668
Ni 8.468486902746871 8.723479596826055 11.121842310670106
Ni 8.335388489926828 12.929793370909211 13.193214046790045
Ni 13.396147771417676 9.44022609270298 11.91837716642209
Ni 14.033656639300945 11.812738421630806 12.450587460659424
Ni 12.383540973389874 13.500406671638478 11.784223065644028
Ni 12.294906092931742 7.625788544711234 11.000964296398838
Ni 9.169932260130704 10.63662476503212 10.117763196796043
Ni 10.154958121689726 7.196206935360788 11.571556678800823
Ni 10.770420647570347 9.67667549266998 11.654939325887566
Ni 10.772541556700212 14.700979932361237 10.5979797313442
Ni 11.937739908046812 13.180094021882141 9.32379430847396
Ni 15.629518528059474 12.145471330958147 8.712033268013421
Ni 12.787818485151499 9.406525425057328 9.564156182198714
Ni 14.15874021099358 12.977516095042322 10.33533562051177
Ni 11.075867297931753 10.977344518818354 8.901260030033932
Ni 12.367370119203416 11.324428560691796 10.833999779723126
Ni 10.356277971997882 12.151639448665966 13.985213569771119
Ni 12.514277800371563 13.022851274043092 14.005099982069199
Ni 10.313288579176117 9.904144962892133 14.507486801581965
Ni 9.545705862369296 12.906180941378347 9.454518619162927
Ni 10.22754794474245 12.309600046004466 11.586935446807399
Ni 8.806664032002283 10.62364554050515 12.695570285738887
