3
Energy = -7.6106249 eV
Ni 6.629933223186238 8.082733612884427 7.2331896075287
Ni 7.7675201409511665 7.086825542321475 8.831465190095978
Ni 8.831879637799448 8.059773846730957 7.164678202375326
