43
Energy = -190.51612114 eV
Ni 12.466205637230994 11.716066220353065 8.91161773555073
Ni 12.655086834178991 12.956424073151272 10.826859309622664
Ni 12.94468698149897 9.468222618446427 8.617512929469921
Ni 14.208712669720567 8.24930939015586 10.16997785739002
Ni 11.164593662796124 12.897341324685053 7.2788484611628546
Ni 13.438961899990586 10.527074486457643 10.942592612572765
Ni 11.557074036847839 10.58469795478444 7.041475797798767
Ni 12.24393032501371 11.787179808373388 12.773592792992213
Ni 10.623038225315776 13.214513183996411 9.513067901255303
Ni 11.100518440275792 10.986936333551581 10.731364354418846
Ni 11.725505630273979 8.25860813160322 6.893019218991205
Ni 12.365601979418459 7.156916861999865 8.850230721018338
Ni 10.512438494866222 8.960157745931681 8.952342578539621
Ni 10.492331021495808 13.122370549902016 11.827685246092724
Ni 8.782577161257493 13.102992209293868 7.912685178845748
Ni 12.882139940822292 6.482617975323886 11.102887809098169
Ni 9.808590429117801 11.19017402439837 8.611101555012189
Ni 13.539450858024615 8.364860716519852 12.459277761914239
Ni 12.000355554328786 8.664770458031926 10.719593408825457
Ni 9.61516197645583 11.587258642608797 6.12189913777153
Ni 9.561816634886583 9.238231370090531 6.806424576296159
Ni 11.585279226568375 9.58124491931837 12.873934544510421
Ni 8.465607063165113 13.64705574733197 10.374141831335642
Ni 9.671346098780718 9.065936415637049 11.231885101375568
Ni 9.851532613289818 7.068294748376275 7.89035514595794
Ni 7.791362473939141 10.769127550597451 7.2510973961822875
Ni 8.744135543310595 11.428523995746618 10.952837203688663
Ni 9.90747670640966 11.134991517261655 13.035743183651459
Ni 11.196659263641418 7.3310300218820075 12.588995300555588
Ni 8.104884894813216 9.644583676394602 9.455803889432065
Ni 7.163382691524168 11.946339809269013 9.22254352389242
Ni 8.394104801539399 12.97146170330299 12.816509308061724
Ni 10.581824846063803 6.746798298306296 10.310593716684581
Ni 8.401543971877711 7.316172769451546 9.798774950735284
Ni 5.9507058890742615 9.995050053252942 8.433196928378088
Ni 9.287055463833088 8.821756807770104 13.460574998566441
Ni 7.45959793467786 8.509523412666903 11.804597213382582
Ni 6.603875791328967 12.466304896150023 11.477391443232387
Ni 7.60652109870122 8.256519486116371 7.709413453721831
Ni 8.984505406121746 6.792106001956821 12.077726401501945
Ni 7.598836195145672 10.628709889804345 12.83543834490732
Ni 6.253592740975092 10.280287409763131 10.803026233621855
Ni 6.208823799973548 8.11456875800116 9.793169497266257
