4
Energy = -11.30371457 eV
Ni 7.876516693253602 8.281623062046489 8.841928956584045
Ni 9.606162286573662 9.190938300341976 7.7687330574776885
Ni 9.972975576180822 8.462287216902629 10.039219411357047
Ni 8.773029820243035 10.302278293749966 9.730271453670122
