43
Energy = -187.82106796 eV
Ni 9.283026202530577 7.920643081617275 4.515305183134787
Ni 8.857584864296538 5.714356406706829 5.452124689768003
Ni 11.108697972515117 6.599685015635346 5.644664798814574
Ni 11.021803072345465 9.037790763445297 5.80759612254906
Ni 7.225950235621509 7.651018766897034 5.819559766884533
Ni 8.49773891769853 9.740474125883251 5.958082848232908
Ni 8.0373197294192 12.184798866224556 6.219731094070457
Ni 9.328635731422205 7.4943789148358 6.776636265642017
Ni 10.342698500818145 11.28309290105475 6.534358364775487
Ni 10.182532093932696 5.5287582987101604 7.658482526253708
Ni 7.770576840222182 5.955348462676539 7.5684233243950505
Ni 12.304029641046666 9.858323425732628 7.764400156013767
Ni 6.219874994559759 10.37952855995298 7.44151584167244
Ni 11.609993195720723 7.523937205776588 7.85238916067459
Ni 5.758596790964896 7.2928091398581065 7.600200527728574
Ni 10.010071287753851 9.356141929497864 7.851324624526383
Ni 7.592856120167129 8.638904895449848 8.148126687745998
Ni 8.391186498092042 10.971286409619344 8.038733891284178
Ni 9.402409081948989 13.085502035112368 8.124831138970086
Ni 6.992259653208639 12.662862407232339 8.423326534153167
Ni 9.352968485330852 7.377675121407799 9.241721235290099
Ni 13.268334388472846 8.3820376289239 9.504005383136342
Ni 12.671507739607023 10.643423916507468 10.162130334709001
Ni 10.765944553052355 13.099578178703247 10.323675281225995
Ni 10.899937930818512 6.803624595359918 10.903304839122212
Ni 6.866249556046853 6.5263887792530735 9.605942419538561
Ni 6.731759968869845 10.706762805913751 9.839033233729367
Ni 10.839925783785834 11.37986368730084 8.895721436644243
Ni 9.095712220438866 9.94253920067754 9.942683948786899
Ni 8.86616207340091 5.1513167623422245 9.600947502219855
Ni 7.563713738728349 8.49028693106107 10.639647550174967
Ni 8.622727366238388 12.214558083625931 10.264048892630115
Ni 11.13475864545226 8.902609043529516 9.816065616503236
Ni 5.510781780048781 8.628679529201358 9.506735634253674
Ni 12.149760338796225 8.91392470341565 11.78330233611131
Ni 8.522860505052282 6.545532146453236 11.491830771823913
Ni 10.582061992252862 10.930136082738304 11.415730318443488
Ni 8.102810350646797 10.522537869052542 11.96420789965987
Ni 5.831166252491851 9.597429157088936 11.77847369486754
Ni 5.957214563098918 7.175081014571195 11.684691971266316
Ni 7.635176215675725 8.331046375211246 12.990290543490847
Ni 9.745913123407066 8.651463469914598 11.906367811334343
Ni 5.43474081958361 8.293893121411182 13.629657613330357
