40
Energy = -175.33531782 eV
Ni 12.877123995038238 8.71695399013975 10.318550096040635
Ni 11.399275567213502 12.564537814851912 9.0651730793807
Ni 7.362489898906353 12.341916295816555 10.343478984938002
Ni 13.702046860717937 14.928789651447335 11.550897498227352
Ni 13.195052833226425 10.838619497362961 13.959916542742556
Ni 8.947887764679393 9.256234629893507 10.321430293571762
Ni 7.124207570646033 10.267473487658274 11.590942629862745
Ni 9.827474902879095 15.443396416286879 11.563951177835996
Ni 10.827831459275622 8.382578187039291 9.11576246068017
Ni 11.68358144334154 14.59490270911309 10.334606158933857
Ni 9.542385586909171 13.487705644833367 12.820962621727931
Ni 12.846736509826247 8.838006797537439 7.960932407271574
Ni 11.413349481877084 12.557642345455612 11.495453565847841
Ni 8.969988372564247 9.321285124991512 12.743104457586512
Ni 9.218141523918733 11.465614315386462 9.032727179850465
Ni 7.7201203554773015 14.303452713622141 11.597983139179947
Ni 11.425878838072457 12.514393864669147 13.97211277502907
Ni 14.91783588755437 9.21053692419444 11.574990911326875
Ni 13.498048288053779 12.986803835029136 10.230448016956196
Ni 15.200001508131871 11.228632297053851 12.779572714188177
Ni 11.129565851900612 10.461281283405967 12.718566112993354
Ni 9.192373000848303 11.420220889941188 11.521317016257322
Ni 13.244526348028534 10.864736702027466 11.509086436134812
Ni 11.692448525338184 14.5798777612589 12.76859013793884
Ni 10.827918303598386 8.359732643253329 11.53270211818497
Ni 9.497077386323578 13.525126201988037 10.238290752013926
Ni 7.4310486235886275 12.268408778584513 12.813664048126016
Ni 13.481418927421783 12.959904077539578 12.805915807523347
Ni 11.117109532511849 10.46856474842933 10.280203936370084
Ni 12.88279398567267 8.7839567331723 12.741119982486389
Ni 15.435619510374705 13.267984630579535 11.566513175221882
Ni 11.101974919810887 10.463479559538618 7.913856361610215
Ni 13.2034895001387 10.929783543315482 9.015732404623181
Ni 9.276275032825353 11.36857024503893 13.979262402964553
Ni 8.993301270787768 9.355807119847109 7.96218758782433
Ni 7.176293669700973 10.290438671142349 9.211247297238655
Ni 14.854534802191624 9.252277684454363 9.19825489014309
Ni 15.233732635229792 11.283155626345891 10.31967275528838
Ni 11.155991303900445 10.43973985883868 15.116203304081468
Ni 10.838071183822025 8.459594969967965 13.942809317056673
