40
Energy = -173.745683 eV
Ni 8.29417167573883 6.489479801264467 4.150762213873911
Ni 6.209387098259286 5.195334727482205 4.268796316007824
Ni 6.072713173157076 7.756759059352229 4.443472758144107
Ni 8.095330932500762 8.606750394841926 5.554315003840904
Ni 10.277887554326472 7.698925467545626 4.5897450353050475
Ni 8.312225365022243 4.432291779920521 5.536224068289054
Ni 8.497587287738897 10.954147303559997 6.439736243956701
Ni 6.1789639756875125 10.134970327154557 5.657320463973909
Ni 6.999485723021654 6.26520584838193 6.062205508046684
Ni 6.011340267244937 4.235683368272371 6.5284291730535
Ni 10.413253750854933 9.74863334218848 5.67508220588497
Ni 10.441247837731932 5.313906261166085 5.034689616618168
Ni 4.068316895973138 8.75938539142329 5.537089467351066
Ni 4.591907064373867 6.261741174348037 5.804967717200408
Ni 5.782900254162582 8.07022814601978 6.7960737286344965
Ni 7.751320937220475 7.454670610065447 7.900869841113093
Ni 10.196715247732712 4.871361431777181 7.547558503641006
Ni 7.157265454804179 9.639246278232308 7.78746985307681
Ni 9.32138895662681 6.65774959586469 6.422530436193388
Ni 6.462551284823078 11.757660428158907 7.5633572758367436
Ni 7.893185352990144 4.911752383089875 7.851293653449575
Ni 5.519264139945829 5.986529677371748 8.106514572705697
Ni 10.545035375178074 10.922441163186614 7.8166775863679225
Ni 4.728009585362354 9.9823270634061 7.682722534416732
Ni 3.761953962165241 7.665836932210037 7.6991016425162195
Ni 9.947477869960446 6.905839367459547 8.836580832321596
Ni 5.567007316622906 8.200248699701296 9.268986721172439
Ni 8.508470201304172 11.039830541003258 8.971470755331726
Ni 11.305764672392733 7.683334647651014 6.807054624409818
Ni 9.502866498764417 8.946376439008318 7.587423145163831
Ni 6.498691183975728 4.26992439579972 9.580308533149305
Ni 7.288066546384773 6.4606272085665175 9.785211718611833
Ni 5.174835263197015 6.072134604614668 10.532006156606116
Ni 6.113511563675009 10.552043822483858 9.652957661263255
Ni 9.057334079953717 4.952180424749213 9.885524653231021
Ni 10.12422876933546 9.183978250044328 9.771684389627273
Ni 7.835436681325364 8.960847230230073 10.012885055413483
Ni 9.06585944721557 7.231377957769708 11.033970892430277
Ni 6.532235599654967 7.783103621754038 11.535191576037608
Ni 7.310881249778353 5.401210929062134 11.697813961914633
