4
Energy = -11.3112227 eV
Ni 8.217392834756458 9.468074407032722 8.95953124273877
Ni 8.801394869574693 7.549553227191398 8.061897214139895
Ni 10.398088469505296 8.95581185992704 8.785639087006453
Ni 6.620679826163311 8.064116505848842 8.230488430685655
