55
Energy = -247.41290857 eV
Ni 13.345565463614985 13.472799759975965 8.686138875220117
Ni 11.077652719337292 12.87024278191774 8.218465339225778
Ni 12.545004708863907 11.227657741992815 9.024024208529895
Ni 13.933867830007603 9.323647265276884 9.56580485881304
Ni 13.748870642239265 15.037336466196248 10.554750613799555
Ni 11.532614236945983 14.331183943383268 9.963223748129943
Ni 14.88113779215028 11.633192422332558 9.279491094173848
Ni 10.078723921334923 10.971249364621364 9.24816570048112
Ni 9.39610650464734 13.201195604795345 9.87145501357771
Ni 12.95572007302818 10.39617485308587 11.322287839913827
Ni 8.187438927179977 13.810334636218071 11.874063005348532
Ni 15.520015775010533 13.947398686133816 9.502980227018927
Ni 16.012057853805224 15.02748150885502 11.605676357766939
Ni 11.555061811714419 9.108002847607361 9.09534109119959
Ni 15.510036553427847 10.301905080360685 11.071939395817905
Ni 11.743008749768459 16.241777917177632 11.351465648900696
Ni 13.555970364283613 12.678564701927826 10.92321898812922
Ni 10.671683516694102 9.722801784427839 11.219934539310275
Ni 11.240652286487869 12.108161270715511 10.937132020049933
Ni 9.555171910122336 15.42546027584928 10.539005825707367
Ni 16.625569279856336 8.67880446194082 12.289732900330726
Ni 8.907327379421485 11.39921010922979 11.325611475198059
Ni 12.281621612327076 8.060807719513324 11.0382009959715
Ni 14.411312367391382 11.474034658894375 12.915915953765209
Ni 16.515325738538646 13.305745016114647 13.579334106821655
Ni 15.987387068727546 12.605549189847837 11.331670845349858
Ni 15.788245602671008 15.54082506217775 13.950869120404358
Ni 7.997592569811482 11.923096657374709 13.466249765253194
Ni 15.325760616986594 13.907345384656557 15.695770442568236
Ni 14.300590941132334 8.522226555018928 11.983531196123138
Ni 12.263509638389065 9.260452103742889 13.259955224653417
Ni 12.012317520650694 11.704425986662933 13.282223850816166
Ni 12.123170301342643 14.111773098100928 12.33137583090482
Ni 14.429272763187674 13.931564297949107 12.818832933988599
Ni 9.92661293853935 15.308253145552278 12.77306375268265
Ni 16.754645381743078 10.974394384727798 13.000035208761002
Ni 9.940280135353357 10.44790653118113 13.282452202114117
Ni 13.879109714814247 16.224171902264477 12.568161989176907
Ni 15.590255904010744 11.599591874050654 15.002510524181174
Ni 9.78568519291302 15.943550606013892 15.036870020493986
Ni 8.699726055626602 14.008612874836452 14.406351476543705
Ni 10.0480042605229 12.914103724883404 12.808575387810862
Ni 11.35873797508095 14.04749945694604 14.569062537313052
Ni 13.375689034231916 10.505074743217396 15.0458223389449
Ni 11.786562628787937 16.355234967769878 13.733094343583915
Ni 15.141091692054363 9.456939633700411 13.934059480676654
Ni 11.106884862441072 10.031232066184126 15.22924375598153
Ni 9.837378466015807 12.068499502737023 15.059316371244108
Ni 13.514330236556928 12.878830434029274 14.708631298604733
Ni 13.596123292874765 15.294920355052376 14.743858336270762
Ni 10.292842697885396 14.022283486202904 16.538810961076912
Ni 11.833461635738326 12.05473498270493 16.178078704898496
Ni 14.185549650297133 12.015609956645212 16.838272443844904
Ni 12.945727557198433 14.041544530125535 16.69727639392971
Ni 11.791276893824529 15.949922874709662 16.127954686212753
