8
Energy = -27.56764717 eV
Ni 10.118254174304214 9.11627963358173 9.815554185852255
Ni 9.17730990011765 7.117811111882633 10.108260680189524
Ni 9.21059135028526 8.142246855825848 7.751860113650097
Ni 9.44949753268 10.48491929008452 8.188507556809103
Ni 7.776306122894159 6.385823063146129 8.542049399267514
Ni 7.772439481737049 8.834822654587542 9.206857241953058
Ni 7.569104551933587 9.985526523216366 7.112053611600074
Ni 6.841883308540151 7.878613645743799 7.169296773089979
