       N       E                     dE             d eps       ncg     rms          rms(c)
DAV:   1     0.165213018789E+04    0.16521E+04   -0.31635E+04   496   0.559E+02
DAV:   2     0.458216629821E+03   -0.11939E+04   -0.10547E+04   896   0.123E+02
DAV:   3    -0.221625512347E+01   -0.46043E+03   -0.42272E+03   680   0.887E+01
DAV:   4    -0.322495015484E+02   -0.30033E+02   -0.29535E+02   560   0.257E+01
DAV:   5    -0.326838347484E+02   -0.43433E+00   -0.43382E+00   568   0.368E+00    0.235E+01
DAV:   6    -0.867524119934E+01    0.24009E+02   -0.72113E+01   504   0.157E+01    0.121E+01
DAV:   7    -0.359399778567E+01    0.50812E+01   -0.46597E+00   528   0.488E+00    0.703E+00
DAV:   8    -0.711331304019E+01   -0.35193E+01   -0.18145E+00   532   0.285E+00    0.358E+00
DAV:   9    -0.114530604412E+02   -0.43397E+01   -0.11797E+00   536   0.198E+00    0.209E+00
DAV:  10    -0.186510310927E+02   -0.71980E+01   -0.28419E+00   504   0.292E+00    0.139E+00
DAV:  11    -0.250125216533E+02   -0.63615E+01   -0.28832E+00   504   0.244E+00    0.922E-01
DAV:  12    -0.291015546714E+02   -0.40890E+01   -0.13275E+00   504   0.155E+00    0.181E+00
DAV:  13    -0.291866339156E+02   -0.85079E-01   -0.26995E-02   576   0.313E-01    0.171E+00
DAV:  14    -0.298834674238E+02   -0.69683E+00   -0.83190E-02   528   0.692E-01    0.156E+00
DAV:  15    -0.306590771651E+02   -0.77561E+00   -0.16571E-01   504   0.106E+00    0.111E+00
DAV:  16    -0.312669692123E+02   -0.60789E+00   -0.12984E-01   520   0.990E-01    0.573E-01
DAV:  17    -0.316936636100E+02   -0.42669E+00   -0.41652E-02   524   0.612E-01    0.265E-01
DAV:  18    -0.320706599135E+02   -0.37700E+00   -0.31774E-02   516   0.515E-01    0.193E-01
DAV:  19    -0.321432376396E+02   -0.72578E-01   -0.54851E-03   524   0.188E-01    0.143E-01
DAV:  20    -0.321664852479E+02   -0.23248E-01   -0.17625E-03   520   0.155E-01    0.708E-02
DAV:  21    -0.321842161530E+02   -0.17731E-01   -0.12987E-03   468   0.967E-02    0.293E-02
DAV:  22    -0.321913716405E+02   -0.71555E-02   -0.40057E-04   364   0.315E-02    0.218E-02
DAV:  23    -0.321938283899E+02   -0.24567E-02   -0.15670E-04   340   0.174E-02    0.118E-02
DAV:  24    -0.321949737623E+02   -0.11454E-02   -0.20059E-04   360   0.213E-02    0.197E-02
DAV:  25    -0.321952765877E+02   -0.30283E-03   -0.14339E-05   332   0.120E-02    0.136E-02
DAV:  26    -0.321957116756E+02   -0.43509E-03   -0.46834E-05   352   0.260E-02    0.246E-03
DAV:  27    -0.321958721798E+02   -0.16050E-03   -0.11125E-05   340   0.723E-03    0.341E-03
DAV:  28    -0.321959217650E+02   -0.49585E-04   -0.23411E-06   332   0.280E-03
   1 F= -.32195922E+02 E0= -.32195922E+02  d E =-.321959E+02  mag=     0.9973
       N       E                     dE             d eps       ncg     rms          rms(c)
DAV:   1    -0.322313043800E+02   -0.35432E-01   -0.25618E+00   520   0.384E+00    0.143E-01
DAV:   2    -0.322325180978E+02   -0.12137E-02   -0.12076E-02   524   0.364E-01    0.103E-01
DAV:   3    -0.322324891513E+02    0.28946E-04   -0.23296E-04   384   0.502E-02
   2 F= -.32232489E+02 E0= -.32232489E+02  d E =-.365674E-01  mag=     0.9987
       N       E                     dE             d eps       ncg     rms          rms(c)
DAV:   1    -0.323143071406E+02   -0.81789E-01   -0.23115E+01   508   0.115E+01    0.401E-01
DAV:   2    -0.323248410421E+02   -0.10534E-01   -0.10817E-01   524   0.109E+00    0.299E-01
DAV:   3    -0.323245424814E+02    0.29856E-03   -0.20214E-03   528   0.145E-01    0.177E-01
DAV:   4    -0.323243768044E+02    0.16568E-03   -0.88848E-04   524   0.825E-02    0.268E-02
DAV:   5    -0.323243920518E+02   -0.15247E-04   -0.39876E-05   336   0.229E-02
   3 F= -.32324392E+02 E0= -.32324392E+02  d E =-.128470E+00  mag=     0.9996
       N       E                     dE             d eps       ncg     rms          rms(c)
DAV:   1    -0.323967488748E+02   -0.72372E-01   -0.92615E+01   496   0.231E+01    0.694E-01
DAV:   2    -0.324388348644E+02   -0.42086E-01   -0.42860E-01   512   0.219E+00    0.561E-01
DAV:   3    -0.324380061478E+02    0.82872E-03   -0.72105E-03   524   0.273E-01    0.373E-01
DAV:   4    -0.324372348402E+02    0.77131E-03   -0.43175E-03   524   0.175E-01    0.707E-02
DAV:   5    -0.324372752264E+02   -0.40386E-04   -0.12389E-04   360   0.476E-02
   4 F= -.32437275E+02 E0= -.32437275E+02  d E =-.241353E+00  mag=     0.9999
       N       E                     dE             d eps       ncg     rms          rms(c)
DAV:   1    -0.322662495653E+02    0.17099E+00   -0.37548E+02   496   0.471E+01    0.112E+00
DAV:   2    -0.324387826841E+02   -0.17253E+00   -0.17478E+00   516   0.451E+00    0.103E+00
DAV:   3    -0.324377596704E+02    0.10230E-02   -0.27118E-02   552   0.533E-01    0.766E-01
DAV:   4    -0.324336775717E+02    0.40821E-02   -0.13430E-02   532   0.312E-01    0.300E-01
DAV:   5    -0.324339650678E+02   -0.28750E-03   -0.15416E-03   532   0.126E-01    0.931E-02
DAV:   6    -0.324340394255E+02   -0.74358E-04   -0.25756E-04   396   0.407E-02
   5 F= -.32434039E+02 E0= -.32434039E+02  d E =-.238118E+00  mag=     1.0000
       N       E                     dE             d eps       ncg     rms          rms(c)
DAV:   1    -0.324300535890E+02    0.39115E-02   -0.84209E+01   496   0.220E+01    0.630E-01
DAV:   2    -0.324704852206E+02   -0.40432E-01   -0.41003E-01   544   0.212E+00    0.369E-01
DAV:   3    -0.324699151951E+02    0.57003E-03   -0.72272E-03   544   0.265E-01    0.242E-01
DAV:   4    -0.324698586985E+02    0.56497E-04   -0.31540E-03   544   0.151E-01    0.493E-02
DAV:   5    -0.324699335417E+02   -0.74843E-04   -0.12043E-04   368   0.406E-02
   6 F= -.32469934E+02 E0= -.32469934E+02  d E =-.274012E+00  mag=     1.0000
       N       E                     dE             d eps       ncg     rms          rms(c)
DAV:   1    -0.324926964690E+02   -0.22838E-01   -0.99192E+00   512   0.756E+00    0.145E-01
DAV:   2    -0.324974546049E+02   -0.47581E-02   -0.47051E-02   544   0.728E-01    0.130E-01
DAV:   3    -0.324974267870E+02    0.27818E-04   -0.74055E-04   544   0.890E-02
   7 F= -.32497427E+02 E0= -.32497427E+02  d E =-.274932E-01  mag=     1.0000
       N       E                     dE             d eps       ncg     rms          rms(c)
DAV:   1    -0.325122752911E+02   -0.14821E-01   -0.89685E+01   496   0.228E+01    0.432E-01
DAV:   2    -0.325544949079E+02   -0.42220E-01   -0.42310E-01   544   0.219E+00    0.406E-01
DAV:   3    -0.325541561643E+02    0.33874E-03   -0.65432E-03   552   0.261E-01    0.300E-01
DAV:   4    -0.325529803786E+02    0.11758E-02   -0.29925E-03   540   0.148E-01    0.144E-01
DAV:   5    -0.325529973154E+02   -0.16937E-04   -0.88553E-04   544   0.853E-02
   8 F= -.32552997E+02 E0= -.32552997E+02  d E =-.830638E-01  mag=     1.0000
       N       E                     dE             d eps       ncg     rms          rms(c)
DAV:   1    -0.323823259757E+02    0.17065E+00   -0.36372E+02   496   0.463E+01    0.840E-01
DAV:   2    -0.325571151449E+02   -0.17479E+00   -0.17513E+00   540   0.450E+00    0.779E-01
DAV:   3    -0.325566384955E+02    0.47665E-03   -0.27206E-02   544   0.535E-01    0.560E-01
DAV:   4    -0.325528753378E+02    0.37632E-02   -0.73154E-03   532   0.240E-01    0.330E-01
DAV:   5    -0.325526568243E+02    0.21851E-03   -0.44747E-03   536   0.174E-01    0.108E-01
DAV:   6    -0.325527685702E+02   -0.11175E-03   -0.14226E-04   348   0.325E-02    0.641E-02
DAV:   7    -0.325529410451E+02   -0.17247E-03   -0.12855E-04   368   0.308E-02    0.235E-02
DAV:   8    -0.325530923926E+02   -0.15135E-03   -0.27101E-05   352   0.158E-02    0.909E-03
DAV:   9    -0.325532602816E+02   -0.16789E-03   -0.10681E-05   360   0.870E-03    0.323E-03
DAV:  10    -0.325533876068E+02   -0.12733E-03   -0.35344E-06   352   0.398E-03    0.208E-03
DAV:  11    -0.325535222816E+02   -0.13467E-03   -0.42279E-06   360   0.338E-03    0.163E-03
DAV:  12    -0.325536199568E+02   -0.97675E-04   -0.28144E-06   352   0.212E-03
   9 F= -.32553620E+02 E0= -.32553620E+02  d E =-.836864E-01  mag=     1.0000
       N       E                     dE             d eps       ncg     rms          rms(c)
DAV:   1    -0.325328936990E+02    0.20629E-01   -0.80435E+01   496   0.215E+01    0.415E-01
DAV:   2    -0.325721385122E+02   -0.39245E-01   -0.39262E-01   544   0.210E+00    0.311E-01
DAV:   3    -0.325717580685E+02    0.38044E-03   -0.62346E-03   544   0.258E-01    0.216E-01
DAV:   4    -0.325709834768E+02    0.77459E-03   -0.21775E-03   544   0.124E-01    0.902E-02
DAV:   5    -0.325710097304E+02   -0.26254E-04   -0.49415E-04   540   0.638E-02
  10 F= -.32571010E+02 E0= -.32571010E+02  d E =-.101076E+00  mag=     1.0000
       N       E                     dE             d eps       ncg     rms          rms(c)
DAV:   1    -0.325885044987E+02   -0.17521E-01   -0.42838E+01   496   0.157E+01    0.331E-01
DAV:   2    -0.326089941922E+02   -0.20490E-01   -0.20553E-01   540   0.151E+00    0.213E-01
DAV:   3    -0.326087512705E+02    0.24292E-03   -0.33112E-03   540   0.194E-01    0.152E-01
DAV:   4    -0.326084271488E+02    0.32412E-03   -0.13179E-03   536   0.935E-02    0.478E-02
DAV:   5    -0.326084698907E+02   -0.42742E-04   -0.10683E-04   360   0.332E-02
  11 F= -.32608470E+02 E0= -.32608470E+02  d E =-.374602E-01  mag=     1.0000
       N       E                     dE             d eps       ncg     rms          rms(c)
DAV:   1    -0.325477307263E+02    0.60696E-01   -0.17993E+02   496   0.323E+01    0.807E-01
DAV:   2    -0.326353396659E+02   -0.87609E-01   -0.88450E-01   540   0.314E+00    0.422E-01
DAV:   3    -0.326340338574E+02    0.13058E-02   -0.14517E-02   544   0.408E-01    0.294E-01
DAV:   4    -0.326328586752E+02    0.11752E-02   -0.49370E-03   544   0.186E-01    0.828E-02
DAV:   5    -0.326329892693E+02   -0.13059E-03   -0.23950E-04   368   0.543E-02    0.332E-02
DAV:   6    -0.326331068202E+02   -0.11755E-03   -0.64382E-05   356   0.216E-02    0.183E-02
DAV:   7    -0.326332506401E+02   -0.14382E-03   -0.41912E-05   360   0.152E-02    0.693E-03
DAV:   8    -0.326333952599E+02   -0.14462E-03   -0.73444E-06   352   0.666E-03    0.280E-03
DAV:   9    -0.326335103927E+02   -0.11513E-03   -0.31688E-06   352   0.335E-03    0.167E-03
DAV:  10    -0.326336032438E+02   -0.92851E-04   -0.15712E-06   352   0.182E-03
  12 F= -.32633603E+02 E0= -.32633603E+02  d E =-.625935E-01  mag=     1.0000
       N       E                     dE             d eps       ncg     rms          rms(c)
DAV:   1    -0.326325791865E+02    0.93121E-03   -0.44426E+00   524   0.506E+00    0.104E-01
DAV:   2    -0.326346838758E+02   -0.21047E-02   -0.21011E-02   544   0.485E-01    0.789E-02
DAV:   3    -0.326346705984E+02    0.13277E-04   -0.31559E-04   440   0.613E-02
  13 F= -.32634671E+02 E0= -.32634671E+02  d E =-.636609E-01  mag=     1.0000
       N       E                     dE             d eps       ncg     rms          rms(c)
DAV:   1    -0.326405099415E+02   -0.58261E-02   -0.14488E+01   524   0.913E+00    0.199E-01
DAV:   2    -0.326467745972E+02   -0.62647E-02   -0.71163E-02   540   0.906E-01    0.144E-01
DAV:   3    -0.326465863350E+02    0.18826E-03   -0.13544E-03   544   0.142E-01    0.928E-02
DAV:   4    -0.326464241455E+02    0.16219E-03   -0.26965E-04   368   0.448E-02    0.483E-02
DAV:   5    -0.326464347435E+02   -0.10598E-04   -0.19943E-04   368   0.386E-02
  14 F= -.32646435E+02 E0= -.32646435E+02  d E =-.117641E-01  mag=     1.0000
       N       E                     dE             d eps       ncg     rms          rms(c)
DAV:   1    -0.326407729159E+02    0.56512E-02   -0.24612E+01   500   0.119E+01    0.309E-01
DAV:   2    -0.326502332309E+02   -0.94603E-02   -0.12532E-01   536   0.122E+00    0.213E-01
DAV:   3    -0.326500943085E+02    0.13892E-03   -0.29020E-03   536   0.237E-01    0.126E-01
DAV:   4    -0.326502086454E+02   -0.11434E-03   -0.54980E-04   528   0.688E-02    0.678E-02
DAV:   5    -0.326506084438E+02   -0.39980E-03   -0.27334E-04   376   0.458E-02    0.208E-02
DAV:   6    -0.326509327018E+02   -0.32426E-03   -0.25731E-05   348   0.195E-02    0.104E-02
DAV:   7    -0.326514013846E+02   -0.46868E-03   -0.14958E-05   356   0.798E-03    0.571E-03
DAV:   8    -0.326518184877E+02   -0.41710E-03   -0.10824E-05   368   0.710E-03    0.318E-03
DAV:   9    -0.326521653089E+02   -0.34682E-03   -0.73008E-06   368   0.345E-03    0.220E-03
DAV:  10    -0.326524324150E+02   -0.26711E-03   -0.50938E-06   368   0.255E-03    0.142E-03
DAV:  11    -0.326526880152E+02   -0.25560E-03   -0.84671E-06   364   0.331E-03    0.100E-03
DAV:  12    -0.326527367369E+02   -0.48722E-04   -0.10893E-06   360   0.167E-03
  15 F= -.32652737E+02 E0= -.32652737E+02  d E =-.180661E-01  mag=     1.0000
       N       E                     dE             d eps       ncg     rms          rms(c)
DAV:   1    -0.326551759585E+02   -0.24879E-02   -0.15993E+01   504   0.959E+00    0.298E-01
DAV:   2    -0.326586284292E+02   -0.34525E-02   -0.90309E-02   540   0.113E+00    0.219E-01
DAV:   3    -0.326587482740E+02   -0.11984E-03   -0.33630E-03   544   0.274E-01    0.103E-01
DAV:   4    -0.326590658891E+02   -0.31762E-03   -0.50125E-04   440   0.832E-02    0.614E-02
DAV:   5    -0.326594514903E+02   -0.38560E-03   -0.30518E-04   376   0.456E-02    0.228E-02
DAV:   6    -0.326598176473E+02   -0.36616E-03   -0.47140E-05   368   0.226E-02    0.102E-02
DAV:   7    -0.326603698163E+02   -0.55217E-03   -0.13762E-05   336   0.815E-03    0.645E-03
DAV:   8    -0.326610699967E+02   -0.70018E-03   -0.26375E-05   368   0.741E-03    0.402E-03
DAV:   9    -0.326613482896E+02   -0.27829E-03   -0.56331E-06   360   0.366E-03    0.264E-03
DAV:  10    -0.326616097867E+02   -0.26150E-03   -0.54668E-06   368   0.419E-03    0.195E-03
DAV:  11    -0.326618778073E+02   -0.26802E-03   -0.71026E-06   364   0.344E-03    0.127E-03
DAV:  12    -0.326619616571E+02   -0.83850E-04   -0.16910E-06   352   0.237E-03
  16 F= -.32661962E+02 E0= -.32661962E+02  d E =-.922492E-02  mag=     1.0000
       N       E                     dE             d eps       ncg     rms          rms(c)
DAV:   1    -0.326082664011E+02    0.53611E-01   -0.14469E+02   496   0.290E+01    0.670E-01
DAV:   2    -0.326650676734E+02   -0.56801E-01   -0.74624E-01   520   0.305E+00    0.521E-01
DAV:   3    -0.326649029602E+02    0.16471E-03   -0.17817E-02   544   0.467E-01    0.302E-01
DAV:   4    -0.326652241764E+02   -0.32122E-03   -0.33383E-03   512   0.140E-01    0.167E-01
DAV:   5    -0.326666180451E+02   -0.13939E-02   -0.15625E-03   544   0.112E-01    0.549E-02
DAV:   6    -0.326681130183E+02   -0.14950E-02   -0.10983E-04   368   0.314E-02    0.261E-02
DAV:   7    -0.326698948568E+02   -0.17818E-02   -0.52928E-05   348   0.190E-02    0.153E-02
DAV:   8    -0.326715495995E+02   -0.16547E-02   -0.55936E-05   364   0.127E-02    0.863E-03
DAV:   9    -0.326726141590E+02   -0.10646E-02   -0.33489E-05   368   0.108E-02    0.703E-03
DAV:  10    -0.326730749597E+02   -0.46080E-03   -0.10177E-05   368   0.504E-03    0.399E-03
DAV:  11    -0.326737782913E+02   -0.70333E-03   -0.22048E-05   364   0.729E-03    0.281E-03
DAV:  12    -0.326740413823E+02   -0.26309E-03   -0.74154E-06   368   0.331E-03    0.153E-03
DAV:  13    -0.326741614244E+02   -0.12004E-03   -0.32315E-06   348   0.269E-03    0.967E-04
DAV:  14    -0.326742185291E+02   -0.57105E-04   -0.22572E-06   352   0.174E-03
  17 F= -.32674219E+02 E0= -.32674219E+02  d E =-.214818E-01  mag=     1.0000
       N       E                     dE             d eps       ncg     rms          rms(c)
DAV:   1    -0.326768922347E+02   -0.27308E-02   -0.65528E+00   528   0.609E+00    0.143E-01
DAV:   2    -0.326792204460E+02   -0.23282E-02   -0.34338E-02   536   0.647E-01    0.111E-01
DAV:   3    -0.326790464597E+02    0.17399E-03   -0.82820E-04   544   0.103E-01    0.621E-02
DAV:   4    -0.326790065361E+02    0.39924E-04   -0.14739E-04   360   0.284E-02
  18 F= -.32679007E+02 E0= -.32679007E+02  d E =-.478801E-02  mag=     1.0000
       N       E                     dE             d eps       ncg     rms          rms(c)
DAV:   1    -0.326632236294E+02    0.15823E-01   -0.59128E+01   496   0.183E+01    0.346E-01
DAV:   2    -0.326894674858E+02   -0.26244E-01   -0.29723E-01   508   0.185E+00    0.290E-01
DAV:   3    -0.326889277607E+02    0.53973E-03   -0.54121E-03   544   0.249E-01    0.190E-01
DAV:   4    -0.326885137389E+02    0.41402E-03   -0.11437E-03   512   0.876E-02    0.102E-01
DAV:   5    -0.326889020800E+02   -0.38834E-03   -0.73119E-04   540   0.681E-02    0.284E-02
DAV:   6    -0.326894415454E+02   -0.53947E-03   -0.20411E-05   368   0.111E-02    0.184E-02
DAV:   7    -0.326902630900E+02   -0.82154E-03   -0.39594E-05   360   0.122E-02    0.681E-03
DAV:   8    -0.326907645745E+02   -0.50148E-03   -0.13772E-05   368   0.699E-03    0.412E-03
DAV:   9    -0.326910589821E+02   -0.29441E-03   -0.50968E-06   360   0.336E-03    0.283E-03
DAV:  10    -0.326913854169E+02   -0.32643E-03   -0.10603E-05   364   0.433E-03    0.182E-03
DAV:  11    -0.326915377367E+02   -0.15232E-03   -0.46497E-06   360   0.250E-03    0.970E-04
DAV:  12    -0.326915914539E+02   -0.53717E-04   -0.16596E-06   348   0.166E-03
  19 F= -.32691591E+02 E0= -.32691591E+02  d E =-.173729E-01  mag=     1.0000
       N       E                     dE             d eps       ncg     rms          rms(c)
DAV:   1    -0.325652474324E+02    0.12629E+00   -0.23872E+02   496   0.371E+01    0.663E-01
DAV:   2    -0.326823167134E+02   -0.11707E+00   -0.11885E+00   544   0.369E+00    0.537E-01
DAV:   3    -0.326814411289E+02    0.87558E-03   -0.18818E-02   544   0.450E-01    0.379E-01
DAV:   4    -0.326791936334E+02    0.22475E-02   -0.41739E-03   540   0.168E-01    0.202E-01
DAV:   5    -0.326791129531E+02    0.80680E-04   -0.28578E-03   532   0.137E-01    0.592E-02
DAV:   6    -0.326795014526E+02   -0.38850E-03   -0.83020E-05   368   0.248E-02    0.394E-02
DAV:   7    -0.326799593563E+02   -0.45790E-03   -0.82874E-05   368   0.214E-02    0.129E-02
DAV:   8    -0.326802722405E+02   -0.31288E-03   -0.18447E-05   364   0.112E-02    0.437E-03
DAV:   9    -0.326804720689E+02   -0.19983E-03   -0.55546E-06   360   0.530E-03    0.311E-03
DAV:  10    -0.326806328040E+02   -0.16074E-03   -0.34420E-06   348   0.300E-03    0.194E-03
DAV:  11    -0.326808350786E+02   -0.20227E-03   -0.79117E-06   364   0.339E-03    0.155E-03
DAV:  12    -0.326809122384E+02   -0.77160E-04   -0.25236E-06   352   0.216E-03
  20 F= -.32680912E+02 E0= -.32680912E+02  d E =-.669371E-02  mag=     1.0000
       N       E                     dE             d eps       ncg     rms          rms(c)
DAV:   1    -0.326331975191E+02    0.47638E-01   -0.12624E+02   496   0.269E+01    0.458E-01
DAV:   2    -0.326948374681E+02   -0.61640E-01   -0.62313E-01   544   0.264E+00    0.371E-01
DAV:   3    -0.326942372248E+02    0.60024E-03   -0.97952E-03   544   0.326E-01    0.268E-01
DAV:   4    -0.326929397878E+02    0.12974E-02   -0.21875E-03   540   0.126E-01    0.141E-01
DAV:   5    -0.326928102212E+02    0.12957E-03   -0.17263E-03   536   0.107E-01    0.414E-02
DAV:   6    -0.326930040744E+02   -0.19385E-03   -0.55988E-05   376   0.194E-02    0.263E-02
DAV:   7    -0.326932538847E+02   -0.24981E-03   -0.52290E-05   368   0.171E-02    0.917E-03
DAV:   8    -0.326934711148E+02   -0.21723E-03   -0.16750E-05   368   0.930E-03    0.299E-03
DAV:   9    -0.326936018762E+02   -0.13076E-03   -0.41681E-06   360   0.420E-03    0.216E-03
DAV:  10    -0.326937076461E+02   -0.10577E-03   -0.26555E-06   352   0.244E-03    0.135E-03
DAV:  11    -0.326938543865E+02   -0.14674E-03   -0.73395E-06   364   0.270E-03    0.106E-03
DAV:  12    -0.326938961114E+02   -0.41725E-04   -0.12568E-06   360   0.163E-03
  21 F= -.32693896E+02 E0= -.32693896E+02  d E =-.196776E-01  mag=     1.0000
       N       E                     dE             d eps       ncg     rms          rms(c)
DAV:   1    -0.327016664337E+02   -0.78120E-02   -0.80343E+00   516   0.677E+00    0.120E-01
DAV:   2    -0.327053884798E+02   -0.37220E-02   -0.39241E-02   540   0.667E-01    0.991E-02
DAV:   3    -0.327053152557E+02    0.73224E-04   -0.64995E-04   544   0.859E-02
  22 F= -.32705315E+02 E0= -.32705315E+02  d E =-.114191E-01  mag=     1.0000
       N       E                     dE             d eps       ncg     rms          rms(c)
DAV:   1    -0.326919117517E+02    0.13477E-01   -0.72634E+01   496   0.204E+01    0.392E-01
DAV:   2    -0.327265095946E+02   -0.34598E-01   -0.35513E-01   540   0.201E+00    0.311E-01
DAV:   3    -0.327259529370E+02    0.55666E-03   -0.57638E-03   544   0.253E-01    0.217E-01
DAV:   4    -0.327252149889E+02    0.73795E-03   -0.19661E-03   540   0.114E-01    0.936E-02
DAV:   5    -0.327254189204E+02   -0.20393E-03   -0.61569E-04   536   0.659E-02    0.321E-02
DAV:   6    -0.327256825551E+02   -0.26363E-03   -0.37189E-05   360   0.152E-02    0.200E-02
DAV:   7    -0.327259950777E+02   -0.31252E-03   -0.40227E-05   368   0.148E-02    0.574E-03
DAV:   8    -0.327262134350E+02   -0.21836E-03   -0.80006E-06   368   0.659E-03    0.253E-03
DAV:   9    -0.327263354646E+02   -0.12203E-03   -0.23147E-06   352   0.319E-03    0.195E-03
DAV:  10    -0.327264644189E+02   -0.12895E-03   -0.27677E-06   352   0.214E-03    0.114E-03
DAV:  11    -0.327266058658E+02   -0.14145E-03   -0.56977E-06   360   0.238E-03    0.791E-04
DAV:  12    -0.327266351151E+02   -0.29249E-04   -0.54804E-07   352   0.107E-03
  23 F= -.32726635E+02 E0= -.32726635E+02  d E =-.327390E-01  mag=     1.0000
       N       E                     dE             d eps       ncg     rms          rms(c)
DAV:   1    -0.325604366762E+02    0.16617E+00   -0.29420E+02   496   0.414E+01    0.917E-01
DAV:   2    -0.327067130756E+02   -0.14628E+00   -0.14773E+00   532   0.412E+00    0.610E-01
DAV:   3    -0.327049678124E+02    0.17453E-02   -0.23977E-02   544   0.521E-01    0.407E-01
DAV:   4    -0.327022847584E+02    0.26831E-02   -0.65890E-03   540   0.209E-01    0.180E-01
DAV:   5    -0.327024476333E+02   -0.16287E-03   -0.17584E-03   524   0.113E-01    0.544E-02
DAV:   6    -0.327027516573E+02   -0.30402E-03   -0.12252E-04   376   0.287E-02    0.346E-02
DAV:   7    -0.327030846137E+02   -0.33296E-03   -0.73651E-05   368   0.213E-02    0.104E-02
DAV:   8    -0.327033258935E+02   -0.24128E-03   -0.12418E-05   368   0.886E-03    0.364E-03
DAV:   9    -0.327034776721E+02   -0.15178E-03   -0.36800E-06   348   0.439E-03    0.232E-03
DAV:  10    -0.327036003503E+02   -0.12268E-03   -0.24456E-06   348   0.238E-03    0.156E-03
DAV:  11    -0.327038109100E+02   -0.21056E-03   -0.92110E-06   360   0.328E-03    0.118E-03
DAV:  12    -0.327038651980E+02   -0.54288E-04   -0.13081E-06   352   0.178E-03
  24 F= -.32703865E+02 E0= -.32703865E+02  d E =-.996909E-02  mag=     1.0000
       N       E                     dE             d eps       ncg     rms          rms(c)
DAV:   1    -0.326490995399E+02    0.54711E-01   -0.17053E+02   496   0.315E+01    0.566E-01
DAV:   2    -0.327311541943E+02   -0.82055E-01   -0.82581E-01   544   0.306E+00    0.495E-01
DAV:   3    -0.327304102981E+02    0.74390E-03   -0.12905E-02   544   0.376E-01    0.356E-01
DAV:   4    -0.327284946675E+02    0.19156E-02   -0.36422E-03   536   0.160E-01    0.187E-01
DAV:   5    -0.327284061388E+02    0.88529E-04   -0.20410E-03   532   0.118E-01    0.579E-02
DAV:   6    -0.327285636240E+02   -0.15749E-03   -0.65645E-05   368   0.212E-02    0.368E-02
DAV:   7    -0.327287690379E+02   -0.20541E-03   -0.74982E-05   364   0.213E-02    0.118E-02
DAV:   8    -0.327289267869E+02   -0.15775E-03   -0.17432E-05   352   0.117E-02    0.345E-03
DAV:   9    -0.327290439025E+02   -0.11712E-03   -0.54339E-06   352   0.551E-03    0.216E-03
DAV:  10    -0.327291214866E+02   -0.77584E-04   -0.18558E-06   348   0.251E-03
  25 F= -.32729121E+02 E0= -.32729121E+02  d E =-.352254E-01  mag=     1.0000
       N       E                     dE             d eps       ncg     rms          rms(c)
DAV:   1    -0.327314340784E+02   -0.23902E-02   -0.24034E+01   504   0.118E+01    0.205E-01
DAV:   2    -0.327427426625E+02   -0.11309E-01   -0.11322E-01   540   0.114E+00    0.180E-01
DAV:   3    -0.327426429987E+02    0.99664E-04   -0.17946E-03   544   0.142E-01    0.129E-01
DAV:   4    -0.327423873090E+02    0.25569E-03   -0.62592E-04   528   0.679E-02    0.624E-02
DAV:   5    -0.327424128401E+02   -0.25531E-04   -0.25596E-04   368   0.440E-02
  26 F= -.32742413E+02 E0= -.32742413E+02  d E =-.132914E-01  mag=     1.0000
       N       E                     dE             d eps       ncg     rms          rms(c)
DAV:   1    -0.327281567303E+02    0.14231E-01   -0.41080E+01   496   0.155E+01    0.275E-01
DAV:   2    -0.327475499706E+02   -0.19393E-01   -0.19433E-01   540   0.149E+00    0.232E-01
DAV:   3    -0.327473866483E+02    0.16332E-03   -0.30727E-03   540   0.186E-01    0.163E-01
DAV:   4    -0.327469654242E+02    0.42122E-03   -0.10077E-03   536   0.868E-02    0.777E-02
DAV:   5    -0.327469941589E+02   -0.28735E-04   -0.41856E-04   536   0.543E-02
  27 F= -.32746994E+02 E0= -.32746994E+02  d E =-.178727E-01  mag=     1.0000
       N       E                     dE             d eps       ncg     rms          rms(c)
DAV:   1    -0.327407787173E+02    0.61867E-02   -0.34635E+01   496   0.142E+01    0.208E-01
DAV:   2    -0.327570284688E+02   -0.16250E-01   -0.16291E-01   544   0.136E+00    0.195E-01
DAV:   3    -0.327568948447E+02    0.13362E-03   -0.25022E-03   544   0.165E-01    0.145E-01
DAV:   4    -0.327565011632E+02    0.39368E-03   -0.59912E-04   540   0.656E-02    0.834E-02
DAV:   5    -0.327564651978E+02    0.35965E-04   -0.64817E-04   544   0.641E-02
  28 F= -.32756465E+02 E0= -.32756465E+02  d E =-.947104E-02  mag=     1.0000
       N       E                     dE             d eps       ncg     rms          rms(c)
DAV:   1    -0.327458047413E+02    0.10696E-01   -0.27495E+01   496   0.126E+01    0.188E-01
DAV:   2    -0.327587409018E+02   -0.12936E-01   -0.12966E-01   536   0.121E+00    0.171E-01
DAV:   3    -0.327586432748E+02    0.97627E-04   -0.19898E-03   544   0.146E-01    0.126E-01
DAV:   4    -0.327583486439E+02    0.29463E-03   -0.47740E-04   540   0.589E-02    0.714E-02
DAV:   5    -0.327583420290E+02    0.66149E-05   -0.47200E-04   544   0.549E-02
  29 F= -.32758342E+02 E0= -.32758342E+02  d E =-.113479E-01  mag=     1.0000
       N       E                     dE             d eps       ncg     rms          rms(c)
DAV:   1    -0.327566031115E+02    0.17455E-02   -0.23464E+01   496   0.116E+01    0.208E-01
DAV:   2    -0.327677451920E+02   -0.11142E-01   -0.11252E-01   516   0.113E+00    0.175E-01
DAV:   3    -0.327676320378E+02    0.11315E-03   -0.17859E-03   544   0.140E-01    0.123E-01
DAV:   4    -0.327673858822E+02    0.24616E-03   -0.56982E-04   528   0.638E-02    0.581E-02
DAV:   5    -0.327674153399E+02   -0.29458E-04   -0.21079E-04   368   0.407E-02
  30 F= -.32767415E+02 E0= -.32767415E+02  d E =-.907331E-02  mag=     1.0000
       N       E                     dE             d eps       ncg     rms          rms(c)
DAV:   1    -0.327573064642E+02    0.10079E-01   -0.27459E+01   496   0.126E+01    0.229E-01
DAV:   2    -0.327702705337E+02   -0.12964E-01   -0.13153E-01   508   0.122E+00    0.190E-01
DAV:   3    -0.327701361771E+02    0.13436E-03   -0.20839E-03   544   0.151E-01    0.133E-01
DAV:   4    -0.327698418285E+02    0.29435E-03   -0.67989E-04   532   0.695E-02    0.610E-02
DAV:   5    -0.327698751235E+02   -0.33295E-04   -0.22689E-04   364   0.426E-02
  31 F= -.32769875E+02 E0= -.32769875E+02  d E =-.115331E-01  mag=     1.0000
       N       E                     dE             d eps       ncg     rms          rms(c)
DAV:   1    -0.327643950047E+02    0.54468E-02   -0.28775E+01   496   0.129E+01    0.182E-01
DAV:   2    -0.327781619270E+02   -0.13767E-01   -0.13581E-01   516   0.123E+00    0.158E-01
DAV:   3    -0.327780410237E+02    0.12090E-03   -0.20050E-03   544   0.143E-01    0.122E-01
DAV:   4    -0.327777170174E+02    0.32401E-03   -0.54380E-04   536   0.603E-02    0.617E-02
DAV:   5    -0.327777196200E+02   -0.26026E-05   -0.45146E-04   524   0.539E-02
  32 F= -.32777720E+02 E0= -.32777720E+02  d E =-.784450E-02  mag=     1.0000
       N       E                     dE             d eps       ncg     rms          rms(c)
DAV:   1    -0.327591424789E+02    0.18575E-01   -0.46308E+01   496   0.164E+01    0.238E-01
DAV:   2    -0.327813800192E+02   -0.22238E-01   -0.21938E-01   520   0.156E+00    0.202E-01
DAV:   3    -0.327811711027E+02    0.20892E-03   -0.32516E-03   536   0.182E-01    0.155E-01
DAV:   4    -0.327806292828E+02    0.54182E-03   -0.89670E-04   536   0.773E-02    0.772E-02
DAV:   5    -0.327806071273E+02    0.22155E-04   -0.67361E-04   540   0.660E-02
  33 F= -.32780607E+02 E0= -.32780607E+02  d E =-.107320E-01  mag=     1.0000
       N       E                     dE             d eps       ncg     rms          rms(c)
DAV:   1    -0.327796764176E+02    0.95287E-03   -0.16327E+01   496   0.967E+00    0.131E-01
DAV:   2    -0.327876628123E+02   -0.79864E-02   -0.78028E-02   524   0.930E-01    0.119E-01
DAV:   3    -0.327876492825E+02    0.13530E-04   -0.11604E-03   544   0.107E-01    0.903E-02
DAV:   4    -0.327875154005E+02    0.13388E-03   -0.24446E-04   400   0.427E-02    0.514E-02
DAV:   5    -0.327875631287E+02   -0.47728E-04   -0.35039E-04   540   0.488E-02
  34 F= -.32787563E+02 E0= -.32787563E+02  d E =-.695600E-02  mag=     1.0000
       N       E                     dE             d eps       ncg     rms          rms(c)
DAV:   1    -0.327292526510E+02    0.58263E-01   -0.14830E+02   496   0.293E+01    0.434E-01
DAV:   2    -0.328012582841E+02   -0.72006E-01   -0.71200E-01   540   0.282E+00    0.373E-01
DAV:   3    -0.328006809987E+02    0.57729E-03   -0.10685E-02   540   0.327E-01    0.277E-01
DAV:   4    -0.327990575054E+02    0.16235E-02   -0.22770E-03   532   0.125E-01    0.158E-01
DAV:   5    -0.327987929759E+02    0.26453E-03   -0.22596E-03   540   0.118E-01    0.493E-02
DAV:   6    -0.327989154136E+02   -0.12244E-03   -0.29664E-05   352   0.166E-02    0.333E-02
DAV:   7    -0.327990941043E+02   -0.17869E-03   -0.30576E-05   360   0.129E-02    0.115E-02
DAV:   8    -0.327992325860E+02   -0.13848E-03   -0.10997E-05   360   0.869E-03    0.343E-03
DAV:   9    -0.327993755325E+02   -0.14295E-03   -0.45834E-06   360   0.423E-03    0.224E-03
DAV:  10    -0.327994589536E+02   -0.83421E-04   -0.13714E-06   352   0.194E-03
  35 F= -.32799459E+02 E0= -.32799459E+02  d E =-.188518E-01  mag=     1.0000
       N       E                     dE             d eps       ncg     rms          rms(c)
DAV:   1    -0.327954751108E+02    0.39004E-02   -0.39208E+01   496   0.150E+01    0.197E-01
DAV:   2    -0.328141851676E+02   -0.18710E-01   -0.18647E-01   528   0.144E+00    0.184E-01
DAV:   3    -0.328140403427E+02    0.14482E-03   -0.27914E-03   544   0.169E-01    0.141E-01
DAV:   4    -0.328135919770E+02    0.44837E-03   -0.53433E-04   528   0.613E-02    0.841E-02
DAV:   5    -0.328134789430E+02    0.11303E-03   -0.82472E-04   540   0.705E-02    0.267E-02
DAV:   6    -0.328135226545E+02   -0.43712E-04   -0.88089E-06   348   0.890E-03
  36 F= -.32813523E+02 E0= -.32813523E+02  d E =-.140637E-01  mag=     1.0000
       N       E                     dE             d eps       ncg     rms          rms(c)
DAV:   1    -0.326584485971E+02    0.15503E+00   -0.35994E+02   496   0.460E+01    0.813E-01
DAV:   2    -0.328374064612E+02   -0.17896E+00   -0.17820E+00   520   0.452E+00    0.598E-01
DAV:   3    -0.328359643484E+02    0.14421E-02   -0.27398E-02   544   0.536E-01    0.412E-01
DAV:   4    -0.328325517246E+02    0.34126E-02   -0.47663E-03   524   0.180E-01    0.242E-01
DAV:   5    -0.328319060138E+02    0.64571E-03   -0.44746E-03   532   0.167E-01    0.685E-02
DAV:   6    -0.328321239118E+02   -0.21790E-03   -0.61788E-05   376   0.248E-02    0.459E-02
DAV:   7    -0.328324098306E+02   -0.28592E-03   -0.35647E-05   356   0.143E-02    0.175E-02
DAV:   8    -0.328326161629E+02   -0.20633E-03   -0.13899E-05   368   0.941E-03    0.567E-03
DAV:   9    -0.328328212411E+02   -0.20508E-03   -0.69682E-06   368   0.511E-03    0.261E-03
DAV:  10    -0.328329447961E+02   -0.12356E-03   -0.25932E-06   352   0.248E-03    0.159E-03
DAV:  11    -0.328330460421E+02   -0.10125E-03   -0.24462E-06   340   0.205E-03    0.117E-03
DAV:  12    -0.328331818733E+02   -0.13583E-03   -0.56237E-06   364   0.232E-03    0.663E-04
DAV:  13    -0.328332092426E+02   -0.27369E-04   -0.61084E-07   360   0.104E-03
  37 F= -.32833209E+02 E0= -.32833209E+02  d E =-.337503E-01  mag=     1.0000
       N       E                     dE             d eps       ncg     rms          rms(c)
DAV:   1    -0.328195580905E+02    0.13624E-01   -0.52524E+01   496   0.174E+01    0.242E-01
DAV:   2    -0.328448747724E+02   -0.25317E-01   -0.24902E-01   524   0.167E+00    0.212E-01
DAV:   3    -0.328446876490E+02    0.18712E-03   -0.36763E-03   540   0.193E-01    0.163E-01
DAV:   4    -0.328440622816E+02    0.62537E-03   -0.90332E-04   532   0.786E-02    0.867E-02
DAV:   5    -0.328439601077E+02    0.10217E-03   -0.89267E-04   540   0.751E-02    0.289E-02
DAV:   6    -0.328439786115E+02   -0.18504E-04   -0.13389E-05   340   0.109E-02
  38 F= -.32843979E+02 E0= -.32843979E+02  d E =-.107694E-01  mag=     1.0000
       N       E                     dE             d eps       ncg     rms          rms(c)
DAV:   1    -0.328199655839E+02    0.23995E-01   -0.55693E+01   496   0.179E+01    0.257E-01
DAV:   2    -0.328469345279E+02   -0.26969E-01   -0.26479E-01   528   0.172E+00    0.220E-01
DAV:   3    -0.328467303103E+02    0.20422E-03   -0.39074E-03   540   0.199E-01    0.167E-01
DAV:   4    -0.328460893218E+02    0.64099E-03   -0.10053E-03   532   0.830E-02    0.869E-02
DAV:   5    -0.328460338396E+02    0.55482E-04   -0.85943E-04   536   0.744E-02
  39 F= -.32846034E+02 E0= -.32846034E+02  d E =-.128246E-01  mag=     1.0000
       N       E                     dE             d eps       ncg     rms          rms(c)
DAV:   1    -0.328502829733E+02   -0.41937E-02   -0.92419E+00   496   0.733E+00    0.144E-01
DAV:   2    -0.328545932642E+02   -0.43103E-02   -0.43215E-02   540   0.698E-01    0.118E-01
DAV:   3    -0.328545539126E+02    0.39352E-04   -0.68411E-04   540   0.858E-02
  40 F= -.32854554E+02 E0= -.32854554E+02  d E =-.852007E-02  mag=     1.0000
       N       E                     dE             d eps       ncg     rms          rms(c)
DAV:   1    -0.328522997547E+02    0.22935E-02   -0.14293E+01   504   0.913E+00    0.193E-01
DAV:   2    -0.328587869951E+02   -0.64872E-02   -0.65878E-02   536   0.862E-01    0.160E-01
DAV:   3    -0.328586563316E+02    0.13066E-03   -0.10460E-03   544   0.105E-01    0.110E-01
DAV:   4    -0.328584733134E+02    0.18302E-03   -0.61050E-04   540   0.649E-02    0.347E-02
DAV:   5    -0.328584976046E+02   -0.24291E-04   -0.46907E-05   352   0.229E-02
  41 F= -.32858498E+02 E0= -.32858498E+02  d E =-.124638E-01  mag=     1.0000
       N       E                     dE             d eps       ncg     rms          rms(c)
DAV:   1    -0.328606014017E+02   -0.21281E-02   -0.13989E+01   496   0.901E+00    0.145E-01
DAV:   2    -0.328671698736E+02   -0.65685E-02   -0.65183E-02   544   0.861E-01    0.135E-01
DAV:   3    -0.328671018999E+02    0.67974E-04   -0.10079E-03   544   0.105E-01    0.994E-02
DAV:   4    -0.328668983399E+02    0.20356E-03   -0.35818E-04   500   0.493E-02    0.513E-02
DAV:   5    -0.328669026836E+02   -0.43436E-05   -0.21339E-04   352   0.397E-02
  42 F= -.32866903E+02 E0= -.32866903E+02  d E =-.840508E-02  mag=     1.0000
       N       E                     dE             d eps       ncg     rms          rms(c)
DAV:   1    -0.328457564143E+02    0.21142E-01   -0.57866E+01   496   0.184E+01    0.306E-01
DAV:   2    -0.328725308668E+02   -0.26774E-01   -0.26925E-01   520   0.175E+00    0.273E-01
DAV:   3    -0.328721680728E+02    0.36279E-03   -0.41583E-03   544   0.211E-01    0.198E-01
DAV:   4    -0.328712805098E+02    0.88756E-03   -0.16160E-03   540   0.103E-01    0.952E-02
DAV:   5    -0.328712340141E+02    0.46496E-04   -0.70984E-04   528   0.684E-02
  43 F= -.32871234E+02 E0= -.32871234E+02  d E =-.127364E-01  mag=     1.0000
       N       E                     dE             d eps       ncg     rms          rms(c)
DAV:   1    -0.328714625064E+02   -0.18200E-03   -0.96759E+00   496   0.747E+00    0.986E-02
DAV:   2    -0.328759978376E+02   -0.45353E-02   -0.44719E-02   544   0.711E-01    0.101E-01
DAV:   3    -0.328759680632E+02    0.29774E-04   -0.66420E-04   520   0.838E-02
  44 F= -.32875968E+02 E0= -.32875968E+02  d E =-.473405E-02  mag=     1.0000
       N       E                     dE             d eps       ncg     rms          rms(c)
DAV:   1    -0.328453622360E+02    0.30636E-01   -0.87677E+01   496   0.226E+01    0.319E-01
DAV:   2    -0.328849764782E+02   -0.39614E-01   -0.39726E-01   528   0.213E+00    0.328E-01
DAV:   3    -0.328842586429E+02    0.71784E-03   -0.58008E-03   544   0.243E-01    0.263E-01
DAV:   4    -0.328824485442E+02    0.18101E-02   -0.26956E-03   536   0.129E-01    0.136E-01
DAV:   5    -0.328822573405E+02    0.19120E-03   -0.19944E-03   520   0.112E-01    0.535E-02
DAV:   6    -0.328823248866E+02   -0.67546E-04   -0.37233E-05   340   0.176E-02
  45 F= -.32882325E+02 E0= -.32882325E+02  d E =-.110909E-01  mag=     1.0000
       N       E                     dE             d eps       ncg     rms          rms(c)
DAV:   1    -0.328852433599E+02   -0.29860E-02   -0.16444E+01   496   0.975E+00    0.146E-01
DAV:   2    -0.328929290884E+02   -0.76857E-02   -0.77207E-02   540   0.932E-01    0.139E-01
DAV:   3    -0.328928362061E+02    0.92882E-04   -0.11512E-03   544   0.110E-01    0.106E-01
DAV:   4    -0.328926241809E+02    0.21203E-03   -0.45764E-04   524   0.543E-02    0.528E-02
DAV:   5    -0.328926750830E+02   -0.50902E-04   -0.25697E-04   412   0.436E-02
  46 F= -.32892675E+02 E0= -.32892675E+02  d E =-.103502E-01  mag=     1.0000
       N       E                     dE             d eps       ncg     rms          rms(c)
DAV:   1    -0.328687490005E+02    0.23875E-01   -0.68982E+01   496   0.200E+01    0.311E-01
DAV:   2    -0.329009469668E+02   -0.32198E-01   -0.32469E-01   524   0.191E+00    0.284E-01
DAV:   3    -0.329004674362E+02    0.47953E-03   -0.48489E-03   544   0.224E-01    0.215E-01
DAV:   4    -0.328993977931E+02    0.10696E-02   -0.19602E-03   532   0.112E-01    0.102E-01
DAV:   5    -0.328993617244E+02    0.36069E-04   -0.90366E-04   544   0.791E-02
  47 F= -.32899362E+02 E0= -.32899362E+02  d E =-.170368E-01  mag=     1.0000
       N       E                     dE             d eps       ncg     rms          rms(c)
DAV:   1    -0.328926744015E+02    0.67234E-02   -0.30947E+01   496   0.134E+01    0.193E-01
DAV:   2    -0.329073054897E+02   -0.14631E-01   -0.14576E-01   544   0.129E+00    0.203E-01
DAV:   3    -0.329071848277E+02    0.12066E-03   -0.22629E-03   544   0.158E-01    0.153E-01
DAV:   4    -0.329067566746E+02    0.42815E-03   -0.65363E-04   536   0.665E-02    0.952E-02
DAV:   5    -0.329067581047E+02   -0.14301E-05   -0.80907E-04   544   0.718E-02
  48 F= -.32906758E+02 E0= -.32906758E+02  d E =-.739638E-02  mag=     1.0000
       N       E                     dE             d eps       ncg     rms          rms(c)
DAV:   1    -0.328977678536E+02    0.89888E-02   -0.23182E+01   496   0.116E+01    0.169E-01
DAV:   2    -0.329087766524E+02   -0.11009E-01   -0.10939E-01   544   0.112E+00    0.176E-01
DAV:   3    -0.329086966396E+02    0.80013E-04   -0.17000E-03   544   0.137E-01    0.133E-01
DAV:   4    -0.329083819622E+02    0.31468E-03   -0.50187E-04   520   0.583E-02    0.819E-02
DAV:   5    -0.329083870862E+02   -0.51240E-05   -0.58799E-04   536   0.617E-02
  49 F= -.32908387E+02 E0= -.32908387E+02  d E =-.902536E-02  mag=     1.0000
       N       E                     dE             d eps       ncg     rms          rms(c)
DAV:   1    -0.329069930169E+02    0.13889E-02   -0.16304E+01   496   0.969E+00    0.140E-01
DAV:   2    -0.329146826648E+02   -0.76896E-02   -0.75971E-02   532   0.930E-01    0.145E-01
DAV:   3    -0.329146331280E+02    0.49537E-04   -0.11641E-03   544   0.112E-01    0.111E-01
DAV:   4    -0.329144116669E+02    0.22146E-03   -0.35520E-04   512   0.493E-02    0.673E-02
DAV:   5    -0.329144095494E+02    0.21175E-05   -0.43571E-04   544   0.531E-02
  50 F= -.32914410E+02 E0= -.32914410E+02  d E =-.602246E-02  mag=     1.0000
       N       E                     dE             d eps       ncg     rms          rms(c)
DAV:   1    -0.329010686777E+02    0.13343E-01   -0.35346E+01   496   0.143E+01    0.209E-01
DAV:   2    -0.329176805816E+02   -0.16612E-01   -0.16461E-01   516   0.137E+00    0.214E-01
DAV:   3    -0.329175327938E+02    0.14779E-03   -0.25230E-03   544   0.166E-01    0.163E-01
DAV:   4    -0.329169806998E+02    0.55209E-03   -0.80988E-04   540   0.734E-02    0.962E-02
DAV:   5    -0.329169113031E+02    0.69397E-04   -0.83526E-04   540   0.727E-02
  51 F= -.32916911E+02 E0= -.32916911E+02  d E =-.852422E-02  mag=     1.0000
       N       E                     dE             d eps       ncg     rms          rms(c)
DAV:   1    -0.329155887396E+02    0.13920E-02   -0.11831E+01   496   0.824E+00    0.126E-01
DAV:   2    -0.329211849982E+02   -0.55963E-02   -0.55392E-02   520   0.795E-01    0.129E-01
DAV:   3    -0.329211385312E+02    0.46467E-04   -0.84778E-04   552   0.956E-02
  52 F= -.32921139E+02 E0= -.32921139E+02  d E =-.422723E-02  mag=     1.0000
       N       E                     dE             d eps       ncg     rms          rms(c)
DAV:   1    -0.329128719264E+02    0.83131E-02   -0.23627E+01   496   0.117E+01    0.204E-01
DAV:   2    -0.329236186735E+02   -0.10747E-01   -0.10773E-01   528   0.111E+00    0.209E-01
DAV:   3    -0.329234248685E+02    0.19380E-03   -0.16186E-03   544   0.130E-01    0.163E-01
DAV:   4    -0.329228848410E+02    0.54003E-03   -0.10929E-03   540   0.850E-02    0.823E-02
DAV:   5    -0.329228916685E+02   -0.68275E-05   -0.46721E-04   532   0.566E-02
  53 F= -.32922892E+02 E0= -.32922892E+02  d E =-.598037E-02  mag=     1.0000
       N       E                     dE             d eps       ncg     rms          rms(c)
DAV:   1    -0.329235650320E+02   -0.68019E-03   -0.43445E+00   496   0.501E+00    0.899E-02
DAV:   2    -0.329256308289E+02   -0.20658E-02   -0.20747E-02   544   0.484E-01    0.807E-02
DAV:   3    -0.329256327935E+02   -0.19646E-05   -0.31805E-04   472   0.605E-02
  54 F= -.32925633E+02 E0= -.32925633E+02  d E =-.274112E-02  mag=     1.0000
       N       E                     dE             d eps       ncg     rms          rms(c)
DAV:   1    -0.329257496980E+02   -0.11887E-03   -0.15668E+00   528   0.301E+00    0.681E-02
DAV:   2    -0.329264594189E+02   -0.70972E-03   -0.71959E-03   544   0.286E-01    0.603E-02
DAV:   3    -0.329264505818E+02    0.88371E-05   -0.10255E-04   336   0.348E-02
  55 F= -.32926451E+02 E0= -.32926451E+02  d E =-.355891E-02  mag=     1.0000
       N       E                     dE             d eps       ncg     rms          rms(c)
DAV:   1    -0.329269874887E+02   -0.52807E-03   -0.11600E+00   528   0.260E+00    0.470E-02
DAV:   2    -0.329275284249E+02   -0.54094E-03   -0.53318E-03   544   0.244E-01    0.362E-02
DAV:   3    -0.329275302121E+02   -0.17873E-05   -0.72448E-05   328   0.295E-02
  56 F= -.32927530E+02 E0= -.32927530E+02  d E =-.107963E-02  mag=     1.0000
       N       E                     dE             d eps       ncg     rms          rms(c)
DAV:   1    -0.329277146116E+02   -0.18619E-03   -0.30191E-01   524   0.133E+00    0.286E-02
DAV:   2    -0.329278582054E+02   -0.14359E-03   -0.13741E-03   552   0.124E-01    0.207E-02
DAV:   3    -0.329278622888E+02   -0.40834E-05   -0.18988E-05   320   0.151E-02
  57 F= -.32927862E+02 E0= -.32927862E+02  d E =-.141171E-02  mag=     1.0000
