 vasp.5.3.5 31Mar14 (build Feb 01 2018 12:10:03) gamma-only                     
  
 executed on             LinuxIFC date 2019.04.02  23:53:30
 running on   32 total cores
 distrk:  each k-point on   32 cores,    1 groups
 distr:  one band on NCORES_PER_BAND=   8 cores,    4 groups


--------------------------------------------------------------------------------------------------------


 INCAR:
 POTCAR:    PAW_PBE Ag 02Apr2005                  
 POTCAR:    PAW_PBE Ag 02Apr2005                  
   VRHFIN =Ag : s1 d10                                                          
   LEXCH  = PE                                                                  
   EATOM  =  1037.2675 eV,   76.2370 Ry                                         
                                                                                
   TITEL  = PAW_PBE Ag 02Apr2005                                                
   LULTRA =        F    use ultrasoft PP ?                                      
   IUNSCR =        1    unscreen: 0-lin 1-nonlin 2-no                           
   RPACOR =    2.000    partial core radius                                     
   POMASS =  107.868; ZVAL   =   11.000    mass and valenz                      
   RCORE  =    2.500    outmost cutoff radius                                   
   RWIGS  =    2.840; RWIGS  =    1.503    wigner-seitz radius (au A)           
   ENMAX  =  249.844; ENMIN  =  187.383 eV                                      
   ICORE  =        3    local potential                                         
   LCOR   =        T    correct aug charges                                     
   LPAW   =        T    paw PP                                                  
   EAUG   =  412.496                                                            
   DEXC   =    0.000                                                            
   RMAX   =    2.560    core radius for proj-oper                               
   RAUG   =    1.300    factor for augmentation sphere                          
   RDEP   =    2.576    radius for radial grids                                 
   RDEPT  =    2.072    core radius for aug-charge                              
                                                                                
   Atomic configuration                                                         
   12 entries                                                                   
     n  l   j            E        occ.                                          
     1  0  0.50    -25324.9161   2.0000                                         
     2  0  0.50     -3728.5341   2.0000                                         
     2  1  1.50     -3344.0404   6.0000                                         
     3  0  0.50      -683.5581   2.0000                                         
     3  1  1.50      -557.3225   6.0000                                         
     3  2  2.50      -358.3853  10.0000                                         
     4  0  0.50       -95.0341   2.0000                                         
     4  1  1.50       -58.5511   6.0000                                         
     4  2  2.50        -7.4440  10.0000                                         
     5  0  0.50        -4.4045   1.0000                                         
     5  1  0.50        -1.3606   0.0000                                         
     4  3  2.50        -1.3606   0.0000                                         
   Description                                                                  
     l       E           TYP  RCUT    TYP  RCUT                                 
     2     -7.4439781     23  2.400                                             
     2     -8.8045607     23  2.400                                             
     0     -4.4044681     23  2.400                                             
     0      1.9520038     23  2.400                                             
     1     -1.3605826     23  2.500                                             
     1     27.2116520     23  2.500                                             
     3     -4.0817478     23  2.400                                             
  local pseudopotential read in
  partial core-charges read in
  partial kinetic energy density read in
  atomic valenz-charges read in
  non local Contribution for L=           2  read in
    real space projection operators read in
  non local Contribution for L=           2  read in
    real space projection operators read in
  non local Contribution for L=           0  read in
    real space projection operators read in
  non local Contribution for L=           0  read in
    real space projection operators read in
  non local Contribution for L=           1  read in
    real space projection operators read in
  non local Contribution for L=           1  read in
    real space projection operators read in
    PAW grid and wavefunctions read in
 
   number of l-projection  operators is LMAX  =           6
   number of lm-projection operators is LMMAX =          18
 
  PAW_PBE Ag 02Apr2005                  :
 energy of atom  1       EATOM=-1037.2675
 kinetic energy error for atom=    0.0047 (will be added to EATOM!!)
 
 
 POSCAR: Al11, -29.62695812 <s> Ag </s>          
  positions in direct lattice
  velocities in cartesian coordinates
 exchange correlation table for  LEXCH =        8
   RHO(1)=    0.500       N(1)  =     2000
   RHO(2)=  100.500       N(2)  =     4000
 


--------------------------------------------------------------------------------------------------------


 ion  position               nearest neighbor table
   1  0.614  0.624  0.623-   3 2.72   8 2.78   4 2.84
   2  0.566  0.616  0.362-   6 2.72   7 2.75   4 2.85
   3  0.596  0.477  0.634-   1 2.72  11 2.77   5 2.77   8 2.90   4 2.97
   4  0.542  0.556  0.504-   7 2.77   8 2.78   1 2.84   2 2.85   6 2.92   3 2.97   5 3.04   9 3.04
                            10 3.45  11 3.47
   5  0.567  0.392  0.513-   7 2.74   3 2.77  11 2.77  10 2.79   4 3.04
   6  0.432  0.556  0.388-   2 2.72  10 2.77   9 2.77   7 2.91   4 2.92
   7  0.564  0.467  0.383-   5 2.74   2 2.75   4 2.77  10 2.79   6 2.91
   8  0.471  0.574  0.637-   9 2.75   1 2.78  11 2.78   4 2.78   3 2.90
   9  0.380  0.528  0.527-   8 2.75   6 2.77  10 2.77  11 2.80   4 3.04
  10  0.434  0.415  0.442-   6 2.77   9 2.77   5 2.79   7 2.79  11 3.11   4 3.45
  11  0.456  0.425  0.611-   3 2.77   5 2.77   8 2.78   9 2.80  10 3.11   4 3.47
 
  LATTYP: Found a simple cubic cell.
 ALAT       =    18.3143269922
  
  Lattice vectors:
  
 A1 = (  18.3143269922,   0.0000000000,   0.0000000000)
 A2 = (   0.0000000000,  18.3143269922,   0.0000000000)
 A3 = (   0.0000000000,   0.0000000000,  18.3143269922)


Analysis of symmetry for initial positions (statically):
=====================================================================
 Subroutine PRICEL returns:
 Original cell was already a primitive cell.
 

 Routine SETGRP: Setting up the symmetry group for a 
 simple cubic supercell.


 Subroutine GETGRP returns: Found  1 space group operations
 (whereof  1 operations were pure point group operations)
 out of a pool of 48 trial point group operations.


The static configuration has the point symmetry C_1 .


Analysis of symmetry for dynamics (positions and initial velocities):
=====================================================================
 Subroutine PRICEL returns:
 Original cell was already a primitive cell.
 

 Routine SETGRP: Setting up the symmetry group for a 
 simple cubic supercell.


 Subroutine GETGRP returns: Found  1 space group operations
 (whereof  1 operations were pure point group operations)
 out of a pool of 48 trial point group operations.


The dynamic configuration has the point symmetry C_1 .


Analysis of magnetic symmetry:
=====================================================================
 Subroutine PRICEL returns:
 Original cell was already a primitive cell.
 

 Subroutine MAGSYM returns: Found  1 space group operations
 (whereof  1 operations were pure point group operations)
 out of a pool of  1 trial space group operations
 (whereof  1 operations were pure point group operations)
 and found also     1 'primitive' translations


The magnetic configuration has the point symmetry C_1 .
 
 
 KPOINTS: Gamma-point only                        
  k-points in reciprocal lattice
Space group operators:
 irot       det(A)        alpha          n_x          n_y          n_z        tau_x        tau_y        tau_z
    1     1.000000     0.000000     1.000000     0.000000     0.000000     0.000000     0.000000     0.000000


--------------------------------------------------------------------------------------------------------




 Dimension of arrays:
   k-points           NKPTS =      1   k-points in BZ     NKDIM =      1   number of bands    NBANDS=     80
   number of dos      NEDOS =    301   number of ions     NIONS =     11
   non local maximal  LDIM  =      6   non local SUM 2l+1 LMDIM =     18
   total plane-waves  NPLWV = ******
   max r-space proj   IRMAX =      1   max aug-charges    IRDMAX=  10281
   dimension x,y,z NGX =   108 NGY =  108 NGZ =  108
   dimension x,y,z NGXF=   216 NGYF=  216 NGZF=  216
   support grid    NGXF=   216 NGYF=  216 NGZF=  216
   ions per type =              11
 NGX,Y,Z   is equivalent  to a cutoff of   9.80,  9.80,  9.80 a.u.
 NGXF,Y,Z  is equivalent  to a cutoff of  19.61, 19.61, 19.61 a.u.


 I would recommend the setting:
   dimension x,y,z NGX =   102 NGY =  102 NGZ =  102
 SYSTEM =  unknown system                          
 POSCAR =  Al11, -29.62695812 <s> Ag </s>          

 Startparameter for this run:
   NWRITE =      2    write-flag & timer
   PREC   = normal    normal or accurate (medium, high low for compatibility)
   ISTART =      0    job   : 0-new  1-cont  2-samecut
   ICHARG =      2    charge: 1-file 2-atom 10-const
   ISPIN  =      2    spin polarized calculation?
   LNONCOLLINEAR =      F non collinear calculations
   LSORBIT =      F    spin-orbit coupling
   INIWAV =      1    electr: 0-lowe 1-rand  2-diag
   LASPH  =      F    aspherical Exc in radial PAW
   METAGGA=      F    non-selfconsistent MetaGGA calc.

 Electronic Relaxation 1
   ENCUT  =  520.0 eV  38.22 Ry    6.18 a.u.  34.05 34.05 34.05*2*pi/ulx,y,z
   ENINI  =  520.0     initial cutoff
   ENAUG  =  412.5 eV  augmentation charge cutoff
   NELM   =     60;   NELMIN=  2; NELMDL= -5     # of ELM steps 
   EDIFF  = 0.5E-04   stopping-criterion for ELM
   LREAL  =      F    real-space projection
   NLSPLINE    = F    spline interpolate recip. space projectors
   LCOMPAT=      F    compatible to vasp.4.4
   GGA_COMPAT  = T    GGA compatible to vasp.4.4-vasp.4.6
   LMAXPAW     = -100 max onsite density
   LMAXMIX     =    2 max onsite mixed and CHGCAR
   VOSKOWN=      0    Vosko Wilk Nusair interpolation
   ROPT   =    0.00000
 Ionic relaxation
   EDIFFG = 0.5E-03   stopping-criterion for IOM
   NSW    =   1000    number of steps for IOM
   NBLOCK =      1;   KBLOCK =   1000    inner block; outer block 
   IBRION =      2    ionic relax: 0-MD 1-quasi-New 2-CG
   NFREE  =      1    steps in history (QN), initial steepest desc. (CG)
   ISIF   =      2    stress and relaxation
   IWAVPR =     11    prediction:  0-non 1-charg 2-wave 3-comb
   ISYM   =      2    0-nonsym 1-usesym 2-fastsym
   LCORR  =      T    Harris-Foulkes like correction to forces

   POTIM  = 0.1000    time-step for ionic-motion
   TEIN   =    0.0    initial temperature
   TEBEG  =    0.0;   TEEND  =   0.0 temperature during run
   SMASS  =  -3.00    Nose mass-parameter (am)
   estimated Nose-frequenzy (Omega)   =  0.10E-29 period in steps =****** mass=  -0.767E-26a.u.
   SCALEE = 1.0000    scale energy and forces
   NPACO  =    256;   APACO  = 16.0  distance and # of slots for P.C.
   PSTRESS=    0.0 pullay stress

  Mass of Ions in am
   POMASS = 107.87
  Ionic Valenz
   ZVAL   =  11.00
  Atomic Wigner-Seitz radii
   RWIGS  =  -1.00
  virtual crystal weights 
   VCA    =   1.00
   NELECT =     121.0000    total number of electrons
   NUPDOWN=      -1.0000    fix difference up-down

 DOS related values:
   EMIN   =  10.00;   EMAX   =-10.00  energy-range for DOS
   EFERMI =   0.00
   ISMEAR =     0;   SIGMA  =   0.00  broadening in eV -4-tet -1-fermi 0-gaus

 Electronic relaxation 2 (details)
   IALGO  =     38    algorithm
   LDIAG  =      T    sub-space diagonalisation (order eigenvalues)
   LSUBROT=      F    optimize rotation matrix (better conditioning)
   TURBO    =      0    0=normal 1=particle mesh
   IRESTART =      0    0=no restart 2=restart with 2 vectors
   NREBOOT  =      0    no. of reboots
   NMIN     =      0    reboot dimension
   EREF     =   0.00    reference energy to select bands
   IMIX   =      4    mixing-type and parameters
     AMIX     =   0.40;   BMIX     =  1.00
     AMIX_MAG =   1.60;   BMIX_MAG =  1.00
     AMIN     =   0.10
     WC   =   100.;   INIMIX=   1;  MIXPRE=   1;  MAXMIX= -45

 Intra band minimization:
   WEIMIN = 0.0010     energy-eigenvalue tresh-hold
   EBREAK =  0.16E-06  absolut break condition
   DEPER  =   0.30     relativ break condition  

   TIME   =   0.40     timestep for ELM

  volume/ion in A,a.u.               =     558.44      3768.57
  Fermi-wavevector in a.u.,A,eV,Ry     =   0.442126  0.835496  2.659599  0.195475
  Thomas-Fermi vector in A             =   1.417838
 
 Write flags
   LWAVE  =      F    write WAVECAR
   LCHARG =      F    write CHGCAR
   LVTOT  =      F    write LOCPOT, total local potential
   LVHAR  =      F    write LOCPOT, Hartree potential only
   LELF   =      F    write electronic localiz. function (ELF)
   LORBIT =      0    0 simple, 1 ext, 2 COOP (PROOUT)


 Dipole corrections
   LMONO  =      F    monopole corrections only (constant potential shift)
   LDIPOL =      F    correct potential (dipole corrections)
   IDIPOL =      0    1-x, 2-y, 3-z, 4-all directions 
   EPSILON=  1.0000000 bulk dielectric constant

 Exchange correlation treatment:
   GGA     =    PE    GGA type
   LEXCH   =     8    internal setting for exchange type
   VOSKOWN=      0    Vosko Wilk Nusair interpolation
   LHFCALC =     F    Hartree Fock is set to
   LHFONE  =     F    Hartree Fock one center treatment
   AEXX    =    0.0000 exact exchange contribution

 Linear response parameters
   LEPSILON=     F    determine dielectric tensor
   LRPA    =     F    only Hartree local field effects (RPA)
   LNABLA  =     F    use nabla operator in PAW spheres
   LVEL    =     F    velocity operator in full k-point grid
   LINTERFAST=   F  fast interpolation
   KINTER  =     0    interpolate to denser k-point grid
   CSHIFT  =0.1000    complex shift for real part using Kramers Kronig
   OMEGAMAX=  -1.0    maximum frequency
   DEG_THRESHOLD= 0.2000000E-02 threshold for treating states as degnerate
   RTIME   =    0.100 relaxation time in fs

 Orbital magnetization related:
   ORBITALMAG=     F  switch on orbital magnetization
   LCHIMAG   =     F  perturbation theory with respect to B field
   DQ        =  0.001000  dq finite difference perturbation B field



--------------------------------------------------------------------------------------------------------


 conjugate gradient relaxation of ions
 charge density and potential will be updated during run
 spin polarized calculation
 Variant of blocked Davidson
 Davidson routine will perform the subspace rotation
 perform sub-space diagonalisation
    after iterative eigenvector-optimisation
 modified Broyden-mixing scheme, WC =      100.0
 initial mixing is a Kerker type mixing with AMIX =  0.4000 and BMIX =      1.0000
 Hartree-type preconditioning will be used
 using additional bands           19
 reciprocal scheme for non local part
 use partial core corrections
 calculate Harris-corrections to forces 
   (improved forces if not selfconsistent)
 use gradient corrections 
 use of overlap-Matrix (Vanderbilt PP)
 Gauss-broadening in eV      SIGMA  =   0.00


--------------------------------------------------------------------------------------------------------


  energy-cutoff  :      520.00
  volume of cell :     6142.89
      direct lattice vectors                 reciprocal lattice vectors
    18.314326992  0.000000000  0.000000000     0.054602061  0.000000000  0.000000000
     0.000000000 18.314326992  0.000000000     0.000000000  0.054602061  0.000000000
     0.000000000  0.000000000 18.314326992     0.000000000  0.000000000  0.054602061

  length of vectors
    18.314326992 18.314326992 18.314326992     0.054602061  0.054602061  0.054602061


 
 k-points in units of 2pi/SCALE and weight: Gamma-point only                        
   0.00000000  0.00000000  0.00000000       1.000
 
 k-points in reciprocal lattice and weights: Gamma-point only                        
   0.00000000  0.00000000  0.00000000       1.000
 
 position of ions in fractional coordinates (direct lattice) 
   0.61376546  0.62400557  0.62297321
   0.56571669  0.61608628  0.36199398
   0.59646244  0.47669838  0.63418907
   0.54224939  0.55587749  0.50378257
   0.56687534  0.39176579  0.51251938
   0.43233447  0.55598633  0.38830753
   0.56431022  0.46749711  0.38326097
   0.47142239  0.57391245  0.63696632
   0.38007781  0.52786756  0.52719996
   0.43376338  0.41500868  0.44234722
   0.45648509  0.42518495  0.61058053
 
 position of ions in cartesian coordinates  (Angst):
  11.24070135 11.42824212 11.40933503
  10.36072036 11.28320562  6.62967609
  10.92380816  8.73041002 11.61474601
   9.93093262 10.18052216  9.22643877
  10.38194025  7.17492670  9.38644747
   7.91791493 10.18251551  7.11159104
  10.33496183  8.56189491  7.01916671
   8.63378386 10.51082027 11.66560949
   6.96086934  9.66753916  9.65531247
   7.94408442  7.60060468  8.10129154
   8.36021726  7.78697624 11.18237141
 


--------------------------------------------------------------------------------------------------------


 use parallel FFT for wavefunctions z direction half grid
 k-point  1 :   0.0000 0.0000 0.0000  plane waves:   82571

 maximum and minimum number of plane-waves per node :     10326    10318

 maximum number of plane-waves:     82571
 maximum index in each direction: 
   IXMAX=   34   IYMAX=   34   IZMAX=   34
   IXMIN=  -34   IYMIN=  -34   IZMIN=    0

 WARNING: aliasing errors must be expected set NGX to 138 to avoid them
 WARNING: aliasing errors must be expected set NGY to 138 to avoid them
 WARNING: aliasing errors must be expected set NGZ to 138 to avoid them
 aliasing errors are usually negligible using standard VASP settings
 and one can safely disregard these warnings

 parallel 3D FFT for wavefunctions:
    minimum data exchange during FFTs selected (reduces bandwidth)
 parallel 3D FFT for charge:
    minimum data exchange during FFTs selected (reduces bandwidth)


 total amount of memory used by VASP on root node    91240. kBytes
========================================================================

   base      :      30000. kBytes
   nonl-proj :       3303. kBytes
   fftplans  :      14492. kBytes
   grid      :      36796. kBytes
   one-center:         31. kBytes
   wavefun   :       6618. kBytes
 
     INWAV:  cpu time    0.00: real time    0.00
 Broyden mixing: mesh for mixing (old mesh)
   NGX = 69   NGY = 69   NGZ = 69
  (NGX  =216   NGY  =216   NGZ  =216)
  gives a total of 328509 points

 initial charge density was supplied:
 charge density of overlapping atoms calculated
 number of electron     121.0000000 magnetization      11.0000000
 keeping initial charge density in first step


--------------------------------------------------------------------------------------------------------


 Maximum index for augmentation-charges          553 (set IRDMAX)


--------------------------------------------------------------------------------------------------------


 First call to EWALD:  gamma=   0.097
 Maximum number of real-space cells 3x 3x 3
 Maximum number of reciprocal cells 3x 3x 3

 FEWALD executed in parallel
    FEWALD:  cpu time    0.00: real time    0.00


----------------------------------------- Iteration    1(   1)  ---------------------------------------


    POTLOK:  cpu time    0.72: real time    0.72
    SETDIJ:  cpu time    0.01: real time    0.01
     EDDAV:  cpu time    2.19: real time    2.19
       DOS:  cpu time    0.00: real time    0.00
    --------------------------------------------
      LOOP:  cpu time    2.92: real time    2.95

 eigenvalue-minimisations  :   320
 total energy-change (2. order) : 0.1090720E+04  (-0.2835572E+04)
 number of electron     121.0000000 magnetization      11.0000000
 augmentation part      121.0000000 magnetization      11.0000000

 Free energy of the ion-electron system (eV)
  ---------------------------------------------------
  alpha Z        PSCENC =        16.75431433
  Ewald energy   TEWEN  =     11085.31098868
  -Hartree energ DENC   =    -22007.54362993
  -exchange      EXHF   =         0.00000000
  -V(xc)+E(xc)   XCENC  =      -123.45626827
  PAW double counting   =     11037.09395877   -10529.91069767
  entropy T*S    EENTRO =         0.00000000
  eigenvalues    EBANDS =       202.58117852
  atomic energy  EATOM  =     11409.89059604
  ---------------------------------------------------
  free energy    TOTEN  =      1090.72044047 eV

  energy without entropy =     1090.72044047  energy(sigma->0) =     1090.72044047


--------------------------------------------------------------------------------------------------------




----------------------------------------- Iteration    1(   2)  ---------------------------------------


     EDDAV:  cpu time    3.46: real time    3.46
       DOS:  cpu time    0.00: real time    0.00
    --------------------------------------------
      LOOP:  cpu time    3.46: real time    5.28

 eigenvalue-minimisations  :   576
 total energy-change (2. order) :-0.7823031E+03  (-0.6939723E+03)
 number of electron     121.0000000 magnetization      11.0000000
 augmentation part      121.0000000 magnetization      11.0000000

 Free energy of the ion-electron system (eV)
  ---------------------------------------------------
  alpha Z        PSCENC =        16.75431433
  Ewald energy   TEWEN  =     11085.31098868
  -Hartree energ DENC   =    -22007.54362993
  -exchange      EXHF   =         0.00000000
  -V(xc)+E(xc)   XCENC  =      -123.45626827
  PAW double counting   =     11037.09395877   -10529.91069767
  entropy T*S    EENTRO =         0.00000000
  eigenvalues    EBANDS =      -579.72189721
  atomic energy  EATOM  =     11409.89059604
  ---------------------------------------------------
  free energy    TOTEN  =       308.41736474 eV

  energy without entropy =      308.41736474  energy(sigma->0) =      308.41736474


--------------------------------------------------------------------------------------------------------




----------------------------------------- Iteration    1(   3)  ---------------------------------------


     EDDAV:  cpu time    2.86: real time    2.87
       DOS:  cpu time    0.00: real time    0.00
    --------------------------------------------
      LOOP:  cpu time    2.87: real time    2.87

 eigenvalue-minimisations  :   456
 total energy-change (2. order) :-0.3079522E+03  (-0.2860677E+03)
 number of electron     121.0000000 magnetization      11.0000000
 augmentation part      121.0000000 magnetization      11.0000000

 Free energy of the ion-electron system (eV)
  ---------------------------------------------------
  alpha Z        PSCENC =        16.75431433
  Ewald energy   TEWEN  =     11085.31098868
  -Hartree energ DENC   =    -22007.54362993
  -exchange      EXHF   =         0.00000000
  -V(xc)+E(xc)   XCENC  =      -123.45626827
  PAW double counting   =     11037.09395877   -10529.91069767
  entropy T*S    EENTRO =         0.00000000
  eigenvalues    EBANDS =      -887.67410301
  atomic energy  EATOM  =     11409.89059604
  ---------------------------------------------------
  free energy    TOTEN  =         0.46515894 eV

  energy without entropy =        0.46515894  energy(sigma->0) =        0.46515894


--------------------------------------------------------------------------------------------------------




----------------------------------------- Iteration    1(   4)  ---------------------------------------


     EDDAV:  cpu time    2.40: real time    2.40
       DOS:  cpu time    0.00: real time    0.00
    --------------------------------------------
      LOOP:  cpu time    2.40: real time    2.40

 eigenvalue-minimisations  :   360
 total energy-change (2. order) :-0.1941501E+02  (-0.1919899E+02)
 number of electron     121.0000000 magnetization      11.0000000
 augmentation part      121.0000000 magnetization      11.0000000

 Free energy of the ion-electron system (eV)
  ---------------------------------------------------
  alpha Z        PSCENC =        16.75431433
  Ewald energy   TEWEN  =     11085.31098868
  -Hartree energ DENC   =    -22007.54362993
  -exchange      EXHF   =         0.00000000
  -V(xc)+E(xc)   XCENC  =      -123.45626827
  PAW double counting   =     11037.09395877   -10529.91069767
  entropy T*S    EENTRO =         0.00000000
  eigenvalues    EBANDS =      -907.08911237
  atomic energy  EATOM  =     11409.89059604
  ---------------------------------------------------
  free energy    TOTEN  =       -18.94985042 eV

  energy without entropy =      -18.94985042  energy(sigma->0) =      -18.94985042


--------------------------------------------------------------------------------------------------------




----------------------------------------- Iteration    1(   5)  ---------------------------------------


     EDDAV:  cpu time    2.36: real time    2.36
       DOS:  cpu time    0.00: real time    0.00
    CHARGE:  cpu time    0.22: real time    0.22
    MIXING:  cpu time    0.01: real time    0.02
    --------------------------------------------
      LOOP:  cpu time    2.60: real time    2.60

 eigenvalue-minimisations  :   352
 total energy-change (2. order) :-0.2603205E+00  (-0.2602522E+00)
 number of electron     121.0000043 magnetization       9.3151067
 augmentation part       57.3497056 magnetization       8.5526800

 Broyden mixing:
  rms(total) = 0.17738E+01    rms(broyden)= 0.17738E+01
  rms(prec ) = 0.18150E+01
  weight for this iteration     100.00

 Free energy of the ion-electron system (eV)
  ---------------------------------------------------
  alpha Z        PSCENC =        16.75431433
  Ewald energy   TEWEN  =     11085.31098868
  -Hartree energ DENC   =    -22007.54362993
  -exchange      EXHF   =         0.00000000
  -V(xc)+E(xc)   XCENC  =      -123.45626827
  PAW double counting   =     11037.09395877   -10529.91069767
  entropy T*S    EENTRO =         0.00000000
  eigenvalues    EBANDS =      -907.34943282
  atomic energy  EATOM  =     11409.89059604
  ---------------------------------------------------
  free energy    TOTEN  =       -19.21017087 eV

  energy without entropy =      -19.21017087  energy(sigma->0) =      -19.21017087


--------------------------------------------------------------------------------------------------------




----------------------------------------- Iteration    1(   6)  ---------------------------------------


    POTLOK:  cpu time    0.71: real time    0.71
    SETDIJ:  cpu time    0.01: real time    0.01
     EDDAV:  cpu time    2.21: real time    2.21
       DOS:  cpu time    0.00: real time    0.00
    CHARGE:  cpu time    0.22: real time    0.22
    MIXING:  cpu time    0.02: real time    0.02
    --------------------------------------------
      LOOP:  cpu time    3.17: real time    3.18

 eigenvalue-minimisations  :   320
 total energy-change (2. order) : 0.1494274E+02  (-0.4299167E+01)
 number of electron     121.0000044 magnetization       8.3499290
 augmentation part       58.4393055 magnetization       4.5456742

 Broyden mixing:
  rms(total) = 0.86124E+00    rms(broyden)= 0.86123E+00
  rms(prec ) = 0.88267E+00
  weight for this iteration     100.00

 eigenvalues of (default mixing * dielectric matrix)
  average eigenvalue GAMMA=   0.8400
  0.8400

 Free energy of the ion-electron system (eV)
  ---------------------------------------------------
  alpha Z        PSCENC =        16.75431433
  Ewald energy   TEWEN  =     11085.31098868
  -Hartree energ DENC   =    -21975.81534494
  -exchange      EXHF   =         0.00000000
  -V(xc)+E(xc)   XCENC  =      -115.30808748
  PAW double counting   =     11345.14446075   -10844.46084187
  entropy T*S    EENTRO =         0.00000000
  eigenvalues    EBANDS =      -925.78351612
  atomic energy  EATOM  =     11409.89059604
  ---------------------------------------------------
  free energy    TOTEN  =        -4.26743062 eV

  energy without entropy =       -4.26743062  energy(sigma->0) =       -4.26743062


--------------------------------------------------------------------------------------------------------




----------------------------------------- Iteration    1(   7)  ---------------------------------------


    POTLOK:  cpu time    0.71: real time    0.71
    SETDIJ:  cpu time    0.01: real time    0.01
     EDDAV:  cpu time    2.33: real time    2.33
       DOS:  cpu time    0.00: real time    0.00
    CHARGE:  cpu time    0.22: real time    0.22
    MIXING:  cpu time    0.02: real time    0.02
    --------------------------------------------
      LOOP:  cpu time    3.30: real time    3.30

 eigenvalue-minimisations  :   344
 total energy-change (2. order) : 0.1107511E+01  (-0.2282604E+00)
 number of electron     121.0000044 magnetization       7.0596467
 augmentation part       58.3661648 magnetization       3.3972683

 Broyden mixing:
  rms(total) = 0.47487E+00    rms(broyden)= 0.47487E+00
  rms(prec ) = 0.48721E+00
  weight for this iteration     100.00

 eigenvalues of (default mixing * dielectric matrix)
  average eigenvalue GAMMA=   0.9246
  0.7402  1.1091

 Free energy of the ion-electron system (eV)
  ---------------------------------------------------
  alpha Z        PSCENC =        16.75431433
  Ewald energy   TEWEN  =     11085.31098868
  -Hartree energ DENC   =    -21999.19871212
  -exchange      EXHF   =         0.00000000
  -V(xc)+E(xc)   XCENC  =      -114.03887568
  PAW double counting   =     11529.65759502   -11033.02738532
  entropy T*S    EENTRO =         0.00000000
  eigenvalues    EBANDS =      -898.50844025
  atomic energy  EATOM  =     11409.89059604
  ---------------------------------------------------
  free energy    TOTEN  =        -3.15991930 eV

  energy without entropy =       -3.15991930  energy(sigma->0) =       -3.15991930


--------------------------------------------------------------------------------------------------------




----------------------------------------- Iteration    1(   8)  ---------------------------------------


    POTLOK:  cpu time    0.72: real time    0.72
    SETDIJ:  cpu time    0.01: real time    0.01
     EDDAV:  cpu time    2.33: real time    2.33
       DOS:  cpu time    0.00: real time    0.00
    CHARGE:  cpu time    0.22: real time    0.22
    MIXING:  cpu time    0.02: real time    0.02
    --------------------------------------------
      LOOP:  cpu time    3.30: real time    3.30

 eigenvalue-minimisations  :   344
 total energy-change (2. order) :-0.3132075E+01  (-0.1553259E+00)
 number of electron     121.0000044 magnetization       6.1148650
 augmentation part       58.2615872 magnetization       2.5774391

 Broyden mixing:
  rms(total) = 0.23652E+00    rms(broyden)= 0.23652E+00
  rms(prec ) = 0.24125E+00
  weight for this iteration     100.00

 eigenvalues of (default mixing * dielectric matrix)
  average eigenvalue GAMMA=   1.1768
  0.6215  0.9185  1.9906

 Free energy of the ion-electron system (eV)
  ---------------------------------------------------
  alpha Z        PSCENC =        16.75431433
  Ewald energy   TEWEN  =     11085.31098868
  -Hartree energ DENC   =    -22021.12467776
  -exchange      EXHF   =         0.00000000
  -V(xc)+E(xc)   XCENC  =      -116.23202304
  PAW double counting   =     11721.03122208   -11228.17084077
  entropy T*S    EENTRO =         0.00000000
  eigenvalues    EBANDS =      -873.75157401
  atomic energy  EATOM  =     11409.89059604
  ---------------------------------------------------
  free energy    TOTEN  =        -6.29199445 eV

  energy without entropy =       -6.29199445  energy(sigma->0) =       -6.29199445


--------------------------------------------------------------------------------------------------------




----------------------------------------- Iteration    1(   9)  ---------------------------------------


    POTLOK:  cpu time    0.72: real time    0.72
    SETDIJ:  cpu time    0.01: real time    0.01
     EDDAV:  cpu time    2.40: real time    2.41
       DOS:  cpu time    0.00: real time    0.00
    CHARGE:  cpu time    0.22: real time    0.22
    MIXING:  cpu time    0.02: real time    0.02
    --------------------------------------------
      LOOP:  cpu time    3.37: real time    5.92

 eigenvalue-minimisations  :   360
 total energy-change (2. order) :-0.2812501E+01  (-0.8891593E-01)
 number of electron     121.0000044 magnetization       5.2590772
 augmentation part       58.2489398 magnetization       1.8146585

 Broyden mixing:
  rms(total) = 0.12520E+00    rms(broyden)= 0.12520E+00
  rms(prec ) = 0.13058E+00
  weight for this iteration     100.00

 eigenvalues of (default mixing * dielectric matrix)
  average eigenvalue GAMMA=   1.1988
  2.0918  0.6224  0.8068  1.2742

 Free energy of the ion-electron system (eV)
  ---------------------------------------------------
  alpha Z        PSCENC =        16.75431433
  Ewald energy   TEWEN  =     11085.31098868
  -Hartree energ DENC   =    -22026.80740507
  -exchange      EXHF   =         0.00000000
  -V(xc)+E(xc)   XCENC  =      -118.40958393
  PAW double counting   =     11801.11647971   -11309.81178687
  entropy T*S    EENTRO =         0.00000000
  eigenvalues    EBANDS =      -867.14809820
  atomic energy  EATOM  =     11409.89059604
  ---------------------------------------------------
  free energy    TOTEN  =        -9.10449532 eV

  energy without entropy =       -9.10449532  energy(sigma->0) =       -9.10449532


--------------------------------------------------------------------------------------------------------




----------------------------------------- Iteration    1(  10)  ---------------------------------------


    POTLOK:  cpu time    0.71: real time    0.71
    SETDIJ:  cpu time    0.01: real time    0.01
     EDDAV:  cpu time    2.18: real time    2.18
       DOS:  cpu time    0.00: real time    0.00
    CHARGE:  cpu time    0.22: real time    0.22
    MIXING:  cpu time    0.02: real time    0.02
    --------------------------------------------
      LOOP:  cpu time    3.15: real time    3.97

 eigenvalue-minimisations  :   320
 total energy-change (2. order) :-0.3535178E+01  (-0.1348543E+00)
 number of electron     121.0000044 magnetization       4.3470537
 augmentation part       58.2654954 magnetization       1.0233177

 Broyden mixing:
  rms(total) = 0.82344E-01    rms(broyden)= 0.82343E-01
  rms(prec ) = 0.85681E-01
  weight for this iteration     100.00

 eigenvalues of (default mixing * dielectric matrix)
  average eigenvalue GAMMA=   1.3754
  2.7566  1.6609  0.9130  0.9130  0.6336

 Free energy of the ion-electron system (eV)
  ---------------------------------------------------
  alpha Z        PSCENC =        16.75431433
  Ewald energy   TEWEN  =     11085.31098868
  -Hartree energ DENC   =    -22023.96581535
  -exchange      EXHF   =         0.00000000
  -V(xc)+E(xc)   XCENC  =      -121.25430608
  PAW double counting   =     11806.79663935   -11315.77015419
  entropy T*S    EENTRO =        -0.00000000
  eigenvalues    EBANDS =      -870.40193578
  atomic energy  EATOM  =     11409.89059604
  ---------------------------------------------------
  free energy    TOTEN  =       -12.63967301 eV

  energy without entropy =      -12.63967301  energy(sigma->0) =      -12.63967301


--------------------------------------------------------------------------------------------------------




----------------------------------------- Iteration    1(  11)  ---------------------------------------


    POTLOK:  cpu time    0.72: real time    0.71
    SETDIJ:  cpu time    0.01: real time    0.01
     EDDAV:  cpu time    2.20: real time    2.21
       DOS:  cpu time    0.00: real time    0.00
    CHARGE:  cpu time    0.22: real time    0.22
    MIXING:  cpu time    0.02: real time    0.02
    --------------------------------------------
      LOOP:  cpu time    3.17: real time    4.09

 eigenvalue-minimisations  :   320
 total energy-change (2. order) :-0.3324188E+01  (-0.1224942E+00)
 number of electron     121.0000044 magnetization       4.3448971
 augmentation part       58.2658607 magnetization       3.0985126

 Broyden mixing:
  rms(total) = 0.19363E+00    rms(broyden)= 0.19363E+00
  rms(prec ) = 0.20526E+00
  weight for this iteration     100.00

 eigenvalues of (default mixing * dielectric matrix)
  average eigenvalue GAMMA=   1.1537
  2.7819  1.6560  0.6332  0.9125  0.9125  0.0258

 Free energy of the ion-electron system (eV)
  ---------------------------------------------------
  alpha Z        PSCENC =        16.75431433
  Ewald energy   TEWEN  =     11085.31098868
  -Hartree energ DENC   =    -22020.70035929
  -exchange      EXHF   =         0.00000000
  -V(xc)+E(xc)   XCENC  =      -123.86865726
  PAW double counting   =     11798.49170263   -11307.62281583
  entropy T*S    EENTRO =         0.00000000
  eigenvalues    EBANDS =      -874.21963015
  atomic energy  EATOM  =     11409.89059604
  ---------------------------------------------------
  free energy    TOTEN  =       -15.96386085 eV

  energy without entropy =      -15.96386085  energy(sigma->0) =      -15.96386085


--------------------------------------------------------------------------------------------------------




----------------------------------------- Iteration    1(  12)  ---------------------------------------


    POTLOK:  cpu time    0.72: real time    0.72
    SETDIJ:  cpu time    0.01: real time    0.01
     EDDAV:  cpu time    2.56: real time    2.56
       DOS:  cpu time    0.00: real time    0.00
    CHARGE:  cpu time    0.22: real time    0.22
    MIXING:  cpu time    0.02: real time    0.02
    --------------------------------------------
      LOOP:  cpu time    3.53: real time    4.19

 eigenvalue-minimisations  :   392
 total energy-change (2. order) : 0.2415029E-01  (-0.1999263E-02)
 number of electron     121.0000044 magnetization       4.3383361
 augmentation part       58.2554502 magnetization       3.1011868

 Broyden mixing:
  rms(total) = 0.19161E+00    rms(broyden)= 0.19161E+00
  rms(prec ) = 0.20343E+00
  weight for this iteration     100.00

 eigenvalues of (default mixing * dielectric matrix)
  average eigenvalue GAMMA=   0.9902
  2.7977  1.6002  0.6334  0.9133  0.9133  0.0442  0.0294

 Free energy of the ion-electron system (eV)
  ---------------------------------------------------
  alpha Z        PSCENC =        16.75431433
  Ewald energy   TEWEN  =     11085.31098868
  -Hartree energ DENC   =    -22020.70056492
  -exchange      EXHF   =         0.00000000
  -V(xc)+E(xc)   XCENC  =      -123.84186793
  PAW double counting   =     11798.50928436   -11307.64190300
  entropy T*S    EENTRO =         0.00000000
  eigenvalues    EBANDS =      -874.22055812
  atomic energy  EATOM  =     11409.89059604
  ---------------------------------------------------
  free energy    TOTEN  =       -15.93971056 eV

  energy without entropy =      -15.93971056  energy(sigma->0) =      -15.93971056


--------------------------------------------------------------------------------------------------------




----------------------------------------- Iteration    1(  13)  ---------------------------------------


    POTLOK:  cpu time    0.72: real time    0.72
    SETDIJ:  cpu time    0.01: real time    0.01
     EDDAV:  cpu time    2.17: real time    2.17
       DOS:  cpu time    0.00: real time    0.00
    CHARGE:  cpu time    0.22: real time    0.22
    MIXING:  cpu time    0.02: real time    0.02
    --------------------------------------------
      LOOP:  cpu time    3.14: real time    3.15

 eigenvalue-minimisations  :   312
 total energy-change (2. order) :-0.8703857E-02  (-0.3509656E-04)
 number of electron     121.0000044 magnetization       4.3222000
 augmentation part       58.2578370 magnetization       3.0865056

 Broyden mixing:
  rms(total) = 0.19160E+00    rms(broyden)= 0.19160E+00
  rms(prec ) = 0.20334E+00
  weight for this iteration     100.00

 eigenvalues of (default mixing * dielectric matrix)
  average eigenvalue GAMMA=   0.9069
  2.7829  1.5995  0.9153  0.9153  0.6337  0.1522  0.1522  0.1045

 Free energy of the ion-electron system (eV)
  ---------------------------------------------------
  alpha Z        PSCENC =        16.75431433
  Ewald energy   TEWEN  =     11085.31098868
  -Hartree energ DENC   =    -22020.46852019
  -exchange      EXHF   =         0.00000000
  -V(xc)+E(xc)   XCENC  =      -123.85203483
  PAW double counting   =     11797.08284636   -11306.20560978
  entropy T*S    EENTRO =         0.00000000
  eigenvalues    EBANDS =      -874.46099503
  atomic energy  EATOM  =     11409.89059604
  ---------------------------------------------------
  free energy    TOTEN  =       -15.94841442 eV

  energy without entropy =      -15.94841442  energy(sigma->0) =      -15.94841442


--------------------------------------------------------------------------------------------------------




----------------------------------------- Iteration    1(  14)  ---------------------------------------


    POTLOK:  cpu time    0.71: real time    0.71
    SETDIJ:  cpu time    0.01: real time    0.01
     EDDAV:  cpu time    2.25: real time    2.25
       DOS:  cpu time    0.00: real time    0.00
    CHARGE:  cpu time    0.22: real time    0.22
    MIXING:  cpu time    0.02: real time    0.02
    --------------------------------------------
      LOOP:  cpu time    3.22: real time    3.24

 eigenvalue-minimisations  :   328
 total energy-change (2. order) :-0.1663861E-01  (-0.4707706E-04)
 number of electron     121.0000044 magnetization       4.0131502
 augmentation part       58.2611207 magnetization       2.7804154

 Broyden mixing:
  rms(total) = 0.19180E+00    rms(broyden)= 0.19180E+00
  rms(prec ) = 0.20328E+00
  weight for this iteration     100.00

 eigenvalues of (default mixing * dielectric matrix)
  average eigenvalue GAMMA=   0.9302
  2.6833  1.7351  0.9216  0.9216  0.6340  0.5792  0.5792  0.1588  0.1588

 Free energy of the ion-electron system (eV)
  ---------------------------------------------------
  alpha Z        PSCENC =        16.75431433
  Ewald energy   TEWEN  =     11085.31098868
  -Hartree energ DENC   =    -22019.89081794
  -exchange      EXHF   =         0.00000000
  -V(xc)+E(xc)   XCENC  =      -123.87300380
  PAW double counting   =     11789.67566223   -11298.80063593
  entropy T*S    EENTRO =         0.00000000
  eigenvalues    EBANDS =      -875.03215664
  atomic energy  EATOM  =     11409.89059604
  ---------------------------------------------------
  free energy    TOTEN  =       -15.96505303 eV

  energy without entropy =      -15.96505303  energy(sigma->0) =      -15.96505303


--------------------------------------------------------------------------------------------------------




----------------------------------------- Iteration    1(  15)  ---------------------------------------


    POTLOK:  cpu time    0.72: real time    0.71
    SETDIJ:  cpu time    0.01: real time    0.01
     EDDAV:  cpu time    2.28: real time    2.29
       DOS:  cpu time    0.00: real time    0.00
    CHARGE:  cpu time    0.22: real time    0.22
    MIXING:  cpu time    0.02: real time    0.02
    --------------------------------------------
      LOOP:  cpu time    3.26: real time    3.28

 eigenvalue-minimisations  :   336
 total energy-change (2. order) :-0.6015601E+00  (-0.1223787E-01)
 number of electron     121.0000044 magnetization       2.9596923
 augmentation part       58.3246100 magnetization       1.7649704

 Broyden mixing:
  rms(total) = 0.21934E+00    rms(broyden)= 0.21934E+00
  rms(prec ) = 0.22910E+00
  weight for this iteration     100.00

 eigenvalues of (default mixing * dielectric matrix)
  average eigenvalue GAMMA=   1.1673
  2.6134  2.6134  1.5077  1.5077  1.0504  0.8114  0.6324  0.5925  0.1720  0.1720

 Free energy of the ion-electron system (eV)
  ---------------------------------------------------
  alpha Z        PSCENC =        16.75431433
  Ewald energy   TEWEN  =     11085.31098868
  -Hartree energ DENC   =    -22010.60526105
  -exchange      EXHF   =         0.00000000
  -V(xc)+E(xc)   XCENC  =      -124.50512583
  PAW double counting   =     11700.63806416   -11209.71428699
  entropy T*S    EENTRO =         0.00000000
  eigenvalues    EBANDS =      -884.33590244
  atomic energy  EATOM  =     11409.89059604
  ---------------------------------------------------
  free energy    TOTEN  =       -16.56661309 eV

  energy without entropy =      -16.56661309  energy(sigma->0) =      -16.56661309


--------------------------------------------------------------------------------------------------------




----------------------------------------- Iteration    1(  16)  ---------------------------------------


    POTLOK:  cpu time    0.71: real time    0.71
    SETDIJ:  cpu time    0.01: real time    0.01
     EDDAV:  cpu time    2.20: real time    2.20
       DOS:  cpu time    0.00: real time    0.00
    CHARGE:  cpu time    0.22: real time    0.22
    MIXING:  cpu time    0.02: real time    0.03
    --------------------------------------------
      LOOP:  cpu time    3.17: real time    3.17

 eigenvalue-minimisations  :   320
 total energy-change (2. order) :-0.1422489E+01  (-0.1015864E+00)
 number of electron     121.0000044 magnetization       2.2778468
 augmentation part       58.5105001 magnetization       1.1898421

 Broyden mixing:
  rms(total) = 0.43856E+00    rms(broyden)= 0.43856E+00
  rms(prec ) = 0.45739E+00
  weight for this iteration     100.00

 eigenvalues of (default mixing * dielectric matrix)
  average eigenvalue GAMMA=   1.2777
  4.1263  2.2633  2.2633  1.0473  1.0473  0.8173  0.8173  0.6648  0.6648  0.1716
  0.1716

 Free energy of the ion-electron system (eV)
  ---------------------------------------------------
  alpha Z        PSCENC =        16.75431433
  Ewald energy   TEWEN  =     11085.31098868
  -Hartree energ DENC   =    -21983.34771022
  -exchange      EXHF   =         0.00000000
  -V(xc)+E(xc)   XCENC  =      -125.95861460
  PAW double counting   =     11462.64238303   -10971.88359254
  entropy T*S    EENTRO =         0.00000000
  eigenvalues    EBANDS =      -911.39746660
  atomic energy  EATOM  =     11409.89059604
  ---------------------------------------------------
  free energy    TOTEN  =       -17.98910187 eV

  energy without entropy =      -17.98910187  energy(sigma->0) =      -17.98910187


--------------------------------------------------------------------------------------------------------




----------------------------------------- Iteration    1(  17)  ---------------------------------------


    POTLOK:  cpu time    0.72: real time    0.71
    SETDIJ:  cpu time    0.01: real time    0.01
     EDDAV:  cpu time    2.24: real time    2.24
       DOS:  cpu time    0.00: real time    0.00
    CHARGE:  cpu time    0.22: real time    0.22
    MIXING:  cpu time    0.03: real time    0.03
    --------------------------------------------
      LOOP:  cpu time    3.21: real time    3.24

 eigenvalue-minimisations  :   328
 total energy-change (2. order) :-0.4038384E+00  (-0.2156759E-01)
 number of electron     121.0000044 magnetization       2.0505486
 augmentation part       58.5893605 magnetization       1.0128530

 Broyden mixing:
  rms(total) = 0.55449E+00    rms(broyden)= 0.55449E+00
  rms(prec ) = 0.58004E+00
  weight for this iteration     100.00

 eigenvalues of (default mixing * dielectric matrix)
  average eigenvalue GAMMA=   1.2880
  4.1840  2.5939  2.5939  1.2503  0.8628  0.8628  0.8326  0.7099  0.6682  0.5543
  0.1717  0.1717

 Free energy of the ion-electron system (eV)
  ---------------------------------------------------
  alpha Z        PSCENC =        16.75431433
  Ewald energy   TEWEN  =     11085.31098868
  -Hartree energ DENC   =    -21971.13134121
  -exchange      EXHF   =         0.00000000
  -V(xc)+E(xc)   XCENC  =      -126.36584079
  PAW double counting   =     11368.80389791   -10878.44567991
  entropy T*S    EENTRO =         0.00000000
  eigenvalues    EBANDS =      -923.20987532
  atomic energy  EATOM  =     11409.89059604
  ---------------------------------------------------
  free energy    TOTEN  =       -18.39294028 eV

  energy without entropy =      -18.39294028  energy(sigma->0) =      -18.39294028


--------------------------------------------------------------------------------------------------------




----------------------------------------- Iteration    1(  18)  ---------------------------------------


    POTLOK:  cpu time    0.72: real time    0.72
    SETDIJ:  cpu time    0.01: real time    0.01
     EDDAV:  cpu time    2.36: real time    2.36
       DOS:  cpu time    0.00: real time    0.00
    CHARGE:  cpu time    0.22: real time    0.22
    MIXING:  cpu time    0.03: real time    0.03
    --------------------------------------------
      LOOP:  cpu time    3.33: real time    3.39

 eigenvalue-minimisations  :   352
 total energy-change (2. order) :-0.1108050E+00  (-0.1146754E-02)
 number of electron     121.0000044 magnetization       1.6699943
 augmentation part       58.5879483 magnetization       0.6437752

 Broyden mixing:
  rms(total) = 0.55874E+00    rms(broyden)= 0.55874E+00
  rms(prec ) = 0.58470E+00
  weight for this iteration     100.00

 eigenvalues of (default mixing * dielectric matrix)
  average eigenvalue GAMMA=   1.3373
  4.6562  2.4700  2.4700  1.8083  0.9605  0.9605  0.8602  0.7755  0.7755  0.6526
  0.6526  0.1717  0.1717

 Free energy of the ion-electron system (eV)
  ---------------------------------------------------
  alpha Z        PSCENC =        16.75431433
  Ewald energy   TEWEN  =     11085.31098868
  -Hartree energ DENC   =    -21969.67998784
  -exchange      EXHF   =         0.00000000
  -V(xc)+E(xc)   XCENC  =      -126.46968472
  PAW double counting   =     11369.34278576   -10879.13272196
  entropy T*S    EENTRO =         0.00000000
  eigenvalues    EBANDS =      -924.52003559
  atomic energy  EATOM  =     11409.89059604
  ---------------------------------------------------
  free energy    TOTEN  =       -18.50374531 eV

  energy without entropy =      -18.50374531  energy(sigma->0) =      -18.50374531


--------------------------------------------------------------------------------------------------------




----------------------------------------- Iteration    1(  19)  ---------------------------------------


    POTLOK:  cpu time    0.71: real time    0.72
    SETDIJ:  cpu time    0.01: real time    0.01
     EDDAV:  cpu time    2.28: real time    2.28
       DOS:  cpu time    0.00: real time    0.00
    CHARGE:  cpu time    0.22: real time    0.22
    MIXING:  cpu time    0.04: real time    0.03
    --------------------------------------------
      LOOP:  cpu time    3.26: real time    3.27

 eigenvalue-minimisations  :   336
 total energy-change (2. order) :-0.2664169E+00  (-0.2269838E-02)
 number of electron     121.0000044 magnetization       1.2574983
 augmentation part       58.6027458 magnetization       0.2476424

 Broyden mixing:
  rms(total) = 0.57516E+00    rms(broyden)= 0.57516E+00
  rms(prec ) = 0.60212E+00
  weight for this iteration     100.00

 eigenvalues of (default mixing * dielectric matrix)
  average eigenvalue GAMMA=   1.4687
  6.2351  2.6512  2.6512  1.9851  1.2869  0.9464  0.9464  0.7693  0.7693  0.6754
  0.6754  0.6264  0.1717  0.1717

 Free energy of the ion-electron system (eV)
  ---------------------------------------------------
  alpha Z        PSCENC =        16.75431433
  Ewald energy   TEWEN  =     11085.31098868
  -Hartree energ DENC   =    -21967.09862192
  -exchange      EXHF   =         0.00000000
  -V(xc)+E(xc)   XCENC  =      -126.72638835
  PAW double counting   =     11368.72791108   -10878.48307199
  entropy T*S    EENTRO =         0.00000000
  eigenvalues    EBANDS =      -927.14589004
  atomic energy  EATOM  =     11409.89059604
  ---------------------------------------------------
  free energy    TOTEN  =       -18.77016218 eV

  energy without entropy =      -18.77016218  energy(sigma->0) =      -18.77016218


--------------------------------------------------------------------------------------------------------




----------------------------------------- Iteration    1(  20)  ---------------------------------------


    POTLOK:  cpu time    0.71: real time    0.71
    SETDIJ:  cpu time    0.01: real time    0.01
     EDDAV:  cpu time    2.22: real time    2.22
       DOS:  cpu time    0.00: real time    0.00
    CHARGE:  cpu time    0.22: real time    0.22
    MIXING:  cpu time    0.04: real time    0.04
    --------------------------------------------
      LOOP:  cpu time    3.20: real time    3.47

 eigenvalue-minimisations  :   328
 total energy-change (2. order) :-0.2204600E+00  (-0.2020833E-02)
 number of electron     121.0000044 magnetization       1.0986764
 augmentation part       58.5936857 magnetization       0.1052139

 Broyden mixing:
  rms(total) = 0.55866E+00    rms(broyden)= 0.55866E+00
  rms(prec ) = 0.58521E+00
  weight for this iteration     100.00

 eigenvalues of (default mixing * dielectric matrix)
  average eigenvalue GAMMA=   1.5519
  7.1897  2.9165  2.9165  2.1289  1.3955  0.9655  0.9655  0.9512  0.7952  0.7952
  0.6715  0.6217  0.6217  0.1717  0.1717

 Free energy of the ion-electron system (eV)
  ---------------------------------------------------
  alpha Z        PSCENC =        16.75431433
  Ewald energy   TEWEN  =     11085.31098868
  -Hartree energ DENC   =    -21967.18615499
  -exchange      EXHF   =         0.00000000
  -V(xc)+E(xc)   XCENC  =      -126.93251358
  PAW double counting   =     11389.55686199   -10899.36463708
  entropy T*S    EENTRO =         0.00000000
  eigenvalues    EBANDS =      -927.02007759
  atomic energy  EATOM  =     11409.89059604
  ---------------------------------------------------
  free energy    TOTEN  =       -18.99062222 eV

  energy without entropy =      -18.99062222  energy(sigma->0) =      -18.99062222


--------------------------------------------------------------------------------------------------------




----------------------------------------- Iteration    1(  21)  ---------------------------------------


    POTLOK:  cpu time    0.72: real time    0.72
    SETDIJ:  cpu time    0.01: real time    0.01
     EDDAV:  cpu time    2.39: real time    2.40
       DOS:  cpu time    0.00: real time    0.00
    CHARGE:  cpu time    0.22: real time    0.22
    MIXING:  cpu time    0.04: real time    0.04
    --------------------------------------------
      LOOP:  cpu time    3.38: real time    3.41

 eigenvalue-minimisations  :   360
 total energy-change (2. order) :-0.6114086E-01  (-0.3137176E-02)
 number of electron     121.0000044 magnetization       1.0808348
 augmentation part       58.5490643 magnetization       0.0841694

 Broyden mixing:
  rms(total) = 0.48554E+00    rms(broyden)= 0.48554E+00
  rms(prec ) = 0.50879E+00
  weight for this iteration     100.00

 eigenvalues of (default mixing * dielectric matrix)
  average eigenvalue GAMMA=   1.5899
  6.9670  3.5677  3.5677  2.2848  1.4900  1.0272  1.0272  1.0228  0.8063  0.8063
  0.6434  0.6434  0.6203  0.6203  0.1717  0.1717

 Free energy of the ion-electron system (eV)
  ---------------------------------------------------
  alpha Z        PSCENC =        16.75431433
  Ewald energy   TEWEN  =     11085.31098868
  -Hartree energ DENC   =    -21972.58664166
  -exchange      EXHF   =         0.00000000
  -V(xc)+E(xc)   XCENC  =      -126.96299035
  PAW double counting   =     11444.77381199   -10954.55089346
  entropy T*S    EENTRO =         0.00000000
  eigenvalues    EBANDS =      -921.68094864
  atomic energy  EATOM  =     11409.89059604
  ---------------------------------------------------
  free energy    TOTEN  =       -19.05176308 eV

  energy without entropy =      -19.05176308  energy(sigma->0) =      -19.05176308


--------------------------------------------------------------------------------------------------------




----------------------------------------- Iteration    1(  22)  ---------------------------------------


    POTLOK:  cpu time    0.72: real time    0.72
    SETDIJ:  cpu time    0.01: real time    0.01
     EDDAV:  cpu time    2.24: real time    2.24
       DOS:  cpu time    0.00: real time    0.00
    CHARGE:  cpu time    0.22: real time    0.22
    MIXING:  cpu time    0.04: real time    0.04
    --------------------------------------------
      LOOP:  cpu time    3.23: real time    3.23

 eigenvalue-minimisations  :   328
 total energy-change (2. order) :-0.1051053E-01  (-0.6643641E-02)
 number of electron     121.0000044 magnetization       1.0297082
 augmentation part       58.4837999 magnetization       0.0200150

 Broyden mixing:
  rms(total) = 0.37810E+00    rms(broyden)= 0.37810E+00
  rms(prec ) = 0.39616E+00
  weight for this iteration     100.00

 eigenvalues of (default mixing * dielectric matrix)
  average eigenvalue GAMMA=   1.6599
  6.4901  4.5834  4.5834  2.5442  1.5234  1.0204  1.0204  1.1345  0.7609  0.7609
  0.7901  0.7901  0.6287  0.6225  0.6225  0.1717  0.1717

 Free energy of the ion-electron system (eV)
  ---------------------------------------------------
  alpha Z        PSCENC =        16.75431433
  Ewald energy   TEWEN  =     11085.31098868
  -Hartree energ DENC   =    -21980.83753492
  -exchange      EXHF   =         0.00000000
  -V(xc)+E(xc)   XCENC  =      -126.91993577
  PAW double counting   =     11517.87002160   -11027.50451852
  entropy T*S    EENTRO =         0.00000000
  eigenvalues    EBANDS =      -913.62620505
  atomic energy  EATOM  =     11409.89059604
  ---------------------------------------------------
  free energy    TOTEN  =       -19.06227361 eV

  energy without entropy =      -19.06227361  energy(sigma->0) =      -19.06227361


--------------------------------------------------------------------------------------------------------




----------------------------------------- Iteration    1(  23)  ---------------------------------------


    POTLOK:  cpu time    0.72: real time    0.72
    SETDIJ:  cpu time    0.01: real time    0.01
     EDDAV:  cpu time    2.28: real time    2.28
       DOS:  cpu time    0.00: real time    0.00
    CHARGE:  cpu time    0.22: real time    0.22
    MIXING:  cpu time    0.05: real time    0.05
    --------------------------------------------
      LOOP:  cpu time    3.28: real time    3.29

 eigenvalue-minimisations  :   336
 total energy-change (2. order) :-0.1780703E-01  (-0.6112658E-02)
 number of electron     121.0000044 magnetization       0.9681748
 augmentation part       58.4228355 magnetization      -0.0536391

 Broyden mixing:
  rms(total) = 0.27531E+00    rms(broyden)= 0.27531E+00
  rms(prec ) = 0.28844E+00
  weight for this iteration     100.00

 eigenvalues of (default mixing * dielectric matrix)
  average eigenvalue GAMMA=   1.7752
  5.9107  5.9107  5.9158  2.5486  1.9029  0.9951  0.9951  1.0658  1.0658  0.9618
  0.8803  0.8803  0.6614  0.6614  0.6275  0.6275  0.1717  0.1717

 Free energy of the ion-electron system (eV)
  ---------------------------------------------------
  alpha Z        PSCENC =        16.75431433
  Ewald energy   TEWEN  =     11085.31098868
  -Hartree energ DENC   =    -21988.26391143
  -exchange      EXHF   =         0.00000000
  -V(xc)+E(xc)   XCENC  =      -126.88069189
  PAW double counting   =     11585.48135646   -11094.94746882
  entropy T*S    EENTRO =         0.00000000
  eigenvalues    EBANDS =      -906.42526401
  atomic energy  EATOM  =     11409.89059604
  ---------------------------------------------------
  free energy    TOTEN  =       -19.08008064 eV

  energy without entropy =      -19.08008064  energy(sigma->0) =      -19.08008064


--------------------------------------------------------------------------------------------------------




----------------------------------------- Iteration    1(  24)  ---------------------------------------


    POTLOK:  cpu time    0.72: real time    0.72
    SETDIJ:  cpu time    0.01: real time    0.01
     EDDAV:  cpu time    2.24: real time    2.24
       DOS:  cpu time    0.00: real time    0.00
    CHARGE:  cpu time    0.22: real time    0.22
    MIXING:  cpu time    0.06: real time    0.06
    --------------------------------------------
      LOOP:  cpu time    3.24: real time    3.25

 eigenvalue-minimisations  :   328
 total energy-change (2. order) :-0.8590883E-02  (-0.5315949E-02)
 number of electron     121.0000044 magnetization       0.9302709
 augmentation part       58.3680021 magnetization      -0.1013073

 Broyden mixing:
  rms(total) = 0.17922E+00    rms(broyden)= 0.17922E+00
  rms(prec ) = 0.18780E+00
  weight for this iteration     100.00

 eigenvalues of (default mixing * dielectric matrix)
  average eigenvalue GAMMA=   1.8559
  7.1539  7.1539  5.1185  2.6310  2.3310  1.3000  1.3000  0.9946  0.9946  0.1717
  0.1717  0.8831  0.8831  0.7968  0.7968  0.6643  0.6643  0.6281  0.6246

 Free energy of the ion-electron system (eV)
  ---------------------------------------------------
  alpha Z        PSCENC =        16.75431433
  Ewald energy   TEWEN  =     11085.31098868
  -Hartree energ DENC   =    -21994.72779053
  -exchange      EXHF   =         0.00000000
  -V(xc)+E(xc)   XCENC  =      -126.83304906
  PAW double counting   =     11646.57200052   -11155.90482625
  entropy T*S    EENTRO =         0.00000000
  eigenvalues    EBANDS =      -900.15090525
  atomic energy  EATOM  =     11409.89059604
  ---------------------------------------------------
  free energy    TOTEN  =       -19.08867153 eV

  energy without entropy =      -19.08867153  energy(sigma->0) =      -19.08867153


--------------------------------------------------------------------------------------------------------




----------------------------------------- Iteration    1(  25)  ---------------------------------------


    POTLOK:  cpu time    0.72: real time    0.72
    SETDIJ:  cpu time    0.01: real time    0.01
     EDDAV:  cpu time    2.36: real time    2.36
       DOS:  cpu time    0.00: real time    0.00
    CHARGE:  cpu time    0.22: real time    0.22
    MIXING:  cpu time    0.06: real time    0.06
    --------------------------------------------
      LOOP:  cpu time    3.37: real time    3.65

 eigenvalue-minimisations  :   352
 total energy-change (2. order) :-0.1040942E-03  (-0.3977459E-02)
 number of electron     121.0000044 magnetization       0.9313797
 augmentation part       58.3183824 magnetization      -0.1099738

 Broyden mixing:
  rms(total) = 0.95770E-01    rms(broyden)= 0.95770E-01
  rms(prec ) = 0.10035E+00
  weight for this iteration     100.00

 eigenvalues of (default mixing * dielectric matrix)
  average eigenvalue GAMMA=   1.8559
  7.0869  7.0869  5.5226  2.6348  2.6348  1.4576  1.4576  1.0002  1.0002  0.1717
  0.1717  0.9545  0.9545  0.8428  0.8428  0.7451  0.6854  0.6344  0.6171  0.6171

 Free energy of the ion-electron system (eV)
  ---------------------------------------------------
  alpha Z        PSCENC =        16.75431433
  Ewald energy   TEWEN  =     11085.31098868
  -Hartree energ DENC   =    -22000.35951298
  -exchange      EXHF   =         0.00000000
  -V(xc)+E(xc)   XCENC  =      -126.76998544
  PAW double counting   =     11700.82074636   -11210.04138504
  entropy T*S    EENTRO =         0.00000000
  eigenvalues    EBANDS =      -894.69453758
  atomic energy  EATOM  =     11409.89059604
  ---------------------------------------------------
  free energy    TOTEN  =       -19.08877562 eV

  energy without entropy =      -19.08877562  energy(sigma->0) =      -19.08877562


--------------------------------------------------------------------------------------------------------




----------------------------------------- Iteration    1(  26)  ---------------------------------------


    POTLOK:  cpu time    0.72: real time    0.72
    SETDIJ:  cpu time    0.01: real time    0.01
     EDDAV:  cpu time    2.36: real time    2.36
       DOS:  cpu time    0.00: real time    0.00
    CHARGE:  cpu time    0.22: real time    0.22
    MIXING:  cpu time    0.07: real time    0.07
    --------------------------------------------
      LOOP:  cpu time    3.38: real time    3.39

 eigenvalue-minimisations  :   352
 total energy-change (2. order) :-0.2205907E-02  (-0.8635782E-03)
 number of electron     121.0000044 magnetization       0.9618914
 augmentation part       58.2948589 magnetization      -0.0842272

 Broyden mixing:
  rms(total) = 0.57928E-01    rms(broyden)= 0.57928E-01
  rms(prec ) = 0.60659E-01
  weight for this iteration     100.00

 eigenvalues of (default mixing * dielectric matrix)
  average eigenvalue GAMMA=   1.8633
  7.3591  7.3591  5.7017  2.8639  2.8639  1.3760  1.3760  1.0034  1.0034  1.2113
  0.1717  0.1717  0.8393  0.8393  0.8892  0.8892  0.6447  0.6447  0.6797  0.6428
  0.5982

 Free energy of the ion-electron system (eV)
  ---------------------------------------------------
  alpha Z        PSCENC =        16.75431433
  Ewald energy   TEWEN  =     11085.31098868
  -Hartree energ DENC   =    -22002.82667409
  -exchange      EXHF   =         0.00000000
  -V(xc)+E(xc)   XCENC  =      -126.74037996
  PAW double counting   =     11726.63856989   -11235.82619336
  entropy T*S    EENTRO =         0.00000000
  eigenvalues    EBANDS =      -892.29220305
  atomic energy  EATOM  =     11409.89059604
  ---------------------------------------------------
  free energy    TOTEN  =       -19.09098153 eV

  energy without entropy =      -19.09098153  energy(sigma->0) =      -19.09098153


--------------------------------------------------------------------------------------------------------




----------------------------------------- Iteration    1(  27)  ---------------------------------------


    POTLOK:  cpu time    0.72: real time    0.72
    SETDIJ:  cpu time    0.01: real time    0.01
     EDDAV:  cpu time    2.32: real time    2.32
       DOS:  cpu time    0.00: real time    0.00
    CHARGE:  cpu time    0.22: real time    0.22
    MIXING:  cpu time    0.08: real time    0.07
    --------------------------------------------
      LOOP:  cpu time    3.34: real time    3.35

 eigenvalue-minimisations  :   344
 total energy-change (2. order) :-0.1856238E-02  (-0.4694193E-03)
 number of electron     121.0000044 magnetization       0.9944012
 augmentation part       58.2778893 magnetization      -0.0568014

 Broyden mixing:
  rms(total) = 0.28190E-01    rms(broyden)= 0.28190E-01
  rms(prec ) = 0.29565E-01
  weight for this iteration     100.00

 eigenvalues of (default mixing * dielectric matrix)
  average eigenvalue GAMMA=   1.8842
  7.8312  7.8312  5.2491  2.9731  2.9731  1.7448  1.7448  0.9930  0.9930  0.1717
  0.1717  1.0653  1.0653  1.0190  0.8293  0.8293  0.7802  0.6680  0.6680  0.6263
  0.6125  0.6125

 Free energy of the ion-electron system (eV)
  ---------------------------------------------------
  alpha Z        PSCENC =        16.75431433
  Ewald energy   TEWEN  =     11085.31098868
  -Hartree energ DENC   =    -22004.77856982
  -exchange      EXHF   =         0.00000000
  -V(xc)+E(xc)   XCENC  =      -126.71591425
  PAW double counting   =     11746.06672129   -11255.22445700
  entropy T*S    EENTRO =         0.00000000
  eigenvalues    EBANDS =      -890.39651703
  atomic energy  EATOM  =     11409.89059604
  ---------------------------------------------------
  free energy    TOTEN  =       -19.09283777 eV

  energy without entropy =      -19.09283777  energy(sigma->0) =      -19.09283777


--------------------------------------------------------------------------------------------------------




----------------------------------------- Iteration    1(  28)  ---------------------------------------


    POTLOK:  cpu time    0.72: real time    0.72
    SETDIJ:  cpu time    0.01: real time    0.01
     EDDAV:  cpu time    2.32: real time    2.32
       DOS:  cpu time    0.00: real time    0.00
    CHARGE:  cpu time    0.22: real time    0.22
    MIXING:  cpu time    0.08: real time    0.08
    --------------------------------------------
      LOOP:  cpu time    3.35: real time    3.36

 eigenvalue-minimisations  :   344
 total energy-change (2. order) :-0.7589018E-03  (-0.1793522E-03)
 number of electron     121.0000044 magnetization       0.9992797
 augmentation part       58.2675791 magnetization      -0.0557256

 Broyden mixing:
  rms(total) = 0.11301E-01    rms(broyden)= 0.11301E-01
  rms(prec ) = 0.11842E-01
  weight for this iteration     100.00

 eigenvalues of (default mixing * dielectric matrix)
  average eigenvalue GAMMA=   1.9097
  7.9989  7.9989  5.3576  3.2091  3.2091  2.3044  1.5484  1.2519  1.2519  0.9936
  0.9936  0.1717  0.1717  0.9759  0.9510  0.8284  0.8284  0.7076  0.6532  0.6532
  0.6251  0.6251  0.6149

 Free energy of the ion-electron system (eV)
  ---------------------------------------------------
  alpha Z        PSCENC =        16.75431433
  Ewald energy   TEWEN  =     11085.31098868
  -Hartree energ DENC   =    -22005.94210377
  -exchange      EXHF   =         0.00000000
  -V(xc)+E(xc)   XCENC  =      -126.69842548
  PAW double counting   =     11758.77763550   -11267.91702633
  entropy T*S    EENTRO =         0.00000000
  eigenvalues    EBANDS =      -889.26957564
  atomic energy  EATOM  =     11409.89059604
  ---------------------------------------------------
  free energy    TOTEN  =       -19.09359667 eV

  energy without entropy =      -19.09359667  energy(sigma->0) =      -19.09359667


--------------------------------------------------------------------------------------------------------




----------------------------------------- Iteration    1(  29)  ---------------------------------------


    POTLOK:  cpu time    0.71: real time    0.71
    SETDIJ:  cpu time    0.01: real time    0.01
     EDDAV:  cpu time    2.09: real time    2.09
       DOS:  cpu time    0.00: real time    0.00
    CHARGE:  cpu time    0.22: real time    0.22
    MIXING:  cpu time    0.09: real time    0.09
    --------------------------------------------
      LOOP:  cpu time    3.13: real time    3.14

 eigenvalue-minimisations  :   296
 total energy-change (2. order) :-0.1961489E-02  (-0.3818720E-04)
 number of electron     121.0000044 magnetization       1.0021992
 augmentation part       58.2642570 magnetization      -0.0541407

 Broyden mixing:
  rms(total) = 0.43054E-02    rms(broyden)= 0.43054E-02
  rms(prec ) = 0.45737E-02
  weight for this iteration     100.00

 eigenvalues of (default mixing * dielectric matrix)
  average eigenvalue GAMMA=   1.8933
  7.9737  7.9737  5.7734  3.2204  3.2204  2.4521  1.6489  1.2827  1.2827  0.9933
  0.9933  0.1717  0.1717  1.1029  0.8325  0.8325  0.8373  0.8373  0.6592  0.6592
  0.6183  0.6183  0.6417  0.6417

 Free energy of the ion-electron system (eV)
  ---------------------------------------------------
  alpha Z        PSCENC =        16.75431433
  Ewald energy   TEWEN  =     11085.31098868
  -Hartree energ DENC   =    -22006.21665324
  -exchange      EXHF   =         0.00000000
  -V(xc)+E(xc)   XCENC  =      -126.69602559
  PAW double counting   =     11764.39764729   -11273.52481539
  entropy T*S    EENTRO =         0.00000000
  eigenvalues    EBANDS =      -889.01161028
  atomic energy  EATOM  =     11409.89059604
  ---------------------------------------------------
  free energy    TOTEN  =       -19.09555816 eV

  energy without entropy =      -19.09555816  energy(sigma->0) =      -19.09555816


--------------------------------------------------------------------------------------------------------




----------------------------------------- Iteration    1(  30)  ---------------------------------------


    POTLOK:  cpu time    0.72: real time    0.72
    SETDIJ:  cpu time    0.01: real time    0.01
     EDDAV:  cpu time    1.86: real time    1.86
       DOS:  cpu time    0.00: real time    0.00
    CHARGE:  cpu time    0.22: real time    0.22
    MIXING:  cpu time    0.10: real time    0.09
    --------------------------------------------
      LOOP:  cpu time    2.90: real time    8.46

 eigenvalue-minimisations  :   248
 total energy-change (2. order) :-0.5101557E-03  (-0.4217113E-05)
 number of electron     121.0000044 magnetization       1.0054092
 augmentation part       58.2632274 magnetization      -0.0511960

 Broyden mixing:
  rms(total) = 0.23087E-02    rms(broyden)= 0.23086E-02
  rms(prec ) = 0.24984E-02
  weight for this iteration     100.00

 eigenvalues of (default mixing * dielectric matrix)
  average eigenvalue GAMMA=   1.8842
  8.0906  8.0906  5.7190  3.1936  3.1936  2.8480  1.7916  1.3003  1.3003  1.2578
  0.9935  0.9935  0.1717  0.1717  0.8353  0.8353  0.8708  0.8708  0.7562  0.6645
  0.6645  0.6251  0.6251  0.6400  0.6019

 Free energy of the ion-electron system (eV)
  ---------------------------------------------------
  alpha Z        PSCENC =        16.75431433
  Ewald energy   TEWEN  =     11085.31098868
  -Hartree energ DENC   =    -22006.27832684
  -exchange      EXHF   =         0.00000000
  -V(xc)+E(xc)   XCENC  =      -126.69525828
  PAW double counting   =     11765.35790953   -11274.48004304
  entropy T*S    EENTRO =         0.00000000
  eigenvalues    EBANDS =      -888.95624872
  atomic energy  EATOM  =     11409.89059604
  ---------------------------------------------------
  free energy    TOTEN  =       -19.09606831 eV

  energy without entropy =      -19.09606831  energy(sigma->0) =      -19.09606831


--------------------------------------------------------------------------------------------------------




----------------------------------------- Iteration    1(  31)  ---------------------------------------


    POTLOK:  cpu time    0.72: real time    0.72
    SETDIJ:  cpu time    0.01: real time    0.01
     EDDAV:  cpu time    1.78: real time    1.78
       DOS:  cpu time    0.00: real time    0.00
    CHARGE:  cpu time    0.22: real time    0.22
    MIXING:  cpu time    0.10: real time    0.10
    --------------------------------------------
      LOOP:  cpu time    2.83: real time    2.83

 eigenvalue-minimisations  :   232
 total energy-change (2. order) :-0.4068908E-03  (-0.6444811E-05)
 number of electron     121.0000044 magnetization       1.0036406
 augmentation part       58.2618623 magnetization      -0.0533673

 Broyden mixing:
  rms(total) = 0.35152E-03    rms(broyden)= 0.35150E-03
  rms(prec ) = 0.49925E-03
  weight for this iteration     100.00

 eigenvalues of (default mixing * dielectric matrix)
  average eigenvalue GAMMA=   1.8839
  8.1450  8.1450  5.7505  3.5995  3.0405  3.0405  1.8068  1.7535  1.2242  1.2242
  0.9937  0.9937  0.1717  0.1717  1.0622  0.8348  0.8348  0.8294  0.8294  0.6870
  0.6870  0.6499  0.6499  0.6311  0.6311  0.5950

 Free energy of the ion-electron system (eV)
  ---------------------------------------------------
  alpha Z        PSCENC =        16.75431433
  Ewald energy   TEWEN  =     11085.31098868
  -Hartree energ DENC   =    -22006.36188108
  -exchange      EXHF   =         0.00000000
  -V(xc)+E(xc)   XCENC  =      -126.69362419
  PAW double counting   =     11766.67930053   -11275.79692799
  entropy T*S    EENTRO =         0.00000000
  eigenvalues    EBANDS =      -888.87924151
  atomic energy  EATOM  =     11409.89059604
  ---------------------------------------------------
  free energy    TOTEN  =       -19.09647520 eV

  energy without entropy =      -19.09647520  energy(sigma->0) =      -19.09647520


--------------------------------------------------------------------------------------------------------




----------------------------------------- Iteration    1(  32)  ---------------------------------------


    POTLOK:  cpu time    0.72: real time    0.72
    SETDIJ:  cpu time    0.01: real time    0.01
     EDDAV:  cpu time    1.82: real time    1.82
       DOS:  cpu time    0.00: real time    0.00
    CHARGE:  cpu time    0.22: real time    0.22
    MIXING:  cpu time    0.11: real time    0.11
    --------------------------------------------
      LOOP:  cpu time    2.88: real time    2.88

 eigenvalue-minimisations  :   240
 total energy-change (2. order) :-0.1989950E-03  (-0.2437581E-05)
 number of electron     121.0000044 magnetization       1.0023897
 augmentation part       58.2617571 magnetization      -0.0546037

 Broyden mixing:
  rms(total) = 0.25964E-03    rms(broyden)= 0.25963E-03
  rms(prec ) = 0.34580E-03
  weight for this iteration     100.00

 eigenvalues of (default mixing * dielectric matrix)
  average eigenvalue GAMMA=   1.9019
  8.2233  8.2233  6.0837  3.8516  3.0625  3.0625  2.3633  1.6444  1.3082  1.3082
  0.9936  0.9936  0.1717  0.1717  1.1683  0.8342  0.8342  0.9106  0.7948  0.7948
  0.7335  0.6701  0.6701  0.6273  0.6273  0.6269  0.5977

 Free energy of the ion-electron system (eV)
  ---------------------------------------------------
  alpha Z        PSCENC =        16.75431433
  Ewald energy   TEWEN  =     11085.31098868
  -Hartree energ DENC   =    -22006.32685243
  -exchange      EXHF   =         0.00000000
  -V(xc)+E(xc)   XCENC  =      -126.69381579
  PAW double counting   =     11767.04109469   -11276.15858130
  entropy T*S    EENTRO =         0.00000000
  eigenvalues    EBANDS =      -888.91441842
  atomic energy  EATOM  =     11409.89059604
  ---------------------------------------------------
  free energy    TOTEN  =       -19.09667420 eV

  energy without entropy =      -19.09667420  energy(sigma->0) =      -19.09667420


--------------------------------------------------------------------------------------------------------




----------------------------------------- Iteration    1(  33)  ---------------------------------------


    POTLOK:  cpu time    0.72: real time    0.72
    SETDIJ:  cpu time    0.01: real time    0.01
     EDDAV:  cpu time    1.78: real time    1.78
       DOS:  cpu time    0.00: real time    0.00
    CHARGE:  cpu time    0.22: real time    0.22
    MIXING:  cpu time    0.11: real time    0.11
    --------------------------------------------
      LOOP:  cpu time    2.84: real time    2.89

 eigenvalue-minimisations  :   232
 total energy-change (2. order) :-0.5471302E-04  (-0.7039822E-06)
 number of electron     121.0000044 magnetization       1.0019009
 augmentation part       58.2617729 magnetization      -0.0550167

 Broyden mixing:
  rms(total) = 0.17819E-03    rms(broyden)= 0.17819E-03
  rms(prec ) = 0.23238E-03
  weight for this iteration     100.00

 eigenvalues of (default mixing * dielectric matrix)
  average eigenvalue GAMMA=   1.9090
  8.2738  8.2738  6.4575  3.5693  3.5693  2.8562  2.8562  1.6847  1.3961  1.3961
  0.9938  0.9938  0.1717  0.1717  1.0292  1.0292  0.8849  0.8849  0.8263  0.8263
  0.7417  0.7417  0.6774  0.6774  0.6234  0.6234  0.6311  0.5919

 Free energy of the ion-electron system (eV)
  ---------------------------------------------------
  alpha Z        PSCENC =        16.75431433
  Ewald energy   TEWEN  =     11085.31098868
  -Hartree energ DENC   =    -22006.27415409
  -exchange      EXHF   =         0.00000000
  -V(xc)+E(xc)   XCENC  =      -126.69426822
[...]
     26      -7.5168      1.00000
     27      -7.4991      1.00000
     28      -7.4218      1.00000
     29      -7.3699      1.00000
     30      -7.3630      1.00000
     31      -7.2996      1.00000
     32      -7.2412      1.00000
     33      -7.1562      1.00000
     34      -7.1340      1.00000
     35      -7.1253      1.00000
     36      -7.0665      1.00000
     37      -7.0367      1.00000
     38      -7.0330      1.00000
     39      -7.0266      1.00000
     40      -6.9812      1.00000
     41      -6.9490      1.00000
     42      -6.9009      1.00000
     43      -6.8882      1.00000
     44      -6.8548      1.00000
     45      -6.8099      1.00000
     46      -6.7777      1.00000
     47      -6.7660      1.00000
     48      -6.7273      1.00000
     49      -6.7093      1.00000
     50      -6.6881      1.00000
     51      -6.6782      1.00000
     52      -6.6256      1.00000
     53      -6.5910      1.00000
     54      -6.5665      1.00000
     55      -6.5167      1.00000
     56      -6.4752      1.00000
     57      -5.9846      1.00000
     58      -5.2672      1.00000
     59      -5.0309      1.00000
     60      -3.8868      1.00000
     61      -3.4796      1.00000
     62      -3.2286      0.00000
     63      -2.9433      0.00000
     64      -2.4520      0.00000
     65      -2.4396      0.00000
     66      -1.6823      0.00000
     67      -1.2642      0.00000
     68      -1.1713      0.00000
     69      -0.9755      0.00000
     70      -0.9608      0.00000
     71      -0.8104      0.00000
     72      -0.5992      0.00000
     73      -0.1945      0.00000
     74       0.0739      0.00000
     75       0.1337      0.00000
     76       0.2378      0.00000
     77       0.2933      0.00000
     78       0.5462      0.00000
     79       0.5735      0.00000
     80       0.6563      0.00000

 spin component 2

 k-point     1 :       0.0000    0.0000    0.0000
  band No.  band energies     occupation 
      1      -9.2678      1.00000
      2      -8.8845      1.00000
      3      -8.8553      1.00000
      4      -8.6697      1.00000
      5      -8.5884      1.00000
      6      -8.5705      1.00000
      7      -8.5311      1.00000
      8      -8.4853      1.00000
      9      -8.4457      1.00000
     10      -8.3861      1.00000
     11      -8.3657      1.00000
     12      -8.3560      1.00000
     13      -8.3189      1.00000
     14      -8.2485      1.00000
     15      -8.1825      1.00000
     16      -8.0938      1.00000
     17      -8.0764      1.00000
     18      -8.0128      1.00000
     19      -7.9574      1.00000
     20      -7.9463      1.00000
     21      -7.8809      1.00000
     22      -7.8182      1.00000
     23      -7.7241      1.00000
     24      -7.7041      1.00000
     25      -7.6760      1.00000
     26      -7.4997      1.00000
     27      -7.4753      1.00000
     28      -7.3950      1.00000
     29      -7.3502      1.00000
     30      -7.3434      1.00000
     31      -7.2863      1.00000
     32      -7.2093      1.00000
     33      -7.1441      1.00000
     34      -7.1208      1.00000
     35      -7.0961      1.00000
     36      -7.0510      1.00000
     37      -7.0144      1.00000
     38      -7.0111      1.00000
     39      -7.0098      1.00000
     40      -6.9556      1.00000
     41      -6.9348      1.00000
     42      -6.8877      1.00000
     43      -6.8751      1.00000
     44      -6.8185      1.00000
     45      -6.7915      1.00000
     46      -6.7545      1.00000
     47      -6.7276      1.00000
     48      -6.6990      1.00000
     49      -6.6950      1.00000
     50      -6.6657      1.00000
     51      -6.6634      1.00000
     52      -6.6043      1.00000
     53      -6.5646      1.00000
     54      -6.5437      1.00000
     55      -6.4990      1.00000
     56      -6.4580      1.00000
     57      -5.9286      1.00000
     58      -5.2281      1.00000
     59      -4.9236      1.00000
     60      -3.8180      1.00000
     61      -3.2536      0.00000
     62      -3.1733      0.00000
     63      -2.8870      0.00000
     64      -2.3610      0.00000
     65      -2.3546      0.00000
     66      -1.6483      0.00000
     67      -1.1274      0.00000
     68      -1.1210      0.00000
     69      -0.8767      0.00000
     70      -0.8331      0.00000
     71      -0.6384      0.00000
     72      -0.5549      0.00000
     73      -0.1311      0.00000
     74       0.1636      0.00000
     75       0.1953      0.00000
     76       0.2938      0.00000
     77       0.3426      0.00000
     78       0.5877      0.00000
     79       0.6240      0.00000
     80       0.6929      0.00000


--------------------------------------------------------------------------------------------------------


 soft charge-density along one line, spin component           1
         0         1         2         3         4         5         6         7         8         9
 total charge-density along one line
 
 soft charge-density along one line, spin component           2
         0         1         2         3         4         5         6         7         8         9
 total charge-density along one line
 
 pseudopotential strength for first ion, spin component:           1
-10.280  -0.001   0.014  -0.002  -0.002 -10.256  -0.001   0.013
 -0.001 -10.277  -0.005  -0.015  -0.000  -0.001 -10.253  -0.005
  0.014  -0.005 -10.274  -0.004  -0.003   0.013  -0.005 -10.250
 -0.002  -0.015  -0.004 -10.274   0.001  -0.002  -0.015  -0.004
 -0.002  -0.000  -0.003   0.001 -10.290  -0.002  -0.000  -0.003
-10.256  -0.001   0.013  -0.002  -0.002 -10.208  -0.001   0.013
 -0.001 -10.253  -0.005  -0.015  -0.000  -0.001 -10.206  -0.004
  0.013  -0.005 -10.250  -0.004  -0.003   0.013  -0.004 -10.203
 -0.002  -0.015  -0.004 -10.250   0.001  -0.002  -0.014  -0.004
 -0.002  -0.000  -0.003   0.001 -10.266  -0.002  -0.000  -0.003
  0.006   0.001  -0.004   0.001  -0.001   0.006   0.001  -0.004
  0.010   0.002  -0.006   0.002  -0.002   0.010   0.002  -0.006
  0.019   0.004  -0.014  -0.000  -0.024   0.018   0.004  -0.013
 -0.000   0.025   0.004   0.019  -0.000  -0.000   0.024   0.004
  0.024  -0.000  -0.011   0.004   0.019   0.023  -0.000  -0.011
  0.023   0.005  -0.017  -0.000  -0.029   0.022   0.005  -0.016
 -0.000   0.030   0.005   0.023  -0.000  -0.000   0.029   0.005
  0.029  -0.000  -0.013   0.005   0.023   0.028  -0.000  -0.013
 pseudopotential strength for first ion, spin component:           2
-10.279  -0.001   0.014  -0.002  -0.002 -10.256  -0.001   0.013
 -0.001 -10.276  -0.004  -0.015   0.001  -0.001 -10.252  -0.004
  0.014  -0.004 -10.273  -0.004  -0.002   0.013  -0.004 -10.249
 -0.002  -0.015  -0.004 -10.273   0.001  -0.002  -0.015  -0.004
 -0.002   0.001  -0.002   0.001 -10.286  -0.002   0.001  -0.002
-10.256  -0.001   0.013  -0.002  -0.002 -10.208  -0.001   0.013
 -0.001 -10.252  -0.004  -0.015   0.001  -0.001 -10.205  -0.004
  0.013  -0.004 -10.249  -0.004  -0.002   0.013  -0.004 -10.202
 -0.002  -0.015  -0.004 -10.250   0.001  -0.002  -0.014  -0.004
 -0.002   0.001  -0.002   0.001 -10.262  -0.002   0.001  -0.002
  0.006   0.002  -0.003   0.001  -0.001   0.006   0.002  -0.003
  0.010   0.002  -0.005   0.002  -0.001   0.010   0.002  -0.005
  0.019   0.004  -0.014  -0.000  -0.025   0.018   0.004  -0.014
 -0.000   0.025   0.004   0.020   0.000  -0.000   0.024   0.004
  0.025  -0.000  -0.011   0.004   0.020   0.024  -0.000  -0.011
  0.023   0.004  -0.017  -0.000  -0.030   0.022   0.004  -0.016
 -0.000   0.031   0.005   0.024   0.000  -0.000   0.029   0.005
  0.030  -0.000  -0.013   0.005   0.024   0.029  -0.000  -0.013
 total augmentation occupancy for first ion, spin component:           1
  2.573   0.047  -0.151   0.055  -0.008  -0.547  -0.056   0.177  -0.057  -0.019  -0.464   0.120   0.079   0.017   0.089   0.006
  0.047   2.383  -0.027   0.023  -0.027  -0.056  -0.365  -0.022  -0.091   0.016  -0.125   0.032   0.021   0.034   0.018   0.001
 -0.151  -0.027   2.413  -0.029   0.040   0.177  -0.022  -0.397  -0.019  -0.052   0.355  -0.061  -0.060   0.016  -0.042  -0.004
  0.055   0.023  -0.029   2.335   0.059  -0.057  -0.091  -0.019  -0.316  -0.041  -0.133   0.030   0.012   0.027   0.029  -0.001
 -0.008  -0.027   0.040   0.059   2.542  -0.019   0.015  -0.052  -0.041  -0.626   0.087  -0.020  -0.073   0.007   0.053  -0.011
 -0.547  -0.056   0.177  -0.057  -0.019   0.505   0.063  -0.202   0.059   0.042   0.392  -0.094  -0.093  -0.018  -0.113   0.007
 -0.056  -0.365  -0.022  -0.091   0.015   0.063   0.327   0.061   0.147  -0.006   0.104  -0.027  -0.019  -0.068  -0.019   0.002
  0.177  -0.022  -0.397  -0.019  -0.052  -0.202   0.061   0.361   0.059   0.063  -0.308   0.053   0.077  -0.033   0.055  -0.006
 -0.057  -0.091  -0.019  -0.316  -0.041   0.059   0.147   0.059   0.276   0.025   0.116  -0.028  -0.014  -0.058  -0.026   0.001
 -0.019   0.016  -0.052  -0.041  -0.626   0.042  -0.006   0.063   0.025   0.676  -0.077   0.017   0.106  -0.006  -0.084  -0.007
 -0.464  -0.125   0.355  -0.133   0.087   0.392   0.104  -0.308   0.116  -0.077   1.751  -0.169  -0.195  -0.037  -0.160   0.017
  0.120   0.032  -0.061   0.030  -0.020  -0.094  -0.027   0.053  -0.028   0.017  -0.169   0.034   0.034   0.010   0.029  -0.002
  0.079   0.021  -0.060   0.012  -0.073  -0.093  -0.019   0.077  -0.014   0.106  -0.195   0.034   0.052   0.005   0.017  -0.004
  0.017   0.034   0.016   0.027   0.007  -0.018  -0.068  -0.033  -0.058  -0.006  -0.037   0.010   0.005   0.023   0.008  -0.000
  0.089   0.018  -0.042   0.029   0.053  -0.113  -0.019   0.055  -0.026  -0.084  -0.160   0.029   0.017   0.008   0.046  -0.002
  0.006   0.001  -0.004  -0.001  -0.011   0.007   0.002  -0.006   0.001  -0.007   0.017  -0.002  -0.004  -0.000  -0.002   0.001
 -0.001   0.013   0.001   0.010  -0.000   0.001   0.005   0.002   0.004   0.000   0.004  -0.001  -0.000  -0.002  -0.001   0.000
  0.009  -0.001  -0.003   0.000   0.010   0.008   0.001  -0.005   0.002   0.005   0.014  -0.002  -0.002  -0.001  -0.004   0.000
 total augmentation occupancy for first ion, spin component:           2
 -0.008   0.005   0.004   0.002   0.018   0.004  -0.005  -0.004  -0.002  -0.014   0.010   0.000  -0.004   0.002   0.002   0.000
  0.005   0.014   0.010   0.005   0.038  -0.005  -0.012  -0.008  -0.003  -0.030   0.014   0.001  -0.007   0.004   0.009   0.000
  0.004   0.010  -0.000  -0.000   0.021  -0.004  -0.008  -0.001  -0.000  -0.016   0.009   0.000  -0.003   0.003   0.004   0.000
  0.002   0.005  -0.000  -0.006   0.006  -0.002  -0.003  -0.000   0.003  -0.005   0.000   0.001  -0.001   0.001   0.002   0.000
  0.018   0.038   0.021   0.006   0.066  -0.014  -0.030  -0.016  -0.005  -0.053   0.020   0.002  -0.013   0.011   0.018   0.000
  0.004  -0.005  -0.004  -0.002  -0.014  -0.001   0.004   0.004   0.001   0.011  -0.009   0.001   0.004  -0.002  -0.002  -0.000
 -0.005  -0.012  -0.008  -0.003  -0.030   0.004   0.010   0.006   0.002   0.024  -0.012  -0.000   0.006  -0.004  -0.007  -0.000
 -0.004  -0.008  -0.001  -0.000  -0.016   0.004   0.006   0.002   0.000   0.011  -0.007  -0.000   0.003  -0.002  -0.004  -0.000
 -0.002  -0.003  -0.000   0.003  -0.005   0.001   0.002   0.000  -0.001   0.004   0.001  -0.000   0.001  -0.001  -0.001  -0.000
 -0.014  -0.030  -0.016  -0.005  -0.053   0.011   0.024   0.011   0.004   0.042  -0.015  -0.001   0.010  -0.008  -0.013  -0.000
  0.010   0.014   0.009   0.000   0.020  -0.009  -0.012  -0.007   0.001  -0.015   0.004  -0.001  -0.005   0.004   0.005   0.000
  0.000   0.001   0.000   0.001   0.002   0.001  -0.000  -0.000  -0.000  -0.001  -0.001   0.000  -0.000   0.000   0.000  -0.000
 -0.004  -0.007  -0.003  -0.001  -0.013   0.004   0.006   0.003   0.001   0.010  -0.005  -0.000   0.002  -0.002  -0.003  -0.000
  0.002   0.004   0.003   0.001   0.011  -0.002  -0.004  -0.002  -0.001  -0.008   0.004   0.000  -0.002   0.001   0.002   0.000
  0.002   0.009   0.004   0.002   0.018  -0.002  -0.007  -0.004  -0.001  -0.013   0.005   0.000  -0.003   0.002   0.004   0.000
  0.000   0.000   0.000   0.000   0.000  -0.000  -0.000  -0.000  -0.000  -0.000   0.000  -0.000  -0.000   0.000   0.000   0.000
 -0.000  -0.000  -0.000   0.000  -0.000   0.000   0.000   0.000   0.000   0.000  -0.000   0.000   0.000  -0.000  -0.000  -0.000
 -0.000  -0.000  -0.000  -0.000  -0.000   0.000   0.000   0.000   0.000   0.000  -0.000  -0.000   0.000  -0.000  -0.000  -0.000


------------------------ aborting loop because EDIFF is reached ----------------------------------------


    CHARGE:  cpu time    0.21: real time    0.22
    FORLOC:  cpu time    0.02: real time    0.02
    FORNL :  cpu time    0.75: real time    0.75
    STRESS:  cpu time    1.26: real time    1.26
    FORCOR:  cpu time    0.70: real time    0.70
    FORHAR:  cpu time    0.10: real time    0.10
    MIXING:  cpu time    0.02: real time    0.02
    OFIELD:  cpu time    0.00: real time    0.00

  FORCE on cell =-STRESS in cart. coord.  units (eV):
  Direction    XX          YY          ZZ          XY          YZ          ZX
  --------------------------------------------------------------------------------------
  Alpha Z    16.75431    16.75431    16.75431
  Ewald    2687.73693  3011.52127  5404.69188   584.73153   -96.62353   405.57530
  Hartree  6412.04084  6691.01399  8921.63966   502.69037   -83.91321   372.89273
  E(xc)    -637.57903  -637.43974  -637.32901     0.26264    -0.06978     0.06098
  Local  -10878.30704-11479.73730-16102.19215 -1085.89323   181.62132  -779.53073
  n-local  -120.39318  -120.34778  -119.92673     0.18671    -0.29078     0.35545
  augment  1011.07653  1010.58717  1009.77475    -0.68277    -0.20331     0.14248
  Kinetic  1508.56494  1507.58380  1506.41638    -1.31633    -0.49740     0.47528
  Fock        0.00000     0.00000     0.00000     0.00000     0.00000     0.00000
  -------------------------------------------------------------------------------------
  Total      -0.10569    -0.06427    -0.17092    -0.02109     0.02331    -0.02852
  in kB      -0.02757    -0.01676    -0.04458    -0.00550     0.00608    -0.00744
  external pressure =       -0.03 kB  Pullay stress =        0.00 kB


 VOLUME and BASIS-vectors are now :
 -----------------------------------------------------------------------------
  energy-cutoff  :      520.00
  volume of cell :     6142.89
      direct lattice vectors                 reciprocal lattice vectors
    18.314326992  0.000000000  0.000000000     0.054602061  0.000000000  0.000000000
     0.000000000 18.314326992  0.000000000     0.000000000  0.054602061  0.000000000
     0.000000000  0.000000000 18.314326992     0.000000000  0.000000000  0.054602061

  length of vectors
    18.314326992 18.314326992 18.314326992     0.054602061  0.054602061  0.054602061


 FORCES acting on ions
    electron-ion (+dipol)            ewald-force                    non-local-force                 convergence-correction
 -----------------------------------------------------------------------------------------------
   -.530E+03 -.618E+03 -.351E+03   0.526E+03 0.613E+03 0.351E+03   0.403E+01 0.502E+01 0.687E+00   -.837E-02 0.205E-01 -.426E-01
   -.349E+03 -.598E+03 0.552E+03   0.346E+03 0.593E+03 -.550E+03   0.329E+01 0.509E+01 -.233E+01   0.144E-01 0.113E-01 0.571E-01
   -.613E+03 0.278E+03 -.635E+03   0.610E+03 -.278E+03 0.632E+03   0.275E+01 -.332E+00 0.291E+01   -.583E-02 0.135E-01 -.525E-02
   -.310E+03 -.434E+03 0.676E+02   0.310E+03 0.435E+03 -.677E+02   -.416E+00 -.561E+00 0.146E+00   -.372E-01 -.711E-01 0.407E-02
   -.489E+03 0.801E+03 0.191E+02   0.486E+03 -.798E+03 -.194E+02   0.305E+01 -.373E+01 0.283E+00   0.264E-02 -.669E-02 -.132E-01
   0.561E+03 -.359E+03 0.645E+03   -.559E+03 0.358E+03 -.642E+03   -.175E+01 0.179E+01 -.313E+01   0.116E-01 -.652E-02 -.109E-01
   -.478E+03 0.341E+03 0.728E+03   0.477E+03 -.339E+03 -.723E+03   0.161E+01 -.129E+01 -.502E+01   -.232E-02 0.233E-02 -.204E-01
   0.359E+03 -.499E+03 -.703E+03   -.358E+03 0.496E+03 0.698E+03   -.849E+00 0.223E+01 0.485E+01   0.476E-02 0.142E-01 0.120E-01
   0.905E+03 -.222E+03 -.114E+03   -.901E+03 0.220E+03 0.114E+03   -.455E+01 0.166E+01 0.142E+00   0.119E-01 0.827E-02 0.843E-02
   0.529E+03 0.693E+03 0.393E+03   -.527E+03 -.689E+03 -.393E+03   -.228E+01 -.410E+01 0.374E-02   0.244E-02 0.371E-04 0.530E-02
   0.414E+03 0.615E+03 -.601E+03   -.411E+03 -.612E+03 0.600E+03   -.310E+01 -.336E+01 0.108E+01   -.180E-02 -.107E-02 0.290E-02
 -----------------------------------------------------------------------------------------------
   -.176E+01 -.241E+01 0.392E+00   -.341E-12 0.000E+00 -.227E-12   0.177E+01 0.242E+01 -.385E+00   -.791E-02 -.153E-01 -.274E-02
 
 
 POSITION                                       TOTAL-FORCE (eV/Angst)
 -----------------------------------------------------------------------------------
     11.23590     11.44495     11.39639        -0.012968     -0.004497     -0.017455
     10.37242     11.29354      6.64850         0.020079      0.023530      0.003022
     10.91734      8.73327     11.60620        -0.007504      0.004257     -0.012260
      9.91174     10.14501      9.22992        -0.010483     -0.006195      0.051219
     10.38262      7.17594      9.38224         0.002502     -0.000073      0.009793
      7.92250     10.17871      7.10943        -0.022660     -0.004155      0.002169
     10.33561      8.56535      7.00940         0.011007     -0.026532     -0.023496
      8.64410     10.52415     11.66862         0.010865     -0.000235     -0.007543
      6.97007      9.67123      9.66274         0.001157      0.003285     -0.004822
      7.94450      7.59598      8.10592        -0.004580      0.004405      0.000497
      8.35312      7.77952     11.18264         0.012584      0.006210     -0.001123
 -----------------------------------------------------------------------------------
    total drift:                                0.001925      0.001423      0.004967


--------------------------------------------------------------------------------------------------------



  FREE ENERGIE OF THE ION-ELECTRON SYSTEM (eV)
  ---------------------------------------------------
  free  energy   TOTEN  =       -19.10170860 eV

  energy  without entropy=      -19.10170860  energy(sigma->0) =      -19.10170860
 
 d Force = 0.1318946E-03[ 0.118E-03, 0.146E-03]  d Energy = 0.2231885E-03-0.913E-04
 d Force =-0.2571320E+01[-0.257E+01,-0.257E+01]  d Ewald  =-0.2571320E+01 0.575E-06


--------------------------------------------------------------------------------------------------------


    POTLOK:  cpu time    0.73: real time    0.73


--------------------------------------------------------------------------------------------------------




--------------------------------------------------------------------------------------------------------


  
 reached required accuracy - stopping structural energy minimisation
     LOOP+:  cpu time   12.63: real time   12.83
    4ORBIT:  cpu time    0.00: real time    0.00

 total amount of memory used by VASP on root node    91240. kBytes
========================================================================

   base      :      30000. kBytes
   nonl-proj :       3303. kBytes
   fftplans  :      14492. kBytes
   grid      :      36796. kBytes
   one-center:         31. kBytes
   wavefun   :       6618. kBytes
 
  
  
 General timing and accounting informations for this job:
 ========================================================
  
                  Total CPU time used (sec):      278.849
                            User time (sec):      274.873
                          System time (sec):        3.976
                         Elapsed time (sec):      310.152
  
                   Maximum memory used (kb):      130864.
                   Average memory used (kb):           0.
  
                          Minor page faults:       730896
                          Major page faults:            0
                 Voluntary context switches:         4328
