unknown system                          
           1
    25.092630    0.000000    0.000000
     0.000000   25.092630    0.000000
     0.000000    0.000000   25.092630
   Ag
  35
Direct configuration=     1
   0.52608582  0.68695111  0.53067669
   0.40022895  0.52983746  0.58702153
   0.51354509  0.58470317  0.69542601
   0.36460045  0.62792757  0.56623508
   0.55220954  0.60296612  0.59952387
   0.48440558  0.47250131  0.76777162
   0.59531253  0.52551606  0.37559943
   0.67952182  0.55176224  0.55036006
   0.40148430  0.42931818  0.32744738
   0.55127822  0.55267389  0.47280468
   0.58701746  0.62105129  0.34234721
   0.48584956  0.45986293  0.60306035
   0.55400743  0.48430920  0.68755036
   0.40910445  0.31152590  0.46834929
   0.40822166  0.50700881  0.39995959
   0.63503749  0.37534834  0.48969485
   0.60827800  0.55952920  0.74564162
   0.43634653  0.51371491  0.68263139
   0.55456676  0.65280639  0.43304875
   0.58921556  0.49518332  0.58510864
   0.45858561  0.49143866  0.50066048
   0.42252059  0.40452350  0.42852826
   0.54363440  0.42132289  0.51948176
   0.46594644  0.60111376  0.53707090
   0.60460916  0.45169555  0.29865796
   0.50227228  0.43779218  0.30764174
   0.52031442  0.74937434  0.44754047
   0.50921366  0.46744235  0.40656615
   0.60692982  0.41766398  0.39810318
   0.37636993  0.56365332  0.48237967
   0.51846117  0.56339379  0.80221071
   0.63389447  0.48302724  0.48174001
   0.44602872  0.38233123  0.53272151
   0.61790823  0.62627448  0.51484781
   0.64172982  0.56594911  0.64782724
Direct configuration=     2
   0.52617362  0.68706106  0.53082411
   0.40010404  0.52974061  0.58697296
   0.51354437  0.58489224  0.69554002
   0.36451423  0.62815866  0.56634091
   0.55228863  0.60299715  0.59942300
   0.48430504  0.47221275  0.76780077
   0.59536079  0.52543709  0.37572707
   0.67975199  0.55165615  0.55037282
   0.40124899  0.42922075  0.32727614
   0.55109370  0.55254524  0.47290551
   0.58709937  0.62121693  0.34200759
   0.48582870  0.45984686  0.60315498
   0.55406010  0.48420909  0.68748239
   0.40892730  0.31113518  0.46827946
   0.40816786  0.50719130  0.39990812
   0.63515967  0.37514606  0.48980501
   0.60835058  0.55960480  0.74587260
   0.43626240  0.51358980  0.68277794
   0.55445898  0.65283477  0.43297193
   0.58927477  0.49516237  0.58498925
   0.45855445  0.49139729  0.50062617
   0.42253961  0.40455743  0.42855506
   0.54374735  0.42134942  0.51922018
   0.46589352  0.60100567  0.53702133
   0.60481801  0.45169970  0.29839316
   0.50228891  0.43773569  0.30747201
   0.52023086  0.74969201  0.44745685
   0.50932743  0.46747780  0.40679375
   0.60689038  0.41757686  0.39812595
   0.37630246  0.56366869  0.48233591
   0.51849405  0.56361601  0.80238678
   0.63390189  0.48297653  0.48168923
   0.44599138  0.38243630  0.53289280
   0.61798353  0.62642216  0.51494874
   0.64179702  0.56602337  0.64788575
Direct configuration=     3
   0.52643702  0.68739090  0.53126639
   0.39972931  0.52945007  0.58682724
   0.51354222  0.58545948  0.69588206
   0.36425555  0.62885195  0.56665840
   0.55252591  0.60309025  0.59912038
   0.48400341  0.47134708  0.76788822
   0.59550557  0.52520018  0.37610998
   0.68044251  0.55133788  0.55041108
   0.40054305  0.42892848  0.32676243
   0.55054012  0.55215928  0.47320799
   0.58734508  0.62171387  0.34098874
   0.48576609  0.45979863  0.60343886
   0.55421809  0.48390875  0.68727847
   0.40839584  0.30996301  0.46806998
   0.40800644  0.50773876  0.39975371
   0.63552622  0.37453922  0.49013550
   0.60856831  0.55983158  0.74656554
   0.43601000  0.51321447  0.68321758
   0.55413562  0.65291990  0.43274144
   0.58945240  0.49509950  0.58463109
   0.45846094  0.49127317  0.50052325
   0.42259666  0.40465922  0.42863545
   0.54408622  0.42142902  0.51843542
   0.46573474  0.60068140  0.53687264
   0.60544455  0.45171215  0.29759877
   0.50233880  0.43756619  0.30696283
   0.51998019  0.75064500  0.44720598
   0.50966874  0.46758417  0.40747655
   0.60677204  0.41731550  0.39819428
   0.37610005  0.56371479  0.48220464
   0.51859267  0.56428264  0.80291501
   0.63392417  0.48282438  0.48153689
   0.44587939  0.38275151  0.53340667
   0.61820940  0.62686521  0.51525152
   0.64199864  0.56624616  0.64806129
Direct configuration=     4
   0.52696381  0.68805058  0.53215094
   0.39897985  0.52886898  0.58653580
   0.51353793  0.58659396  0.69656613
   0.36373820  0.63023852  0.56729339
   0.55300045  0.60327645  0.59851516
   0.48340015  0.46961575  0.76806311
   0.59579514  0.52472637  0.37687580
   0.68182354  0.55070135  0.55048760
   0.39913117  0.42834395  0.32573499
   0.54943296  0.55138736  0.47381296
   0.58783651  0.62270774  0.33895103
   0.48564087  0.45970218  0.60400664
   0.55453409  0.48330807  0.68687064
   0.40733291  0.30761867  0.46765102
   0.40768362  0.50883367  0.39944490
   0.63625932  0.37332556  0.49079647
   0.60900378  0.56028513  0.74795143
   0.43550520  0.51246381  0.68409687
   0.55348890  0.65309017  0.43228046
   0.58980767  0.49497378  0.58391477
   0.45827394  0.49102494  0.50031740
   0.42271077  0.40486280  0.42879624
   0.54476394  0.42158821  0.51686591
   0.46541719  0.60003285  0.53657525
   0.60669762  0.45173707  0.29600999
   0.50243858  0.43722720  0.30594447
   0.51947883  0.75255100  0.44670423
   0.51035135  0.46779690  0.40884216
   0.60653536  0.41679279  0.39833092
   0.37569522  0.56380701  0.48194209
   0.51878992  0.56561592  0.80397145
   0.63396873  0.48252009  0.48123222
   0.44565539  0.38338192  0.53443441
   0.61866116  0.62775130  0.51585707
   0.64240187  0.56669172  0.64841237
Direct configuration=     5
   0.52801741  0.68936995  0.53392005
   0.39748093  0.52770681  0.58595291
   0.51352934  0.58886290  0.69793427
   0.36270351  0.63301167  0.56856335
   0.55394955  0.60364885  0.59730471
   0.48219362  0.46615307  0.76841289
   0.59637427  0.52377873  0.37840743
   0.68458560  0.54942828  0.55064065
   0.39630742  0.42717487  0.32368011
   0.54721865  0.54984352  0.47502289
   0.58881936  0.62469549  0.33487561
   0.48539044  0.45950928  0.60514218
   0.55516607  0.48210671  0.68605497
   0.40520706  0.30293000  0.46681309
   0.40703797  0.51102350  0.39882728
   0.63772552  0.37089822  0.49211842
   0.60987471  0.56119225  0.75072320
   0.43449560  0.51096250  0.68585545
   0.55219546  0.65343070  0.43135850
   0.59051820  0.49472232  0.58248213
   0.45789992  0.49052848  0.49990570
   0.42293899  0.40526996  0.42911781
   0.54611940  0.42190661  0.51372688
   0.46478209  0.59873576  0.53598047
   0.60920377  0.45178689  0.29283243
   0.50263813  0.43654922  0.30390776
   0.51847613  0.75636300  0.44570074
   0.51171658  0.46822235  0.41157336
   0.60606201  0.41574736  0.39860422
   0.37488557  0.56399144  0.48141699
   0.51918442  0.56828248  0.80608434
   0.63405785  0.48191151  0.48062286
   0.44520740  0.38464275  0.53648989
   0.61956466  0.62952347  0.51706818
   0.64320833  0.56758285  0.64911453
Direct configuration=     6
   0.52747712  0.68869337  0.53301284
   0.39824958  0.52830277  0.58625182
   0.51353374  0.58769938  0.69723268
   0.36323411  0.63158959  0.56791211
   0.55346285  0.60345788  0.59792543
   0.48281233  0.46792875  0.76823352
   0.59607729  0.52426468  0.37762200
   0.68316920  0.55008112  0.55056217
   0.39775545  0.42777438  0.32473386
   0.54835416  0.55063521  0.47440243
   0.58831535  0.62367616  0.33696550
   0.48551886  0.45960820  0.60455987
   0.55484199  0.48272278  0.68647325
   0.40629721  0.30533437  0.46724278
   0.40736906  0.50990055  0.39914400
   0.63697365  0.37214297  0.49144052
   0.60942809  0.56072708  0.74930182
   0.43501333  0.51173238  0.68495364
   0.55285874  0.65325607  0.43183129
   0.59015384  0.49485127  0.58321679
   0.45809172  0.49078306  0.50011682
   0.42282196  0.40506117  0.42895291
   0.54542432  0.42174333  0.51533659
   0.46510778  0.59940092  0.53628547
   0.60791861  0.45176134  0.29446190
   0.50253580  0.43689689  0.30495220
   0.51899032  0.75440819  0.44621534
   0.51101648  0.46800418  0.41017279
   0.60630475  0.41628346  0.39846407
   0.37530076  0.56389686  0.48168627
   0.51898212  0.56691506  0.80500084
   0.63401215  0.48222359  0.48093534
   0.44543713  0.38399619  0.53543583
   0.61910134  0.62861469  0.51644712
   0.64279477  0.56712587  0.64875446
Direct configuration=     7
   0.52763943  0.68925834  0.53268810
   0.39779688  0.52820551  0.58632273
   0.51364836  0.58796522  0.69746991
   0.36325693  0.63181431  0.56810500
   0.55349593  0.60320963  0.59801199
   0.48300215  0.46764278  0.76846541
   0.59635080  0.52481926  0.37748108
   0.68354462  0.54990072  0.55050611
   0.39756932  0.42768921  0.32458614
   0.54828486  0.55093472  0.47504300
   0.58855991  0.62363310  0.33648709
   0.48562926  0.45963927  0.60455882
   0.55493192  0.48289449  0.68662179
   0.40610462  0.30535312  0.46731077
   0.40751828  0.50973288  0.39849904
   0.63742499  0.37155167  0.49161933
   0.60946439  0.56084589  0.74970659
   0.43494147  0.51159653  0.68513626
   0.55254345  0.65340388  0.43155829
   0.59039232  0.49490726  0.58299311
   0.45750797  0.49055508  0.50039809
   0.42275025  0.40457079  0.42911886
   0.54535300  0.42181425  0.51451308
   0.46493980  0.59943781  0.53623005
   0.60832748  0.45177681  0.29417816
   0.50255842  0.43690177  0.30512128
   0.51888150  0.75476243  0.44636762
   0.51099344  0.46763526  0.40992241
   0.60620049  0.41582398  0.39824782
   0.37492629  0.56434390  0.48211199
   0.51877744  0.56706190  0.80522434
   0.63424445  0.48205419  0.48079959
   0.44497985  0.38371773  0.53522178
   0.61946093  0.62874849  0.51656030
   0.64273474  0.56729158  0.64905034
Direct configuration=     8
   0.52812636  0.69095326  0.53171387
   0.39643877  0.52791370  0.58653549
   0.51399220  0.58876275  0.69818159
   0.36332539  0.63248848  0.56868369
   0.55359519  0.60246486  0.59827165
   0.48357160  0.46678488  0.76916107
   0.59717132  0.52648299  0.37705830
   0.68467087  0.54935952  0.55033793
   0.39701091  0.42743371  0.32414297
   0.54807696  0.55183327  0.47696472
   0.58929362  0.62350393  0.33505185
   0.48596046  0.45973246  0.60455570
   0.55520170  0.48340963  0.68706742
   0.40552685  0.30540937  0.46751474
   0.40796595  0.50922989  0.39656416
   0.63877901  0.36977778  0.49215574
   0.60957330  0.56120234  0.75092088
   0.43472589  0.51118898  0.68568412
   0.55159756  0.65384730  0.43073931
   0.59110778  0.49507522  0.58232208
   0.45575674  0.48987113  0.50124191
   0.42253512  0.40309963  0.42961671
   0.54513905  0.42202698  0.51204255
   0.46443587  0.59954848  0.53606377
   0.60955410  0.45182322  0.29332696
   0.50262630  0.43691641  0.30562852
   0.51855504  0.75582515  0.44682446
   0.51092432  0.46652850  0.40917126
   0.60588770  0.41444555  0.39759907
   0.37380289  0.56568504  0.48338915
   0.51816341  0.56750244  0.80589483
   0.63494135  0.48154598  0.48039233
   0.44360801  0.38288234  0.53457964
   0.62053972  0.62914989  0.51689985
   0.64255464  0.56778869  0.64993798
Direct configuration=     9
   0.52817754  0.69113142  0.53161146
   0.39629601  0.52788303  0.58655785
   0.51402835  0.58884658  0.69825640
   0.36333259  0.63255935  0.56874452
   0.55360563  0.60238657  0.59829894
   0.48363146  0.46669470  0.76923419
   0.59725758  0.52665787  0.37701386
   0.68478926  0.54930263  0.55032025
   0.39695221  0.42740686  0.32409638
   0.54805510  0.55192772  0.47716673
   0.58937074  0.62349035  0.33490098
   0.48599528  0.45974226  0.60455537
   0.55523006  0.48346378  0.68711427
   0.40546611  0.30541528  0.46753618
   0.40801300  0.50917702  0.39636077
   0.63892134  0.36959131  0.49221213
   0.60958475  0.56123981  0.75104852
   0.43470323  0.51114614  0.68574171
   0.55149813  0.65389391  0.43065322
   0.59118299  0.49509288  0.58225154
   0.45557266  0.48979923  0.50133061
   0.42251251  0.40294499  0.42966904
   0.54511656  0.42204935  0.51178285
   0.46438290  0.59956011  0.53604630
   0.60968303  0.45182810  0.29323748
   0.50263343  0.43691795  0.30568184
   0.51852072  0.75593686  0.44687248
   0.51091706  0.46641217  0.40909230
   0.60585483  0.41430065  0.39753087
   0.37368480  0.56582601  0.48352340
   0.51809886  0.56754875  0.80596531
   0.63501461  0.48149256  0.48034952
   0.44346381  0.38279453  0.53451214
   0.62065312  0.62919208  0.51693554
   0.64253571  0.56784094  0.65003128
Direct configuration=    10
   0.52843057  0.69112234  0.53120447
   0.39583541  0.52788422  0.58710192
   0.51415393  0.58889690  0.69854053
   0.36348183  0.63271701  0.56917897
   0.55326862  0.60222781  0.59803719
   0.48421508  0.46683955  0.76945289
   0.59728094  0.52685119  0.37721331
   0.68484599  0.54923804  0.55040758
   0.39715101  0.42723821  0.32413934
   0.54835649  0.55195790  0.47784959
   0.58957737  0.62359711  0.33467832
   0.48626070  0.45974261  0.60416252
   0.55530415  0.48409635  0.68729817
   0.40516947  0.30539166  0.46776773
   0.40813001  0.50902851  0.39671215
   0.63922946  0.36935775  0.49202121
   0.60941380  0.56132155  0.75157272
   0.43499895  0.51115026  0.68574653
   0.55144605  0.65387716  0.43023436
   0.59131473  0.49502099  0.58208706
   0.45484638  0.48957486  0.50095567
   0.42241278  0.40279596  0.42917894
   0.54482261  0.42211389  0.51079080
   0.46438157  0.60004460  0.53621626
   0.60977137  0.45192899  0.29352610
   0.50289113  0.43691999  0.30595327
   0.51843688  0.75624891  0.44701373
   0.51092244  0.46646611  0.40917903
   0.60575224  0.41395015  0.39742829
   0.37353378  0.56577588  0.48305088
   0.51769492  0.56737772  0.80600535
   0.63516267  0.48110510  0.47990131
   0.44308459  0.38249473  0.53439774
   0.62078322  0.62924350  0.51700017
   0.64237480  0.56789624  0.65023215
Direct configuration=    11
   0.52918964  0.69109510  0.52998351
   0.39445364  0.52788782  0.58873413
   0.51453068  0.58904784  0.69939294
   0.36392956  0.63318999  0.57048230
   0.55225761  0.60175152  0.59725195
   0.48596595  0.46727410  0.77010900
   0.59735103  0.52743114  0.37781167
   0.68501619  0.54904427  0.55066955
   0.39774742  0.42673227  0.32426821
   0.54926064  0.55204845  0.47989817
   0.59019725  0.62391740  0.33401035
   0.48705696  0.45974367  0.60298397
   0.55552640  0.48599404  0.68784989
   0.40427953  0.30532082  0.46846239
   0.40848103  0.50858296  0.39776631
   0.64015383  0.36865706  0.49144843
   0.60890096  0.56156677  0.75314532
   0.43588609  0.51116262  0.68576098
   0.55128984  0.65382690  0.42897777
   0.59170997  0.49480533  0.58159361
   0.45266753  0.48890174  0.49983084
   0.42211360  0.40234888  0.42770863
   0.54394076  0.42230754  0.50781464
   0.46437759  0.60149806  0.53672614
   0.61003639  0.45223167  0.29439195
   0.50366423  0.43692611  0.30676755
   0.51818535  0.75718507  0.44743747
   0.51093857  0.46662793  0.40943924
   0.60544447  0.41289862  0.39712055
   0.37308075  0.56562549  0.48163332
   0.51648309  0.56686466  0.80612546
   0.63560685  0.47994270  0.47855669
   0.44194694  0.38159535  0.53405451
   0.62117351  0.62939775  0.51719404
   0.64189208  0.56806213  0.65083475
Direct configuration=    12
   0.52957967  0.69078520  0.52947544
   0.39431602  0.52820982  0.58877974
   0.51473428  0.58946196  0.69947357
   0.36433261  0.63291221  0.57072785
   0.55213057  0.60134719  0.59725351
   0.48708941  0.46745000  0.77033806
   0.59716801  0.52758588  0.37848842
   0.68462744  0.54890868  0.55077323
   0.39819701  0.42663504  0.32409294
   0.54967834  0.55162408  0.48080637
   0.59048483  0.62407760  0.33373223
   0.48733146  0.45995887  0.60216537
   0.55573987  0.48718063  0.68749467
   0.40364127  0.30515458  0.46859271
   0.40836545  0.50838090  0.39795763
   0.64014516  0.36869304  0.49096644
   0.60889515  0.56177088  0.75376533
   0.43690121  0.51097799  0.68587157
   0.55145055  0.65371367  0.42858361
   0.59177150  0.49436693  0.58119994
   0.45156297  0.48889551  0.49992061
   0.42218833  0.40175954  0.42726096
   0.54358805  0.42232927  0.50686676
   0.46325238  0.60161195  0.53672011
   0.61009020  0.45251499  0.29502827
   0.50405525  0.43679486  0.30710270
   0.51817772  0.75743333  0.44745096
   0.51124429  0.46721072  0.40967206
   0.60506986  0.41231157  0.39702580
   0.37306147  0.56589026  0.48186108
   0.51575013  0.56667845  0.80642552
   0.63580041  0.47964842  0.47819685
   0.44175215  0.38171899  0.53389219
   0.62130080  0.62946612  0.51721367
   0.64126213  0.56803461  0.65106007
Direct configuration=    13
   0.53041054  0.69012504  0.52839313
   0.39402285  0.52889575  0.58887689
   0.51516799  0.59034414  0.69964534
   0.36519122  0.63232047  0.57125093
   0.55185995  0.60048588  0.59725681
   0.48948264  0.46782469  0.77082601
   0.59677813  0.52791554  0.37993005
   0.68379931  0.54861984  0.55099410
   0.39915475  0.42642791  0.32371957
   0.55056814  0.55072006  0.48274106
   0.59109744  0.62441887  0.33313978
   0.48791621  0.46041731  0.60042154
   0.55619461  0.48970837  0.68673796
   0.40228162  0.30480045  0.46887033
   0.40811924  0.50795046  0.39836519
   0.64012670  0.36876970  0.48993968
   0.60888276  0.56220570  0.75508612
   0.43906368  0.51058469  0.68610716
   0.55179289  0.65347247  0.42774396
   0.59190256  0.49343303  0.58036134
   0.44920998  0.48888223  0.50011185
   0.42234752  0.40050411  0.42630729
   0.54283668  0.42237557  0.50484753
   0.46085540  0.60185455  0.53670726
   0.61020484  0.45311852  0.29638379
   0.50488821  0.43651528  0.30781667
   0.51816146  0.75796220  0.44747970
   0.51189553  0.46845221  0.41016802
   0.60427183  0.41106099  0.39682394
   0.37302042  0.56645428  0.48234626
   0.51418876  0.56628177  0.80706473
   0.63621274  0.47902154  0.47743032
   0.44133720  0.38198238  0.53354641
   0.62157194  0.62961178  0.51725549
   0.63992020  0.56797597  0.65154004
Direct configuration=    14
   0.53054615  0.68971051  0.52810684
   0.39411356  0.52887859  0.58914253
   0.51535912  0.59098574  0.69980479
   0.36504901  0.63240654  0.57157227
   0.55155655  0.60015428  0.59699160
   0.49043062  0.46774580  0.77097516
   0.59670914  0.52834253  0.38043334
   0.68339534  0.54849896  0.55108759
   0.39950733  0.42642410  0.32345752
   0.55065637  0.55042493  0.48354123
   0.59136203  0.62440156  0.33292567
   0.48805202  0.46070685  0.59985920
   0.55647186  0.49052913  0.68616915
   0.40159701  0.30467516  0.46897132
   0.40790625  0.50777244  0.39840793
   0.64001772  0.36878375  0.48961655
   0.60882227  0.56243489  0.75562572
   0.43994047  0.51037939  0.68598725
   0.55199860  0.65331171  0.42753274
   0.59200150  0.49289657  0.58000421
   0.44863358  0.48879748  0.50015184
   0.42266600  0.40004593  0.42608685
   0.54264034  0.42231808  0.50436646
   0.46078663  0.60188608  0.53662382
   0.61035393  0.45345374  0.29686166
   0.50520231  0.43634269  0.30813685
   0.51823485  0.75798088  0.44743652
   0.51176587  0.46899702  0.41035761
   0.60381595  0.41060184  0.39672311
   0.37275655  0.56674580  0.48241999
   0.51360324  0.56632374  0.80728394
   0.63640974  0.47883461  0.47724452
   0.44123999  0.38214531  0.53332242
   0.62169300  0.62967587  0.51726052
   0.63944105  0.56788126  0.65174758
Direct configuration=    15
   0.53095297  0.68846693  0.52724795
   0.39438568  0.52882709  0.58993947
   0.51593249  0.59291054  0.70028311
   0.36462238  0.63266474  0.57253626
   0.55064632  0.59915946  0.59619595
   0.49327457  0.46750912  0.77142261
   0.59650220  0.52962350  0.38194319
   0.68218344  0.54813634  0.55136806
   0.40056506  0.42641268  0.32267135
   0.55092106  0.54953954  0.48594175
   0.59215579  0.62434962  0.33228334
   0.48845948  0.46157545  0.59817219
   0.55730360  0.49299141  0.68446272
   0.39954319  0.30429929  0.46927430
   0.40726729  0.50723836  0.39853617
   0.63969077  0.36882589  0.48864715
   0.60864079  0.56312247  0.75724453
   0.44257085  0.50976348  0.68562752
   0.55261570  0.65282944  0.42689907
   0.59229832  0.49128719  0.57893281
   0.44690435  0.48854324  0.50027180
   0.42362142  0.39867140  0.42542553
   0.54205133  0.42214560  0.50292325
   0.46058030  0.60198065  0.53637351
   0.61080121  0.45445942  0.29829524
   0.50614462  0.43582493  0.30909738
   0.51845505  0.75803692  0.44730696
   0.51137687  0.47063146  0.41092639
   0.60244831  0.40922438  0.39642060
   0.37196494  0.56762038  0.48264120
   0.51184667  0.56644964  0.80794157
   0.63700076  0.47827382  0.47668712
   0.44094838  0.38263410  0.53265043
   0.62205620  0.62986813  0.51727560
   0.63800358  0.56759715  0.65237020
Direct configuration=    16
   0.53112164  0.68795134  0.52689185
   0.39449850  0.52880574  0.59026989
   0.51617022  0.59370857  0.70048143
   0.36444550  0.63277179  0.57293594
   0.55026893  0.59874700  0.59586607
   0.49445369  0.46741099  0.77160812
   0.59641640  0.53015460  0.38256918
   0.68168098  0.54798600  0.55148434
   0.40100360  0.42640794  0.32234540
   0.55103080  0.54917244  0.48693702
   0.59248489  0.62432808  0.33201703
   0.48862841  0.46193558  0.59747274
   0.55764845  0.49401229  0.68375522
   0.39869166  0.30414346  0.46939992
   0.40700237  0.50701692  0.39858934
   0.63955521  0.36884337  0.48824524
   0.60856555  0.56340754  0.75791570
   0.44366142  0.50950812  0.68547837
   0.55287156  0.65262949  0.42663634
   0.59242138  0.49061993  0.57848861
   0.44618741  0.48843782  0.50032154
   0.42401754  0.39810151  0.42515135
   0.54180712  0.42207409  0.50232488
   0.46049476  0.60201986  0.53626973
   0.61098665  0.45487639  0.29888961
   0.50653531  0.43561027  0.30949563
   0.51854635  0.75806016  0.44725325
   0.51121559  0.47130911  0.41116221
   0.60188128  0.40865328  0.39629517
   0.37163674  0.56798299  0.48273292
   0.51111838  0.56650184  0.80821423
   0.63724580  0.47804131  0.47645602
   0.44082748  0.38283675  0.53237182
   0.62220678  0.62994784  0.51728185
   0.63740759  0.56747936  0.65262834
Direct configuration=    17
   0.53064143  0.68770783  0.52690453
   0.39478268  0.52866994  0.59069597
   0.51648769  0.59457017  0.70088297
   0.36386481  0.63307319  0.57320243
   0.55007852  0.59831166  0.59559929
   0.49524700  0.46699744  0.77133681
   0.59654564  0.53090406  0.38290708
   0.68154115  0.54795760  0.55157950
   0.40105454  0.42650967  0.32209489
   0.55064560  0.54922387  0.48739964
   0.59273002  0.62413007  0.33167981
   0.48857721  0.46210144  0.59753441
   0.55768839  0.49389169  0.68341938
   0.39806595  0.30432425  0.46957080
   0.40640760  0.50693119  0.39857383
   0.63945023  0.36853540  0.48844555
   0.60810864  0.56357319  0.75826126
   0.44417494  0.50941811  0.68541187
   0.55313484  0.65228423  0.42662548
   0.59281290  0.48996821  0.57845229
   0.44628251  0.48851350  0.49988925
   0.42487854  0.39809739  0.42497221
   0.54199435  0.42172980  0.50257649
   0.46108316  0.60183996  0.53597188
   0.61135869  0.45560519  0.29896929
   0.50690791  0.43533366  0.30987323
   0.51879579  0.75748670  0.44725090
   0.51050700  0.47166084  0.41094563
   0.60098941  0.40890901  0.39619515
   0.37114037  0.56816401  0.48260259
   0.51102730  0.56706951  0.80803978
   0.63737964  0.47789816  0.47625156
   0.44067740  0.38259960  0.53215551
   0.62243780  0.63000530  0.51722001
   0.63723630  0.56749792  0.65274500
Direct configuration=    18
   0.52956211  0.68716053  0.52693304
   0.39542142  0.52836469  0.59165366
   0.51720125  0.59650675  0.70178547
   0.36255963  0.63375064  0.57380142
   0.54965055  0.59733316  0.59499965
   0.49703007  0.46606792  0.77072701
   0.59683612  0.53258858  0.38366656
   0.68122685  0.54789378  0.55179338
   0.40116905  0.42673831  0.32153183
   0.54977978  0.54933945  0.48843946
   0.59328101  0.62368501  0.33092186
   0.48846211  0.46247424  0.59767303
   0.55777816  0.49362062  0.68266452
   0.39665956  0.30473062  0.46995488
   0.40507076  0.50673850  0.39853898
   0.63921425  0.36784318  0.48889579
   0.60708165  0.56394551  0.75903798
   0.44532916  0.50921579  0.68526241
   0.55372660  0.65150820  0.42660108
   0.59369290  0.48850335  0.57837066
   0.44649626  0.48868361  0.49891762
   0.42681376  0.39808814  0.42456956
   0.54241517  0.42095596  0.50314202
   0.46240568  0.60143560  0.53530241
   0.61219490  0.45724330  0.29914838
   0.50774541  0.43471194  0.31072194
   0.51935645  0.75619776  0.44724562
   0.50891433  0.47245139  0.41045884
   0.59898480  0.40948381  0.39597034
   0.37002470  0.56857089  0.48230966
   0.51082258  0.56834544  0.80764769
   0.63768046  0.47757642  0.47579199
   0.44034009  0.38206656  0.53166933
   0.62295706  0.63013447  0.51708101
   0.63685130  0.56753963  0.65300720
Direct configuration=    19
   0.52916307  0.68690909  0.52710061
   0.39569299  0.52860887  0.59167385
   0.51761660  0.59723003  0.70187419
   0.36231208  0.63359848  0.57371737
   0.54987060  0.59675569  0.59518492
   0.49796661  0.46583908  0.77039680
   0.59680614  0.53300694  0.38429612
   0.68122183  0.54789404  0.55184496
   0.40124417  0.42687350  0.32133267
   0.54961320  0.54923421  0.48850649
   0.59346510  0.62369117  0.33039730
   0.48841021  0.46240889  0.59755297
   0.55773025  0.49341149  0.68257578
   0.39604506  0.30509919  0.47000775
   0.40412010  0.50676444  0.39845295
   0.63899184  0.36758821  0.48902207
   0.60661692  0.56395306  0.75910248
   0.44585108  0.50937951  0.68560346
   0.55405618  0.65097995  0.42661081
   0.59413579  0.48782683  0.57848466
   0.44665868  0.48885039  0.49883842
   0.42778839  0.39801298  0.42433968
   0.54249689  0.42072608  0.50333754
   0.46172176  0.60106332  0.53486982
   0.61253496  0.45821057  0.29919057
   0.50819651  0.43425688  0.31098354
   0.51963390  0.75553343  0.44715104
   0.50868555  0.47294748  0.41034163
   0.59803380  0.40998825  0.39608613
   0.36977158  0.56872069  0.48251899
   0.51063673  0.56885573  0.80743822
   0.63764832  0.47746652  0.47562752
   0.44030487  0.38191547  0.53160809
   0.62300823  0.63026560  0.51701979
   0.63668595  0.56762773  0.65314705
Direct configuration=    20
   0.52796593  0.68615479  0.52760332
   0.39650769  0.52934140  0.59173442
   0.51886266  0.59939987  0.70214036
   0.36156945  0.63314200  0.57346521
   0.55053076  0.59502330  0.59574074
   0.50077620  0.46515254  0.76940619
   0.59671620  0.53426203  0.38618482
   0.68120678  0.54789480  0.55199972
   0.40146954  0.42727905  0.32073521
   0.54911344  0.54891847  0.48870757
   0.59401736  0.62370966  0.32882361
   0.48825452  0.46221286  0.59719276
   0.55758650  0.49278409  0.68230956
   0.39420157  0.30620488  0.47016635
   0.40126812  0.50684226  0.39819488
   0.63832463  0.36682328  0.48940090
   0.60522272  0.56397571  0.75929597
   0.44741684  0.50987064  0.68662663
   0.55504489  0.64939518  0.42664003
   0.59546447  0.48579725  0.57882666
   0.44714595  0.48935074  0.49860084
   0.43071228  0.39778749  0.42365006
   0.54274208  0.42003643  0.50392411
   0.45966997  0.59994647  0.53357206
   0.61355515  0.46111237  0.29931713
   0.50954984  0.43289170  0.31176834
   0.52046625  0.75354044  0.44686731
   0.50799920  0.47443573  0.40999001
   0.59518078  0.41150156  0.39643351
   0.36901221  0.56917009  0.48314699
   0.51007919  0.57038661  0.80680981
   0.63755191  0.47713682  0.47513413
   0.44019922  0.38146219  0.53142436
   0.62316175  0.63065899  0.51683610
   0.63618991  0.56789203  0.65356660
Direct configuration=    21
   0.52779368  0.68519167  0.52797161
   0.39677382  0.52964578  0.59188239
   0.51924902  0.60007228  0.70151248
   0.36141269  0.63274066  0.57317896
   0.55013655  0.59425021  0.59532047
   0.50181797  0.46519232  0.76960691
   0.59667684  0.53477516  0.38681815
   0.68115616  0.54800606  0.55193505
   0.40197066  0.42745746  0.32069039
   0.54941227  0.54873509  0.48879845
   0.59409533  0.62374543  0.32833688
   0.48833643  0.46200543  0.59703135
   0.55789968  0.49286464  0.68208576
   0.39357432  0.30690355  0.46991619
   0.39994662  0.50676918  0.39843762
   0.63784137  0.36683111  0.48913903
   0.60510096  0.56354420  0.75904862
   0.44777823  0.51061524  0.68697002
   0.55556143  0.64857812  0.42655085
   0.59591955  0.48509807  0.57912180
   0.44704878  0.48935673  0.49878366
   0.43165717  0.39752578  0.42324589
   0.54238851  0.42015533  0.50371740
   0.45936080  0.59999339  0.53349515
   0.61363202  0.46237529  0.29970389
   0.51016643  0.43186664  0.31201406
   0.52079580  0.75285534  0.44654584
   0.50791055  0.47572568  0.41004608
   0.59434230  0.41185135  0.39666484
   0.36864791  0.56883963  0.48320362
   0.50933478  0.57053244  0.80671803
   0.63743371  0.47704287  0.47535989
   0.44038328  0.38166577  0.53151342
   0.62283520  0.63075536  0.51695393
   0.63634512  0.56793052  0.65391763
Direct configuration=    22
   0.52728524  0.68234875  0.52905871
   0.39755939  0.53054424  0.59231916
   0.52038947  0.60205709  0.69965911
   0.36094999  0.63155598  0.57233400
   0.54897295  0.59196821  0.59407993
   0.50489306  0.46530974  0.77019941
   0.59656064  0.53628978  0.38868762
   0.68100674  0.54833446  0.55174416
   0.40344985  0.42798408  0.32055809
   0.55029434  0.54819377  0.48906669
   0.59432548  0.62385102  0.32690015
   0.48857819  0.46139311  0.59655490
   0.55882415  0.49310240  0.68142514
   0.39172279  0.30896585  0.46917777
   0.39604583  0.50655348  0.39915413
   0.63641486  0.36685421  0.48836603
   0.60474156  0.56227048  0.75831848
   0.44884496  0.51281313  0.68798361
   0.55708616  0.64616632  0.42628760
   0.59726288  0.48303425  0.57999297
   0.44676195  0.48937438  0.49932330
   0.43444630  0.39675325  0.42205285
   0.54134485  0.42050630  0.50310725
   0.45844817  0.60013186  0.53326810
   0.61385894  0.46610314  0.30084553
   0.51198650  0.42884088  0.31273938
   0.52176855  0.75083306  0.44559692
   0.50764887  0.47953336  0.41021158
   0.59186727  0.41288385  0.39734767
   0.36757260  0.56786419  0.48337077
   0.50713745  0.57096289  0.80644713
   0.63708481  0.47676555  0.47602628
   0.44092659  0.38226670  0.53177629