15
Energy = -58.12445396 eV
S 9.715204937012556 11.562749963772884 12.215404613312934
S 9.320850169944878 13.544330948880985 11.605335176386056
S 11.613724231522097 11.040364958363368 11.764620279744104
S 9.559628373904662 14.812021118985092 13.15905165199465
S 12.666602126931403 11.268966514848303 13.664520428188856
S 11.537254121652682 15.664161432386 12.810293606604159
S 11.851658003906996 16.979671581284048 14.185272750504364
S 14.205715858249881 10.109280189424487 13.609453721909809
S 15.122713975111072 15.49963760518691 14.300863509576363
S 16.433337544694947 13.849317469373467 14.265341486317162
S 16.313487766058547 16.925860708154747 15.039523852666637
S 16.514446674353227 13.96553642535224 16.36547156841968
S 17.37978619635256 15.748208433683894 16.62587823683508
S 1.4043553411886749 17.4564054843654 18.607245551819492
S 0.4802846996272848 16.8492571963653 17.057493596147403
