15
Energy = -57.5181774 eV
S 12.830314728071476 15.530907195798582 8.641601277694152
S 13.757979816535338 14.118630695232774 9.956082161590317
S 14.454695243728436 12.712495616633026 8.529882633637149
S 11.990277922012623 16.807609608118575 9.911435653511068
S 16.044581763166068 11.871239200217675 9.235176759674227
S 17.21464333586505 9.340661173517825 11.98022925302412
S 10.102559078197178 15.829214953318754 10.525384067552718
S 9.546759068111664 16.646748240034704 12.178436422935393
S 15.910456448756968 10.135541839701094 13.154192034076555
S 10.675364528820928 14.441310563042988 16.044979303778884
S 15.636903087774149 8.962343580654263 14.896068837459678
S 14.326030506576897 9.771729498512155 16.05102488962683
S 9.289544185204567 13.649255472431927 17.087501207678272
S 10.305274772560155 12.13201932972758 18.277544749727753
S 12.132212646188856 12.267890164628282 17.74805787960336
