16
Energy = -62.97880032 eV
S 14.735161447143717 10.236777806781344 11.236837319616491
S 13.568134843968439 8.536207677149953 8.32466843734353
S 13.479841751079585 8.002432752396176 10.875820872300523
S 13.108746980789943 11.264581447615106 11.255815154366914
S 11.957310497111784 9.57854116509231 8.40875968955167
S 11.743344079841728 8.706340893240041 11.135265279659372
S 12.652809966061342 11.80296975577188 8.978505062505187
S 8.856305747531698 7.07170683303417 9.172118513928325
S 7.327142477305114 8.214343847265086 9.33391549944323
S 11.120494906681618 12.952769093236876 8.931718204243905
S 7.939208462492499 10.411717001458724 8.586322140916478
S 7.129295920265062 8.86116059777902 11.621223982526653
S 8.462556511950968 11.413448450622608 11.224870742746125
S 6.324734712081234 11.450085899137376 8.637900036326913
S 5.507846467235331 9.889830833242936 11.738185303742593
S 6.703979524597138 12.103484943298502 11.135456488139726
