21
Energy = -82.97900058 eV
S 14.825660976261663 10.616792297217732 12.44399795543632
S 9.296300349257741 8.33063555599954 14.273381804292303
S 13.405801780601509 10.554562932218587 11.111306619206903
S 9.852332394050716 9.443748172388402 10.314933543513416
S 8.002316609330311 8.891233286187054 10.8709681671551
S 6.052441775383954 8.552953497809812 13.498578224591636
S 11.071651265238025 9.124235130333838 13.911230903741266
S 12.46404474267635 10.356305191970026 7.5262544074602955
S 13.134686245335947 10.999711216022241 15.704061688022868
S 7.690106227127002 9.447232900090246 13.041505553713929
S 7.234200653679229 9.793476327260016 6.594597622685152
S 13.926059007385861 12.419711825553552 13.831806653672427
S 11.263018369327131 10.913502084712716 15.19500993417587
S 9.620916846691133 12.131417853980489 8.241977067427475
S 14.137287702937147 11.806547459907407 9.396365723537523
S 9.94303039781514 11.55313838384673 10.135893423285461
S 11.625167245897165 12.054873653830871 7.249507061565659
S 12.29613593894205 12.809981357194301 12.944562720136654
S 8.761567902338598 12.141423868503312 4.845663006983738
S 8.285902715462054 10.283021390173023 5.059551034547091
S 13.008371035018815 13.322104421063163 9.026706177753136
