26
Energy = -101.79007225 eV
S 15.09067196556054 7.1118784589145605 12.017747096519491
S 13.475229463631496 6.771244885664024 10.855531551450166
S 12.582503964402896 9.207520645294949 6.527008543969343
S 12.191172113336298 5.382553588139667 11.727554592776386
S 12.940311505455293 9.484061736095715 13.235903069105033
S 14.79440375895254 9.108881840635162 12.905758151379716
S 13.483754617062507 10.685015627305573 7.346678930281487
S 8.58649754084362 10.50264567287533 9.978634582897522
S 11.022353510271977 8.461966805204181 8.0207406613093
S 10.840025315109159 6.335984197033588 12.954420111741575
S 9.642690497591069 7.54309851097513 11.766797779486634
S 9.958170289615977 7.11503273502874 7.153758803434684
S 10.348123089783474 12.976498075449166 7.464195609500928
S 11.675202285086561 12.297866188472122 5.773437814544431
S 10.93251330439298 10.649257121318108 5.104516703632773
S 7.5594978868340315 11.627881720246046 11.44224219546366
S 8.109074902002574 6.48274447586864 10.94866148095384
S 10.39976788951044 14.900717293578268 7.493658218836614
S 7.122190490813739 9.775940345908023 8.758853543653343
S 5.2708644694975515 10.6276281690001 6.315539278970661
S 6.5699294297963435 11.424528291774205 7.488333239921653
S 7.069498353389652 13.312444087912176 10.50798270468954
S 6.491624429580061 6.818153463640697 12.369849709028164
S 4.8594556839515075 7.069741076634543 11.373008095699827
S 4.541642235223409 10.999330667396244 10.384573923973203
S 5.124339573992975 12.52503404249145 9.415139705629807
