27
Energy = -101.62179936 eV
S 15.023097376026108 12.240196749368952 13.271531011552502
S 12.01651134465944 6.564589304889458 12.991987720981873
S 14.834472714453371 9.84590576546541 8.352537764986446
S 11.484337610743829 5.0023761772943445 13.87025985830428
S 14.740591936015058 12.511585454921743 10.517279079790564
S 14.103716545042312 11.483283616908162 7.419702875387584
S 13.013162576173132 8.892285137138934 9.341092075716125
S 14.361604804258114 13.653571343925726 12.244109757576505
S 14.753830610915056 13.109829897461447 8.76914486133714
S 8.630602703357127 6.667615009765795 11.593466390461593
S 11.629110808790282 11.522054788840112 11.381691990243741
S 9.467480148868304 10.6304634451281 7.258941664420465
S 8.237331929822837 7.569362883330567 13.214737452150592
S 8.658102833579383 8.652833813071549 7.79159184969315
S 11.64026682867412 10.230644121562063 9.349991088515463
S 8.798655473995117 8.878612793396215 9.919357365165723
S 11.049801855628028 13.121645844956367 10.432878345067365
S 9.68871256901494 12.640336839905874 13.766384953378378
S 11.352640933005796 12.238272510559845 14.88639747988457
S 13.526297968254108 15.168539498158891 14.762918559227742
S 12.614846628510149 16.488199939412105 13.781268012372164
S 9.987174668915314 14.454523208260166 12.994488224410292
S 9.076092747467692 13.328915496962546 10.123641234315526
S 8.361653599534888 12.102289850521046 7.8722744818525605
S 7.455841311989189 10.16689758253491 10.547651250733324
S 10.933489042800623 14.772480857223336 16.162461326511533
S 10.213456356873099 15.73741198337032 14.721871869932787
