28
Energy = -107.47225008 eV
S 16.43590530234378 9.699501654608474 9.513429106331698
S 15.430545908085044 10.566829950681571 8.018722072315889
S 15.700453503102631 10.93227437042846 11.238066830735587
S 10.176031838681142 5.853771944586626 12.389852333117288
S 9.405778963924114 6.941795023780101 9.344276251192179
S 11.792819778550525 9.180010394849244 8.255617702295018
S 10.860406453569759 6.096440377121074 10.510382973195208
S 8.413098443459399 9.024434941726183 12.32048083549737
S 8.373418020954563 9.050314397322678 7.402339882129471
S 14.472954962596727 12.17369809393974 10.262602824276781
S 9.240559042103301 8.636859597592451 14.515888591438713
S 15.600700105866304 12.600712036148247 8.53464166393428
S 11.292784412421566 7.3106486140882465 13.721687355166724
S 10.03360730410646 9.099843957347984 9.004499197843964
S 12.298771275964166 8.590383920490403 12.734930362783217
S 10.465623734952683 11.72047213383118 11.89867376356374
S 10.668837166902291 12.291247124078462 9.967660074929318
S 8.903656486350295 14.306457062810386 8.04656521244872
S 9.991112705455702 10.328203679771882 14.966282760789571
S 6.720905888806023 11.948081123598406 7.043871266022478
S 6.828784264339155 10.12334343698703 8.103677808709813
S 8.50036472583485 10.991797741636624 12.327612219753396
S 12.568458769127902 14.831900825335676 13.024416362133849
S 9.84698413250102 14.254187257545421 9.834338587443785
S 13.077719979367762 15.05208720024708 15.760824967294797
S 6.9351314989534405 13.57678214266173 8.24968376132921
S 10.55070374273608 14.330604942133341 14.840130149507628
S 11.270950389508004 16.04859151646229 14.014395759042245
