29
Energy = -115.14117368 eV
S 12.409828174148647 13.672199508256638 15.641644615333592
S 10.625618849391724 8.787434324897163 10.911540639679828
S 14.931456071422422 13.632647123654488 13.411255066553434
S 7.535475826827336 10.300596379409969 8.90077438374535
S 16.28485074678206 10.994135257384094 14.987437435885195
S 13.299613744292202 7.489684116313807 12.3129283358218
S 8.362123726687317 12.114952640020077 15.682729858370314
S 8.847995345238276 13.339167834954655 8.96874421416427
S 14.373813513160433 13.002774030844535 9.056779002253926
S 8.69814598363172 13.72456172097312 14.677073760640761
S 9.586249402854587 12.69992656608995 5.729926828220463
S 7.079610235344144 12.374260938440406 9.306180614615107
S 11.39874300095588 6.929891067891286 13.640081604954249
S 11.648665286986615 12.92333259860421 5.665055846527116
S 13.753168089051897 11.01336858021612 17.208835136544003
S 9.056293612356251 13.569666956092169 12.78915919030746
S 10.841238717675804 9.081859556598785 12.814577258035563
S 11.893058284130198 7.123476674686728 15.477149195661584
S 12.594166413943237 7.5203616122550345 10.509173638426315
S 12.67640220761356 11.964378760177242 8.791216555768852
S 12.513743913684959 11.427122906172155 6.765704226113833
S 12.87550531639332 13.612076933784037 13.631020311596501
S 12.041910828615311 11.754938010307773 16.321128343114466
S 8.83511838321632 14.09952422851995 7.036125578679376
S 15.621943048330726 11.705413229572493 13.16676104800158
S 6.5074500891320195 9.644392939078859 7.400289501065293
S 14.7904986068123 9.856886741321212 15.852255523125704
S 13.737874779766074 15.135732517524758 9.126811317258394
S 11.87285684357313 15.249443611942418 9.559305653114606
