29
Energy = -113.53605276 eV
S 14.963424552722953 12.67153633302259 9.905578168213728
S 8.768202463359088 14.598908214441192 7.580138069031811
S 9.940948596296076 13.810813411130887 6.09305899048839
S 16.49873114114018 12.290619676607086 11.009327986695796
S 6.87433094874258 13.666482922717544 7.241345192651444
S 12.909737172697923 14.413299398373121 12.917686725291345
S 11.252910835537376 13.48363740045049 13.249945584806595
S 14.272005581544189 11.275932795314802 8.770085307875648
S 8.570863293762402 10.85400355624425 6.230208212837506
S 10.400265395038161 11.886730654408575 6.632334067219535
S 10.492184910269987 12.899438701468075 11.313012384417648
S 6.629638057793505 12.28783119745184 8.637135703274884
S 7.72152243717833 10.44368811106201 7.966205273596582
S 10.01903320510626 9.682707337819197 11.802420051242747
S 12.919711961218908 7.588722822643476 7.281820978993963
S 9.079208678028833 11.443547461631592 11.686106701120554
S 11.612911663074497 8.321713091157541 8.55908019902697
S 14.175040948292207 6.5274901720559075 9.891986210295022
S 12.195425617263105 5.7168068445528135 6.609051113892703
S 5.454093514826582 12.19826118502649 14.334534208061237
S 12.437919494257484 7.002815230080649 10.476209676116177
S 8.169551214102771 6.950872552061436 12.480758542092957
S 4.880283726535846 10.466964369123113 13.717224413806706
S 5.797968657794684 9.685429968259436 12.205998084179555
S 11.094469628367047 5.1061172255220875 9.659322793316601
S 12.423407483403663 4.517009718507621 8.330863259665259
S 9.223201344379248 10.94030684731201 14.879400759577745
S 10.1899977216498 9.475866290438338 14.113664712486317
S 8.769850909175128 7.454478332882363 14.222063158383662
