35
Energy = -138.90643333 eV
S 8.951187472996814 13.957307895906634 15.883645941882994
S 14.240328250563289 15.658627223840513 10.580045842576157
S 11.244554078877107 16.38939450691782 9.170458127969951
S 9.532473896821777 13.229612728622461 17.576474629684878
S 15.137162075953793 13.214285980577529 8.377190678362865
S 12.294433332364441 10.058830971856205 8.664470104962124
S 13.040157304187602 9.559868585924187 10.527855564671555
S 9.579861622163518 14.128200652121674 7.4618421194863105
S 6.877716986714067 10.866106035020282 9.331691918434919
S 9.787421603124061 5.920744643329925 13.488063990706959
S 7.148280870490412 16.58777488065572 10.62661835743675
S 13.874225705780486 10.613610493164034 14.269027912010785
S 11.234043423178917 15.529121734557142 7.329207363201245
S 9.31422607990434 7.150081540264102 7.071451481838383
S 15.23422182736511 15.21862555963402 8.80229753558333
S 8.324331105574705 15.727314718679061 11.885784358082267
S 8.054574223699333 10.032270788377845 8.051492079381209
S 12.460994659472894 8.418763371746103 7.403142778980042
S 12.275614020121587 15.082963756849283 10.429461341050164
S 8.008395861876423 7.890740352027704 8.43111525760383
S 15.10195534776341 9.470029107020704 10.534876760592425
S 11.182375745741949 6.922135754013718 7.987832026297646
S 10.00910534305092 12.56697896985964 6.408225043096361
S 16.64525427638991 12.183263415537658 9.36241862000284
S 9.779447045723415 8.286058376564029 15.91717264391483
S 8.216898192279182 13.589034812644861 11.482406599827192
S 9.458899562833276 12.761313875804408 12.857117641848532
S 8.641802211356703 7.420848159420923 14.436672469305538
S 12.687304582749444 5.64869826510652 14.888774871373666
S 10.983901292533659 6.864740205788311 12.215701930488038
S 10.896671429627085 9.754900127991597 15.05700871945524
S 15.848472271101931 11.330072677280844 11.058585720711138
S 12.945758242588509 6.858323798942222 13.432529576839443
S 12.96498590478733 9.049571190481107 14.920380749448105
S 8.39148285304369 12.336599127514688 14.565699161641657
