36
Energy = -143.19384543 eV
S 7.30136376310668 10.952789415979359 9.804330249812715
S 10.323351761493615 13.207868064808983 9.939082425320732
S 12.60443838692831 10.309087061598005 9.371304918359682
S 5.747920923400216 10.755113404721152 11.183798350806711
S 6.291917506478088 6.089190682836933 7.305288942735589
S 13.612431565582995 10.275007901302324 13.393647818968708
S 9.94095959858845 16.66628439412661 10.165642905240386
S 13.727390666232326 8.772322652432155 6.64529502234837
S 8.321146620317329 9.193303027297292 9.787420593572499
S 13.085700828165633 6.820287413582771 6.889591115278385
S 9.009584379664119 14.817867913182644 12.715260014310251
S 7.008868475311452 5.510050514153042 10.498606257736817
S 9.542173376646037 7.894456018291686 4.140068459517079
S 8.911911350767511 13.020906699206563 13.558523261760621
S 10.797255902428 5.639699223152814 12.497477600306096
S 13.284884815864062 13.42228819840101 13.166417041318708
S 6.8663170720099975 12.526928965454802 13.886441558051427
S 6.575995282631465 10.671518050973319 13.074134825348148
S 6.171416252394098 8.214375324955183 7.33287263987928
S 9.867435091938471 9.509292267880998 11.215026617534484
S 10.197568232885105 6.202033418989147 5.161846721493114
S 11.919604924840264 16.200747760913114 10.061911030964001
S 8.800758828213512 9.285250094620105 5.459777662211667
S 10.886651906531462 7.986334388057481 14.83033146396444
S 13.522536576942766 11.0290615583547 15.353908669859669
S 12.398514797275826 15.549442221365336 8.277801833378938
S 12.267169183604624 10.051912399340788 7.356241034553057
S 12.411343497685133 12.672816777110468 15.092360841046647
S 11.565302576281633 8.786489273037976 10.365895698073055
S 6.743053738861307 8.951749055932249 5.516697217666163
S 9.900038429640105 7.054158848117064 13.455292217180402
S 7.864933116062343 5.529845431582059 8.372140207871114
S 9.040224354697974 14.536761844534539 10.415137841844945
S 12.256991437576055 6.163143224613774 5.113103318044962
S 14.671910234235 12.019274478128716 12.854433529542007
S 5.256233258012917 6.272688724821386 10.398508102431745
