4
Energy = -14.79409268 eV
S 7.554827965573401 6.518202261848332 7.417443732963898
S 5.8303804650088145 5.921187426452251 7.947680611587113
S 7.623553259791238 8.090736195841329 5.913419645405297
S 8.060681551570854 8.577274242613122 7.902735415454161
