4
Energy = -14.27042335 eV
S 8.309778470230144 9.954596247581646 11.086763075294746
S 10.783668239331234 7.31896125077548 6.435380824263879
S 7.57130138449079 11.17015032627294 12.351096690460066
S 10.212885692433607 8.522715997093757 7.794131891781516
