44
Energy = -171.98094262 eV
S 19.74103888554717 9.38525388719301 9.650135881519914
S 12.521980761889786 17.570425221661772 18.8331630627739
S 13.015725618542959 13.099290154479762 5.973180435953997
S 10.183960034611902 12.022349866655714 6.022981083522892
S 16.82245707572516 16.334239801304022 15.159313317565763
S 11.247461861434754 12.831307163496946 11.248817733380067
S 13.76660441772547 15.911751831309056 10.723683007406487
S 12.291777009485681 12.611428365652614 18.980949488568502
S 16.678376343714415 9.08662210833683 8.446333863068189
S 12.242597465030688 19.19804998824311 15.943580448516167
S 13.54282928901511 18.31568129756047 12.952055953574446
S 11.57243066022355 17.57449473841812 16.864368789326026
S 16.99565959474249 10.371946910559247 16.83647863474337
S 12.486118896017864 13.41800364087107 7.771846254769435
S 18.75979467577224 19.972603879040232 12.88797403681398
S 14.058227772420361 18.827056503947492 14.83509646547539
S 16.89438855626365 14.649100084177963 16.04607447491438
S 11.774033737473006 15.905018807130265 19.630674851838933
S 16.946484827371336 19.361565007797324 13.145354604208226
S 11.014241459459683 11.081100749212162 15.83223550569635
S 8.12573387375753 10.490405559642735 9.700426361088855
S 19.103907108482513 14.36748403931033 16.23293105277492
S 14.821198176348863 9.973676427907636 11.879434258562766
S 17.85642024177984 9.168274207260938 9.964785115786778
S 17.54016648400896 9.261841743788597 13.711801089642096
S 13.147118435402563 14.338599422026292 18.905798290305857
S 10.740882439517495 15.450685904565555 13.362017863985571
S 14.972663214988922 10.499462974389346 17.102050456975793
S 9.231219493379662 16.491431325395407 14.056729075531178
S 19.72870717936254 15.968959757253407 15.412552970148305
S 7.771272900050986 9.289405241344289 11.144292697034857
S 10.038045098721133 14.25521450379417 16.367724414075994
S 15.638958616161833 8.57368514562288 12.926140617976394
S 17.527954380646584 8.707553017126546 15.664201627742314
S 8.464413354071862 15.31204523245642 15.835730802062878
S 12.800345547934228 11.024668325311877 14.616649279615295
S 9.688691110130735 12.419757180787137 15.209236676659595
S 10.875565731008411 10.47933241232037 11.208945073893679
S 9.819287514398935 9.370634833329422 12.400863940602761
S 10.41409283378156 12.665189505431556 7.803138770837504
S 14.021444884553256 16.174988221537074 12.617914098554891
S 9.981257344050476 14.283844789909338 11.643446990347917
S 20.209434264693197 19.002541671586616 13.693844065850525
S 14.239953856910033 11.92436406420515 15.707428984247636
