45
Energy = -147.38774572 eV
S 10.703014538164204 11.612766358183114 6.6257821821655085
S 11.783901432934863 7.98268702629023 5.5004338745076655
S 8.59649339790105 11.853670382580829 7.072273866502827
S 8.021993279587036 9.585956200929276 7.396180038747661
S 12.428727296483375 9.685398441979046 6.596823592721128
S 9.593227563142731 8.38317473489562 6.711558361704769
S 12.552297942741935 13.338105072741959 8.030714887650426
S 8.195038464647556 14.03486249560195 7.787986271421102
S 14.518994473401184 10.566495793519053 7.993350178019445
S 8.973638720366607 10.243715540824578 9.71600942784008
S 12.237185868918345 6.956895998593951 7.84140341954999
S 8.842794420392163 5.966797568257339 7.901166492277188
S 10.737089495113299 14.250069326307809 8.850807353371541
S 13.789246370660287 12.029017882265073 9.840090025218338
S 6.5455658059708774 13.15426821609573 9.483501926327973
S 6.3387711616837485 8.913396467007464 9.05032516315818
S 9.229191495682013 12.192879287036689 10.305289153956327
S 11.80568647025338 10.895117142443068 8.718280111224681
S 11.321285569826147 5.419260513064698 9.116755980284415
S 13.629353578563961 8.5658556213666 9.146681556857542
S 10.224809747547875 8.354373738694164 9.717801391953449
S 7.72963559947895 6.87420670267594 9.536855121708875
S 7.218557127192365 9.774166421083219 10.63812244925576
S 11.946733029378297 9.876111655917668 10.93650972574862
S 11.566079443689963 15.660035484603046 10.107769269380585
S 10.482899351485942 6.338387472310163 11.373294084158594
S 8.308700431550985 5.497061778171442 11.66326897087787
S 7.689236058623955 13.90499131500066 11.597432826965203
S 8.092781807383354 7.5762857280561 12.44758223624927
S 14.17758479687508 7.868965321452688 11.247413502273869
S 12.812956351967115 13.48613112769669 11.026859260841233
S 9.848690973115307 14.56580575306201 11.666810643387722
S 14.51805769128811 10.811357057840821 11.503416929434703
S 10.62962482927459 11.63814069912107 11.628445812836517
S 9.904468149212239 9.461459466988499 11.746210831389952
S 12.673939846879055 10.87186806856668 13.33117835810617
S 7.114204257544809 10.912633863298492 12.398798602950679
S 12.245590685319794 7.311340391453996 12.45146864363221
S 6.941311139963194 12.926561652870056 13.445923473758665
S 10.864623761159624 13.841836791266708 14.10824838443024
S 7.384675084037708 8.733396472573135 14.100131612962954
S 13.139980428967116 13.279497690306878 13.55896571437866
S 9.5074662693088 12.375914130674293 13.882079808491824
S 11.679375121116502 9.036681843344226 14.305026601347599
S 9.83412300755054 9.772001639332977 14.274574216319008
