46
Energy = -80.47872882 eV
S 5.896284364124072 6.295463380199497 3.5084426269684483
S 7.470629663782899 7.5711097547596475 4.180964884682607
S 7.823682752184476 5.252991846039194 3.9494343750373972
S 5.420993573042431 8.619815183112163 4.135830815062721
S 9.584688380762119 6.813262234183232 4.394648423689097
S 3.8229825839170073 5.005914722882497 4.190327853708497
S 3.6150375426414576 7.3762518331147975 3.7976647398251653
S 5.761609701276066 4.1695126182628455 4.87473585722041
S 7.0172290437331535 6.054600785953083 5.990353385786017
S 6.380764240504653 7.758075011674159 6.191715902825531
S 9.391515269674555 8.949529368177194 5.091728340300778
S 8.257758538993912 7.275563592633312 6.496119219085963
S 5.127262105371392 6.529637850731159 5.709863120405502
S 9.269306820125191 5.281846115425944 6.056168247827511
S 5.52153033783296 10.111167226627556 6.209596814282784
S 7.767714006349178 3.618628269167416 5.718602189961465
S 3.844059069107964 8.587678959962508 6.022331917273382
S 4.1725027316105106 4.635299294198912 6.762694652584657
S 9.871050131441471 9.251000087052345 7.313727476509032
S 8.561988596661045 10.978200226227575 6.141727893857782
S 7.209305598901031 9.787776149812633 4.628579727861719
S 2.5722832388930126 6.331503960123871 5.750071362188297
S 10.638662930971865 7.1491834469832 6.2917183151996365
S 7.652076522871498 9.299415669144132 7.060101901455849
S 6.1871336897701585 4.139096744869038 7.200213133151511
S 9.051311850634042 7.3359713899238574 8.227335985379538
S 3.521235326195086 6.780991357182033 7.726131478840673
S 8.740369650902023 3.6426450930194414 7.818930904711909
S 10.36874900351228 5.304901210180613 7.928952881825505
S 11.592552755082762 7.5605100116236255 8.23472595910839
S 5.045241524948483 8.384191400939141 7.685676819153233
S 7.757847041410555 5.942064012510788 7.7289997127800465
S 4.704164365431943 4.952613211549342 9.00459812001929
S 10.32933817485121 8.873097579165321 9.774330277319923
S 7.171821753104882 7.620667437856647 8.188473499900619
S 5.939517091124342 6.350375416814117 7.529547582094282
S 6.323483921966263 10.20382384892692 8.472753401560691
S 4.295689848584553 9.412485894985329 9.414228013010048
S 10.594177403553092 6.511287601470764 10.152664830462758
S 8.75154766661594 5.278086133907775 9.831352599603761
S 6.944417477937067 4.1715478635258485 9.30870610072077
S 4.597546621823341 7.109382141817658 9.685852140733404
S 6.352282816115561 8.60084773218818 10.25722503842496
S 8.268747171817342 7.537366268055016 10.509500695956703
S 8.318154115489438 9.518823976901242 9.116542468833375
S 6.6699612395584955 6.242004341342363 9.912316568012887
