46
Energy = -139.14874152 eV
S 9.79534827135651 8.068747268202143 5.771161198426114
S 7.686508432316813 8.176745236697334 5.046818521356543
S 5.508715447641271 4.6784868861915845 6.354668999110036
S 11.278545876593018 7.514240272930348 7.824284544693103
S 8.439013332771706 5.360655464576068 5.931410669506317
S 9.232139046881148 3.575822762185368 4.1625940437586175
S 5.7272595130101775 5.926276565237997 11.393857847101946
S 6.918292636106073 10.445106174474642 9.171878028570585
S 5.94431400331129 7.661790951058735 9.190669513522812
S 10.130056795406224 6.257552802330799 10.478412868160726
S 7.570718157791056 3.085157159748021 8.177391508820616
S 5.618590919236411 4.687518428564853 9.126186981770195
S 2.5221481405978863 8.556343776922409 6.996772115214732
S 3.067992367569286 8.46804789719637 4.529146555148684
S 4.872173165280639 10.361377872722153 6.025442890837897
S 7.341160313881113 6.394206035870577 7.265854527890872
S 7.7994558962969585 7.866488952212201 11.478513286062421
S 7.753632663943863 7.918930725533867 2.353688014712
S 7.788325704467611 5.001280123428544 10.137892126031856
S 9.840777429312052 5.206162820571979 8.463696024273332
S 9.525581713081138 6.969240126340447 3.6037896560789955
S 9.5807304262946 3.0114642257361526 6.747072345122382
S 4.168733495398849 3.6037241548753185 5.252530742063076
S 4.589172070175604 8.183719884495057 2.069043604564544
S 9.692334191877649 9.517545524244994 10.29393744143616
S 8.406311592629969 5.064792222866551 1.8723538896487735
S 6.978452634130776 5.261356039936964 4.234817961672693
S 3.239795205342229 7.839198723093192 9.91147167095226
S 5.565483373243549 5.534929975335322 1.6459802730442654
S 4.180168343222302 3.65662217251061 2.496616595027075
S 6.6231123691419125 2.5943204290213076 3.246390398737851
S 6.681194862938048 2.691270645626809 6.254970849135515
S 5.389846890030204 9.330224574766728 10.982507143176777
S 5.162181498622958 7.934425630823776 6.136429981830788
S 11.08272126112941 5.8317015374334895 5.9334158229367615
S 2.735112724218692 5.900557981688049 3.358617622378875
S 5.013568801735065 6.67879381003744 4.452097116616007
S 7.371202942810036 9.81800321717775 6.626284003126298
S 8.301589302298959 7.657172810254443 8.553914939848863
S 3.957976629684468 3.5757872526303456 7.374118143380005
S 6.495264149469233 9.512300258802945 3.8706547816306025
S 3.134240903355304 5.300152412623626 9.679147950762212
S 4.795184201588821 10.023844034752141 8.193803923390726
S 2.6593466639087615 5.8073010952073085 5.757693528780603
S 3.647124845392074 6.330239012594536 7.718626938853083
S 9.222303733185687 10.194277009145937 6.887275349513953
