47
Energy = -174.10952123 eV
S 10.889976655649205 11.359539333239754 5.156838516673908
S 9.105773725590982 8.87737420168024 5.739756218962124
S 12.550142321999187 10.433882361263914 5.631605181548414
S 12.517363010525749 7.839572747481604 6.840534473533839
S 10.034628530234677 12.212740650896222 6.72205530739473
S 9.33238679126814 6.997963475833282 5.845347733910087
S 6.932962262434178 12.729211337521667 7.8215600445498765
S 7.557737935672659 9.519727773247437 7.56590114691212
S 11.13327547579979 10.640899048752104 8.839786301333652
S 11.552390789660466 14.451775775170779 8.89731668239623
S 13.604014944851476 6.980320439937809 8.292688463727785
S 13.812522573216844 11.346370355528789 7.934381316399802
S 9.190485844114448 6.49416430921281 8.430049431503866
S 5.852751108489387 8.8199459528906 8.167857624452322
S 7.5701104587551 12.599120118554504 9.659046530724652
S 13.233749247209195 14.814535383758482 7.989925222960877
S 11.704899490785074 8.462405766388114 10.068046027781955
S 14.866957675083984 12.646306914024938 8.931529704149968
S 13.96214796748015 8.865607842273317 10.30958594123512
S 12.305106000056615 5.250120492583047 9.235111630773803
S 7.442775474352363 5.727139874816005 8.163896144577356
S 8.663918549320952 14.140991224612064 10.338245299126552
S 6.109894567983369 12.664367926393288 12.515441139945224
S 11.907555985124528 15.634853318558635 10.9022081868991
S 11.637591790367713 11.808525155059424 10.2725319768228
S 6.6938523658514635 5.914989863537023 11.68468830699875
S 9.378423376119715 8.71466103434965 8.950118485083074
S 10.287881862128428 16.38699068788967 11.891626126928056
S 8.88293133477169 10.530172886658484 11.344000476048377
S 10.860965157696654 9.243206033207537 11.721897952319235
S 11.737305002951596 5.743024795989706 11.030618226032118
S 8.460438117100534 6.688007336842367 11.706683263843761
S 6.375502965129873 8.703945772871965 11.436090510037015
S 14.210258431471194 10.303911793677676 11.63148298411289
S 15.411452766296641 11.852534931256383 10.854786961271147
S 13.434883514926828 13.68686838454938 12.668045573386484
S 5.86208896176872 10.001120744285938 12.776382693477027
S 9.714921453883969 12.225518414995815 12.006030802018852
S 9.662133345788899 15.106016487087226 13.29864918345594
S 7.785820329309313 12.692216647453826 13.451960206996624
S 11.752421667380485 7.248406840024399 14.03120436245909
S 8.563585610755135 9.218511669108016 14.25556595121882
S 12.914379981625874 8.764992167280473 13.920947152449227
S 9.352510891803588 7.482628735872546 14.374777683954303
S 12.65756347441387 13.253930440447927 14.38964858744351
S 9.741312744126509 11.750278759549499 15.977215680742884
S 11.085657538458177 11.468013863170862 14.623742651211717
