5
Energy = -19.07758488 eV
S 7.667155473970465 9.354455302794749 10.468797297283942
S 9.185408381212314 8.366940655099985 7.581224787236302
S 7.989841381953972 7.896475582834403 9.270653040847574
S 7.36613207180625 7.79741331344985 6.6555351307352915
S 7.4667730556703695 6.185803527503528 5.621575251649718
