50
Energy = -196.14818294 eV
S 8.446539877118756 12.803462534189691 2.5358905623904717
S 7.399110856187383 11.017176998868464 1.8361445580457498
S 11.050485136953807 6.607426401231 4.06175317884867
S 12.977443671723377 7.308312468375845 4.143156745491217
S 7.889562185290091 9.675840744563182 3.09953805027259
S 9.363737382551175 12.211074211880046 4.100325301044604
S 13.058033507387545 9.390150796967065 4.287056847906925
S 10.601759971798385 5.586238208843285 5.871435177331884
S 5.2031474010598675 11.556387557834464 6.037461191359187
S 5.804994131336561 13.420714918117683 6.467270732480316
S 9.290733883423306 9.363277627065091 6.525728390134308
S 15.020040383733624 6.344390898325975 7.590147182315122
S 11.068317600459103 3.6655807578678203 5.651573224069548
S 3.6590605421258897 9.304024981373813 7.907055510310811
S 7.884250245330369 4.1738390647159695 4.591788336531151
S 12.736872870643051 11.449696137326326 7.014320404285733
S 10.658145335781395 8.32133844095056 7.361973589413747
S 7.302910263513509 8.420476017492176 7.489385693472118
S 10.061778769879286 14.621324256668549 8.160558445194384
S 13.990190353000383 10.124227676900848 5.976049194667809
S 9.147866333829588 2.758009882727919 4.833149705878458
S 6.098269207378811 13.086245503190117 8.521230114092827
S 10.122987664422523 5.293808699470502 11.038536145243025
S 9.493755718293642 11.353252564030628 9.123405303247965
S 3.445144956392716 11.153158289954803 7.45788948573934
S 5.663291170203195 6.20410560732385 11.194446723967973
S 14.159466959415274 6.8520302804669075 9.210012306803367
S 12.666921585702589 11.1190011709292 9.043031063620374
S 5.63072195708969 4.287720543274761 11.026374134999822
S 4.157272224671046 12.769253614156163 8.980764325658708
S 10.528689798841885 14.910153600285506 10.019691114131863
S 8.084889654103272 7.146680153321564 8.694232940826241
S 10.997431428129026 10.055945076350476 9.682625276002947
S 7.79472998963353 10.24135822613497 10.023584374173097
S 3.8338576166370926 8.720575313277324 12.43411644349386
S 9.305501887158725 3.52474729051235 11.26633124080749
S 4.040302666077159 6.739778433219517 12.606567739771497
S 11.868083441212562 5.420410942527237 12.378746887779611
S 7.569466519595497 3.987191411684477 12.809383264643001
S 9.053102053168018 14.01177269979425 11.229193977652438
S 12.980678681755363 8.605621491869464 11.901088163500463
S 8.396824568069011 8.51061850809886 10.66695332231261
S 9.539377420823978 14.06186735590039 13.097580986441164
S 6.213619333355517 10.900115747893308 13.51493776284713
S 11.436460463462016 6.4311600859099345 14.013283014266536
S 12.09939374276465 8.552082975311736 13.607338323259052
S 4.704128644980514 9.762936206146685 14.119884748863157
S 8.078022664818425 9.805154533405346 14.146642402218658
S 7.731411387375498 5.845449695371224 13.178081989843776
S 7.566696446231199 8.400313952792136 15.347764957235896
