51
Energy = -202.58087547 eV
S 6.585396508603311 5.506621277765754 0.5399467273301595
S 4.532545716238527 10.393632809618802 3.1473833642052234
S 9.18673010027363 7.455298333460243 1.3193572192325127
S 3.1752027513865806 8.893095034343501 2.9855902737273614
S 7.7793153593424105 5.709102003265994 2.0265475159469117
S 3.8714356818511817 3.7535043358463627 3.2532289015048317
S 8.618090592811168 10.340761430543377 2.7992486652938156
S 9.919138897335277 8.610468717841247 2.7524017354910626
S 3.295045451313358 12.066316840208014 3.800966915888957
S 6.739182194941248 6.718680630674761 3.796071611214705
S 1.530313962874537 8.725940509229192 5.870679680857199
S 11.708275694317884 4.671551212017955 4.948141287210629
S 2.643865328284484 4.064050167955869 4.710036050446544
S 10.51426176604703 1.5951215075035934 5.236577047882126
S 7.235092085385572 2.387030949993067 4.3839990009762895
S 7.8254878322564405 10.468096986570405 4.632304574175879
S 10.70190412405685 7.317129946337564 6.698813578612657
S 3.0803359195677755 7.815792301366426 4.741905108038036
S 8.36581207279463 1.3844671540036735 5.61723587403319
S 6.553836528944575 4.130343933622071 6.014112032327066
S 11.277682939280904 9.180825123278629 6.564416791570909
S 4.436516417526591 13.608561482949062 3.993173668207054
S 3.057916539528221 11.113212573654472 7.771666311201612
S 12.44965751707647 6.100260723383032 6.100528405579328
S 11.980771332121764 9.958654880527359 8.744852052510621
S 7.699901771526512 5.947394011144005 5.343653304873567
S 7.606749506312246 12.863684544308635 6.777656662143377
S 11.397120929776156 3.002423128516084 6.337206410339052
S 13.576834395306625 10.988070843191107 8.452736954735066
S 5.2636884366752605 4.25272940158632 10.760118740642458
S 11.933681328250676 4.697782993461855 10.720301489136418
S 12.433791132583089 7.984718895217692 9.576049258403684
S 6.279404192614338 10.298437373578821 8.586753509907917
S 9.023980158728971 11.92542036210817 5.6870493790435415
S 7.504867201317077 3.545812303799933 7.56969608566472
S 10.027520118050768 4.654244429437222 10.537165695399285
S 3.1163275029382707 3.3881252831726356 6.456432938821668
S 2.17170966475335 9.14709132031287 7.721271484189466
S 4.393337480467892 10.921789033329556 9.27854686883787
S 6.034082592698137 3.6450214322994623 12.57308852251436
S 7.533375240041255 11.91720668764257 8.64820722433196
S 6.55456317934543 9.489208308480412 13.803459164105563
S 9.346375774521881 4.16124639120728 12.648982474352142
S 10.979224634325648 7.805133364790612 11.037776263726363
S 9.350998043018246 6.913287065887895 10.33972852590638
S 3.534298391363455 5.338616814690099 11.075736273088877
S 3.985069059242776 7.352738716432873 11.2029562194982
S 7.572525470468016 5.003073510032046 13.036287741699017
S 3.703723257868762 7.948550956886145 13.178895065561218
S 8.438550927466183 9.066649621945388 13.869495068396743
S 5.40483626954412 7.703372313945877 14.261914254581802
