6
Energy = -22.06045968 eV
S 8.727960981965388 5.56260091331845 8.35802447100888
S 5.447812574760173 6.093757116278692 8.32828479615294
S 6.90068682224428 8.46505497976796 4.112252995385756
S 7.257429905125312 8.702578561396523 6.153059152018505
S 6.174453206092635 7.064366463108902 5.512367247112788
S 7.103678009880063 5.914315409368546 9.326190931896477
