 vasp.5.3.5 31Mar14 (build Feb 01 2018 12:10:03) gamma-only                     
  
 executed on             LinuxIFC date 2019.03.22  10:48:35
 running on   32 total cores
 distrk:  each k-point on   32 cores,    1 groups
 distr:  one band on NCORES_PER_BAND=   8 cores,    4 groups


--------------------------------------------------------------------------------------------------------


 INCAR:
 POTCAR:    PAW_PBE Ag 02Apr2005                  
 POTCAR:    PAW_PBE Ag 02Apr2005                  
   VRHFIN =Ag : s1 d10                                                          
   LEXCH  = PE                                                                  
   EATOM  =  1037.2675 eV,   76.2370 Ry                                         
                                                                                
   TITEL  = PAW_PBE Ag 02Apr2005                                                
   LULTRA =        F    use ultrasoft PP ?                                      
   IUNSCR =        1    unscreen: 0-lin 1-nonlin 2-no                           
   RPACOR =    2.000    partial core radius                                     
   POMASS =  107.868; ZVAL   =   11.000    mass and valenz                      
   RCORE  =    2.500    outmost cutoff radius                                   
   RWIGS  =    2.840; RWIGS  =    1.503    wigner-seitz radius (au A)           
   ENMAX  =  249.844; ENMIN  =  187.383 eV                                      
   ICORE  =        3    local potential                                         
   LCOR   =        T    correct aug charges                                     
   LPAW   =        T    paw PP                                                  
   EAUG   =  412.496                                                            
   DEXC   =    0.000                                                            
   RMAX   =    2.560    core radius for proj-oper                               
   RAUG   =    1.300    factor for augmentation sphere                          
   RDEP   =    2.576    radius for radial grids                                 
   RDEPT  =    2.072    core radius for aug-charge                              
                                                                                
   Atomic configuration                                                         
   12 entries                                                                   
     n  l   j            E        occ.                                          
     1  0  0.50    -25324.9161   2.0000                                         
     2  0  0.50     -3728.5341   2.0000                                         
     2  1  1.50     -3344.0404   6.0000                                         
     3  0  0.50      -683.5581   2.0000                                         
     3  1  1.50      -557.3225   6.0000                                         
     3  2  2.50      -358.3853  10.0000                                         
     4  0  0.50       -95.0341   2.0000                                         
     4  1  1.50       -58.5511   6.0000                                         
     4  2  2.50        -7.4440  10.0000                                         
     5  0  0.50        -4.4045   1.0000                                         
     5  1  0.50        -1.3606   0.0000                                         
     4  3  2.50        -1.3606   0.0000                                         
   Description                                                                  
     l       E           TYP  RCUT    TYP  RCUT                                 
     2     -7.4439781     23  2.400                                             
     2     -8.8045607     23  2.400                                             
     0     -4.4044681     23  2.400                                             
     0      1.9520038     23  2.400                                             
     1     -1.3605826     23  2.500                                             
     1     27.2116520     23  2.500                                             
     3     -4.0817478     23  2.400                                             
  local pseudopotential read in
  partial core-charges read in
  partial kinetic energy density read in
  atomic valenz-charges read in
  non local Contribution for L=           2  read in
    real space projection operators read in
  non local Contribution for L=           2  read in
    real space projection operators read in
  non local Contribution for L=           0  read in
    real space projection operators read in
  non local Contribution for L=           0  read in
    real space projection operators read in
  non local Contribution for L=           1  read in
    real space projection operators read in
  non local Contribution for L=           1  read in
    real space projection operators read in
    PAW grid and wavefunctions read in
 
   number of l-projection  operators is LMAX  =           6
   number of lm-projection operators is LMMAX =          18
 

 ----------------------------------------------------------------------------- 
|                                                                             |
|  ADVICE TO THIS USER RUNNING 'VASP/VAMP'   (HEAR YOUR MASTER'S VOICE ...):  |
|                                                                             |
|      You have a (more or less) 'large supercell' and for larger cells       |
|      it might be more efficient to use real space projection opertators     |
|      So try LREAL= Auto  in the INCAR   file.                               |
|      Mind: At the moment your POTCAR file does not contain real space       |
|       projectors, and has to be modified,  BUT if you                       |
|      want to do an extremely  accurate calculation you might also keep the  |
|      reciprocal projection scheme          (i.e. LREAL=.FALSE.)             |
|                                                                             |
 ----------------------------------------------------------------------------- 

  PAW_PBE Ag 02Apr2005                  :
 energy of atom  1       EATOM=-1037.2675
 kinetic energy error for atom=    0.0689 (will be added to EATOM!!)
 
 
 POSCAR: Al31, -95.96449404 <s> Ag </s>          
  positions in direct lattice
  No initial velocities read in
 exchange correlation table for  LEXCH =        8
   RHO(1)=    0.500       N(1)  =     2000
   RHO(2)=  100.500       N(2)  =     4000
 


--------------------------------------------------------------------------------------------------------


 ion  position               nearest neighbor table
   1  0.468  0.665  0.515-   6 2.72  15 2.76  21 2.78  12 2.82  18 2.86  17 2.87  10 2.96   7 3.02
                             3 3.41
   2  0.538  0.614  0.329-  17 2.74   5 2.84   6 2.85   8 2.88  12 2.90  11 3.10
   3  0.518  0.598  0.645-  26 2.65  15 2.78   7 2.80  25 2.84  18 2.85  21 2.92  23 3.10   1 3.41

   4  0.699  0.520  0.499-  22 2.69   8 2.72  25 2.73   9 2.77  13 3.14
   5  0.525  0.487  0.341-  16 2.70  13 2.81  17 2.82   2 2.84  14 2.85  11 2.91   8 3.23
   6  0.440  0.666  0.395-   1 2.72  11 2.76  17 2.79   2 2.85  10 3.02  12 3.10
   7  0.474  0.531  0.546-  17 2.57  24 2.67  25 2.68  23 2.71  10 2.80   3 2.80  21 2.82  27 2.83
                            26 3.00   1 3.02  14 3.09  13 3.43
   8  0.629  0.564  0.409-   4 2.72  13 2.72  12 2.76  17 2.81   2 2.88   9 3.07  25 3.16   5 3.23

   9  0.679  0.643  0.512-  18 2.74  25 2.76   4 2.77  12 2.87   8 3.07
  10  0.378  0.573  0.474-   7 2.80  17 2.91  14 2.95  27 2.95   1 2.96  21 2.98  11 2.98   6 3.02

  11  0.412  0.555  0.345-   6 2.76  14 2.86   5 2.91  17 2.92  10 2.98   2 3.10
  12  0.573  0.671  0.442-  17 2.76   8 2.76   1 2.82   9 2.87   2 2.90  18 2.93   6 3.10  25 3.40

  13  0.578  0.461  0.454-   8 2.72  22 2.76  19 2.80   5 2.81  17 2.84  16 2.89  24 2.92  25 3.01
                             4 3.14  14 3.18   7 3.43
  14  0.436  0.461  0.431-  27 2.74  20 2.77  17 2.77   5 2.85  11 2.86  10 2.95  16 2.99   7 3.09
                            24 3.15  13 3.18
  15  0.471  0.714  0.630-   1 2.76   3 2.78  18 2.79  21 2.87
  16  0.521  0.370  0.378-   5 2.70  20 2.77  19 2.81  13 2.89  14 2.99
  17  0.505  0.566  0.439-   7 2.57   2 2.74  12 2.76  14 2.77   6 2.79   8 2.81   5 2.82  13 2.84
                             1 2.87  10 2.91  11 2.92  25 3.08
  18  0.581  0.686  0.574-   9 2.74  15 2.79   3 2.85   1 2.86  25 2.86  12 2.93
  19  0.582  0.338  0.486-  28 2.74  13 2.80  16 2.81  24 2.82  22 2.92  20 3.24  30 3.43
  20  0.436  0.341  0.466-  31 2.77  14 2.77  16 2.77  24 2.80  28 2.91  19 3.24  27 3.30
  21  0.393  0.613  0.603-  23 2.78   1 2.78   7 2.82  15 2.87   3 2.92  10 2.98
  22  0.639  0.433  0.559-  30 2.68   4 2.69  13 2.76  26 2.89  19 2.92  25 2.99  24 3.11
  23  0.418  0.499  0.650-   7 2.71  29 2.78  21 2.78  27 2.87  26 2.99   3 3.10  24 3.43
  24  0.499  0.413  0.549-   7 2.67  28 2.71  20 2.80  19 2.82  29 2.82  26 2.88  13 2.92  27 2.99
                            30 3.00  31 3.01  22 3.11  14 3.15  23 3.43
  25  0.592  0.560  0.547-   7 2.68   4 2.73   9 2.76   3 2.84  18 2.86  26 2.89  22 2.99  13 3.01
                            17 3.08   8 3.16  12 3.40
  26  0.553  0.483  0.645-   3 2.65  30 2.83  24 2.88  25 2.89  22 2.89  29 2.93  23 2.99   7 3.00

  27  0.371  0.455  0.537-  31 2.71  14 2.74   7 2.83  23 2.87  10 2.95  24 2.99  20 3.30
  28  0.503  0.292  0.569-  24 2.71  19 2.74  31 2.78  30 2.81  20 2.91  29 3.10
  29  0.467  0.384  0.669-  30 2.74  31 2.76  23 2.78  24 2.82  26 2.93  28 3.10
  30  0.585  0.359  0.640-  22 2.68  29 2.74  28 2.81  26 2.83  24 3.00  19 3.43
  31  0.388  0.342  0.582-  27 2.71  29 2.76  20 2.77  28 2.78  24 3.01
 
  LATTYP: Found a simple cubic cell.
 ALAT       =    22.0626901273
  
  Lattice vectors:
  
 A1 = (  22.0626901273,   0.0000000000,   0.0000000000)
 A2 = (   0.0000000000,  22.0626901273,   0.0000000000)
 A3 = (   0.0000000000,   0.0000000000,  22.0626901273)


Analysis of symmetry for initial positions (statically):
=====================================================================
 Subroutine PRICEL returns:
 Original cell was already a primitive cell.
 

 Routine SETGRP: Setting up the symmetry group for a 
 simple cubic supercell.


 Subroutine GETGRP returns: Found  1 space group operations
 (whereof  1 operations were pure point group operations)
 out of a pool of 48 trial point group operations.


The static configuration has the point symmetry C_1 .


Analysis of symmetry for dynamics (positions and initial velocities):
=====================================================================
 Subroutine PRICEL returns:
 Original cell was already a primitive cell.
 

 Routine SETGRP: Setting up the symmetry group for a 
 simple cubic supercell.


 Subroutine GETGRP returns: Found  1 space group operations
 (whereof  1 operations were pure point group operations)
 out of a pool of 48 trial point group operations.


The dynamic configuration has the point symmetry C_1 .


Analysis of magnetic symmetry:
=====================================================================
 Subroutine PRICEL returns:
 Original cell was already a primitive cell.
 

 Subroutine MAGSYM returns: Found  1 space group operations
 (whereof  1 operations were pure point group operations)
 out of a pool of  1 trial space group operations
 (whereof  1 operations were pure point group operations)
 and found also     1 'primitive' translations


The magnetic configuration has the point symmetry C_1 .
 
 
 KPOINTS: Gamma-point only                        
  k-points in reciprocal lattice
Space group operators:
 irot       det(A)        alpha          n_x          n_y          n_z        tau_x        tau_y        tau_z
    1     1.000000     0.000000     1.000000     0.000000     0.000000     0.000000     0.000000     0.000000


--------------------------------------------------------------------------------------------------------




 Dimension of arrays:
   k-points           NKPTS =      1   k-points in BZ     NKDIM =      1   number of bands    NBANDS=    220
   number of dos      NEDOS =    301   number of ions     NIONS =     31
   non local maximal  LDIM  =      6   non local SUM 2l+1 LMDIM =     18
   total plane-waves  NPLWV = 729000
   max r-space proj   IRMAX =      1   max aug-charges    IRDMAX=   3537
   dimension x,y,z NGX =    90 NGY =   90 NGZ =   90
   dimension x,y,z NGXF=   180 NGYF=  180 NGZF=  180
   support grid    NGXF=   180 NGYF=  180 NGZF=  180
   ions per type =              31
 NGX,Y,Z   is equivalent  to a cutoff of   6.78,  6.78,  6.78 a.u.
 NGXF,Y,Z  is equivalent  to a cutoff of  13.56, 13.56, 13.56 a.u.


 I would recommend the setting:
   dimension x,y,z NGX =    85 NGY =   85 NGZ =   85
 SYSTEM =  unknown system                          
 POSCAR =  Al31, -95.96449404 <s> Ag </s>          

 Startparameter for this run:
   NWRITE =      2    write-flag & timer
   PREC   = normal    normal or accurate (medium, high low for compatibility)
   ISTART =      0    job   : 0-new  1-cont  2-samecut
   ICHARG =      2    charge: 1-file 2-atom 10-const
   ISPIN  =      2    spin polarized calculation?
   LNONCOLLINEAR =      F non collinear calculations
   LSORBIT =      F    spin-orbit coupling
   INIWAV =      1    electr: 0-lowe 1-rand  2-diag
   LASPH  =      F    aspherical Exc in radial PAW
   METAGGA=      F    non-selfconsistent MetaGGA calc.

 Electronic Relaxation 1
   ENCUT  =  249.8 eV  18.36 Ry    4.29 a.u.  28.43 28.43 28.43*2*pi/ulx,y,z
   ENINI  =  249.8     initial cutoff
   ENAUG  =  412.5 eV  augmentation charge cutoff
   NELM   =     60;   NELMIN=  2; NELMDL= -5     # of ELM steps 
   EDIFF  = 0.1E-03   stopping-criterion for ELM
   LREAL  =      F    real-space projection
   NLSPLINE    = F    spline interpolate recip. space projectors
   LCOMPAT=      F    compatible to vasp.4.4
   GGA_COMPAT  = T    GGA compatible to vasp.4.4-vasp.4.6
   LMAXPAW     = -100 max onsite density
   LMAXMIX     =    2 max onsite mixed and CHGCAR
   VOSKOWN=      0    Vosko Wilk Nusair interpolation
   ROPT   =    0.00000
 Ionic relaxation
   EDIFFG = 0.1E-02   stopping-criterion for IOM
   NSW    =   1000    number of steps for IOM
   NBLOCK =      1;   KBLOCK =   1000    inner block; outer block 
   IBRION =      2    ionic relax: 0-MD 1-quasi-New 2-CG
   NFREE  =      1    steps in history (QN), initial steepest desc. (CG)
   ISIF   =      2    stress and relaxation
   IWAVPR =     11    prediction:  0-non 1-charg 2-wave 3-comb
   ISYM   =      2    0-nonsym 1-usesym 2-fastsym
   LCORR  =      T    Harris-Foulkes like correction to forces

   POTIM  = 0.1000    time-step for ionic-motion
   TEIN   =    0.0    initial temperature
   TEBEG  =    0.0;   TEEND  =   0.0 temperature during run
   SMASS  =  -3.00    Nose mass-parameter (am)
   estimated Nose-frequenzy (Omega)   =  0.10E-29 period in steps =****** mass=  -0.111E-25a.u.
   SCALEE = 1.0000    scale energy and forces
   NPACO  =    256;   APACO  = 16.0  distance and # of slots for P.C.
   PSTRESS=    0.0 pullay stress

  Mass of Ions in am
   POMASS = 107.87
  Ionic Valenz
   ZVAL   =  11.00
  Atomic Wigner-Seitz radii
   RWIGS  =  -1.00
  virtual crystal weights 
   VCA    =   1.00
   NELECT =     341.0000    total number of electrons
   NUPDOWN=      -1.0000    fix difference up-down

 DOS related values:
   EMIN   =  10.00;   EMAX   =-10.00  energy-range for DOS
   EFERMI =   0.00
   ISMEAR =     0;   SIGMA  =   0.00  broadening in eV -4-tet -1-fermi 0-gaus

 Electronic relaxation 2 (details)
   IALGO  =     38    algorithm
   LDIAG  =      T    sub-space diagonalisation (order eigenvalues)
   LSUBROT=      F    optimize rotation matrix (better conditioning)
   TURBO    =      0    0=normal 1=particle mesh
   IRESTART =      0    0=no restart 2=restart with 2 vectors
   NREBOOT  =      0    no. of reboots
   NMIN     =      0    reboot dimension
   EREF     =   0.00    reference energy to select bands
   IMIX   =      4    mixing-type and parameters
     AMIX     =   0.40;   BMIX     =  1.00
     AMIX_MAG =   1.60;   BMIX_MAG =  1.00
     AMIN     =   0.10
     WC   =   100.;   INIMIX=   1;  MIXPRE=   1;  MAXMIX= -45

 Intra band minimization:
   WEIMIN = 0.0010     energy-eigenvalue tresh-hold
   EBREAK =  0.11E-06  absolut break condition
   DEPER  =   0.30     relativ break condition  

   TIME   =   0.40     timestep for ELM

  volume/ion in A,a.u.               =     346.43      2337.82
  Fermi-wavevector in a.u.,A,eV,Ry     =   0.518403  0.979640  3.656458  0.268742
  Thomas-Fermi vector in A             =   1.535281
 
 Write flags
   LWAVE  =      F    write WAVECAR
   LCHARG =      F    write CHGCAR
   LVTOT  =      F    write LOCPOT, total local potential
   LVHAR  =      F    write LOCPOT, Hartree potential only
   LELF   =      F    write electronic localiz. function (ELF)
   LORBIT =      0    0 simple, 1 ext, 2 COOP (PROOUT)


 Dipole corrections
   LMONO  =      F    monopole corrections only (constant potential shift)
   LDIPOL =      F    correct potential (dipole corrections)
   IDIPOL =      0    1-x, 2-y, 3-z, 4-all directions 
   EPSILON=  1.0000000 bulk dielectric constant

 Exchange correlation treatment:
   GGA     =    PE    GGA type
   LEXCH   =     8    internal setting for exchange type
   VOSKOWN=      0    Vosko Wilk Nusair interpolation
   LHFCALC =     F    Hartree Fock is set to
   LHFONE  =     F    Hartree Fock one center treatment
   AEXX    =    0.0000 exact exchange contribution

 Linear response parameters
   LEPSILON=     F    determine dielectric tensor
   LRPA    =     F    only Hartree local field effects (RPA)
   LNABLA  =     F    use nabla operator in PAW spheres
   LVEL    =     F    velocity operator in full k-point grid
   LINTERFAST=   F  fast interpolation
   KINTER  =     0    interpolate to denser k-point grid
   CSHIFT  =0.1000    complex shift for real part using Kramers Kronig
   OMEGAMAX=  -1.0    maximum frequency
   DEG_THRESHOLD= 0.2000000E-02 threshold for treating states as degnerate
   RTIME   =    0.100 relaxation time in fs

 Orbital magnetization related:
   ORBITALMAG=     F  switch on orbital magnetization
   LCHIMAG   =     F  perturbation theory with respect to B field
   DQ        =  0.001000  dq finite difference perturbation B field



--------------------------------------------------------------------------------------------------------


 conjugate gradient relaxation of ions
 charge density and potential will be updated during run
 spin polarized calculation
 Variant of blocked Davidson
 Davidson routine will perform the subspace rotation
 perform sub-space diagonalisation
    after iterative eigenvector-optimisation
 modified Broyden-mixing scheme, WC =      100.0
 initial mixing is a Kerker type mixing with AMIX =  0.4000 and BMIX =      1.0000
 Hartree-type preconditioning will be used
 using additional bands           49
 reciprocal scheme for non local part
 use partial core corrections
 calculate Harris-corrections to forces 
   (improved forces if not selfconsistent)
 use gradient corrections 
 use of overlap-Matrix (Vanderbilt PP)
 Gauss-broadening in eV      SIGMA  =   0.00


--------------------------------------------------------------------------------------------------------


  energy-cutoff  :      249.84
  volume of cell :    10739.29
      direct lattice vectors                 reciprocal lattice vectors
    22.062690127  0.000000000  0.000000000     0.045325388  0.000000000  0.000000000
     0.000000000 22.062690127  0.000000000     0.000000000  0.045325388  0.000000000
     0.000000000  0.000000000 22.062690127     0.000000000  0.000000000  0.045325388

  length of vectors
    22.062690127 22.062690127 22.062690127     0.045325388  0.045325388  0.045325388


 
 k-points in units of 2pi/SCALE and weight: Gamma-point only                        
   0.00000000  0.00000000  0.00000000       1.000
 
 k-points in reciprocal lattice and weights: Gamma-point only                        
   0.00000000  0.00000000  0.00000000       1.000
 
 position of ions in fractional coordinates (direct lattice) 
   0.46767680  0.66459241  0.51497676
   0.53828440  0.61377115  0.32878130
   0.51810764  0.59779578  0.64481779
   0.69936196  0.51950747  0.49939023
   0.52479640  0.48650884  0.34058112
   0.44027763  0.66564251  0.39500738
   0.47422932  0.53138055  0.54573569
   0.62865182  0.56421956  0.40859148
   0.67911520  0.64291755  0.51183721
   0.37808395  0.57340845  0.47439727
   0.41173536  0.55468775  0.34471390
   0.57265560  0.67076089  0.44235646
   0.57786177  0.46110511  0.45378657
   0.43579583  0.46103565  0.43079953
   0.47084509  0.71357366  0.63015665
   0.52138572  0.37004489  0.37846497
   0.50466851  0.56596390  0.43851492
   0.58085183  0.68596742  0.57400925
   0.58184026  0.33848810  0.48576798
   0.43609935  0.34064289  0.46610592
   0.39345763  0.61252854  0.60257318
   0.63851602  0.43263397  0.55949318
   0.41848936  0.49862713  0.65038157
   0.49944766  0.41285019  0.54891250
   0.59246824  0.55971089  0.54713370
   0.55295683  0.48279466  0.64525180
   0.37149635  0.45528921  0.53693593
   0.50264906  0.29195380  0.56926780
   0.46719230  0.38395863  0.66911406
   0.58521233  0.35880158  0.63968617
   0.38778695  0.34202518  0.58183320
 
 position of ions in cartesian coordinates  (Angst):
  10.31820842 14.66269636 11.36177268
  11.87600202 13.54144270  7.25380002
  11.43084835 13.18898309 14.22641499
  15.42980621 11.46173224 11.01789195
  11.57842045 10.73369385  7.51413574
   9.71370897 14.68586453  8.71492551
  10.46277448 11.72368445 12.04039741
  13.86975023 12.44820131  9.01462719
  14.98310822 14.18449057 11.29250567
   8.34154900 12.65093304 10.46647987
   9.08398969 12.23790386  7.60531604
  12.63432313 14.79878968  9.75957350
  12.74918510 10.17321915 10.01175247
   9.61482827 10.17168675  9.50459656
  10.38810942 15.74335461 13.90295091
  11.50317163  8.16418574  8.34995544
  11.13434490 12.48668611  9.67481887
  12.81515394 15.13428672 12.66418812
  12.83696132  7.46795798 10.71734842
   9.62152484  7.51549846 10.28355052
   8.68073379 13.51402744 13.29438525
  14.08738112  9.54506915 12.34392464
   9.23300113 11.00105596 14.34916710
  11.01915893  9.10858590 12.11048638
  13.07144323 12.34872788 12.07124121
  12.19971524 10.65174907 14.23599057
   8.19620878 10.04490487 11.84625114
  11.08979049  6.44128632 12.55957899
  10.30751903  8.47116019 14.76245623
  12.91135823  7.91612811 14.11319767
   8.55562337  7.54599551 12.83680554
 


--------------------------------------------------------------------------------------------------------


 use parallel FFT for wavefunctions z direction half grid
 k-point  1 :   0.0000 0.0000 0.0000  plane waves:   48089

 maximum and minimum number of plane-waves per node :      6017     6003

 maximum number of plane-waves:     48089
 maximum index in each direction: 
   IXMAX=   28   IYMAX=   28   IZMAX=   28
   IXMIN=  -28   IYMIN=  -28   IZMIN=    0

 WARNING: aliasing errors must be expected set NGX to 114 to avoid them
 WARNING: aliasing errors must be expected set NGY to 114 to avoid them
 WARNING: aliasing errors must be expected set NGZ to 114 to avoid them
 aliasing errors are usually negligible using standard VASP settings
 and one can safely disregard these warnings

 parallel 3D FFT for wavefunctions:
    minimum data exchange during FFTs selected (reduces bandwidth)
 parallel 3D FFT for charge:
    minimum data exchange during FFTs selected (reduces bandwidth)


 total amount of memory used by VASP on root node    75076. kBytes
========================================================================

   base      :      30000. kBytes
   nonl-proj :       3852. kBytes
   fftplans  :       8576. kBytes
   grid      :      21928. kBytes
   one-center:         62. kBytes
   wavefun   :      10658. kBytes
 
     INWAV:  cpu time    0.00: real time    0.00
 Broyden mixing: mesh for mixing (old mesh)
   NGX = 57   NGY = 57   NGZ = 57
  (NGX  =180   NGY  =180   NGZ  =180)
  gives a total of 185193 points

 initial charge density was supplied:
 charge density of overlapping atoms calculated
 number of electron     341.0000000 magnetization      31.0000000
 keeping initial charge density in first step


--------------------------------------------------------------------------------------------------------


 Maximum index for augmentation-charges          264 (set IRDMAX)


--------------------------------------------------------------------------------------------------------


 First call to EWALD:  gamma=   0.080
 Maximum number of real-space cells 3x 3x 3
 Maximum number of reciprocal cells 3x 3x 3

 FEWALD executed in parallel
    FEWALD:  cpu time    0.00: real time    0.00


----------------------------------------- Iteration    1(   1)  ---------------------------------------


    POTLOK:  cpu time    0.38: real time    0.38
    SETDIJ:  cpu time    0.01: real time    0.01
     EDDAV:  cpu time    4.85: real time    4.86
       DOS:  cpu time    0.00: real time    0.00
    --------------------------------------------
      LOOP:  cpu time    5.24: real time    5.35

 eigenvalue-minimisations  :   880
 total energy-change (2. order) : 0.2987798E+04  (-0.6375186E+04)
 number of electron     341.0000000 magnetization      31.0000000
 augmentation part      341.0000000 magnetization      31.0000000

 Free energy of the ion-electron system (eV)
  ---------------------------------------------------
  alpha Z        PSCENC =        76.11358405
  Ewald energy   TEWEN  =     72503.19702814
  -Hartree energ DENC   =   -103339.59978556
  -exchange      EXHF   =         0.00000000
  -V(xc)+E(xc)   XCENC  =      -339.01607659
  PAW double counting   =     31104.53752016   -29675.20287524
  entropy T*S    EENTRO =         0.00000000
  eigenvalues    EBANDS =       504.61061552
  atomic energy  EATOM  =     32153.15753268
  ---------------------------------------------------
  free energy    TOTEN  =      2987.79754315 eV

  energy without entropy =     2987.79754315  energy(sigma->0) =     2987.79754315


--------------------------------------------------------------------------------------------------------




----------------------------------------- Iteration    1(   2)  ---------------------------------------


     EDDAV:  cpu time    7.43: real time    7.43
       DOS:  cpu time    0.00: real time    0.00
    --------------------------------------------
      LOOP:  cpu time    7.43: real time    7.44

 eigenvalue-minimisations  :  1496
 total energy-change (2. order) :-0.2340156E+04  (-0.2098138E+04)
 number of electron     341.0000000 magnetization      31.0000000
 augmentation part      341.0000000 magnetization      31.0000000

 Free energy of the ion-electron system (eV)
  ---------------------------------------------------
  alpha Z        PSCENC =        76.11358405
  Ewald energy   TEWEN  =     72503.19702814
  -Hartree energ DENC   =   -103339.59978556
  -exchange      EXHF   =         0.00000000
  -V(xc)+E(xc)   XCENC  =      -339.01607659
  PAW double counting   =     31104.53752016   -29675.20287524
  entropy T*S    EENTRO =        -0.00000000
  eigenvalues    EBANDS =     -1835.54530567
  atomic energy  EATOM  =     32153.15753268
  ---------------------------------------------------
  free energy    TOTEN  =       647.64162196 eV

  energy without entropy =      647.64162196  energy(sigma->0) =      647.64162196


--------------------------------------------------------------------------------------------------------




----------------------------------------- Iteration    1(   3)  ---------------------------------------


     EDDAV:  cpu time    6.01: real time    6.01
       DOS:  cpu time    0.00: real time    0.00
    --------------------------------------------
      LOOP:  cpu time    6.01: real time    6.01

 eigenvalue-minimisations  :  1152
 total energy-change (2. order) :-0.6759544E+03  (-0.6179358E+03)
 number of electron     341.0000000 magnetization      31.0000000
 augmentation part      341.0000000 magnetization      31.0000000

 Free energy of the ion-electron system (eV)
  ---------------------------------------------------
  alpha Z        PSCENC =        76.11358405
  Ewald energy   TEWEN  =     72503.19702814
  -Hartree energ DENC   =   -103339.59978556
  -exchange      EXHF   =         0.00000000
  -V(xc)+E(xc)   XCENC  =      -339.01607659
  PAW double counting   =     31104.53752016   -29675.20287524
  entropy T*S    EENTRO =         0.00000000
  eigenvalues    EBANDS =     -2511.49974924
  atomic energy  EATOM  =     32153.15753268
  ---------------------------------------------------
  free energy    TOTEN  =       -28.31282161 eV

  energy without entropy =      -28.31282161  energy(sigma->0) =      -28.31282161


--------------------------------------------------------------------------------------------------------




----------------------------------------- Iteration    1(   4)  ---------------------------------------


     EDDAV:  cpu time    5.24: real time    5.24
       DOS:  cpu time    0.00: real time    0.00
    --------------------------------------------
      LOOP:  cpu time    5.24: real time    5.25

 eigenvalue-minimisations  :   968
 total energy-change (2. order) :-0.3625449E+02  (-0.3586036E+02)
 number of electron     341.0000000 magnetization      31.0000000
 augmentation part      341.0000000 magnetization      31.0000000

 Free energy of the ion-electron system (eV)
  ---------------------------------------------------
  alpha Z        PSCENC =        76.11358405
  Ewald energy   TEWEN  =     72503.19702814
  -Hartree energ DENC   =   -103339.59978556
  -exchange      EXHF   =         0.00000000
  -V(xc)+E(xc)   XCENC  =      -339.01607659
  PAW double counting   =     31104.53752016   -29675.20287524
  entropy T*S    EENTRO =         0.00000000
  eigenvalues    EBANDS =     -2547.75424048
  atomic energy  EATOM  =     32153.15753268
  ---------------------------------------------------
  free energy    TOTEN  =       -64.56731285 eV

  energy without entropy =      -64.56731285  energy(sigma->0) =      -64.56731285


--------------------------------------------------------------------------------------------------------




----------------------------------------- Iteration    1(   5)  ---------------------------------------


     EDDAV:  cpu time    5.31: real time    5.32
       DOS:  cpu time    0.00: real time    0.00
    CHARGE:  cpu time    0.19: real time    0.19
    MIXING:  cpu time    0.01: real time    0.01
    --------------------------------------------
      LOOP:  cpu time    5.51: real time    5.52

 eigenvalue-minimisations  :   984
 total energy-change (2. order) :-0.5240407E+00  (-0.5234335E+00)
 number of electron     340.9999848 magnetization      27.3990547
 augmentation part      160.2266632 magnetization      27.0791679

 Broyden mixing:
  rms(total) = 0.32602E+01    rms(broyden)= 0.32597E+01
  rms(prec ) = 0.33137E+01
  weight for this iteration     100.00

 Free energy of the ion-electron system (eV)
  ---------------------------------------------------
  alpha Z        PSCENC =        76.11358405
  Ewald energy   TEWEN  =     72503.19702814
  -Hartree energ DENC   =   -103339.59978556
  -exchange      EXHF   =         0.00000000
  -V(xc)+E(xc)   XCENC  =      -339.01607659
  PAW double counting   =     31104.53752016   -29675.20287524
  entropy T*S    EENTRO =         0.00000000
  eigenvalues    EBANDS =     -2548.27828118
  atomic energy  EATOM  =     32153.15753268
  ---------------------------------------------------
  free energy    TOTEN  =       -65.09135355 eV

  energy without entropy =      -65.09135355  energy(sigma->0) =      -65.09135355


--------------------------------------------------------------------------------------------------------




----------------------------------------- Iteration    1(   6)  ---------------------------------------


    POTLOK:  cpu time    0.37: real time    0.37
    SETDIJ:  cpu time    0.01: real time    0.01
     EDDAV:  cpu time    4.93: real time    4.93
       DOS:  cpu time    0.00: real time    0.00
    CHARGE:  cpu time    0.19: real time    0.19
    MIXING:  cpu time    0.01: real time    0.01
    --------------------------------------------
      LOOP:  cpu time    5.51: real time    5.51

 eigenvalue-minimisations  :   892
 total energy-change (2. order) : 0.4147083E+02  (-0.1262799E+02)
 number of electron     340.9999842 magnetization      25.0884465
 augmentation part      163.9005848 magnetization      15.8193432

 Broyden mixing:
  rms(total) = 0.17183E+01    rms(broyden)= 0.17181E+01
  rms(prec ) = 0.17444E+01
  weight for this iteration     100.00

 eigenvalues of (default mixing * dielectric matrix)
  average eigenvalue GAMMA=   0.8551
  0.8551

 Free energy of the ion-electron system (eV)
  ---------------------------------------------------
  alpha Z        PSCENC =        76.11358405
  Ewald energy   TEWEN  =     72503.19702814
  -Hartree energ DENC   =   -103217.83869236
  -exchange      EXHF   =         0.00000000
  -V(xc)+E(xc)   XCENC  =      -319.79580588
  PAW double counting   =     32164.92744899   -30758.37526117
  entropy T*S    EENTRO =         0.00000000
  eigenvalues    EBANDS =     -2625.00635980
  atomic energy  EATOM  =     32153.15753268
  ---------------------------------------------------
  free energy    TOTEN  =       -23.62052535 eV

  energy without entropy =      -23.62052535  energy(sigma->0) =      -23.62052535


--------------------------------------------------------------------------------------------------------




----------------------------------------- Iteration    1(   7)  ---------------------------------------


    POTLOK:  cpu time    0.37: real time    0.37
    SETDIJ:  cpu time    0.01: real time    0.01
     EDDAV:  cpu time    5.07: real time    5.07
       DOS:  cpu time    0.00: real time    0.00
    CHARGE:  cpu time    0.19: real time    0.19
    MIXING:  cpu time    0.01: real time    0.01
    --------------------------------------------
      LOOP:  cpu time    5.65: real time    5.67

 eigenvalue-minimisations  :   924
 total energy-change (2. order) : 0.5045869E+01  (-0.6944075E+00)
 number of electron     340.9999842 magnetization      21.0905306
 augmentation part      163.8906152 magnetization      14.0354593

 Broyden mixing:
  rms(total) = 0.10733E+01    rms(broyden)= 0.10733E+01
  rms(prec ) = 0.10881E+01
  weight for this iteration     100.00

 eigenvalues of (default mixing * dielectric matrix)
  average eigenvalue GAMMA=   1.0492
  0.7600  1.3385

 Free energy of the ion-electron system (eV)
  ---------------------------------------------------
  alpha Z        PSCENC =        76.11358405
  Ewald energy   TEWEN  =     72503.19702814
  -Hartree energ DENC   =   -103290.33374971
  -exchange      EXHF   =         0.00000000
  -V(xc)+E(xc)   XCENC  =      -315.79609458
  PAW double counting   =     32792.20670946   -31400.27503760
  entropy T*S    EENTRO =         0.00000000
  eigenvalues    EBANDS =     -2536.84462867
  atomic energy  EATOM  =     32153.15753268
  ---------------------------------------------------
  free energy    TOTEN  =       -18.57465624 eV

  energy without entropy =      -18.57465624  energy(sigma->0) =      -18.57465624


--------------------------------------------------------------------------------------------------------




----------------------------------------- Iteration    1(   8)  ---------------------------------------


    POTLOK:  cpu time    0.37: real time    0.37
    SETDIJ:  cpu time    0.01: real time    0.01
     EDDAV:  cpu time    5.09: real time    5.09
       DOS:  cpu time    0.00: real time    0.00
    CHARGE:  cpu time    0.19: real time    0.19
    MIXING:  cpu time    0.01: real time    0.01
    --------------------------------------------
      LOOP:  cpu time    5.67: real time    5.73

 eigenvalue-minimisations  :   928
 total energy-change (2. order) : 0.4680715E+01  (-0.2624995E+00)
 number of electron     340.9999844 magnetization      18.3826064
 augmentation part      163.7589002 magnetization      11.4875351

 Broyden mixing:
  rms(total) = 0.56081E+00    rms(broyden)= 0.56079E+00
  rms(prec ) = 0.56519E+00
  weight for this iteration     100.00

 eigenvalues of (default mixing * dielectric matrix)
  average eigenvalue GAMMA=   1.2594
  2.2560  0.8970  0.6252

 Free energy of the ion-electron system (eV)
  ---------------------------------------------------
  alpha Z        PSCENC =        76.11358405
  Ewald energy   TEWEN  =     72503.19702814
  -Hartree energ DENC   =   -103388.61401811
  -exchange      EXHF   =         0.00000000
  -V(xc)+E(xc)   XCENC  =      -311.52212177
  PAW double counting   =     33574.29004648   -32198.41683585
  entropy T*S    EENTRO =         0.00000000
  eigenvalues    EBANDS =     -2422.09915636
  atomic energy  EATOM  =     32153.15753268
  ---------------------------------------------------
  free energy    TOTEN  =       -13.89394075 eV

  energy without entropy =      -13.89394075  energy(sigma->0) =      -13.89394075


--------------------------------------------------------------------------------------------------------




----------------------------------------- Iteration    1(   9)  ---------------------------------------


    POTLOK:  cpu time    0.37: real time    0.37
    SETDIJ:  cpu time    0.01: real time    0.01
     EDDAV:  cpu time    5.16: real time    5.16
       DOS:  cpu time    0.00: real time    0.00
    CHARGE:  cpu time    0.19: real time    0.19
    MIXING:  cpu time    0.01: real time    0.01
    --------------------------------------------
      LOOP:  cpu time    5.74: real time    5.74

 eigenvalue-minimisations  :   944
 total energy-change (2. order) :-0.5588669E+01  (-0.1362948E+00)
 number of electron     340.9999843 magnetization      16.0291632
 augmentation part      163.6342053 magnetization       9.3454278

 Broyden mixing:
  rms(total) = 0.36837E+00    rms(broyden)= 0.36837E+00
  rms(prec ) = 0.37260E+00
  weight for this iteration     100.00

 eigenvalues of (default mixing * dielectric matrix)
  average eigenvalue GAMMA=   1.2198
  2.2154  0.6289  0.7918  1.2431

 Free energy of the ion-electron system (eV)
  ---------------------------------------------------
  alpha Z        PSCENC =        76.11358405
  Ewald energy   TEWEN  =     72503.19702814
  -Hartree energ DENC   =   -103426.96394234
  -exchange      EXHF   =         0.00000000
  -V(xc)+E(xc)   XCENC  =      -315.38038470
  PAW double counting   =     33846.46211194   -32475.93174731
  entropy T*S    EENTRO =         0.00000000
  eigenvalues    EBANDS =     -2380.13679270
  atomic energy  EATOM  =     32153.15753268
  ---------------------------------------------------
  free energy    TOTEN  =       -19.48261025 eV

  energy without entropy =      -19.48261025  energy(sigma->0) =      -19.48261025


--------------------------------------------------------------------------------------------------------




----------------------------------------- Iteration    1(  10)  ---------------------------------------


    POTLOK:  cpu time    0.37: real time    0.37
    SETDIJ:  cpu time    0.01: real time    0.01
     EDDAV:  cpu time    4.96: real time    4.96
       DOS:  cpu time    0.00: real time    0.00
    CHARGE:  cpu time    0.19: real time    0.19
    MIXING:  cpu time    0.01: real time    0.01
    --------------------------------------------
      LOOP:  cpu time    5.54: real time    5.55

 eigenvalue-minimisations  :   896
 total energy-change (2. order) :-0.1027935E+02  (-0.3058724E+00)
 number of electron     340.9999844 magnetization      13.8362626
 augmentation part      163.6171858 magnetization       9.4669353

 Broyden mixing:
  rms(total) = 0.35264E+00    rms(broyden)= 0.35255E+00
  rms(prec ) = 0.35935E+00
  weight for this iteration     100.00

 eigenvalues of (default mixing * dielectric matrix)
  average eigenvalue GAMMA=   1.1127
  2.2773  1.3934  0.8042  0.6164  0.4721

 Free energy of the ion-electron system (eV)
  ---------------------------------------------------
  alpha Z        PSCENC =        76.11358405
  Ewald energy   TEWEN  =     72503.19702814
  -Hartree energ DENC   =   -103426.65986094
  -exchange      EXHF   =         0.00000000
  -V(xc)+E(xc)   XCENC  =      -323.02727149
  PAW double counting   =     33833.68388575   -32462.84043620
  entropy T*S    EENTRO =        -0.00000000
  eigenvalues    EBANDS =     -2383.38641799
  atomic energy  EATOM  =     32153.15753268
  ---------------------------------------------------
  free energy    TOTEN  =       -29.76195602 eV

  energy without entropy =      -29.76195602  energy(sigma->0) =      -29.76195602


--------------------------------------------------------------------------------------------------------




----------------------------------------- Iteration    1(  11)  ---------------------------------------


    POTLOK:  cpu time    0.37: real time    0.37
    SETDIJ:  cpu time    0.01: real time    0.01
     EDDAV:  cpu time    5.16: real time    5.17
       DOS:  cpu time    0.00: real time    0.00
    CHARGE:  cpu time    0.19: real time    0.19
    MIXING:  cpu time    0.01: real time    0.01
    --------------------------------------------
      LOOP:  cpu time    5.74: real time    5.75

 eigenvalue-minimisations  :   944
 total energy-change (2. order) :-0.5156660E+01  (-0.1548203E+00)
 number of electron     340.9999844 magnetization       9.9826078
 augmentation part      163.5827646 magnetization       5.8993492

 Broyden mixing:
  rms(total) = 0.26869E+00    rms(broyden)= 0.26868E+00
  rms(prec ) = 0.27173E+00
  weight for this iteration     100.00

 eigenvalues of (default mixing * dielectric matrix)
  average eigenvalue GAMMA=   1.2905
  2.6665  2.2101  0.8338  0.8338  0.6686  0.5300

 Free energy of the ion-electron system (eV)
  ---------------------------------------------------
  alpha Z        PSCENC =        76.11358405
  Ewald energy   TEWEN  =     72503.19702814
  -Hartree energ DENC   =   -103434.23570648
  -exchange      EXHF   =         0.00000000
  -V(xc)+E(xc)   XCENC  =      -326.57113271
  PAW double counting   =     33853.03040711   -32482.72556063
  entropy T*S    EENTRO =         0.00000000
  eigenvalues    EBANDS =     -2376.88476833
  atomic energy  EATOM  =     32153.15753268
  ---------------------------------------------------
  free energy    TOTEN  =       -34.91861618 eV

  energy without entropy =      -34.91861618  energy(sigma->0) =      -34.91861618


--------------------------------------------------------------------------------------------------------




----------------------------------------- Iteration    1(  12)  ---------------------------------------


    POTLOK:  cpu time    0.37: real time    0.37
    SETDIJ:  cpu time    0.01: real time    0.01
     EDDAV:  cpu time    4.96: real time    4.97
       DOS:  cpu time    0.00: real time    0.00
    CHARGE:  cpu time    0.19: real time    0.19
    MIXING:  cpu time    0.01: real time    0.01
    --------------------------------------------
      LOOP:  cpu time    5.55: real time    5.56

 eigenvalue-minimisations  :   896
 total energy-change (2. order) :-0.1105060E+02  (-0.5746107E+00)
 number of electron     340.9999843 magnetization       7.9688566
 augmentation part      163.5487791 magnetization       4.3744171

 Broyden mixing:
  rms(total) = 0.16869E+00    rms(broyden)= 0.16867E+00
  rms(prec ) = 0.17281E+00
  weight for this iteration     100.00

 eigenvalues of (default mixing * dielectric matrix)
  average eigenvalue GAMMA=   1.4483
  3.8451  2.2809  1.0344  1.0344  0.6546  0.6546  0.6340

 Free energy of the ion-electron system (eV)
  ---------------------------------------------------
  alpha Z        PSCENC =        76.11358405
  Ewald energy   TEWEN  =     72503.19702814
  -Hartree energ DENC   =   -103438.75509465
  -exchange      EXHF   =         0.00000000
  -V(xc)+E(xc)   XCENC  =      -334.69039552
  PAW double counting   =     33819.42023738   -32449.12500910
  entropy T*S    EENTRO =         0.00000000
  eigenvalues    EBANDS =     -2375.28710228
  atomic energy  EATOM  =     32153.15753268
  ---------------------------------------------------
  free energy    TOTEN  =       -45.96921931 eV

  energy without entropy =      -45.96921931  energy(sigma->0) =      -45.96921931


--------------------------------------------------------------------------------------------------------




----------------------------------------- Iteration    1(  13)  ---------------------------------------


    POTLOK:  cpu time    0.37: real time    0.37
    SETDIJ:  cpu time    0.01: real time    0.01
     EDDAV:  cpu time    5.00: real time    5.00
       DOS:  cpu time    0.00: real time    0.00
    CHARGE:  cpu time    0.19: real time    0.19
    MIXING:  cpu time    0.01: real time    0.01
    --------------------------------------------
      LOOP:  cpu time    5.58: real time    5.60

 eigenvalue-minimisations  :   904
 total energy-change (2. order) :-0.7084191E+01  (-0.2696434E+00)
 number of electron     340.9999845 magnetization       7.5781710
 augmentation part      163.5257385 magnetization       6.1617035

 Broyden mixing:
  rms(total) = 0.20402E+00    rms(broyden)= 0.20386E+00
  rms(prec ) = 0.21780E+00
  weight for this iteration     100.00

 eigenvalues of (default mixing * dielectric matrix)
  average eigenvalue GAMMA=   1.2973
  3.9438  2.2783  1.0356  1.0356  0.6553  0.6553  0.6305  0.1437

 Free energy of the ion-electron system (eV)
  ---------------------------------------------------
  alpha Z        PSCENC =        76.11358405
  Ewald energy   TEWEN  =     72503.19702814
  -Hartree energ DENC   =   -103426.09852947
  -exchange      EXHF   =         0.00000000
  -V(xc)+E(xc)   XCENC  =      -340.21250477
  PAW double counting   =     33753.61802873   -32382.75928013
  entropy T*S    EENTRO =         0.00000000
  eigenvalues    EBANDS =     -2390.06926925
  atomic energy  EATOM  =     32153.15753268
  ---------------------------------------------------
  free energy    TOTEN  =       -53.05341003 eV

  energy without entropy =      -53.05341003  energy(sigma->0) =      -53.05341003


--------------------------------------------------------------------------------------------------------




----------------------------------------- Iteration    1(  14)  ---------------------------------------


    POTLOK:  cpu time    0.38: real time    0.37
    SETDIJ:  cpu time    0.01: real time    0.01
     EDDAV:  cpu time    5.71: real time    5.71
       DOS:  cpu time    0.00: real time    0.00
    CHARGE:  cpu time    0.19: real time    0.19
    MIXING:  cpu time    0.01: real time    0.01
    --------------------------------------------
      LOOP:  cpu time    6.30: real time    6.48

 eigenvalue-minimisations  :  1072
 total energy-change (2. order) :-0.4955021E+00  (-0.7567413E-02)
 number of electron     340.9999845 magnetization       5.9897140
 augmentation part      163.5186178 magnetization       4.6281108

 Broyden mixing:
  rms(total) = 0.18234E+00    rms(broyden)= 0.18233E+00
  rms(prec ) = 0.19498E+00
  weight for this iteration     100.00

 eigenvalues of (default mixing * dielectric matrix)
  average eigenvalue GAMMA=   1.3217
  4.3003  2.3952  1.0655  1.0655  0.6841  0.6841  0.6148  0.5427  0.5427

 Free energy of the ion-electron system (eV)
  ---------------------------------------------------
  alpha Z        PSCENC =        76.11358405
  Ewald energy   TEWEN  =     72503.19702814
  -Hartree energ DENC   =   -103423.85346432
  -exchange      EXHF   =         0.00000000
  -V(xc)+E(xc)   XCENC  =      -340.61310686
  PAW double counting   =     33746.33654950   -32375.45291224
  entropy T*S    EENTRO =         0.00000000
  eigenvalues    EBANDS =     -2392.43412307
  atomic energy  EATOM  =     32153.15753268
  ---------------------------------------------------
  free energy    TOTEN  =       -53.54891214 eV

  energy without entropy =      -53.54891214  energy(sigma->0) =      -53.54891214


--------------------------------------------------------------------------------------------------------




----------------------------------------- Iteration    1(  15)  ---------------------------------------


    POTLOK:  cpu time    0.37: real time    0.37
    SETDIJ:  cpu time    0.01: real time    0.01
     EDDAV:  cpu time    5.07: real time    5.08
       DOS:  cpu time    0.00: real time    0.00
    CHARGE:  cpu time    0.19: real time    0.19
    MIXING:  cpu time    0.01: real time    0.01
    --------------------------------------------
      LOOP:  cpu time    5.66: real time    5.67

 eigenvalue-minimisations  :   920
 total energy-change (2. order) :-0.3079863E+01  (-0.6649229E-01)
 number of electron     340.9999845 magnetization       3.6196726
 augmentation part      163.5669805 magnetization       2.3901950

 Broyden mixing:
  rms(total) = 0.13535E+00    rms(broyden)= 0.13534E+00
  rms(prec ) = 0.14196E+00
  weight for this iteration     100.00

 eigenvalues of (default mixing * dielectric matrix)
  average eigenvalue GAMMA=   1.4586
  5.5314  1.9418  1.9418  0.9543  0.9163  0.9163  0.6749  0.5715  0.5687  0.5687

 Free energy of the ion-electron system (eV)
  ---------------------------------------------------
  alpha Z        PSCENC =        76.11358405
  Ewald energy   TEWEN  =     72503.19702814
  -Hartree energ DENC   =   -103406.94169724
  -exchange      EXHF   =         0.00000000
  -V(xc)+E(xc)   XCENC  =      -343.35224111
  PAW double counting   =     33683.74386335   -32312.53624345
  entropy T*S    EENTRO =         0.00000000
  eigenvalues    EBANDS =     -2410.01060192
  atomic energy  EATOM  =     32153.15753268
  ---------------------------------------------------
  free energy    TOTEN  =       -56.62877552 eV

  energy without entropy =      -56.62877552  energy(sigma->0) =      -56.62877552


--------------------------------------------------------------------------------------------------------




----------------------------------------- Iteration    1(  16)  ---------------------------------------


    POTLOK:  cpu time    0.37: real time    0.37
    SETDIJ:  cpu time    0.01: real time    0.01
     EDDAV:  cpu time    5.00: real time    5.01
       DOS:  cpu time    0.00: real time    0.00
    CHARGE:  cpu time    0.19: real time    0.19
    MIXING:  cpu time    0.01: real time    0.01
    --------------------------------------------
      LOOP:  cpu time    5.59: real time    5.62

 eigenvalue-minimisations  :   904
 total energy-change (2. order) :-0.3385005E+01  (-0.9837828E-01)
 number of electron     340.9999844 magnetization       2.3232582
 augmentation part      163.5847798 magnetization       1.2378808

 Broyden mixing:
  rms(total) = 0.68314E-01    rms(broyden)= 0.68301E-01
  rms(prec ) = 0.72990E-01
  weight for this iteration     100.00

 eigenvalues of (default mixing * dielectric matrix)
  average eigenvalue GAMMA=   1.6095
  6.8190  2.3791  2.3791  1.2407  0.8151  0.8151  0.8561  0.5916  0.5916  0.6479
  0.5693

 Free energy of the ion-electron system (eV)
  ---------------------------------------------------
  alpha Z        PSCENC =        76.11358405
  Ewald energy   TEWEN  =     72503.19702814
  -Hartree energ DENC   =   -103384.67034756
  -exchange      EXHF   =         0.00000000
  -V(xc)+E(xc)   XCENC  =      -346.50236861
  PAW double counting   =     33639.32191052   -32268.31074757
  entropy T*S    EENTRO =        -0.00000000
  eigenvalues    EBANDS =     -2432.32037249
  atomic energy  EATOM  =     32153.15753268
  ---------------------------------------------------
  free energy    TOTEN  =       -60.01378084 eV

  energy without entropy =      -60.01378084  energy(sigma->0) =      -60.01378084


--------------------------------------------------------------------------------------------------------




----------------------------------------- Iteration    1(  17)  ---------------------------------------


    POTLOK:  cpu time    0.37: real time    0.37
    SETDIJ:  cpu time    0.01: real time    0.01
     EDDAV:  cpu time    4.90: real time    4.90
       DOS:  cpu time    0.00: real time    0.00
    CHARGE:  cpu time    0.19: real time    0.19
    MIXING:  cpu time    0.02: real time    0.01
    --------------------------------------------
      LOOP:  cpu time    5.49: real time    5.50

 eigenvalue-minimisations  :   880
 total energy-change (2. order) :-0.1665705E+01  (-0.3221343E-01)
 number of electron     340.9999844 magnetization       1.8629315
 augmentation part      163.5874285 magnetization       0.8364651

 Broyden mixing:
  rms(total) = 0.56006E-01    rms(broyden)= 0.55992E-01
  rms(prec ) = 0.61954E-01
  weight for this iteration     100.00

 eigenvalues of (default mixing * dielectric matrix)
  average eigenvalue GAMMA=   1.6164
  7.2695  2.6113  1.9198  1.6653  1.0014  1.0014  0.8509  0.6625  0.6625  0.5996
  0.5765  0.5765

 Free energy of the ion-electron system (eV)
  ---------------------------------------------------
  alpha Z        PSCENC =        76.11358405
  Ewald energy   TEWEN  =     72503.19702814
  -Hartree energ DENC   =   -103365.69930788
  -exchange      EXHF   =         0.00000000
  -V(xc)+E(xc)   XCENC  =      -348.18708808
  PAW double counting   =     33616.21450987   -32244.90714456
  entropy T*S    EENTRO =         0.00000000
  eigenvalues    EBANDS =     -2451.56860035
  atomic energy  EATOM  =     32153.15753268
  ---------------------------------------------------
  free energy    TOTEN  =       -61.67948614 eV

  energy without entropy =      -61.67948614  energy(sigma->0) =      -61.67948614


--------------------------------------------------------------------------------------------------------




----------------------------------------- Iteration    1(  18)  ---------------------------------------


    POTLOK:  cpu time    0.37: real time    0.37
    SETDIJ:  cpu time    0.01: real time    0.01
     EDDAV:  cpu time    4.97: real time    4.97
       DOS:  cpu time    0.00: real time    0.00
    CHARGE:  cpu time    0.19: real time    0.19
    MIXING:  cpu time    0.01: real time    0.01
    --------------------------------------------
      LOOP:  cpu time    5.56: real time    5.57

 eigenvalue-minimisations  :   896
 total energy-change (2. order) :-0.1048963E+01  (-0.7785986E-02)
 number of electron     340.9999844 magnetization       1.4711146
 augmentation part      163.6013335 magnetization       0.4533179

 Broyden mixing:
  rms(total) = 0.39026E-01    rms(broyden)= 0.39018E-01
  rms(prec ) = 0.43806E-01
  weight for this iteration     100.00

 eigenvalues of (default mixing * dielectric matrix)
  average eigenvalue GAMMA=   1.7357
  8.0204  3.3729  2.0127  2.0127  1.1750  1.0164  1.0164  0.7835  0.7835  0.5783
  0.5783  0.6324  0.5812

 Free energy of the ion-electron system (eV)
  ---------------------------------------------------
  alpha Z        PSCENC =        76.11358405
  Ewald energy   TEWEN  =     72503.19702814
  -Hartree energ DENC   =   -103351.15764766
  -exchange      EXHF   =         0.00000000
  -V(xc)+E(xc)   XCENC  =      -349.31482771
  PAW double counting   =     33609.50877834   -32237.67463562
  entropy T*S    EENTRO =         0.00000000
  eigenvalues    EBANDS =     -2466.55826090
  atomic energy  EATOM  =     32153.15753268
  ---------------------------------------------------
  free energy    TOTEN  =       -62.72844869 eV

  energy without entropy =      -62.72844869  energy(sigma->0) =      -62.72844869


--------------------------------------------------------------------------------------------------------




----------------------------------------- Iteration    1(  19)  ---------------------------------------


    POTLOK:  cpu time    0.37: real time    0.37
    SETDIJ:  cpu time    0.01: real time    0.01
     EDDAV:  cpu time    5.07: real time    5.07
       DOS:  cpu time    0.00: real time    0.00
    CHARGE:  cpu time    0.19: real time    0.19
    MIXING:  cpu time    0.01: real time    0.02
    --------------------------------------------
      LOOP:  cpu time    5.66: real time    5.77

 eigenvalue-minimisations  :   920
 total energy-change (2. order) :-0.8573467E+00  (-0.5105642E-02)
 number of electron     340.9999844 magnetization       1.3116458
 augmentation part      163.5999864 magnetization       0.2875263

 Broyden mixing:
  rms(total) = 0.18060E-01    rms(broyden)= 0.18048E-01
  rms(prec ) = 0.21217E-01
  weight for this iteration     100.00

 eigenvalues of (default mixing * dielectric matrix)
  average eigenvalue GAMMA=   1.7390
  8.4222  3.6377  1.8847  1.8414  1.8414  1.0386  0.9077  0.9077  0.5782  0.5782
  0.7465  0.7465  0.6303  0.5849

 Free energy of the ion-electron system (eV)
  ---------------------------------------------------
  alpha Z        PSCENC =        76.11358405
  Ewald energy   TEWEN  =     72503.19702814
  -Hartree energ DENC   =   -103336.02537818
  -exchange      EXHF   =         0.00000000
  -V(xc)+E(xc)   XCENC  =      -350.26647205
  PAW double counting   =     33630.15478835   -32258.14516675
  entropy T*S    EENTRO =         0.00000000
  eigenvalues    EBANDS =     -2481.77171160
  atomic energy  EATOM  =     32153.15753268
  ---------------------------------------------------
  free energy    TOTEN  =       -63.58579536 eV

  energy without entropy =      -63.58579536  energy(sigma->0) =      -63.58579536


--------------------------------------------------------------------------------------------------------




----------------------------------------- Iteration    1(  20)  ---------------------------------------


    POTLOK:  cpu time    0.37: real time    0.37
    SETDIJ:  cpu time    0.01: real time    0.01
     EDDAV:  cpu time    5.21: real time    5.21
       DOS:  cpu time    0.00: real time    0.00
    CHARGE:  cpu time    0.19: real time    0.19
    MIXING:  cpu time    0.02: real time    0.02
    --------------------------------------------
      LOOP:  cpu time    5.80: real time    7.39

 eigenvalue-minimisations  :   952
 total energy-change (2. order) :-0.2333532E+00  (-0.6642518E-03)
 number of electron     340.9999844 magnetization       1.2331097
 augmentation part      163.5970875 magnetization       0.2082464

 Broyden mixing:
  rms(total) = 0.13715E-01    rms(broyden)= 0.13712E-01
  rms(prec ) = 0.16034E-01
  weight for this iteration     100.00

 eigenvalues of (default mixing * dielectric matrix)
  average eigenvalue GAMMA=   1.7328
  8.3826  3.8794  2.1288  1.9736  1.9736  1.0390  1.0390  0.9195  0.8145  0.8145
  0.5785  0.5785  0.5766  0.6469  0.6469

 Free energy of the ion-electron system (eV)
  ---------------------------------------------------
  alpha Z        PSCENC =        76.11358405
  Ewald energy   TEWEN  =     72503.19702814
  -Hartree energ DENC   =   -103328.62692447
  -exchange      EXHF   =         0.00000000
  -V(xc)+E(xc)   XCENC  =      -350.54383210
  PAW double counting   =     33640.20574116   -32268.25238825
  entropy T*S    EENTRO =         0.00000000
  eigenvalues    EBANDS =     -2489.06988973
  atomic energy  EATOM  =     32153.15753268
  ---------------------------------------------------
  free energy    TOTEN  =       -63.81914854 eV

  energy without entropy =      -63.81914854  energy(sigma->0) =      -63.81914854


--------------------------------------------------------------------------------------------------------




----------------------------------------- Iteration    1(  21)  ---------------------------------------


    POTLOK:  cpu time    0.37: real time    0.37
    SETDIJ:  cpu time    0.01: real time    0.01
     EDDAV:  cpu time    5.15: real time    5.16
       DOS:  cpu time    0.00: real time    0.00
    CHARGE:  cpu time    0.19: real time    0.19
    MIXING:  cpu time    0.02: real time    0.02
    --------------------------------------------
      LOOP:  cpu time    5.74: real time    5.77

 eigenvalue-minimisations  :   936
 total energy-change (2. order) :-0.1126417E+00  (-0.2432066E-03)
 number of electron     340.9999844 magnetization       1.1004915
 augmentation part      163.6007165 magnetization       0.0760834

 Broyden mixing:
  rms(total) = 0.72065E-02    rms(broyden)= 0.72056E-02
  rms(prec ) = 0.94547E-02
  weight for this iteration     100.00

 eigenvalues of (default mixing * dielectric matrix)
  average eigenvalue GAMMA=   1.8078
  8.6768  4.3969  2.5545  2.2165  2.2165  1.1977  1.1977  0.9488  0.9488  0.5782
  0.5782  0.7505  0.7505  0.7070  0.5822  0.6244

 Free energy of the ion-electron system (eV)
  ---------------------------------------------------
  alpha Z        PSCENC =        76.11358405
  Ewald energy   TEWEN  =     72503.19702814
  -Hartree energ DENC   =   -103322.75443584
  -exchange      EXHF   =         0.00000000
  -V(xc)+E(xc)   XCENC  =      -350.68871275
  PAW double counting   =     33643.71963461   -32271.79141882
  entropy T*S    EENTRO =         0.00000000
  eigenvalues    EBANDS =     -2494.88500231
  atomic energy  EATOM  =     32153.15753268
  ---------------------------------------------------
  free energy    TOTEN  =       -63.93179025 eV

  energy without entropy =      -63.93179025  energy(sigma->0) =      -63.93179025


--------------------------------------------------------------------------------------------------------




----------------------------------------- Iteration    1(  22)  ---------------------------------------


    POTLOK:  cpu time    0.37: real time    0.37
    SETDIJ:  cpu time    0.01: real time    0.01
     EDDAV:  cpu time    5.10: real time    5.10
       DOS:  cpu time    0.00: real time    0.00
    CHARGE:  cpu time    0.19: real time    0.19
    MIXING:  cpu time    0.02: real time    0.02
    --------------------------------------------
      LOOP:  cpu time    5.69: real time    5.71

 eigenvalue-minimisations  :   924
 total energy-change (2. order) :-0.8185397E-01  (-0.3181463E-03)
 number of electron     340.9999844 magnetization       1.0854827
 augmentation part      163.6052970 magnetization       0.0623994

 Broyden mixing:
  rms(total) = 0.47238E-02    rms(broyden)= 0.47224E-02
  rms(prec ) = 0.59846E-02
  weight for this iteration     100.00

 eigenvalues of (default mixing * dielectric matrix)
  average eigenvalue GAMMA=   1.7973
  8.7233  4.9411  2.7154  2.1763  2.1763  1.4604  0.9864  0.9864  1.0346  0.5781
  0.5781  0.7947  0.7947  0.7701  0.6423  0.5929  0.6033

 Free energy of the ion-electron system (eV)
  ---------------------------------------------------
  alpha Z        PSCENC =        76.11358405
  Ewald energy   TEWEN  =     72503.19702814
  -Hartree energ DENC   =   -103315.48107607
  -exchange      EXHF   =         0.00000000
  -V(xc)+E(xc)   XCENC  =      -350.81197784
  PAW double counting   =     33646.26099716   -32274.36808227
  entropy T*S    EENTRO =         0.00000000
  eigenvalues    EBANDS =     -2502.08165007
  atomic energy  EATOM  =     32153.15753268
  ---------------------------------------------------
  free energy    TOTEN  =       -64.01364422 eV

  energy without entropy =      -64.01364422  energy(sigma->0) =      -64.01364422


--------------------------------------------------------------------------------------------------------




----------------------------------------- Iteration    1(  23)  ---------------------------------------


    POTLOK:  cpu time    0.37: real time    0.37
    SETDIJ:  cpu time    0.01: real time    0.01
     EDDAV:  cpu time    4.00: real time    4.00
       DOS:  cpu time    0.00: real time    0.00
    CHARGE:  cpu time    0.19: real time    0.19
    MIXING:  cpu time    0.02: real time    0.02
    --------------------------------------------
      LOOP:  cpu time    4.59: real time    5.21

 eigenvalue-minimisations  :   656
 total energy-change (2. order) :-0.5171508E-02  (-0.2654016E-04)
 number of electron     340.9999844 magnetization       1.0434708
 augmentation part      163.6037592 magnetization       0.0194010

 Broyden mixing:
  rms(total) = 0.35560E-02    rms(broyden)= 0.35558E-02
  rms(prec ) = 0.46073E-02
  weight for this iteration     100.00

 eigenvalues of (default mixing * dielectric matrix)
  average eigenvalue GAMMA=   1.7826
  8.8293  5.0224  2.3713  2.3713  2.0875  2.0875  1.0526  1.0526  0.9419  0.9419
  0.5782  0.5782  0.8085  0.8085  0.7166  0.5806  0.6290  0.6290

 Free energy of the ion-electron system (eV)
  ---------------------------------------------------
  alpha Z        PSCENC =        76.11358405
  Ewald energy   TEWEN  =     72503.19702814
  -Hartree energ DENC   =   -103313.82890622
  -exchange      EXHF   =         0.00000000
  -V(xc)+E(xc)   XCENC  =      -350.82241871
  PAW double counting   =     33646.92686676   -32275.04947676
  entropy T*S    EENTRO =         0.00000000
  eigenvalues    EBANDS =     -2503.71302567
  atomic energy  EATOM  =     32153.15753268
  ---------------------------------------------------
  free energy    TOTEN  =       -64.01881573 eV

  energy without entropy =      -64.01881573  energy(sigma->0) =      -64.01881573


--------------------------------------------------------------------------------------------------------




----------------------------------------- Iteration    1(  24)  ---------------------------------------


    POTLOK:  cpu time    0.37: real time    0.37
    SETDIJ:  cpu time    0.01: real time    0.01
     EDDAV:  cpu time    3.90: real time    3.90
       DOS:  cpu time    0.00: real time    0.00
    CHARGE:  cpu time    0.19: real time    0.19
    MIXING:  cpu time    0.02: real time    0.02
    --------------------------------------------
      LOOP:  cpu time    4.49: real time    4.57

 eigenvalue-minimisations  :   632
 total energy-change (2. order) :-0.4239373E-02  (-0.3905893E-04)
 number of electron     340.9999844 magnetization       1.0187171
 augmentation part      163.6059631 magnetization      -0.0035769

 Broyden mixing:
  rms(total) = 0.17190E-02    rms(broyden)= 0.17187E-02
  rms(prec ) = 0.26035E-02
  weight for this iteration     100.00

 eigenvalues of (default mixing * dielectric matrix)
  average eigenvalue GAMMA=   1.8039
  8.8796  5.1348  3.1279  2.2597  2.2597  2.2235  1.0856  1.0856  0.9969  0.9969
  0.9700  0.5782  0.5782  0.7935  0.7935  0.5829  0.6163  0.6600  0.6511

 Free energy of the ion-electron system (eV)
  ---------------------------------------------------
  alpha Z        PSCENC =        76.11358405
  Ewald energy   TEWEN  =     72503.19702814
  -Hartree energ DENC   =   -103311.47990677
  -exchange      EXHF   =         0.00000000
  -V(xc)+E(xc)   XCENC  =      -350.83864047
  PAW double counting   =     33645.60100130   -32273.71000358
  entropy T*S    EENTRO =         0.00000000
  eigenvalues    EBANDS =     -2506.06365044
  atomic energy  EATOM  =     32153.15753268
  ---------------------------------------------------
  free energy    TOTEN  =       -64.02305510 eV

  energy without entropy =      -64.02305510  energy(sigma->0) =      -64.02305510


--------------------------------------------------------------------------------------------------------




----------------------------------------- Iteration    1(  25)  ---------------------------------------


    POTLOK:  cpu time    0.37: real time    0.37
    SETDIJ:  cpu time    0.01: real time    0.01
     EDDAV:  cpu time    3.92: real time    3.92
       DOS:  cpu time    0.00: real time    0.00
    CHARGE:  cpu time    0.19: real time    0.19
    MIXING:  cpu time    0.02: real time    0.02
    --------------------------------------------
      LOOP:  cpu time    4.52: real time    5.56

 eigenvalue-minimisations  :   636
 total energy-change (2. order) :-0.5165050E-02  (-0.2646929E-04)
 number of electron     340.9999844 magnetization       1.0076759
 augmentation part      163.6055699 magnetization      -0.0139913

 Broyden mixing:
  rms(total) = 0.11459E-02    rms(broyden)= 0.11457E-02
  rms(prec ) = 0.16453E-02
  weight for this iteration     100.00

 eigenvalues of (default mixing * dielectric matrix)
  average eigenvalue GAMMA=   1.8199
  8.8948  5.3148  3.6923  2.2845  2.2845  2.2783  1.5304  1.0387  1.0387  0.5782
  0.5782  0.8802  0.8802  0.9023  0.9023  0.8158  0.6666  0.6476  0.5846  0.6050

 Free energy of the ion-electron system (eV)
  ---------------------------------------------------
  alpha Z        PSCENC =        76.11358405
  Ewald energy   TEWEN  =     72503.19702814
  -Hartree energ DENC   =   -103309.52585366
  -exchange      EXHF   =         0.00000000
  -V(xc)+E(xc)   XCENC  =      -350.85007705
  PAW double counting   =     33646.27955953   -32274.40717338
  entropy T*S    EENTRO =        -0.00000000
  eigenvalues    EBANDS =     -2507.99282045
  atomic energy  EATOM  =     32153.15753268
  ---------------------------------------------------
  free energy    TOTEN  =       -64.02822015 eV

  energy without entropy =      -64.02822015  energy(sigma->0) =      -64.02822015


--------------------------------------------------------------------------------------------------------




----------------------------------------- Iteration    1(  26)  ---------------------------------------


    POTLOK:  cpu time    0.37: real time    0.37
    SETDIJ:  cpu time    0.01: real time    0.01
     EDDAV:  cpu time    3.90: real time    3.90
       DOS:  cpu time    0.00: real time    0.00
    CHARGE:  cpu time    0.19: real time    0.19
    MIXING:  cpu time    0.02: real time    0.02
    --------------------------------------------
      LOOP:  cpu time    4.49: real time    4.50

 eigenvalue-minimisations  :   632
 total energy-change (2. order) :-0.2607443E-02  (-0.9589196E-05)
 number of electron     340.9999844 magnetization       1.0041908
 augmentation part      163.6062850 magnetization      -0.0173707

 Broyden mixing:
  rms(total) = 0.91862E-03    rms(broyden)= 0.91854E-03
  rms(prec ) = 0.11791E-02
  weight for this iteration     100.00

 eigenvalues of (default mixing * dielectric matrix)
  average eigenvalue GAMMA=   1.8395
  8.8847  5.5940  4.0050  2.4302  2.3026  2.3026  2.0057  1.0885  1.0885  1.0731
  0.9540  0.9540  0.5782  0.5782  0.7884  0.7884  0.7557  0.5805  0.6356  0.6226
  0.6198

 Free energy of the ion-electron system (eV)
  ---------------------------------------------------
  alpha Z        PSCENC =        76.11358405
  Ewald energy   TEWEN  =     72503.19702814
  -Hartree energ DENC   =   -103308.18270424
  -exchange      EXHF   =         0.00000000
  -V(xc)+E(xc)   XCENC  =      -350.85792909
  PAW double counting   =     33646.29217874   -32274.41558607
  entropy T*S    EENTRO =         0.00000000
  eigenvalues    EBANDS =     -2509.33493178
  atomic energy  EATOM  =     32153.15753268
  ---------------------------------------------------
  free energy    TOTEN  =       -64.03082759 eV

  energy without entropy =      -64.03082759  energy(sigma->0) =      -64.03082759


--------------------------------------------------------------------------------------------------------




----------------------------------------- Iteration    1(  27)  ---------------------------------------


    POTLOK:  cpu time    0.37: real time    0.37
    SETDIJ:  cpu time    0.01: real time    0.01
     EDDAV:  cpu time    3.84: real time    3.85
       DOS:  cpu time    0.00: real time    0.00
    CHARGE:  cpu time    0.19: real time    0.19
    MIXING:  cpu time    0.02: real time    0.02
    --------------------------------------------
      LOOP:  cpu time    4.44: real time    4.44

 eigenvalue-minimisations  :   620
 total energy-change (2. order) :-0.2240104E-02  (-0.4521571E-05)
 number of electron     340.9999844 magnetization       1.0029157
 augmentation part      163.6062610 magnetization      -0.0185955

 Broyden mixing:
  rms(total) = 0.41328E-03    rms(broyden)= 0.41316E-03
  rms(prec ) = 0.58982E-03
  weight for this iteration     100.00

 eigenvalues of (default mixing * dielectric matrix)
  average eigenvalue GAMMA=   1.8760
  8.8755  6.2064  4.5087  2.2844  2.2844  2.5848  2.3549  1.2198  1.1165  1.1165
  0.9921  0.9921  0.5782  0.5782  0.8019  0.8019  0.8002  0.6822  0.6822  0.5818
  0.6185  0.6105

 Free energy of the ion-electron system (eV)
  ---------------------------------------------------
  alpha Z        PSCENC =        76.11358405
  Ewald energy   TEWEN  =     72503.19702814
  -Hartree energ DENC   =   -103307.37242439
  -exchange      EXHF   =         0.00000000
  -V(xc)+E(xc)   XCENC  =      -350.86274872
  PAW double counting   =     33646.62285087   -32274.74222823
  entropy T*S    EENTRO =         0.00000000
  eigenvalues    EBANDS =     -2510.14666209
  atomic energy  EATOM  =     32153.15753268
  ---------------------------------------------------
  free energy    TOTEN  =       -64.03306770 eV

  energy without entropy =      -64.03306770  energy(sigma->0) =      -64.03306770


--------------------------------------------------------------------------------------------------------




----------------------------------------- Iteration    1(  28)  ---------------------------------------


    POTLOK:  cpu time    0.37: real time    0.37
    SETDIJ:  cpu time    0.01: real time    0.01
     EDDAV:  cpu time    3.77: real time    3.77
       DOS:  cpu time    0.00: real time    0.00
    CHARGE:  cpu time    0.19: real time    0.19
    MIXING:  cpu time    0.03: real time    0.03
    --------------------------------------------
      LOOP:  cpu time    4.36: real time    4.37

 eigenvalue-minimisations  :   600
 total energy-change (2. order) :-0.9207094E-03  (-0.1233418E-05)
 number of electron     340.9999844 magnetization       1.0019957
 augmentation part      163.6061230 magnetization      -0.0194872

 Broyden mixing:
  rms(total) = 0.30574E-03    rms(broyden)= 0.30566E-03
  rms(prec ) = 0.41707E-03
  weight for this iteration     100.00

 eigenvalues of (default mixing * dielectric matrix)
  average eigenvalue GAMMA=   1.8872
  8.8244  6.9163  4.7006  2.7459  2.2554  2.2554  2.3504  1.5465  1.0181  1.0181
  1.0448  1.0448  0.9910  0.5782  0.5782  0.8034  0.8034  0.7811  0.6834  0.6571
  0.5817  0.6143  0.6143

 Free energy of the ion-electron system (eV)
  ---------------------------------------------------
  alpha Z        PSCENC =        76.11358405
  Ewald energy   TEWEN  =     72503.19702814
  -Hartree energ DENC   =   -103307.05243888
  -exchange      EXHF   =         0.00000000
  -V(xc)+E(xc)   XCENC  =      -350.86433572
  PAW double counting   =     33646.75019828   -32274.87159265
  entropy T*S    EENTRO =         0.00000000
  eigenvalues    EBANDS =     -2510.46396431
  atomic energy  EATOM  =     32153.15753268
  ---------------------------------------------------
  free energy    TOTEN  =       -64.03398841 eV

  energy without entropy =      -64.03398841  energy(sigma->0) =      -64.03398841


--------------------------------------------------------------------------------------------------------




----------------------------------------- Iteration    1(  29)  ---------------------------------------


    POTLOK:  cpu time    0.37: real time    0.37
    SETDIJ:  cpu time    0.01: real time    0.01
     EDDAV:  cpu time    3.67: real time    3.67
       DOS:  cpu time    0.00: real time    0.00
    CHARGE:  cpu time    0.19: real time    0.19
    MIXING:  cpu time    0.03: real time    0.03
    --------------------------------------------
      LOOP:  cpu time    4.26: real time    4.27

 eigenvalue-minimisations  :   576
 total energy-change (2. order) :-0.1469887E-03  (-0.3135332E-06)
 number of electron     340.9999844 magnetization       1.0002410
 augmentation part      163.6061293 magnetization      -0.0212284

 Broyden mixing:
  rms(total) = 0.16905E-03    rms(broyden)= 0.16901E-03
  rms(prec ) = 0.26795E-03
  weight for this iteration     100.00

 eigenvalues of (default mixing * dielectric matrix)
  average eigenvalue GAMMA=   1.9179
  8.7969  7.4263  4.8884  2.7917  2.3065  2.3065  2.2981  2.2981  1.1244  1.1244
  0.9934  0.9934  1.0800  0.5782  0.5782  0.9254  0.7921  0.7921  0.7974  0.6787
  0.6516  0.5816  0.6126  0.6126

 Free energy of the ion-electron system (eV)
  ---------------------------------------------------
  alpha Z        PSCENC =        76.11358405
  Ewald energy   TEWEN  =     72503.19702814
  -Hartree energ DENC   =   -103306.90355588
  -exchange      EXHF   =         0.00000000
  -V(xc)+E(xc)   XCENC  =      -350.86499905
  PAW double counting   =     33646.73809026   -32274.86050054
  entropy T*S    EENTRO =        -0.00000000
  eigenvalues    EBANDS =     -2510.61131505
  atomic energy  EATOM  =     32153.15753268
  ---------------------------------------------------
  free energy    TOTEN  =       -64.03413540 eV

  energy without entropy =      -64.03413540  energy(sigma->0) =      -64.03413540


--------------------------------------------------------------------------------------------------------




----------------------------------------- Iteration    1(  30)  ---------------------------------------


    POTLOK:  cpu time    0.37: real time    0.37
    SETDIJ:  cpu time    0.01: real time    0.01
     EDDAV:  cpu time    3.73: real time    3.73
       DOS:  cpu time    0.00: real time    0.00
    --------------------------------------------
      LOOP:  cpu time    4.12: real time    4.12

 eigenvalue-minimisations  :   592
 total energy-change (2. order) :-0.3310034E-04  (-0.4592004E-06)
 number of electron     340.9999844 magnetization       1.0002410
 augmentation part      163.6061293 magnetization      -0.0212284

 Free energy of the ion-electron system (eV)
  ---------------------------------------------------
  alpha Z        PSCENC =        76.11358405
  Ewald energy   TEWEN  =     72503.19702814
  -Hartree energ DENC   =   -103306.74241079
  -exchange      EXHF   =         0.00000000
  -V(xc)+E(xc)   XCENC  =      -350.86568544
  PAW double counting   =     33646.77352933   -32274.89608332
  entropy T*S    EENTRO =         0.00000000
  eigenvalues    EBANDS =     -2510.77166314
  atomic energy  EATOM  =     32153.15753268
  ---------------------------------------------------
  free energy    TOTEN  =       -64.03416850 eV

  energy without entropy =      -64.03416850  energy(sigma->0) =      -64.03416850


--------------------------------------------------------------------------------------------------------




 average (electrostatic) potential at core
  the test charge radii are     1.1249
  (the norm of the test charge is              1.0000)
       1 -82.3590       2 -82.2948       3 -82.3569       4 -82.2958       5 -82.3763
       6 -82.2405       7 -82.8398       8 -82.4058       9 -82.1674      10 -82.4140
      11 -82.2750      12 -82.2537      13 -82.4701      14 -82.4076      15 -82.0705
      16 -82.0206      17 -82.8503      18 -82.1097      19 -82.0879      20 -82.0310
      21 -82.3027      22 -82.2167      23 -82.2281      24 -82.4701      25 -82.4746
      26 -82.2609      27 -82.2304      28 -82.1491      29 -82.1386      30 -82.0977
      31 -82.1136
 
 
 
 E-fermi :  -3.3927     XC(G=0):  -1.0412     alpha+bet : -0.6626


 spin component 1

 k-point     1 :       0.0000    0.0000    0.0000
  band No.  band energies     occupation 
      1      -9.9498      1.00000
      2      -9.5117      1.00000
      3      -9.4590      1.00000
      4      -9.4333      1.00000
      5      -9.3958      1.00000
      6      -9.3277      1.00000
      7      -9.2661      1.00000
      8      -9.1838      1.00000
      9      -9.1379      1.00000
     10      -9.0756      1.00000
     11      -9.0436      1.00000
     12      -9.0021      1.00000
[...]
    209       0.7880      0.00000
    210       0.8464      0.00000
    211       0.8776      0.00000
    212       0.8941      0.00000
    213       0.9584      0.00000
    214       0.9722      0.00000
    215       1.0053      0.00000
    216       1.0301      0.00000
    217       1.0465      0.00000
    218       1.0651      0.00000
    219       1.0783      0.00000
    220       1.0878      0.00000


--------------------------------------------------------------------------------------------------------


 soft charge-density along one line, spin component           1
         0         1         2         3         4         5         6         7         8         9
 total charge-density along one line
 
 soft charge-density along one line, spin component           2
         0         1         2         3         4         5         6         7         8         9
 total charge-density along one line
 
 pseudopotential strength for first ion, spin component:           1
-10.408   0.003   0.009  -0.003  -0.004 -10.378   0.003   0.009
  0.003 -10.418  -0.003  -0.006   0.005   0.003 -10.387  -0.003
  0.009  -0.003 -10.419  -0.000   0.006   0.009  -0.003 -10.388
 -0.003  -0.006  -0.000 -10.424  -0.000  -0.003  -0.006  -0.000
 -0.004   0.005   0.006  -0.000 -10.409  -0.004   0.005   0.006
-10.378   0.003   0.009  -0.003  -0.004 -10.324   0.003   0.009
  0.003 -10.387  -0.003  -0.006   0.005   0.003 -10.333  -0.003
  0.009  -0.003 -10.388  -0.000   0.006   0.009  -0.003 -10.334
 -0.003  -0.006  -0.000 -10.393  -0.000  -0.003  -0.005  -0.000
 -0.004   0.005   0.006  -0.000 -10.379  -0.004   0.005   0.005
  0.005   0.003   0.005  -0.000   0.002   0.005   0.003   0.005
  0.008   0.005   0.009  -0.001   0.003   0.008   0.005   0.009
 -0.004   0.001  -0.001   0.000  -0.002  -0.004   0.001  -0.001
  0.000   0.002   0.000  -0.003   0.000   0.000   0.002   0.000
  0.003   0.000   0.002   0.001  -0.003   0.002   0.000   0.002
 -0.005   0.000  -0.002   0.000  -0.003  -0.005   0.001  -0.001
  0.000   0.003   0.000  -0.004   0.000   0.000   0.003   0.000
  0.003   0.000   0.003   0.000  -0.004   0.003   0.000   0.002
 pseudopotential strength for first ion, spin component:           2
-10.406   0.002   0.009  -0.003  -0.004 -10.376   0.002   0.009
  0.002 -10.414  -0.001  -0.005   0.004   0.002 -10.384  -0.001
  0.009  -0.001 -10.416   0.000   0.005   0.009  -0.001 -10.386
 -0.003  -0.005   0.000 -10.423  -0.000  -0.003  -0.005   0.000
 -0.004   0.004   0.005  -0.000 -10.407  -0.004   0.004   0.005
-10.376   0.002   0.009  -0.003  -0.004 -10.323   0.002   0.008
  0.002 -10.384  -0.001  -0.005   0.004   0.002 -10.330  -0.001
  0.009  -0.001 -10.386   0.000   0.005   0.008  -0.001 -10.331
 -0.003  -0.005   0.000 -10.392  -0.000  -0.003  -0.005   0.000
 -0.004   0.004   0.005  -0.000 -10.377  -0.004   0.004   0.005
  0.005   0.003   0.005  -0.000   0.002   0.005   0.003   0.005
  0.008   0.005   0.009  -0.000   0.003   0.007   0.005   0.009
 -0.004   0.000  -0.002   0.000  -0.002  -0.004   0.000  -0.002
  0.000   0.002   0.000  -0.003   0.000   0.000   0.002   0.000
  0.003   0.000   0.002   0.001  -0.003   0.002   0.000   0.002
 -0.005   0.000  -0.002   0.000  -0.003  -0.005   0.000  -0.002
  0.000   0.003  -0.000  -0.004   0.000   0.000   0.002  -0.000
  0.003   0.000   0.003   0.000  -0.004   0.003   0.000   0.002
 total augmentation occupancy for first ion, spin component:           1
  2.967   0.067   0.010   0.014   0.001  -0.895  -0.045   0.057  -0.036  -0.059  -0.377   0.071  -0.018  -0.024   0.067  -0.001
  0.067   3.112   0.137   0.137  -0.014  -0.045  -1.153  -0.144  -0.161   0.055  -0.282   0.043  -0.078   0.018  -0.025   0.005
  0.010   0.137   3.442   0.017   0.024   0.058  -0.145  -1.428  -0.024   0.003  -0.552   0.087  -0.123  -0.026   0.055   0.005
  0.014   0.137   0.017   3.054   0.018  -0.036  -0.161  -0.024  -1.108  -0.033  -0.020   0.010  -0.018  -0.070  -0.043   0.001
  0.001  -0.014   0.024   0.018   2.979  -0.060   0.055   0.003  -0.033  -0.909  -0.079   0.012  -0.117   0.012  -0.124   0.007
 -0.895  -0.045   0.058  -0.036  -0.060   0.792   0.027  -0.113   0.055   0.108   0.344  -0.067   0.017   0.024  -0.070  -0.000
 -0.045  -1.153  -0.145  -0.161   0.055   0.027   1.146   0.153   0.181  -0.090   0.258  -0.041   0.070  -0.017   0.026  -0.003
  0.057  -0.144  -1.428  -0.024   0.003  -0.113   0.153   1.375   0.030  -0.026   0.500  -0.086   0.120   0.016  -0.053  -0.006
 -0.036  -0.161  -0.024  -1.108  -0.033   0.055   0.181   0.030   1.109   0.045   0.025  -0.013   0.020   0.062   0.037  -0.001
 -0.059   0.055   0.003  -0.033  -0.909   0.108  -0.090  -0.026   0.045   0.806   0.070  -0.008   0.117  -0.012   0.118  -0.008
 -0.377  -0.282  -0.552  -0.020  -0.079   0.344   0.258   0.500   0.025   0.070   2.010  -0.345  -0.069  -0.002   0.037   0.008
  0.071   0.043   0.087   0.010   0.012  -0.067  -0.041  -0.086  -0.013  -0.008  -0.345   0.075   0.027  -0.006  -0.016  -0.002
 -0.018  -0.078  -0.123  -0.018  -0.117   0.017   0.070   0.120   0.020   0.117  -0.069   0.027   0.115   0.022   0.030  -0.007
 -0.024   0.018  -0.026  -0.070   0.012   0.024  -0.017   0.016   0.062  -0.012  -0.002  -0.006   0.022   0.179   0.003  -0.001
  0.067  -0.025   0.055  -0.043  -0.124  -0.070   0.026  -0.053   0.037   0.118   0.037  -0.016   0.030   0.003   0.120  -0.002
 -0.001   0.005   0.005   0.001   0.007  -0.000  -0.003  -0.006  -0.001  -0.008   0.008  -0.002  -0.007  -0.001  -0.002   0.000
  0.001  -0.004   0.003   0.004  -0.000  -0.001   0.004  -0.000  -0.005   0.001  -0.000   0.000  -0.001  -0.011  -0.000   0.000
 -0.004   0.001  -0.001   0.004   0.007   0.005  -0.001   0.002  -0.001  -0.007  -0.004   0.001  -0.002  -0.000  -0.007   0.000
 total augmentation occupancy for first ion, spin component:           2
 -0.001  -0.013  -0.011  -0.005   0.003  -0.000   0.010   0.009   0.004  -0.002  -0.006  -0.000   0.003   0.003  -0.000  -0.000
 -0.013   0.044   0.045   0.015  -0.019   0.010  -0.035  -0.035  -0.012   0.015   0.021   0.007  -0.007  -0.010   0.001   0.000
 -0.011   0.045   0.034   0.013  -0.019   0.009  -0.035  -0.028  -0.010   0.015   0.020   0.006  -0.006  -0.009  -0.000   0.000
 -0.005   0.015   0.013   0.000  -0.007   0.004  -0.012  -0.010  -0.002   0.006   0.009   0.001  -0.002  -0.004   0.000   0.000
  0.003  -0.019  -0.019  -0.007   0.005  -0.002   0.015   0.015   0.006  -0.005  -0.009  -0.002   0.004   0.005  -0.001  -0.000
 -0.000   0.010   0.009   0.004  -0.002   0.002  -0.007  -0.007  -0.002   0.002   0.004   0.001  -0.002  -0.002  -0.000   0.000
  0.010  -0.035  -0.035  -0.012   0.015  -0.007   0.029   0.027   0.009  -0.012  -0.018  -0.004   0.005   0.007  -0.001  -0.000
  0.009  -0.035  -0.028  -0.010   0.015  -0.007   0.027   0.024   0.007  -0.011  -0.017  -0.003   0.005   0.006   0.000  -0.000
  0.004  -0.012  -0.010  -0.002   0.006  -0.002   0.009   0.007   0.003  -0.004  -0.007  -0.001   0.002   0.003  -0.001  -0.000
 -0.002   0.015   0.015   0.006  -0.005   0.002  -0.012  -0.011  -0.004   0.005   0.007   0.001  -0.002  -0.004   0.001   0.000
 -0.006   0.021   0.020   0.009  -0.009   0.004  -0.018  -0.017  -0.007   0.007   0.013   0.001  -0.005  -0.007   0.000   0.000
 -0.000   0.007   0.006   0.001  -0.002   0.001  -0.004  -0.003  -0.001   0.001   0.001   0.001  -0.001  -0.001   0.000   0.000
  0.003  -0.007  -0.006  -0.002   0.004  -0.002   0.005   0.005   0.002  -0.002  -0.005  -0.001   0.001   0.001   0.000  -0.000
  0.003  -0.010  -0.009  -0.004   0.005  -0.002   0.007   0.006   0.003  -0.004  -0.007  -0.001   0.001   0.002  -0.000  -0.000
 -0.000   0.001  -0.000   0.000  -0.001  -0.000  -0.001   0.000  -0.001   0.001   0.000   0.000   0.000  -0.000   0.000  -0.000
 -0.000   0.000   0.000   0.000  -0.000   0.000  -0.000  -0.000  -0.000   0.000   0.000   0.000  -0.000  -0.000  -0.000   0.000
 -0.000   0.000   0.000   0.000  -0.000   0.000  -0.000  -0.000  -0.000   0.000   0.000   0.000  -0.000  -0.000   0.000   0.000
 -0.000   0.000   0.000  -0.000   0.000   0.000   0.000  -0.000   0.000  -0.000  -0.000   0.000  -0.000   0.000  -0.000   0.000


------------------------ aborting loop because EDIFF is reached ----------------------------------------


    CHARGE:  cpu time    0.19: real time    0.19
    FORLOC:  cpu time    0.02: real time    0.02
    FORNL :  cpu time    3.19: real time    3.19
    STRESS:  cpu time    4.26: real time    4.26
    FORCOR:  cpu time    0.38: real time    0.38
    FORHAR:  cpu time    0.06: real time    0.06
    MIXING:  cpu time    0.01: real time    0.01
    OFIELD:  cpu time    0.00: real time    0.00

  FORCE on cell =-STRESS in cart. coord.  units (eV):
  Direction    XX          YY          ZZ          XY          YZ          ZX
  --------------------------------------------------------------------------------------
  Alpha Z    76.11358    76.11358    76.11358
  Ewald   15763.94745 34076.52405 21541.11733  1706.93506 -4580.90954 -2093.86311
  Hartree 26495.88332 43773.19168 31931.46279  1629.45507 -4239.75470 -1877.12763
  E(xc)   -1798.30051 -1796.73506 -1797.79539    -0.04381    -0.49715    -0.52067
  Local  -47317.12102-82902.52267-58525.97536 -3339.46022  8815.94721  3966.76226
  n-local  -330.61559  -327.90940  -330.59746     0.69879    -0.34580     0.12667
  augment  2849.81773  2847.02137  2848.46548     0.70429     1.54534     1.33196
  Kinetic  4248.93600  4242.64385  4245.61887     1.75544     3.92488     3.44640
  Fock        0.00000     0.00000     0.00000     0.00000     0.00000     0.00000
  -------------------------------------------------------------------------------------
  Total     -11.33904   -11.67260   -11.59014     0.04462    -0.08976     0.15587
  in kB      -1.69165    -1.74142    -1.72912     0.00666    -0.01339     0.02325
  external pressure =       -1.72 kB  Pullay stress =        0.00 kB


 VOLUME and BASIS-vectors are now :
 -----------------------------------------------------------------------------
  energy-cutoff  :      249.84
  volume of cell :    10739.29
      direct lattice vectors                 reciprocal lattice vectors
    22.062690127  0.000000000  0.000000000     0.045325388  0.000000000  0.000000000
     0.000000000 22.062690127  0.000000000     0.000000000  0.045325388  0.000000000
     0.000000000  0.000000000 22.062690127     0.000000000  0.000000000  0.045325388

  length of vectors
    22.062690127 22.062690127 22.062690127     0.045325388  0.045325388  0.045325388


 FORCES acting on ions
    electron-ion (+dipol)            ewald-force                    non-local-force                 convergence-correction
 -----------------------------------------------------------------------------------------------
   0.528E+03 -.116E+04 -.118E+03   -.528E+03 0.116E+04 0.117E+03   0.132E+00 0.184E+00 0.713E+00   -.418E-02 0.298E-02 0.156E-01
   -.235E+03 -.651E+03 0.138E+04   0.235E+03 0.649E+03 -.138E+04   0.242E+00 0.234E+01 -.467E+01   0.543E-02 -.146E-01 0.503E-02
   -.112E+03 -.562E+03 -.131E+04   0.111E+03 0.561E+03 0.131E+04   0.218E+00 0.113E+01 0.335E+01   -.106E-01 0.526E-02 -.757E-02
   -.149E+04 0.149E+03 0.169E+03   0.148E+04 -.147E+03 -.169E+03   0.504E+01 -.192E+01 -.764E+00   0.617E-02 0.923E-04 -.977E-03
   -.304E+03 0.421E+03 0.143E+04   0.303E+03 -.420E+03 -.142E+04   0.132E+01 -.995E+00 -.405E+01   0.352E-02 -.498E-03 0.655E-02
   0.722E+03 -.117E+04 0.727E+03   -.720E+03 0.117E+04 -.724E+03   -.245E+01 0.367E+01 -.228E+01   -.335E-02 0.335E-02 -.413E-02
   0.273E+03 -.131E+03 -.310E+03   -.272E+03 0.132E+03 0.310E+03   -.102E+01 -.939E-01 0.549E+00   -.153E-01 0.528E-02 -.106E-01
   -.108E+04 -.252E+03 0.954E+03   0.108E+04 0.253E+03 -.952E+03   0.201E+01 -.919E+00 -.191E+01   -.160E-01 0.878E-02 0.612E-02
   -.126E+04 -.812E+03 -.308E+02   0.125E+04 0.810E+03 0.307E+02   0.436E+01 0.197E+01 0.198E+00   -.136E-01 -.540E-02 -.939E-02
   0.140E+04 -.437E+03 0.355E+03   -.139E+04 0.436E+03 -.354E+03   -.363E+01 0.813E+00 -.800E+00   -.908E-02 0.205E-02 -.162E-02
   0.895E+03 -.812E+02 0.127E+04   -.892E+03 0.825E+02 -.126E+04   -.279E+01 -.127E+01 -.338E+01   0.119E-01 0.724E-02 0.368E-02
   -.443E+03 -.131E+04 0.484E+03   0.442E+03 0.131E+04 -.483E+03   0.940E+00 0.306E+01 -.124E+01   0.160E-02 -.877E-02 0.177E-03
   -.747E+03 0.471E+03 0.524E+03   0.747E+03 -.471E+03 -.524E+03   0.126E+00 0.497E-01 -.147E+00   0.519E-03 -.107E-01 -.439E-02
   0.787E+03 0.485E+03 0.847E+03   -.787E+03 -.485E+03 -.846E+03   0.146E+00 0.389E+00 -.103E+01   -.593E-03 0.388E-02 -.114E-02
   0.337E+03 -.111E+04 -.798E+03   -.334E+03 0.111E+04 0.794E+03   -.254E+01 0.462E+01 0.363E+01   0.423E-02 -.947E-02 -.976E-02
   -.147E+03 0.105E+04 0.109E+04   0.146E+03 -.104E+04 -.109E+04   0.854E+00 -.343E+01 -.282E+01   -.358E-02 -.234E-02 0.111E-01
   -.172E+02 -.356E+03 0.524E+03   0.176E+02 0.355E+03 -.523E+03   -.374E+00 0.106E+01 -.126E+01   0.350E-02 0.639E-02 -.569E-02
   -.632E+03 -.116E+04 -.593E+03   0.631E+03 0.116E+04 0.590E+03   0.115E+01 0.246E+01 0.245E+01   -.559E-02 0.295E-02 0.448E-02
   -.817E+03 0.120E+04 0.348E+03   0.815E+03 -.119E+04 -.347E+03   0.218E+01 -.294E+01 -.167E+01   0.755E-02 0.671E-02 0.868E-02
   0.826E+03 0.111E+04 0.588E+03   -.824E+03 -.111E+04 -.586E+03   -.205E+01 -.309E+01 -.125E+01   -.766E-02 0.135E-01 0.582E-02
   0.121E+04 -.615E+03 -.738E+03   -.121E+04 0.613E+03 0.736E+03   -.387E+01 0.259E+01 0.233E+01   0.537E-02 -.154E-01 -.356E-02
   -.130E+04 0.452E+03 -.472E+03   0.130E+04 -.452E+03 0.470E+03   0.235E+01 -.518E+00 0.130E+01   0.228E-03 -.405E-02 0.506E-03
   0.849E+03 -.722E+00 -.122E+04   -.848E+03 -.262E+00 0.122E+04   -.778E+00 0.968E+00 0.287E+01   0.283E-02 0.129E-01 -.301E-02
   0.709E+02 0.633E+03 -.209E+03   -.709E+02 -.632E+03 0.208E+03   -.286E-01 -.420E+00 0.653E+00   0.123E-01 -.178E-01 -.109E-01
   -.897E+03 -.344E+03 -.594E+03   0.896E+03 0.344E+03 0.595E+03   0.103E+01 0.306E+00 -.982E+00   0.698E-02 0.116E-01 0.812E-02
   -.537E+03 0.486E+01 -.132E+04   0.536E+03 -.532E+01 0.132E+04   0.121E+01 0.463E+00 0.188E+01   0.237E-02 -.418E-02 0.222E-02
   0.148E+04 0.248E+03 -.105E+01   -.147E+04 -.247E+03 0.154E+01   -.320E+01 -.137E+00 -.489E+00   -.159E-02 0.258E-02 0.378E-02
   0.114E+03 0.145E+04 -.239E+03   -.114E+03 -.145E+04 0.238E+03   -.201E+00 -.471E+01 0.848E+00   0.669E-02 0.371E-02 -.709E-02
   0.207E+03 0.686E+03 -.133E+04   -.206E+03 -.683E+03 0.133E+04   -.869E+00 -.257E+01 0.397E+01   0.708E-02 0.122E-02 -.104E-01
   -.809E+03 0.938E+03 -.872E+03   0.807E+03 -.935E+03 0.869E+03   0.243E+01 -.327E+01 0.219E+01   -.979E-02 0.843E-03 -.105E-01
   0.114E+04 0.866E+03 -.526E+03   -.113E+04 -.864E+03 0.525E+03   -.338E+01 -.238E+01 0.100E+01   0.135E-02 -.672E-02 0.136E-01
 -----------------------------------------------------------------------------------------------
   0.152E+01 0.260E+01 0.869E+00   0.227E-12 -.909E-12 0.455E-12   -.146E+01 -.260E+01 -.816E+00   -.113E-01 0.147E-02 -.519E-02
 
 
 POSITION                                       TOTAL-FORCE (eV/Angst)
 -----------------------------------------------------------------------------------
     10.28764     14.58429     11.51683        -0.009338     -0.000467     -0.005354
     11.83268     13.73222      7.13776         0.002876      0.000598     -0.000089
     11.26808     13.24624     14.09315        -0.008751     -0.003906      0.000403
     15.35988     11.43186     10.68526         0.002211      0.003761      0.005668
     11.85824     10.80191      7.56404        -0.007689     -0.005268      0.002821
      9.75261     14.85250      8.78161        -0.000724     -0.000755     -0.004247
     10.55795     11.59522     11.99645         0.004730     -0.002515     -0.000246
     13.91576     12.72452      8.72367        -0.000443     -0.002274      0.003625
     14.83883     14.21902     10.92242        -0.004485      0.001072      0.005053
      8.51467     12.67766     10.28005        -0.000222     -0.003146     -0.007763
      9.36227     12.30573      7.54684        -0.000023      0.002925     -0.010411
     12.50173     15.14655      9.69850        -0.002242     -0.000115     -0.002311
     12.73328     10.22815     10.19300         0.000518      0.006237      0.005728
      9.79786     10.15449      9.49533        -0.007256      0.004708     -0.009933
     10.34900     15.84201     13.92424         0.004920      0.004764     -0.002494
     11.49913      8.13617      8.69778        -0.008691     -0.005360      0.024772
     11.28317     12.64789      9.60036        -0.002128      0.000779     -0.004224
     12.78761     15.19357     12.56320        -0.007101     -0.002200     -0.003744
     12.93285      7.43555     11.03087         0.022702      0.002813      0.004070
      9.29329      7.57600     10.43726        -0.031361      0.019933      0.008231
      8.52763     13.07242     13.16992        -0.009968     -0.013469     -0.010637
     14.17991      9.64169     12.47519         0.009168     -0.000734      0.002826
      9.20941     10.53361     14.24976         0.010202     -0.002328      0.000394
     10.92922      8.91694     12.21850         0.006676      0.001965     -0.005742
     13.23430     12.35484     12.23499         0.000496     -0.003816      0.008028
     12.14304     10.51078     14.28049         0.005695     -0.001239     -0.001435
      8.09474     10.19994     11.70423         0.002897     -0.004432     -0.000356
     10.76535      6.22780     12.60212        -0.000271      0.001730     -0.021699
     10.52820      8.22212     15.00964         0.012741      0.001480      0.004936
     12.94537      7.67347     13.88720         0.006412     -0.006781     -0.002119
      8.45399      7.87883     13.17981         0.008448      0.006039      0.016249
 -----------------------------------------------------------------------------------
    total drift:                                0.043769      0.002788      0.048054


--------------------------------------------------------------------------------------------------------



  FREE ENERGIE OF THE ION-ELECTRON SYSTEM (eV)
  ---------------------------------------------------
  free  energy   TOTEN  =       -64.84227428 eV

  energy  without entropy=      -64.84227428  energy(sigma->0) =      -64.84227428
 
 d Force = 0.7556261E-04[ 0.487E-04, 0.102E-03]  d Energy = 0.1431703E-03-0.676E-04
 d Force =-0.4629751E+01[-0.463E+01,-0.463E+01]  d Ewald  =-0.4629751E+01-0.750E-07


--------------------------------------------------------------------------------------------------------


    POTLOK:  cpu time    0.38: real time    0.39


--------------------------------------------------------------------------------------------------------




--------------------------------------------------------------------------------------------------------


  
 reached required accuracy - stopping structural energy minimisation
     LOOP+:  cpu time   18.22: real time   18.40
    4ORBIT:  cpu time    0.00: real time    0.00

 total amount of memory used by VASP on root node    75076. kBytes
========================================================================

   base      :      30000. kBytes
   nonl-proj :       3852. kBytes
   fftplans  :       8576. kBytes
   grid      :      21928. kBytes
   one-center:         62. kBytes
   wavefun   :      10658. kBytes
 
  
  
 General timing and accounting informations for this job:
 ========================================================
  
                  Total CPU time used (sec):     1544.701
                            User time (sec):     1537.144
                          System time (sec):        7.556
                         Elapsed time (sec):     1588.462
  
                   Maximum memory used (kb):       95668.
                   Average memory used (kb):           0.
  
                          Minor page faults:      1224010
                          Major page faults:            0
                 Voluntary context switches:         8489
