   44   44 1000    2
  0.2882188E+03  0.2331981E-08  0.2331981E-08  0.2331981E-08  0.1000000E-15
  1.000000000000000E-004
  CAR 
 unknown system                          
    484      1    312
 
  0.0000000E+00  0.0000000E+00  0.0000000E+00  0.1000000E+01
    1       -9.797892     -9.797892
    2       -9.269911     -9.269911
    3       -9.178637     -9.178637
    4       -9.124767     -9.124767
    5       -9.103091     -9.103091
    6       -9.059828     -9.059828
    7       -9.035484     -9.035484
    8       -9.023517     -9.023517
    9       -9.001571     -9.001571
   10       -8.976102     -8.976102
   11       -8.957621     -8.957621
   12       -8.916725     -8.916725
   13       -8.876458     -8.876458
   14       -8.857441     -8.857441
   15       -8.843997     -8.843997
   16       -8.826987     -8.826987
   17       -8.805025     -8.805025
   18       -8.775427     -8.775427
   19       -8.773776     -8.773776
   20       -8.751951     -8.751951
   21       -8.732539     -8.732539
   22       -8.722835     -8.722835
   23       -8.698488     -8.698488
   24       -8.685495     -8.685495
   25       -8.665948     -8.665948
   26       -8.659666     -8.659666
   27       -8.640958     -8.640958
   28       -8.637234     -8.637234
   29       -8.621844     -8.621844
   30       -8.609515     -8.609515
   31       -8.576584     -8.576584
   32       -8.563229     -8.563229
   33       -8.552490     -8.552490
   34       -8.533959     -8.533959
   35       -8.512138     -8.512138
   36       -8.498098     -8.498098
   37       -8.482892     -8.482892
   38       -8.471482     -8.471482
   39       -8.450111     -8.450111
   40       -8.429664     -8.429664
   41       -8.404772     -8.404772
   42       -8.392186     -8.392186
   43       -8.378362     -8.378362
   44       -8.374082     -8.374082
   45       -8.349780     -8.349780
   46       -8.332548     -8.332548
   47       -8.325348     -8.325348
   48       -8.311304     -8.311304
   49       -8.282322     -8.282322
   50       -8.268915     -8.268915
   51       -8.241244     -8.241244
   52       -8.233759     -8.233759
   53       -8.219985     -8.219985
   54       -8.197505     -8.197505
   55       -8.169014     -8.169014
   56       -8.152263     -8.152263
   57       -8.132380     -8.132380
   58       -8.128993     -8.128993
   59       -8.118878     -8.118878
   60       -8.110109     -8.110109
   61       -8.094620     -8.094620
   62       -8.071952     -8.071952
   63       -8.065528     -8.065528
   64       -8.047679     -8.047679
   65       -8.032107     -8.032107
   66       -8.003270     -8.003270
   67       -7.984062     -7.984062
   68       -7.978194     -7.978194
   69       -7.950120     -7.950120
   70       -7.940422     -7.940422
   71       -7.931088     -7.931088
   72       -7.921860     -7.921860
   73       -7.915628     -7.915628
   74       -7.890734     -7.890734
   75       -7.875908     -7.875908
   76       -7.870027     -7.870027
   77       -7.842170     -7.842170
   78       -7.826370     -7.826370
   79       -7.817111     -7.817111
   80       -7.807778     -7.807778
   81       -7.800372     -7.800372
   82       -7.783212     -7.783212
   83       -7.769181     -7.769181
   84       -7.760946     -7.760946
   85       -7.745419     -7.745419
   86       -7.732008     -7.732008
   87       -7.720059     -7.720059
   88       -7.691060     -7.691060
   89       -7.685435     -7.685435
   90       -7.659949     -7.659949
   91       -7.654158     -7.654158
   92       -7.638278     -7.638278
   93       -7.617901     -7.617901
   94       -7.615361     -7.615361
   95       -7.596247     -7.596247
   96       -7.568739     -7.568739
   97       -7.565917     -7.565917
   98       -7.543575     -7.543575
   99       -7.528773     -7.528773
  100       -7.522668     -7.522668
  101       -7.513531     -7.513531
  102       -7.484581     -7.484581
  103       -7.482516     -7.482516
  104       -7.455767     -7.455767
  105       -7.447058     -7.447058
  106       -7.437109     -7.437109
  107       -7.420864     -7.420864
  108       -7.400681     -7.400681
  109       -7.392280     -7.392280
  110       -7.382985     -7.382985
  111       -7.363554     -7.363554
  112       -7.349445     -7.349445
  113       -7.343187     -7.343187
  114       -7.317952     -7.317952
  115       -7.313638     -7.313638
  116       -7.282142     -7.282142
  117       -7.276500     -7.276500
  118       -7.267607     -7.267607
  119       -7.261707     -7.261707
  120       -7.258384     -7.258384
  121       -7.231692     -7.231692
  122       -7.202318     -7.202318
  123       -7.197143     -7.197143
  124       -7.192404     -7.192404
  125       -7.170099     -7.170098
  126       -7.159166     -7.159166
  127       -7.151543     -7.151543
  128       -7.135772     -7.135772
  129       -7.115627     -7.115627
  130       -7.101247     -7.101247
  131       -7.086323     -7.086323
  132       -7.082314     -7.082314
  133       -7.073932     -7.073932
  134       -7.060976     -7.060976
  135       -7.043151     -7.043151
  136       -7.036789     -7.036789
  137       -7.008665     -7.008665
  138       -7.006045     -7.006045
  139       -6.995896     -6.995896
  140       -6.971777     -6.971777
  141       -6.970548     -6.970548
  142       -6.958777     -6.958777
  143       -6.946410     -6.946410
  144       -6.935784     -6.935784
  145       -6.918418     -6.918418
  146       -6.907078     -6.907078
  147       -6.905111     -6.905111
  148       -6.895589     -6.895589
  149       -6.891342     -6.891342
  150       -6.884000     -6.884000
  151       -6.879427     -6.879427
  152       -6.864749     -6.864749
  153       -6.857717     -6.857717
  154       -6.850851     -6.850851
  155       -6.842958     -6.842958
  156       -6.821738     -6.821738
  157       -6.812477     -6.812477
  158       -6.808336     -6.808336
  159       -6.795462     -6.795462
  160       -6.792094     -6.792094
  161       -6.775169     -6.775169
  162       -6.773137     -6.773137
  163       -6.765422     -6.765422
  164       -6.754720     -6.754720
  165       -6.746632     -6.746632
  166       -6.737155     -6.737155
  167       -6.731286     -6.731286
  168       -6.713100     -6.713100
  169       -6.705555     -6.705555
  170       -6.702413     -6.702413
  171       -6.692496     -6.692496
  172       -6.682313     -6.682313
  173       -6.674234     -6.674234
  174       -6.670593     -6.670593
  175       -6.657093     -6.657093
  176       -6.650118     -6.650118
  177       -6.644054     -6.644054
  178       -6.637486     -6.637486
  179       -6.632532     -6.632532
  180       -6.616336     -6.616336
  181       -6.610391     -6.610391
  182       -6.603154     -6.603154
  183       -6.587610     -6.587610
  184       -6.580957     -6.580957
  185       -6.574899     -6.574899
  186       -6.563288     -6.563288
  187       -6.551904     -6.551904
  188       -6.541444     -6.541444
  189       -6.534144     -6.534144
  190       -6.524344     -6.524344
  191       -6.519788     -6.519788
  192       -6.508608     -6.508608
  193       -6.492937     -6.492937
  194       -6.483897     -6.483897
  195       -6.478218     -6.478218
  196       -6.474546     -6.474546
  197       -6.462381     -6.462381
  198       -6.456660     -6.456660
  199       -6.447402     -6.447402
  200       -6.432144     -6.432144
  201       -6.413806     -6.413806
  202       -6.397050     -6.397050
  203       -6.387168     -6.387168
  204       -6.371701     -6.371701
  205       -6.369451     -6.369451
  206       -6.353284     -6.353284
  207       -6.341271     -6.341271
  208       -6.337339     -6.337339
  209       -6.326644     -6.326644
  210       -6.318438     -6.318438
  211       -6.293118     -6.293118
  212       -6.288122     -6.288122
  213       -6.282606     -6.282606
  214       -6.274852     -6.274852
  215       -6.257981     -6.257981
  216       -6.245745     -6.245745
  217       -6.237871     -6.237871
  218       -6.231251     -6.231251
  219       -6.207526     -6.207526
  220       -6.194581     -6.194581
  221       -6.178243     -6.178243
  222       -6.165408     -6.165408
  223       -6.139637     -6.139637
  224       -6.111329     -6.111329
  225       -6.081685     -6.081685
  226       -6.028086     -6.028086
  227       -5.864668     -5.864668
  228       -5.796745     -5.796745
  229       -5.717668     -5.717668
  230       -5.371603     -5.371603
  231       -5.229610     -5.229610
  232       -5.122821     -5.122821
  233       -4.644516     -4.644516
  234       -4.535583     -4.535583
  235       -4.445600     -4.445600
  236       -4.334880     -4.334881
  237       -4.103439     -4.103439
  238       -4.029120     -4.029120
  239       -3.851984     -3.851984
  240       -3.733016     -3.733016
  241       -3.690937     -3.690937
  242       -3.356424     -3.356424
  243       -3.179266     -3.179266
  244       -3.050133     -3.050134
  245       -2.844362     -2.844362
  246       -2.752985     -2.752985
  247       -2.714062     -2.714062
  248       -2.478124     -2.478124
  249       -2.408232     -2.408232
  250       -2.338228     -2.338229
  251       -2.290928     -2.290928
  252       -2.253984     -2.253984
  253       -2.169424     -2.169424
  254       -2.096700     -2.096700
  255       -2.074177     -2.074178
  256       -1.752635     -1.752635
  257       -1.700247     -1.700248
  258       -1.576035     -1.576035
  259       -1.457174     -1.457174
  260       -1.425674     -1.425675
  261       -1.294655     -1.294655
  262       -1.178460     -1.178460
  263       -1.064425     -1.064425
  264       -0.945617     -0.945617
  265       -0.929514     -0.929515
  266       -0.869017     -0.869018
  267       -0.757509     -0.757510
  268       -0.679271     -0.679271
  269       -0.577165     -0.577166
  270       -0.526789     -0.526789
  271       -0.478234     -0.478235
  272       -0.452975     -0.452976
  273       -0.397633     -0.397634
  274       -0.358049     -0.358050
  275       -0.289873     -0.289874
  276       -0.220696     -0.220696
  277       -0.082280     -0.082281
  278        0.018254      0.018253
  279        0.092768      0.092767
  280        0.162756      0.162755
  281        0.205969      0.205968
  282        0.342780      0.342778
  283        0.523917      0.523912
  284        0.567211      0.567208
  285        0.633363      0.633358
  286        0.677868      0.677862
  287        0.707872      0.707869
  288        0.766980      0.766979
  289        0.782886      0.782882
  290        0.850520      0.850518
  291        0.872211      0.872209
  292        0.910846      0.910842
  293        0.919419      0.919418
  294        0.940681      0.940678
  295        0.987361      0.987359
  296        1.000100      1.000096
  297        1.015916      1.015914
  298        1.030500      1.030498
  299        1.036178      1.036175
  300        1.054535      1.054533
  301        1.068110      1.068106
  302        1.096077      1.096075
  303        1.122055      1.122054
  304        1.175172      1.175170
  305        1.204814      1.204812
  306        1.238669      1.238667
  307        1.262005      1.262003
  308        1.273967      1.273964
  309        1.288438      1.288437
  310        1.299663      1.299659
  311        1.312200      1.312197
  312        1.356969      1.356970
