  37  37   0   0
  0.3054811E+03  0.2244202E-08  0.2244202E-08  0.2244202E-08  0.1000000E-15
  1.000000000000000E-004
  CAR 
 unknown system                          
      1.87715066    -10.33009029  301     -3.40248105      1.00000000
    -10.330  0.0000E+00  0.0000E+00  0.0000E+00  0.0000E+00
    -10.289  0.0000E+00  0.0000E+00  0.0000E+00  0.0000E+00
    -10.249  0.0000E+00  0.0000E+00  0.0000E+00  0.0000E+00
    -10.208  0.0000E+00  0.0000E+00  0.0000E+00  0.0000E+00
    -10.167  0.0000E+00  0.0000E+00  0.0000E+00  0.0000E+00
    -10.127  0.0000E+00  0.0000E+00  0.0000E+00  0.0000E+00
    -10.086  0.0000E+00  0.0000E+00  0.0000E+00  0.0000E+00
    -10.045  0.0000E+00  0.0000E+00  0.0000E+00  0.0000E+00
    -10.005  0.0000E+00  0.0000E+00  0.0000E+00  0.0000E+00
     -9.964  0.0000E+00  0.0000E+00  0.0000E+00  0.0000E+00
     -9.923  0.0000E+00  0.0000E+00  0.0000E+00  0.0000E+00
     -9.882  0.0000E+00  0.0000E+00  0.0000E+00  0.0000E+00
     -9.842  0.0000E+00  0.0000E+00  0.0000E+00  0.0000E+00
     -9.801  0.0000E+00  0.0000E+00  0.0000E+00  0.0000E+00
     -9.760  0.0000E+00  0.0000E+00  0.1000E-02  0.0000E+00
     -9.720  0.0000E+00  0.0000E+00  0.1000E-02  0.1000E-02
     -9.679  0.0000E+00  0.0000E+00  0.1000E-02  0.1000E-02
     -9.638  0.0000E+00  0.0000E+00  0.1000E-02  0.1000E-02
     -9.598  0.0000E+00  0.0000E+00  0.1000E-02  0.1000E-02
     -9.557  0.0000E+00  0.0000E+00  0.1000E-02  0.1000E-02
     -9.516  0.0000E+00  0.0000E+00  0.1000E-02  0.1000E-02
     -9.476  0.0000E+00  0.0000E+00  0.1000E-02  0.1000E-02
     -9.435  0.0000E+00  0.0000E+00  0.1000E-02  0.1000E-02
     -9.394  0.0000E+00  0.0000E+00  0.1000E-02  0.1000E-02
     -9.354  0.0000E+00  0.0000E+00  0.1000E-02  0.1000E-02
     -9.313  0.0000E+00  0.0000E+00  0.1000E-02  0.1000E-02
     -9.272  0.0000E+00  0.0000E+00  0.3000E-02  0.2000E-02
     -9.231  0.0000E+00  0.0000E+00  0.3000E-02  0.3000E-02
     -9.191  0.0000E+00  0.0000E+00  0.3000E-02  0.3000E-02
     -9.150  0.0000E+00  0.0000E+00  0.5000E-02  0.5000E-02
     -9.109  0.0000E+00  0.0000E+00  0.6000E-02  0.6000E-02
     -9.069  0.0000E+00  0.0000E+00  0.7000E-02  0.7000E-02
     -9.028  0.0000E+00  0.0000E+00  0.8000E-02  0.8000E-02
     -8.987  0.0000E+00  0.0000E+00  0.1100E-01  0.9000E-02
     -8.947  0.0000E+00  0.0000E+00  0.1200E-01  0.1100E-01
     -8.906  0.0000E+00  0.0000E+00  0.1300E-01  0.1300E-01
     -8.865  0.0000E+00  0.0000E+00  0.1300E-01  0.1300E-01
     -8.825  0.0000E+00  0.0000E+00  0.1400E-01  0.1400E-01
     -8.784  0.0000E+00  0.0000E+00  0.1700E-01  0.1600E-01
     -8.743  0.0000E+00  0.0000E+00  0.1800E-01  0.1700E-01
     -8.702  0.0000E+00  0.0000E+00  0.2000E-01  0.1900E-01
     -8.662  0.0000E+00  0.0000E+00  0.2100E-01  0.2100E-01
     -8.621  0.2458E-01  0.0000E+00  0.2300E-01  0.2200E-01
     -8.580  0.0000E+00  0.0000E+00  0.2300E-01  0.2300E-01
     -8.540  0.0000E+00  0.0000E+00  0.2600E-01  0.2500E-01
     -8.499  0.0000E+00  0.0000E+00  0.2900E-01  0.2800E-01
     -8.458  0.0000E+00  0.1457E-01  0.3000E-01  0.2959E-01
     -8.418  0.0000E+00  0.0000E+00  0.3200E-01  0.3200E-01
     -8.377  0.0000E+00  0.0000E+00  0.3400E-01  0.3400E-01
     -8.336  0.0000E+00  0.0000E+00  0.3700E-01  0.3600E-01
     -8.296  0.0000E+00  0.0000E+00  0.4100E-01  0.3900E-01
     -8.255  0.0000E+00  0.0000E+00  0.4300E-01  0.4300E-01
     -8.214  0.0000E+00  0.0000E+00  0.4600E-01  0.4600E-01
     -8.173  0.0000E+00  0.0000E+00  0.4800E-01  0.4800E-01
     -8.133  0.0000E+00  0.0000E+00  0.5100E-01  0.5000E-01
     -8.092  0.0000E+00  0.0000E+00  0.5300E-01  0.5200E-01
     -8.051  0.0000E+00  0.2458E-01  0.5600E-01  0.5500E-01
     -8.011  0.1840E-03  0.0000E+00  0.5701E-01  0.5700E-01
     -7.970  0.0000E+00  0.0000E+00  0.6000E-01  0.6000E-01
     -7.929  0.0000E+00  0.2458E-01  0.6300E-01  0.6300E-01
     -7.889  0.0000E+00  0.2458E-01  0.6500E-01  0.6500E-01
     -7.848  0.0000E+00  0.0000E+00  0.6700E-01  0.6700E-01
     -7.807  0.0000E+00  0.0000E+00  0.7000E-01  0.6900E-01
     -7.767  0.0000E+00  0.0000E+00  0.7200E-01  0.7200E-01
     -7.726  0.0000E+00  0.0000E+00  0.7500E-01  0.7400E-01
     -7.685  0.0000E+00  0.0000E+00  0.7900E-01  0.7700E-01
     -7.644  0.0000E+00  0.0000E+00  0.8100E-01  0.8100E-01
     -7.604  0.0000E+00  0.2044E-04  0.8200E-01  0.8100E-01
     -7.563  0.2970E-02  0.0000E+00  0.8412E-01  0.8400E-01
     -7.522  0.0000E+00  0.0000E+00  0.8800E-01  0.8700E-01
     -7.482  0.0000E+00  0.0000E+00  0.9000E-01  0.8900E-01
     -7.441  0.0000E+00  0.2458E-01  0.9200E-01  0.9200E-01
     -7.400  0.3138E-16  0.0000E+00  0.9300E-01  0.9300E-01
     -7.360  0.1113E-03  0.0000E+00  0.9600E-01  0.9600E-01
     -7.319  0.0000E+00  0.2435E-01  0.9900E-01  0.9899E-01
     -7.278  0.0000E+00  0.0000E+00  0.1010E+00  0.1010E+00
     -7.238  0.0000E+00  0.2817E-03  0.1050E+00  0.1040E+00
     -7.197  0.0000E+00  0.0000E+00  0.1080E+00  0.1070E+00
     -7.156  0.2458E-01  0.0000E+00  0.1100E+00  0.1090E+00
     -7.116  0.0000E+00  0.0000E+00  0.1120E+00  0.1110E+00
     -7.075  0.0000E+00  0.0000E+00  0.1130E+00  0.1130E+00
     -7.034  0.0000E+00  0.9486E-09  0.1170E+00  0.1160E+00
     -6.993  0.0000E+00  0.0000E+00  0.1180E+00  0.1180E+00
     -6.953  0.0000E+00  0.0000E+00  0.1220E+00  0.1210E+00
     -6.912  0.1074E-09  0.0000E+00  0.1250E+00  0.1240E+00
     -6.871  0.0000E+00  0.0000E+00  0.1270E+00  0.1270E+00
     -6.831  0.0000E+00  0.2458E-01  0.1310E+00  0.1310E+00
     -6.790  0.0000E+00  0.0000E+00  0.1350E+00  0.1340E+00
     -6.749  0.0000E+00  0.0000E+00  0.1390E+00  0.1380E+00
     -6.709  0.2458E-01  0.0000E+00  0.1440E+00  0.1430E+00
     -6.668  0.0000E+00  0.0000E+00  0.1480E+00  0.1480E+00
     -6.627  0.2458E-01  0.0000E+00  0.1530E+00  0.1520E+00
     -6.587  0.1132E-06  0.0000E+00  0.1560E+00  0.1550E+00
     -6.546  0.0000E+00  0.0000E+00  0.1610E+00  0.1600E+00
     -6.505  0.0000E+00  0.0000E+00  0.1650E+00  0.1630E+00
     -6.464  0.0000E+00  0.0000E+00  0.1690E+00  0.1680E+00
     -6.424  0.0000E+00  0.5812E-12  0.1720E+00  0.1710E+00
     -6.383  0.0000E+00  0.0000E+00  0.1750E+00  0.1750E+00
     -6.342  0.0000E+00  0.0000E+00  0.1790E+00  0.1780E+00
     -6.302  0.0000E+00  0.0000E+00  0.1800E+00  0.1800E+00
     -6.261  0.0000E+00  0.0000E+00  0.1840E+00  0.1830E+00
     -6.220  0.0000E+00  0.0000E+00  0.1870E+00  0.1860E+00
     -6.180  0.0000E+00  0.0000E+00  0.1880E+00  0.1870E+00
     -6.139  0.0000E+00  0.0000E+00  0.1890E+00  0.1890E+00
     -6.098  0.0000E+00  0.0000E+00  0.1890E+00  0.1890E+00
     -6.058  0.0000E+00  0.0000E+00  0.1890E+00  0.1890E+00
     -6.017  0.0000E+00  0.0000E+00  0.1890E+00  0.1890E+00
     -5.976  0.0000E+00  0.0000E+00  0.1890E+00  0.1890E+00
     -5.935  0.0000E+00  0.0000E+00  0.1890E+00  0.1890E+00
     -5.895  0.0000E+00  0.0000E+00  0.1890E+00  0.1890E+00
     -5.854  0.0000E+00  0.0000E+00  0.1910E+00  0.1900E+00
     -5.813  0.0000E+00  0.0000E+00  0.1910E+00  0.1910E+00
     -5.773  0.0000E+00  0.0000E+00  0.1910E+00  0.1910E+00
     -5.732  0.0000E+00  0.0000E+00  0.1920E+00  0.1920E+00
     -5.691  0.0000E+00  0.0000E+00  0.1920E+00  0.1920E+00
     -5.651  0.0000E+00  0.0000E+00  0.1920E+00  0.1920E+00
     -5.610  0.0000E+00  0.0000E+00  0.1930E+00  0.1920E+00
     -5.569  0.0000E+00  0.0000E+00  0.1940E+00  0.1930E+00
     -5.529  0.0000E+00  0.0000E+00  0.1940E+00  0.1940E+00
     -5.488  0.0000E+00  0.0000E+00  0.1940E+00  0.1940E+00
     -5.447  0.0000E+00  0.0000E+00  0.1940E+00  0.1940E+00
     -5.407  0.0000E+00  0.0000E+00  0.1940E+00  0.1940E+00
     -5.366  0.0000E+00  0.0000E+00  0.1940E+00  0.1940E+00
     -5.325  0.0000E+00  0.0000E+00  0.1940E+00  0.1940E+00
     -5.284  0.0000E+00  0.0000E+00  0.1940E+00  0.1940E+00
     -5.244  0.0000E+00  0.0000E+00  0.1940E+00  0.1940E+00
     -5.203  0.0000E+00  0.0000E+00  0.1940E+00  0.1940E+00
     -5.162  0.0000E+00  0.0000E+00  0.1940E+00  0.1940E+00
     -5.122  0.0000E+00  0.0000E+00  0.1940E+00  0.1940E+00
     -5.081  0.2458E-01  0.0000E+00  0.1950E+00  0.1940E+00
     -5.040  0.0000E+00  0.0000E+00  0.1950E+00  0.1950E+00
     -5.000  0.0000E+00  0.0000E+00  0.1950E+00  0.1950E+00
     -4.959  0.0000E+00  0.0000E+00  0.1950E+00  0.1950E+00
     -4.918  0.0000E+00  0.0000E+00  0.1950E+00  0.1950E+00
     -4.878  0.0000E+00  0.0000E+00  0.1950E+00  0.1950E+00
     -4.837  0.0000E+00  0.0000E+00  0.1950E+00  0.1950E+00
     -4.796  0.0000E+00  0.0000E+00  0.1950E+00  0.1950E+00
     -4.755  0.0000E+00  0.0000E+00  0.1950E+00  0.1950E+00
     -4.715  0.0000E+00  0.0000E+00  0.1950E+00  0.1950E+00
     -4.674  0.0000E+00  0.0000E+00  0.1950E+00  0.1950E+00
     -4.633  0.0000E+00  0.0000E+00  0.1950E+00  0.1950E+00
     -4.593  0.0000E+00  0.0000E+00  0.1960E+00  0.1960E+00
     -4.552  0.0000E+00  0.0000E+00  0.1960E+00  0.1960E+00
     -4.511  0.0000E+00  0.0000E+00  0.1960E+00  0.1960E+00
     -4.471  0.0000E+00  0.0000E+00  0.1960E+00  0.1960E+00
     -4.430  0.0000E+00  0.0000E+00  0.1970E+00  0.1970E+00
     -4.389  0.0000E+00  0.0000E+00  0.1970E+00  0.1970E+00
     -4.349  0.0000E+00  0.0000E+00  0.1970E+00  0.1970E+00
     -4.308  0.0000E+00  0.0000E+00  0.1970E+00  0.1970E+00
     -4.267  0.0000E+00  0.0000E+00  0.1970E+00  0.1970E+00
     -4.226  0.0000E+00  0.0000E+00  0.1990E+00  0.1980E+00
     -4.186  0.0000E+00  0.0000E+00  0.1990E+00  0.1990E+00
     -4.145  0.0000E+00  0.0000E+00  0.2000E+00  0.2000E+00
     -4.104  0.0000E+00  0.0000E+00  0.2000E+00  0.2000E+00
     -4.064  0.0000E+00  0.0000E+00  0.2000E+00  0.2000E+00
     -4.023  0.0000E+00  0.0000E+00  0.2000E+00  0.2000E+00
     -3.982  0.0000E+00  0.2458E-01  0.2010E+00  0.2010E+00
     -3.942  0.0000E+00  0.0000E+00  0.2020E+00  0.2010E+00
     -3.901  0.0000E+00  0.0000E+00  0.2020E+00  0.2020E+00
     -3.860  0.0000E+00  0.0000E+00  0.2020E+00  0.2020E+00
     -3.820  0.0000E+00  0.0000E+00  0.2020E+00  0.2020E+00
     -3.779  0.0000E+00  0.0000E+00  0.2020E+00  0.2020E+00
     -3.738  0.0000E+00  0.0000E+00  0.2020E+00  0.2020E+00
     -3.697  0.0000E+00  0.0000E+00  0.2020E+00  0.2020E+00
     -3.657  0.0000E+00  0.0000E+00  0.2020E+00  0.2020E+00
     -3.616  0.0000E+00  0.0000E+00  0.2020E+00  0.2020E+00
     -3.575  0.0000E+00  0.0000E+00  0.2020E+00  0.2020E+00
     -3.535  0.0000E+00  0.0000E+00  0.2020E+00  0.2020E+00
     -3.494  0.0000E+00  0.0000E+00  0.2020E+00  0.2020E+00
     -3.453  0.0000E+00  0.0000E+00  0.2030E+00  0.2030E+00
     -3.413  0.0000E+00  0.0000E+00  0.2040E+00  0.2030E+00
     -3.372  0.0000E+00  0.0000E+00  0.2040E+00  0.2030E+00
     -3.331  0.0000E+00  0.2696E-11  0.2040E+00  0.2030E+00
     -3.291  0.0000E+00  0.0000E+00  0.2040E+00  0.2040E+00
     -3.250  0.0000E+00  0.0000E+00  0.2040E+00  0.2040E+00
     -3.209  0.0000E+00  0.0000E+00  0.2040E+00  0.2040E+00
     -3.169  0.0000E+00  0.0000E+00  0.2040E+00  0.2040E+00
     -3.128  0.0000E+00  0.0000E+00  0.2040E+00  0.2040E+00
     -3.087  0.0000E+00  0.0000E+00  0.2040E+00  0.2040E+00
     -3.046  0.0000E+00  0.0000E+00  0.2050E+00  0.2050E+00
     -3.006  0.0000E+00  0.0000E+00  0.2050E+00  0.2050E+00
     -2.965  0.0000E+00  0.0000E+00  0.2050E+00  0.2050E+00
     -2.924  0.0000E+00  0.0000E+00  0.2050E+00  0.2050E+00
     -2.884  0.0000E+00  0.0000E+00  0.2050E+00  0.2050E+00
     -2.843  0.0000E+00  0.0000E+00  0.2050E+00  0.2050E+00
     -2.802  0.0000E+00  0.0000E+00  0.2050E+00  0.2050E+00
     -2.762  0.0000E+00  0.0000E+00  0.2060E+00  0.2050E+00
     -2.721  0.0000E+00  0.0000E+00  0.2060E+00  0.2060E+00
     -2.680  0.0000E+00  0.0000E+00  0.2070E+00  0.2060E+00
     -2.640  0.0000E+00  0.0000E+00  0.2070E+00  0.2070E+00
     -2.599  0.0000E+00  0.0000E+00  0.2070E+00  0.2070E+00
     -2.558  0.0000E+00  0.0000E+00  0.2080E+00  0.2080E+00
     -2.517  0.0000E+00  0.0000E+00  0.2090E+00  0.2080E+00
     -2.477  0.0000E+00  0.0000E+00  0.2090E+00  0.2090E+00
     -2.436  0.0000E+00  0.0000E+00  0.2100E+00  0.2100E+00
     -2.395  0.0000E+00  0.0000E+00  0.2100E+00  0.2100E+00
     -2.355  0.0000E+00  0.0000E+00  0.2110E+00  0.2100E+00
     -2.314  0.0000E+00  0.0000E+00  0.2110E+00  0.2110E+00
     -2.273  0.0000E+00  0.0000E+00  0.2120E+00  0.2120E+00
     -2.233  0.0000E+00  0.0000E+00  0.2120E+00  0.2120E+00
     -2.192  0.0000E+00  0.0000E+00  0.2120E+00  0.2120E+00
     -2.151  0.0000E+00  0.0000E+00  0.2130E+00  0.2120E+00
     -2.111  0.0000E+00  0.0000E+00  0.2140E+00  0.2130E+00
     -2.070  0.0000E+00  0.0000E+00  0.2140E+00  0.2140E+00
     -2.029  0.0000E+00  0.0000E+00  0.2150E+00  0.2140E+00
     -1.988  0.0000E+00  0.2241E-01  0.2150E+00  0.2149E+00
     -1.948  0.0000E+00  0.0000E+00  0.2150E+00  0.2150E+00
     -1.907  0.0000E+00  0.0000E+00  0.2160E+00  0.2160E+00
     -1.866  0.0000E+00  0.0000E+00  0.2160E+00  0.2160E+00
     -1.826  0.0000E+00  0.0000E+00  0.2160E+00  0.2160E+00
     -1.785  0.0000E+00  0.0000E+00  0.2170E+00  0.2160E+00
     -1.744  0.0000E+00  0.0000E+00  0.2170E+00  0.2170E+00
     -1.704  0.0000E+00  0.0000E+00  0.2170E+00  0.2170E+00
     -1.663  0.0000E+00  0.0000E+00  0.2170E+00  0.2170E+00
     -1.622  0.0000E+00  0.0000E+00  0.2180E+00  0.2170E+00
     -1.582  0.0000E+00  0.0000E+00  0.2180E+00  0.2180E+00
     -1.541  0.0000E+00  0.0000E+00  0.2190E+00  0.2180E+00
     -1.500  0.0000E+00  0.0000E+00  0.2190E+00  0.2190E+00
     -1.459  0.0000E+00  0.0000E+00  0.2190E+00  0.2190E+00
     -1.419  0.0000E+00  0.0000E+00  0.2190E+00  0.2190E+00
     -1.378  0.0000E+00  0.0000E+00  0.2190E+00  0.2190E+00
     -1.337  0.0000E+00  0.0000E+00  0.2190E+00  0.2190E+00
     -1.297  0.0000E+00  0.0000E+00  0.2190E+00  0.2190E+00
     -1.256  0.0000E+00  0.0000E+00  0.2190E+00  0.2190E+00
     -1.215  0.0000E+00  0.0000E+00  0.2200E+00  0.2190E+00
     -1.175  0.0000E+00  0.0000E+00  0.2200E+00  0.2200E+00
     -1.134  0.0000E+00  0.0000E+00  0.2200E+00  0.2200E+00
     -1.093  0.0000E+00  0.0000E+00  0.2210E+00  0.2210E+00
     -1.053  0.0000E+00  0.0000E+00  0.2210E+00  0.2210E+00
     -1.012  0.0000E+00  0.0000E+00  0.2210E+00  0.2210E+00
     -0.971  0.0000E+00  0.0000E+00  0.2220E+00  0.2220E+00
     -0.931  0.0000E+00  0.0000E+00  0.2220E+00  0.2220E+00
     -0.890  0.0000E+00  0.0000E+00  0.2230E+00  0.2220E+00
     -0.849  0.0000E+00  0.0000E+00  0.2230E+00  0.2230E+00
     -0.808  0.0000E+00  0.0000E+00  0.2240E+00  0.2240E+00
     -0.768  0.0000E+00  0.0000E+00  0.2250E+00  0.2240E+00
     -0.727  0.0000E+00  0.0000E+00  0.2260E+00  0.2250E+00
     -0.686  0.0000E+00  0.0000E+00  0.2260E+00  0.2260E+00
     -0.646  0.0000E+00  0.0000E+00  0.2260E+00  0.2260E+00
     -0.605  0.0000E+00  0.0000E+00  0.2270E+00  0.2260E+00
     -0.564  0.0000E+00  0.0000E+00  0.2280E+00  0.2270E+00
     -0.524  0.0000E+00  0.0000E+00  0.2280E+00  0.2280E+00
     -0.483  0.0000E+00  0.0000E+00  0.2280E+00  0.2280E+00
     -0.442  0.0000E+00  0.0000E+00  0.2290E+00  0.2280E+00
     -0.402  0.0000E+00  0.0000E+00  0.2300E+00  0.2290E+00
     -0.361  0.0000E+00  0.0000E+00  0.2300E+00  0.2300E+00
     -0.320  0.0000E+00  0.1553E-01  0.2310E+00  0.2306E+00
     -0.279  0.0000E+00  0.0000E+00  0.2320E+00  0.2310E+00
     -0.239  0.0000E+00  0.0000E+00  0.2320E+00  0.2320E+00
     -0.198  0.0000E+00  0.0000E+00  0.2340E+00  0.2330E+00
     -0.157  0.0000E+00  0.0000E+00  0.2340E+00  0.2330E+00
     -0.117  0.0000E+00  0.0000E+00  0.2350E+00  0.2340E+00
     -0.076  0.0000E+00  0.0000E+00  0.2350E+00  0.2350E+00
     -0.035  0.0000E+00  0.0000E+00  0.2360E+00  0.2350E+00
      0.005  0.0000E+00  0.0000E+00  0.2360E+00  0.2360E+00
      0.046  0.0000E+00  0.0000E+00  0.2360E+00  0.2360E+00
      0.087  0.0000E+00  0.0000E+00  0.2360E+00  0.2360E+00
      0.127  0.0000E+00  0.0000E+00  0.2360E+00  0.2360E+00
      0.168  0.0000E+00  0.0000E+00  0.2360E+00  0.2360E+00
      0.209  0.0000E+00  0.0000E+00  0.2360E+00  0.2360E+00
      0.250  0.0000E+00  0.0000E+00  0.2360E+00  0.2360E+00
      0.290  0.0000E+00  0.0000E+00  0.2370E+00  0.2360E+00
      0.331  0.0000E+00  0.0000E+00  0.2370E+00  0.2370E+00
      0.372  0.0000E+00  0.0000E+00  0.2370E+00  0.2370E+00
      0.412  0.0000E+00  0.0000E+00  0.2370E+00  0.2370E+00
      0.453  0.0000E+00  0.2458E-01  0.2380E+00  0.2380E+00
      0.494  0.0000E+00  0.0000E+00  0.2390E+00  0.2390E+00
      0.534  0.0000E+00  0.0000E+00  0.2400E+00  0.2390E+00
      0.575  0.0000E+00  0.0000E+00  0.2410E+00  0.2400E+00
      0.616  0.0000E+00  0.0000E+00  0.2410E+00  0.2410E+00
      0.656  0.0000E+00  0.0000E+00  0.2420E+00  0.2410E+00
      0.697  0.0000E+00  0.0000E+00  0.2430E+00  0.2420E+00
      0.738  0.0000E+00  0.0000E+00  0.2440E+00  0.2430E+00
      0.778  0.0000E+00  0.0000E+00  0.2460E+00  0.2450E+00
      0.819  0.0000E+00  0.0000E+00  0.2460E+00  0.2460E+00
      0.860  0.0000E+00  0.0000E+00  0.2480E+00  0.2470E+00
      0.901  0.0000E+00  0.0000E+00  0.2480E+00  0.2480E+00
      0.941  0.0000E+00  0.0000E+00  0.2490E+00  0.2480E+00
      0.982  0.0000E+00  0.0000E+00  0.2510E+00  0.2500E+00
      1.023  0.0000E+00  0.0000E+00  0.2520E+00  0.2520E+00
      1.063  0.0000E+00  0.1610E-15  0.2540E+00  0.2520E+00
      1.104  0.0000E+00  0.0000E+00  0.2560E+00  0.2560E+00
      1.145  0.0000E+00  0.0000E+00  0.2580E+00  0.2570E+00
      1.185  0.0000E+00  0.0000E+00  0.2600E+00  0.2590E+00
      1.226  0.0000E+00  0.0000E+00  0.2610E+00  0.2600E+00
      1.267  0.0000E+00  0.0000E+00  0.2620E+00  0.2620E+00
      1.307  0.0000E+00  0.0000E+00  0.2640E+00  0.2630E+00
      1.348  0.0000E+00  0.0000E+00  0.2640E+00  0.2640E+00
      1.389  0.0000E+00  0.0000E+00  0.2640E+00  0.2640E+00
      1.430  0.0000E+00  0.0000E+00  0.2640E+00  0.2640E+00
      1.470  0.0000E+00  0.0000E+00  0.2640E+00  0.2640E+00
      1.511  0.0000E+00  0.0000E+00  0.2640E+00  0.2640E+00
      1.552  0.0000E+00  0.0000E+00  0.2640E+00  0.2640E+00
      1.592  0.0000E+00  0.0000E+00  0.2640E+00  0.2640E+00
      1.633  0.0000E+00  0.0000E+00  0.2640E+00  0.2640E+00
      1.674  0.0000E+00  0.0000E+00  0.2640E+00  0.2640E+00
      1.714  0.0000E+00  0.0000E+00  0.2640E+00  0.2640E+00
      1.755  0.0000E+00  0.0000E+00  0.2640E+00  0.2640E+00
      1.796  0.0000E+00  0.0000E+00  0.2640E+00  0.2640E+00
      1.836  0.0000E+00  0.0000E+00  0.2640E+00  0.2640E+00
      1.877  0.0000E+00  0.0000E+00  0.2640E+00  0.2640E+00
