unknown system                          
           1
    22.866867    0.000000    0.000000
     0.000000   22.866867    0.000000
     0.000000    0.000000   22.866867
   Ag
  48
Direct configuration=     1
   0.59719148  0.51750404  0.73613102
   0.61605065  0.42446451  0.66965751
   0.50158072  0.45705665  0.69874469
   0.62840939  0.33266856  0.59576313
   0.49220383  0.57587647  0.72113848
   0.51635399  0.35087013  0.64044365
   0.40649984  0.39327101  0.67109623
   0.61025449  0.61875394  0.67932339
   0.69639684  0.43087401  0.57876177
   0.53264653  0.56575052  0.60951906
   0.39338670  0.51197824  0.67995670
   0.74686553  0.53318650  0.55571916
   0.58291445  0.46556509  0.56323172
   0.39459966  0.62947460  0.67894216
   0.68645739  0.62751849  0.58781474
   0.46608372  0.47324925  0.57703411
   0.53747056  0.34719455  0.52227039
   0.50201211  0.67523264  0.64859710
   0.42320149  0.35970681  0.55889142
   0.60667158  0.57602578  0.51987015
   0.64862793  0.36658775  0.48073530
   0.60785873  0.71584676  0.60859950
   0.40976049  0.66666108  0.56878808
   0.45272970  0.49172598  0.46297908
   0.70741898  0.59863673  0.46102429
   0.33300976  0.57370457  0.59181870
   0.48912746  0.59582435  0.50174538
   0.69549404  0.47788061  0.46482259
   0.34658824  0.45310660  0.58433571
   0.51626369  0.71537355  0.53262272
   0.65488839  0.41837615  0.37086172
   0.44753304  0.33345496  0.44552006
   0.42483871  0.70366927  0.45586477
   0.55132081  0.37518623  0.40570745
   0.53498879  0.67943928  0.41666117
   0.36426247  0.60236427  0.47726657
   0.56765876  0.48889399  0.44877808
   0.63011049  0.68986213  0.49296771
   0.64221452  0.65464223  0.37795043
   0.29600419  0.51066720  0.49385093
   0.44252661  0.60854092  0.38496478
   0.65100956  0.53793646  0.36755134
   0.36258893  0.41504423  0.46602422
   0.44408318  0.42309916  0.36717559
   0.55425348  0.47345630  0.32937434
   0.54949898  0.59567417  0.32766392
   0.36006730  0.51524635  0.38872002
   0.45060339  0.52545848  0.30530058
Direct configuration=     2
   0.59726531  0.51757786  0.73630224
   0.61606507  0.42434405  0.66981319
   0.50164587  0.45709156  0.69870355
   0.62851128  0.33254176  0.59581368
   0.49222945  0.57596075  0.72130472
   0.51637230  0.35086398  0.64050316
   0.40640642  0.39316901  0.67119574
   0.61027517  0.61891884  0.67950763
   0.69655425  0.43075797  0.57875006
   0.53254942  0.56560364  0.60964837
   0.39337748  0.51199640  0.67999954
   0.74704648  0.53325096  0.55576520
   0.58295535  0.46537752  0.56321060
   0.39444417  0.62956355  0.67908682
   0.68664283  0.62771680  0.58781983
   0.46596547  0.47319420  0.57723115
   0.53743663  0.34718129  0.52225092
   0.50202575  0.67538283  0.64868592
   0.42309852  0.35961580  0.55883186
   0.60674482  0.57590462  0.51973786
   0.64867851  0.36659516  0.48075446
   0.60795284  0.71595678  0.60867170
   0.40970720  0.66671973  0.56881920
   0.45264851  0.49176862  0.46295459
   0.70759369  0.59873540  0.46102268
   0.33291846  0.57375211  0.59184172
   0.48910186  0.59592416  0.50169763
   0.69545043  0.47788958  0.46489845
   0.34646268  0.45300938  0.58430348
   0.51629301  0.71541045  0.53265346
   0.65498989  0.41832603  0.37072303
   0.44742064  0.33329989  0.44543197
   0.42477022  0.70376806  0.45583430
   0.55122979  0.37512173  0.40561453
   0.53498828  0.67948832  0.41662992
   0.36425723  0.60235754  0.47726237
   0.56781583  0.48889425  0.44864168
   0.63022398  0.69003071  0.49296990
   0.64234824  0.65473828  0.37781173
   0.29577900  0.51060639  0.49379455
   0.44251842  0.60852747  0.38496659
   0.65108033  0.53797890  0.36751623
   0.36246348  0.41494799  0.46604055
   0.44408858  0.42303608  0.36701077
   0.55420846  0.47335287  0.32927211
   0.54949432  0.59571458  0.32757505
   0.35996823  0.51520699  0.38863536
   0.45051743  0.52541071  0.30507151
Direct configuration=     3
   0.59748678  0.51779934  0.73681591
   0.61610834  0.42398269  0.67028025
   0.50184135  0.45719627  0.69858015
   0.62881693  0.33216139  0.59596534
   0.49230633  0.57621357  0.72180344
   0.51642723  0.35084554  0.64068169
   0.40612616  0.39286299  0.67149429
   0.61033719  0.61941354  0.68006034
   0.69702649  0.43040987  0.57871496
   0.53225809  0.56516302  0.61003632
   0.39334981  0.51205086  0.68012805
   0.74758934  0.53344433  0.55590330
   0.58307804  0.46481481  0.56314725
   0.39397772  0.62983040  0.67952078
   0.68719914  0.62831174  0.58783509
   0.46561073  0.47302906  0.57782228
   0.53733482  0.34714150  0.52219250
   0.50206670  0.67583339  0.64895238
   0.42278963  0.35934278  0.55865320
   0.60696451  0.57554111  0.51934098
   0.64883023  0.36661741  0.48081193
   0.60823516  0.71628686  0.60888833
   0.40954733  0.66689569  0.56891256
   0.45240494  0.49189655  0.46288114
   0.70811783  0.59903142  0.46101784
   0.33264458  0.57389474  0.59191081
   0.48902503  0.59622360  0.50155439
   0.69531962  0.47791647  0.46512602
   0.34608599  0.45271771  0.58420677
   0.51638096  0.71552114  0.53274567
   0.65529440  0.41817566  0.37030697
   0.44708343  0.33283469  0.44516770
   0.42456474  0.70406443  0.45574291
   0.55095675  0.37492824  0.40533575
   0.53498672  0.67963544  0.41653616
   0.36424149  0.60233736  0.47724977
   0.56828702  0.48889504  0.44823248
   0.63056443  0.69053644  0.49297646
   0.64274940  0.65502642  0.37739564
   0.29510344  0.51042395  0.49362539
   0.44249384  0.60848711  0.38497205
   0.65129264  0.53810623  0.36741091
   0.36208713  0.41465927  0.46608957
   0.44410479  0.42284687  0.36651630
   0.55407341  0.47304258  0.32896545
   0.54948033  0.59583581  0.32730844
   0.35967105  0.51508891  0.38838139
   0.45025956  0.52526737  0.30438430
Direct configuration=     4
   0.59792972  0.51824230  0.73784326
   0.61619489  0.42325996  0.67121437
   0.50223230  0.45740570  0.69833334
   0.62942824  0.33140063  0.59626865
   0.49246007  0.57671922  0.72280087
   0.51653708  0.35080865  0.64103876
   0.40556563  0.39225095  0.67209137
   0.61046124  0.62040293  0.68116577
   0.69797097  0.42971365  0.57864476
   0.53167544  0.56428179  0.61081222
   0.39329448  0.51215979  0.68038506
   0.74867506  0.53383106  0.55617951
   0.58332342  0.46368938  0.56302055
   0.39304482  0.63036409  0.68038872
   0.68831177  0.62950161  0.58786562
   0.46490123  0.47269877  0.57900453
   0.53713122  0.34706191  0.52207565
   0.50214858  0.67673452  0.64948528
   0.42217184  0.35879674  0.55829587
   0.60740391  0.57481410  0.51854724
   0.64913367  0.36666189  0.48092689
   0.60879982  0.71694703  0.60932158
   0.40922758  0.66724762  0.56909927
   0.45191781  0.49215240  0.46273424
   0.70916610  0.59962345  0.46100816
   0.33209682  0.57417999  0.59204898
   0.48887139  0.59682247  0.50126791
   0.69505799  0.47797025  0.46558116
   0.34533260  0.45213438  0.58401336
   0.51655685  0.71574254  0.53293008
   0.65590342  0.41787492  0.36947484
   0.44640901  0.33190428  0.44463916
   0.42415378  0.70465718  0.45556012
   0.55041068  0.37454126  0.40477821
   0.53498361  0.67992968  0.41634863
   0.36421001  0.60229698  0.47722457
   0.56922942  0.48889662  0.44741408
   0.63124535  0.69154789  0.49298957
   0.64355173  0.65560270  0.37656346
   0.29375232  0.51005907  0.49328708
   0.44244470  0.60840638  0.38498295
   0.65171725  0.53836090  0.36720026
   0.36133442  0.41408182  0.46618761
   0.44413722  0.42246844  0.36552735
   0.55380331  0.47242199  0.32835213
   0.54945235  0.59607826  0.32677522
   0.35907668  0.51485276  0.38787344
   0.44974380  0.52498071  0.30300988
Direct configuration=     5
   0.59881560  0.51912822  0.73989794
   0.61636797  0.42181451  0.67308262
   0.50301420  0.45782456  0.69783973
   0.63065086  0.32987912  0.59687526
   0.49276757  0.57773052  0.72479574
   0.51675678  0.35073489  0.64175290
   0.40444458  0.39102687  0.67328555
   0.61070933  0.62238172  0.68337662
   0.69985991  0.42832121  0.57850435
   0.53051014  0.56251931  0.61236401
   0.39318381  0.51237765  0.68089909
   0.75084650  0.53460452  0.55673192
   0.58381419  0.46143852  0.56276715
   0.39117903  0.63143148  0.68212459
   0.69053702  0.63188136  0.58792667
   0.46348225  0.47203819  0.58136904
   0.53672400  0.34690274  0.52184196
   0.50231235  0.67853676  0.65055110
   0.42093625  0.35770466  0.55758120
   0.60828269  0.57336008  0.51695975
   0.64974055  0.36675086  0.48115679
   0.60992913  0.71826735  0.61018809
   0.40858809  0.66795146  0.56947270
   0.45094354  0.49266410  0.46244043
   0.71126265  0.60080752  0.46098881
   0.33100131  0.57475049  0.59232531
   0.48856409  0.59802021  0.50069495
   0.69453474  0.47807782  0.46649144
   0.34382584  0.45096770  0.58362654
   0.51690865  0.71618532  0.53329890
   0.65712146  0.41727344  0.36781059
   0.44506016  0.33004347  0.44358209
   0.42333186  0.70584267  0.45519453
   0.54931852  0.37376729  0.40366312
   0.53497740  0.68051816  0.41597359
   0.36414704  0.60221623  0.47717417
   0.57111420  0.48889978  0.44577728
   0.63260718  0.69357080  0.49301580
   0.64515640  0.65675527  0.37489909
   0.29105007  0.50932931  0.49261046
   0.44234641  0.60824494  0.38500476
   0.65256646  0.53887022  0.36677898
   0.35982902  0.41292692  0.46638369
   0.44420207  0.42171158  0.36354945
   0.55326310  0.47118081  0.32712547
   0.54939640  0.59656317  0.32570878
   0.35788793  0.51438045  0.38685756
   0.44871230  0.52440738  0.30026104
Direct configuration=     6
   0.59913571  0.51944834  0.74064039
   0.61643051  0.42129220  0.67375769
   0.50329673  0.45797591  0.69766136
   0.63109265  0.32932933  0.59709446
   0.49287868  0.57809595  0.72551657
   0.51683616  0.35070823  0.64201095
   0.40403949  0.39058456  0.67371706
   0.61079898  0.62309674  0.68417551
   0.70054247  0.42781806  0.57845361
   0.53008907  0.56188245  0.61292474
   0.39314382  0.51245637  0.68108484
   0.75163113  0.53488401  0.55693153
   0.58399153  0.46062518  0.56267559
   0.39050483  0.63181717  0.68275184
   0.69134110  0.63274127  0.58794873
   0.46296951  0.47179950  0.58222344
   0.53657686  0.34684523  0.52175751
   0.50237153  0.67918799  0.65093623
   0.42048978  0.35731004  0.55732297
   0.60860024  0.57283467  0.51638611
   0.64995985  0.36678301  0.48123987
   0.61033720  0.71874445  0.61050119
   0.40835702  0.66820580  0.56960763
   0.45059149  0.49284900  0.46233426
   0.71202022  0.60123538  0.46098182
   0.33060545  0.57495664  0.59242516
   0.48845305  0.59845301  0.50048792
   0.69434566  0.47811669  0.46682036
   0.34328138  0.45054613  0.58348677
   0.51703577  0.71634532  0.53343218
   0.65756159  0.41705610  0.36720923
   0.44457277  0.32937107  0.44320012
   0.42303486  0.70627104  0.45506243
   0.54892387  0.37348762  0.40326018
   0.53497515  0.68073080  0.41583806
   0.36412429  0.60218706  0.47715595
   0.57179525  0.48890092  0.44518584
   0.63309927  0.69430177  0.49302527
   0.64573623  0.65717175  0.37429768
   0.29007363  0.50906562  0.49236597
   0.44231089  0.60818660  0.38501264
   0.65287332  0.53905426  0.36662674
   0.35928504  0.41250960  0.46645454
   0.44422550  0.42143809  0.36283475
   0.55306790  0.47073231  0.32668223
   0.54937618  0.59673838  0.32532343
   0.35745838  0.51420978  0.38649047
   0.44833957  0.52420021  0.29926776
Direct configuration=     7
   0.59932034  0.51956612  0.74112713
   0.61685297  0.42099610  0.67432331
   0.50339517  0.45846198  0.69766876
   0.63110752  0.32916693  0.59714359
   0.49272281  0.57876107  0.72589876
   0.51680336  0.35075439  0.64184556
   0.40400347  0.39055884  0.67369505
   0.61045960  0.62359979  0.68438443
   0.70115637  0.42756678  0.57869504
   0.53082884  0.56208385  0.61311684
   0.39318223  0.51262872  0.68103104
   0.75209945  0.53496706  0.55700797
   0.58381982  0.45979443  0.56254175
   0.39047263  0.63214512  0.68304876
   0.69140525  0.63319138  0.58750269
   0.46238129  0.47083435  0.58203717
   0.53645747  0.34672314  0.52167800
   0.50220187  0.67913333  0.65138434
   0.42023656  0.35704334  0.55751416
   0.60918941  0.57335832  0.51707019
   0.64969305  0.36689062  0.48107812
   0.61055479  0.71919092  0.61065755
   0.40828330  0.66832810  0.57010806
   0.45075678  0.49270880  0.46255163
   0.71236611  0.60178014  0.46103034
   0.33031783  0.57488611  0.59236716
   0.48884771  0.59867069  0.50084820
   0.69415641  0.47870437  0.46711611
   0.34269625  0.45036388  0.58353484
   0.51733359  0.71639857  0.53357768
   0.65746226  0.41697715  0.36730655
   0.44416698  0.32905321  0.44273251
   0.42309228  0.70652495  0.45517239
   0.54899862  0.37334534  0.40298198
   0.53565133  0.68079861  0.41559296
   0.36374951  0.60145734  0.47737771
   0.57135641  0.48802423  0.44451153
   0.63343149  0.69438341  0.49282562
   0.64582459  0.65757513  0.37427536
   0.28956695  0.50918368  0.49214530
   0.44246083  0.60744864  0.38447198
   0.65311516  0.53930178  0.36647226
   0.35894030  0.41239753  0.46612056
   0.44387636  0.42131696  0.36271695
   0.55304326  0.47057977  0.32607598
   0.54937248  0.59672539  0.32510249
   0.35737017  0.51385669  0.38634115
   0.44800038  0.52437452  0.29877408
Direct configuration=     8
   0.59982049  0.51988518  0.74244567
   0.61799737  0.42019399  0.67585550
   0.50366184  0.45977870  0.69768880
   0.63114779  0.32872700  0.59727668
   0.49230055  0.58056284  0.72693408
   0.51671452  0.35087942  0.64139753
   0.40390590  0.39048915  0.67363543
   0.60954025  0.62496251  0.68495040
   0.70281934  0.42688607  0.57934904
   0.53283282  0.56262941  0.61363720
   0.39328627  0.51309559  0.68088533
   0.75336809  0.53519205  0.55721502
   0.58335467  0.45754401  0.56217920
   0.39038538  0.63303349  0.68385309
   0.69157903  0.63441070  0.58629441
   0.46078788  0.46821987  0.58153258
   0.53613405  0.34639240  0.52146260
   0.50174228  0.67898526  0.65259824
   0.41955060  0.35632088  0.55803208
   0.61078543  0.57477683  0.51892327
   0.64897031  0.36718211  0.48063994
   0.61114425  0.72040037  0.61108109
   0.40808360  0.66865942  0.57146365
   0.45120453  0.49232902  0.46314045
   0.71330309  0.60325586  0.46116178
   0.32953870  0.57469506  0.59221004
   0.48991678  0.59926037  0.50182417
   0.69364376  0.48029636  0.46791726
   0.34111119  0.44987018  0.58366508
   0.51814035  0.71654282  0.53397184
   0.65719318  0.41676327  0.36757019
   0.44306773  0.32819214  0.44146580
   0.42324782  0.70721279  0.45547026
   0.54920110  0.37295991  0.40222837
   0.53748301  0.68098231  0.41492900
   0.36273427  0.59948061  0.47797844
   0.57016762  0.48564938  0.44268491
   0.63433144  0.69460457  0.49228478
   0.64606395  0.65866787  0.37421490
   0.28819442  0.50950351  0.49154754
   0.44286699  0.60544959  0.38300740
   0.65377026  0.53997230  0.36605379
   0.35800641  0.41209395  0.46521584
   0.44293058  0.42098883  0.36239783
   0.55297651  0.47016654  0.32443369
   0.54936247  0.59669018  0.32450398
   0.35713119  0.51290021  0.38593664
   0.44708155  0.52484673  0.29743674
Direct configuration=     9
   0.59970055  0.51980867  0.74212948
   0.61772293  0.42038634  0.67548807
   0.50359789  0.45946294  0.69768399
   0.63113814  0.32883250  0.59724476
   0.49240181  0.58013076  0.72668580
   0.51673582  0.35084943  0.64150497
   0.40392930  0.39050586  0.67364973
   0.60976072  0.62463572  0.68481468
   0.70242055  0.42704931  0.57919221
   0.53235225  0.56249858  0.61351241
   0.39326132  0.51298363  0.68092027
   0.75306386  0.53513809  0.55716537
   0.58346622  0.45808368  0.56226615
   0.39040630  0.63282045  0.68366020
   0.69153736  0.63411830  0.58658416
   0.46117000  0.46884684  0.58165358
   0.53621161  0.34647172  0.52151426
   0.50185250  0.67902076  0.65230714
   0.41971510  0.35649413  0.55790788
   0.61040269  0.57443666  0.51847889
   0.64914363  0.36711221  0.48074502
   0.61100289  0.72011033  0.61097952
   0.40813149  0.66857996  0.57113857
   0.45109715  0.49242010  0.46299924
   0.71307839  0.60290197  0.46113026
   0.32972555  0.57474088  0.59224772
   0.48966041  0.59911896  0.50159012
   0.69376670  0.47991459  0.46772514
   0.34149130  0.44998857  0.58363385
   0.51794688  0.71650823  0.53387732
   0.65725771  0.41681456  0.36750697
   0.44333134  0.32839863  0.44176956
   0.42321052  0.70704784  0.45539883
   0.54915254  0.37305234  0.40240910
   0.53704376  0.68093826  0.41508823
   0.36297773  0.59995465  0.47783438
   0.57045270  0.48621889  0.44312295
   0.63411562  0.69455153  0.49241448
   0.64600655  0.65840582  0.37422940
   0.28852357  0.50942681  0.49169089
   0.44276959  0.60592898  0.38335862
   0.65361316  0.53981151  0.36615415
   0.35823037  0.41216675  0.46543280
   0.44315738  0.42106752  0.36247436
   0.55299251  0.47026564  0.32482753
   0.54936487  0.59669862  0.32464751
   0.35718850  0.51312958  0.38603365
   0.44730189  0.52473349  0.29775745
Direct configuration=    10
   0.59968578  0.52004504  0.74235111
   0.61831342  0.42029374  0.67597976
   0.50383645  0.46025393  0.69743536
   0.63098716  0.32896942  0.59714056
   0.49233535  0.58077078  0.72694101
   0.51669629  0.35129507  0.64121364
   0.40410871  0.39088638  0.67348727
   0.60941902  0.62518229  0.68502978
   0.70285553  0.42688142  0.57945176
   0.53302490  0.56185306  0.61342282
   0.39343601  0.51336084  0.68054906
   0.75334843  0.53527152  0.55722432
   0.58315598  0.45730812  0.56203194
   0.39032289  0.63303201  0.68407093
   0.69165245  0.63467690  0.58624106
   0.46139945  0.46827464  0.58160180
   0.53571174  0.34620911  0.52110739
   0.50178885  0.67898577  0.65265123
   0.41924586  0.35589327  0.55765138
   0.61051606  0.57388249  0.51904645
   0.64862493  0.36758393  0.48072731
   0.61110360  0.72065147  0.61109242
   0.40815717  0.66853439  0.57122815
   0.45126762  0.49227285  0.46335252
   0.71342981  0.60357484  0.46112741
   0.32946316  0.57459262  0.59242408
   0.49010071  0.59927260  0.50188296
   0.69311045  0.48081076  0.46817005
   0.34060534  0.44983420  0.58361364
   0.51833494  0.71639177  0.53402949
   0.65696134  0.41714520  0.36794675
   0.44296962  0.32821266  0.44145486
   0.42384714  0.70616766  0.45573414
   0.54882484  0.37248452  0.40197252
   0.53703091  0.68077150  0.41504235
   0.36360933  0.59946656  0.47791116
   0.57038497  0.48599566  0.44339798
   0.63439819  0.69474918  0.49227006
   0.64633951  0.65866532  0.37415169
   0.28787320  0.50922170  0.49151422
   0.44304696  0.60538119  0.38380829
   0.65366484  0.54010186  0.36618241
   0.35804019  0.41223073  0.46509289
   0.44277736  0.42122342  0.36255896
   0.55282992  0.47027147  0.32383642
   0.54959929  0.59652861  0.32435532
   0.35729132  0.51255214  0.38601230
   0.44705457  0.52456700  0.29706261
Direct configuration=    11
   0.59964210  0.52074446  0.74300694
   0.62006069  0.42001973  0.67743467
   0.50454238  0.46259447  0.69669964
   0.63054043  0.32937458  0.59683224
   0.49213869  0.58266462  0.72769615
   0.51657933  0.35261373  0.64035160
   0.40463959  0.39201233  0.67300655
   0.60840793  0.62679961  0.68566628
   0.70414266  0.42638465  0.58021976
   0.53501528  0.55994298  0.61315770
   0.39395293  0.51447699  0.67945063
   0.75419049  0.53566633  0.55739876
   0.58223800  0.45501322  0.56133893
   0.39007606  0.63365801  0.68528629
   0.69199303  0.63632980  0.58522583
   0.46207839  0.46658147  0.58144856
   0.53423261  0.34543204  0.51990345
   0.50160050  0.67888223  0.65366938
   0.41785737  0.35411533  0.55689239
   0.61085151  0.57224268  0.52072590
   0.64709012  0.36897975  0.48067490
   0.61140162  0.72225270  0.61142648
   0.40823317  0.66839954  0.57149322
   0.45177205  0.49183714  0.46439789
   0.71446964  0.60556587  0.46111899
   0.32868677  0.57415394  0.59294593
   0.49140355  0.59972721  0.50274945
   0.69116859  0.48346256  0.46948657
   0.33798378  0.44937740  0.58355383
   0.51948323  0.71604714  0.53447978
   0.65608438  0.41812357  0.36924807
   0.44189927  0.32766236  0.44052364
   0.42573090  0.70356320  0.45672632
   0.54785516  0.37080433  0.40068068
   0.53699291  0.68027806  0.41490662
   0.36547825  0.59802230  0.47813835
   0.57018457  0.48533512  0.44421179
   0.63523431  0.69533402  0.49184273
   0.64732475  0.65943318  0.37392174
   0.28594876  0.50861476  0.49099147
   0.44386771  0.60376027  0.38513887
   0.65381776  0.54096100  0.36626604
   0.35747744  0.41242004  0.46408709
   0.44165288  0.42168474  0.36280929
   0.55234879  0.47028873  0.32090372
   0.55029295  0.59602555  0.32349075
   0.35759557  0.51084350  0.38594914
   0.44632275  0.52407435  0.29500659
Direct configuration=    12
   0.59960820  0.52126399  0.74292145
   0.62042497  0.42022987  0.67760506
   0.50509297  0.46338939  0.69628120
   0.63019283  0.32992571  0.59656311
   0.49242172  0.58296035  0.72772089
   0.51663094  0.35376970  0.63992892
   0.40489468  0.39275827  0.67246899
   0.60831055  0.62731811  0.68578320
   0.70422354  0.42643260  0.58025763
   0.53522227  0.55882581  0.61389023
   0.39435419  0.51485273  0.67869344
   0.75415493  0.53601859  0.55752881
   0.58234999  0.45376624  0.56155627
   0.38973935  0.63402240  0.68551854
   0.69211471  0.63691049  0.58513020
   0.46205379  0.46592650  0.58164621
   0.53345798  0.34500394  0.51932429
   0.50167412  0.67913655  0.65339887
   0.41689844  0.35371848  0.55648477
   0.61154580  0.57144043  0.52073591
   0.64635696  0.36984494  0.48102661
   0.61149664  0.72273693  0.61154600
   0.40831144  0.66798063  0.57185018
   0.45175824  0.49192679  0.46476918
   0.71457434  0.60617947  0.46134798
   0.32844899  0.57416796  0.59299252
   0.49193446  0.59937367  0.50307536
   0.69038444  0.48427132  0.47024943
   0.33758425  0.44910378  0.58342154
   0.51999320  0.71586371  0.53484387
   0.65533497  0.41905909  0.36963530
   0.44142294  0.32743494  0.44024700
   0.42638835  0.70223025  0.45709478
   0.54721236  0.37044167  0.39982198
   0.53731270  0.67978647  0.41471793
   0.36622561  0.59680111  0.47866794
   0.57014118  0.48520249  0.44383707
   0.63519461  0.69563137  0.49186632
   0.64750094  0.65972072  0.37372240
   0.28562396  0.50859407  0.49079956
   0.44466954  0.60243363  0.38548901
   0.65347992  0.54112955  0.36650694
   0.35737837  0.41246933  0.46418436
   0.44171491  0.42196793  0.36284592
   0.55227812  0.47017198  0.32072245
   0.55059432  0.59587325  0.32330008
   0.35772814  0.51054105  0.38603087
   0.44617171  0.52397330  0.29453099
Direct configuration=    13
   0.59950649  0.52282260  0.74266497
   0.62151783  0.42086032  0.67811625
   0.50674474  0.46577414  0.69502587
   0.62915002  0.33157910  0.59575574
   0.49327082  0.58384753  0.72779512
   0.51678579  0.35723760  0.63866087
   0.40565993  0.39499611  0.67085630
   0.60801842  0.62887359  0.68613397
   0.70446621  0.42657644  0.58037125
   0.53584322  0.55547433  0.61608783
   0.39555797  0.51597995  0.67642188
   0.75404825  0.53707538  0.55791897
   0.58268598  0.45002530  0.56220828
   0.38872922  0.63511558  0.68621529
   0.69247974  0.63865254  0.58484333
   0.46198000  0.46396161  0.58223917
   0.53113408  0.34371963  0.51758680
   0.50189496  0.67989951  0.65258732
   0.41402163  0.35252793  0.55526192
   0.61362865  0.56903369  0.52076596
   0.64415747  0.37244054  0.48208174
   0.61178170  0.72418963  0.61190456
   0.40854626  0.66672392  0.57292107
   0.45171683  0.49219574  0.46588305
   0.71488843  0.60802030  0.46203497
   0.32773567  0.57421004  0.59313227
   0.49352720  0.59831305  0.50405307
   0.68803201  0.48669759  0.47253800
   0.33638567  0.44828294  0.58302469
   0.52152312  0.71531341  0.53593614
   0.65308675  0.42186564  0.37079697
   0.43999396  0.32675266  0.43941707
   0.42836068  0.69823140  0.45820018
   0.54528394  0.36935371  0.39724587
   0.53827207  0.67831168  0.41415183
   0.36846768  0.59313752  0.48025670
   0.57001101  0.48480462  0.44271291
   0.63507549  0.69652344  0.49193711
   0.64802952  0.66058334  0.37312438
   0.28464956  0.50853201  0.49022384
   0.44707502  0.59845370  0.38653942
   0.65246639  0.54163519  0.36722963
   0.35708115  0.41261717  0.46447619
   0.44190102  0.42281749  0.36295579
   0.55206613  0.46982176  0.32017864
   0.55149844  0.59541634  0.32272810
   0.35812585  0.50963373  0.38627606
   0.44571862  0.52367016  0.29310421
Direct configuration=    14
   0.59970464  0.52356385  0.74257625
   0.62181136  0.42140879  0.67817510
   0.50716556  0.46590250  0.69535813
   0.62868784  0.33186300  0.59553823
   0.49326382  0.58426925  0.72767186
   0.51688993  0.35852274  0.63790324
   0.40567108  0.39550653  0.67017949
   0.60819554  0.62921617  0.68574682
   0.70446427  0.42692097  0.58048047
   0.53669854  0.55469723  0.61649120
   0.39631238  0.51670134  0.67566009
   0.75376420  0.53778571  0.55803708
   0.58269244  0.44927677  0.56255564
   0.38848813  0.63560899  0.68642873
   0.69230998  0.63908128  0.58503138
   0.46166701  0.46325475  0.58189011
   0.53021454  0.34309382  0.51692912
   0.50191429  0.68035510  0.65217057
   0.41284041  0.35240954  0.55518057
   0.61399960  0.56850413  0.52162733
   0.64323136  0.37330198  0.48202392
   0.61180952  0.72499412  0.61197999
   0.40866063  0.66596214  0.57358664
   0.45168287  0.49192201  0.46627541
   0.71479599  0.60841876  0.46230797
   0.32723447  0.57423048  0.59312191
   0.49459830  0.59754802  0.50472631
   0.68811367  0.48696871  0.47299507
   0.33633867  0.44831718  0.58268736
   0.52183698  0.71533319  0.53625988
   0.65220407  0.42249311  0.37092470
   0.43925745  0.32649527  0.43881064
   0.42924795  0.69624071  0.45867029
   0.54495901  0.36914066  0.39643139
   0.53906105  0.67760651  0.41394311
   0.36921260  0.59146030  0.48100113
   0.56928811  0.48459049  0.44233352
   0.63482827  0.69697468  0.49197142
   0.64821700  0.66117224  0.37285000
   0.28450534  0.50849038  0.49027614
   0.44822618  0.59667740  0.38679872
   0.65223693  0.54222096  0.36770013
   0.35691460  0.41262667  0.46474183
   0.44217149  0.42308297  0.36290282
   0.55176826  0.46987218  0.32034057
   0.55171310  0.59529801  0.32243967
   0.35788442  0.50966812  0.38616158
   0.44582773  0.52353190  0.29268805
Direct configuration=    15
   0.60012704  0.52514396  0.74238714
   0.62243707  0.42257796  0.67830054
   0.50806263  0.46617611  0.69606640
   0.62770260  0.33246818  0.59507457
   0.49324890  0.58516822  0.72740911
   0.51711192  0.36126226  0.63628819
   0.40569484  0.39659461  0.66873672
   0.60857313  0.62994643  0.68492153
   0.70446013  0.42765541  0.58071330
   0.53852183  0.55304068  0.61735106
   0.39792054  0.51823914  0.67403618
   0.75315870  0.53929991  0.55828886
   0.58270621  0.44768112  0.56329611
   0.38797422  0.63666079  0.68688372
   0.69194808  0.63999522  0.58543223
   0.46099982  0.46174794  0.58114600
   0.52825437  0.34175978  0.51552715
   0.50195551  0.68132628  0.65128218
   0.41032241  0.35215716  0.55500716
   0.61479036  0.56737525  0.52346353
   0.64125717  0.37513833  0.48190066
   0.61186881  0.72670906  0.61214077
   0.40890443  0.66433824  0.57500544
   0.45161048  0.49133850  0.46711181
   0.71459894  0.60926817  0.46288990
   0.32616607  0.57427405  0.59309982
   0.49688155  0.59591720  0.50616145
   0.68828774  0.48754665  0.47396939
   0.33623848  0.44839016  0.58196827
   0.52250603  0.71537535  0.53695001
   0.65032246  0.42383071  0.37119697
   0.43768741  0.32594658  0.43751791
   0.43113936  0.69199716  0.45967244
   0.54426635  0.36868652  0.39469517
   0.54074293  0.67610332  0.41349820
   0.37080054  0.58788497  0.48258804
   0.56774709  0.48413401  0.44152478
   0.63430128  0.69793658  0.49204457
   0.64861664  0.66242758  0.37226509
   0.28419792  0.50840165  0.49038762
   0.45068012  0.59289087  0.38735145
   0.65174780  0.54346964  0.36870308
   0.35655957  0.41264693  0.46530811
   0.44274805  0.42364889  0.36278989
   0.55113328  0.46997967  0.32068577
   0.55217070  0.59504577  0.32182481
   0.35736976  0.50974144  0.38591755
   0.44606032  0.52323717  0.29180093
Direct configuration=    16
   0.60063739  0.52597123  0.74230552
   0.62280911  0.42345250  0.67831846
   0.50756365  0.46554583  0.69749667
   0.62737693  0.33223638  0.59489196
   0.49289703  0.58587437  0.72692345
   0.51716713  0.36186879  0.63515645
   0.40516353  0.39663805  0.66885670
   0.60897199  0.63034487  0.68378461
   0.70435387  0.42825331  0.58098019
   0.53982276  0.55282291  0.61752873
   0.39923756  0.51931017  0.67334677
   0.75269163  0.54050730  0.55865788
   0.58204279  0.44807422  0.56326098
   0.38781977  0.63716093  0.68763223
   0.69127793  0.64061444  0.58604053
   0.46122478  0.46184227  0.58062818
   0.52730587  0.34123553  0.51484912
   0.50210887  0.68166904  0.65153427
   0.40959396  0.35162906  0.55491197
   0.61492874  0.56724725  0.52511764
   0.64032930  0.37556694  0.48119005
   0.61218046  0.72792639  0.61238374
   0.40923295  0.66318294  0.57499531
   0.45117891  0.49029982  0.46708407
   0.71390785  0.60942571  0.46303237
   0.32496853  0.57424823  0.59348061
   0.49844024  0.59484345  0.50727566
   0.68918961  0.48683979  0.47306026
   0.33626409  0.44930914  0.58164280
   0.52199320  0.71541136  0.53647007
   0.65011977  0.42382731  0.37086903
   0.43648817  0.32577972  0.43645287
   0.43222718  0.68926144  0.46010002
   0.54423260  0.36812565  0.39434475
   0.54128801  0.67513479  0.41390516
   0.37207611  0.58645612  0.48334791
   0.56713377  0.48431646  0.44234946
   0.63425361  0.69826442  0.49213208
   0.64963017  0.66340860  0.37169906
   0.28362288  0.50809923  0.49061784
   0.45224108  0.59086397  0.38827392
   0.65183011  0.54451440  0.36977804
   0.35616781  0.41269721  0.46502186
   0.44268767  0.42395880  0.36274260
   0.55048162  0.47058612  0.32059888
   0.55243491  0.59507622  0.32094663
   0.35679753  0.50985248  0.38549192
   0.44618816  0.52300638  0.29107234
Direct configuration=    17
   0.60129006  0.52702919  0.74220113
   0.62328489  0.42457089  0.67834139
   0.50692552  0.46473980  0.69932578
   0.62696044  0.33193995  0.59465842