  49  49   0   0
  0.2526850E+03  0.2313442E-08  0.2313442E-08  0.2313442E-08  0.1000000E-15
  1.000000000000000E-004
  CAR 
 unknown system                          
      2.11279409    -10.29890624  301     -3.29663863      1.00000000
    -10.299  0.0000E+00  0.0000E+00  0.0000E+00  0.0000E+00
    -10.258  0.0000E+00  0.0000E+00  0.0000E+00  0.0000E+00
    -10.216  0.0000E+00  0.0000E+00  0.0000E+00  0.0000E+00
    -10.175  0.0000E+00  0.0000E+00  0.0000E+00  0.0000E+00
    -10.133  0.0000E+00  0.0000E+00  0.0000E+00  0.0000E+00
    -10.092  0.0000E+00  0.0000E+00  0.0000E+00  0.0000E+00
    -10.051  0.0000E+00  0.0000E+00  0.0000E+00  0.0000E+00
    -10.009  0.0000E+00  0.0000E+00  0.0000E+00  0.0000E+00
     -9.968  0.0000E+00  0.0000E+00  0.0000E+00  0.0000E+00
     -9.927  0.0000E+00  0.0000E+00  0.0000E+00  0.0000E+00
     -9.885  0.0000E+00  0.0000E+00  0.0000E+00  0.0000E+00
     -9.844  0.0000E+00  0.0000E+00  0.0000E+00  0.0000E+00
     -9.802  0.0000E+00  0.0000E+00  0.0000E+00  0.0000E+00
     -9.761  0.0000E+00  0.0000E+00  0.0000E+00  0.0000E+00
     -9.720  0.0000E+00  0.0000E+00  0.1000E-02  0.1000E-02
     -9.678  0.0000E+00  0.0000E+00  0.1000E-02  0.1000E-02
     -9.637  0.0000E+00  0.0000E+00  0.1000E-02  0.1000E-02
     -9.596  0.0000E+00  0.0000E+00  0.1000E-02  0.1000E-02
     -9.554  0.0000E+00  0.0000E+00  0.1000E-02  0.1000E-02
     -9.513  0.0000E+00  0.0000E+00  0.1000E-02  0.1000E-02
     -9.471  0.0000E+00  0.0000E+00  0.1000E-02  0.1000E-02
     -9.430  0.0000E+00  0.0000E+00  0.1000E-02  0.1000E-02
     -9.389  0.0000E+00  0.0000E+00  0.1000E-02  0.1000E-02
     -9.347  0.0000E+00  0.0000E+00  0.1000E-02  0.1000E-02
     -9.306  0.0000E+00  0.0000E+00  0.1000E-02  0.1000E-02
     -9.265  0.0000E+00  0.0000E+00  0.1000E-02  0.1000E-02
     -9.223  0.0000E+00  0.0000E+00  0.2000E-02  0.2000E-02
     -9.182  0.0000E+00  0.0000E+00  0.3000E-02  0.3000E-02
     -9.140  0.0000E+00  0.0000E+00  0.3000E-02  0.3000E-02
     -9.099  0.0000E+00  0.0000E+00  0.3000E-02  0.3000E-02
     -9.058  0.0000E+00  0.0000E+00  0.5000E-02  0.4000E-02
     -9.016  0.0000E+00  0.0000E+00  0.6000E-02  0.6000E-02
     -8.975  0.0000E+00  0.0000E+00  0.7000E-02  0.7000E-02
     -8.934  0.0000E+00  0.0000E+00  0.8000E-02  0.8000E-02
     -8.892  0.0000E+00  0.0000E+00  0.1000E-01  0.1000E-01
     -8.851  0.0000E+00  0.0000E+00  0.1200E-01  0.1100E-01
     -8.810  0.0000E+00  0.0000E+00  0.1300E-01  0.1300E-01
     -8.768  0.0000E+00  0.0000E+00  0.1600E-01  0.1500E-01
     -8.727  0.0000E+00  0.0000E+00  0.1700E-01  0.1700E-01
     -8.685  0.0000E+00  0.0000E+00  0.2100E-01  0.2000E-01
     -8.644  0.0000E+00  0.0000E+00  0.2200E-01  0.2200E-01
     -8.603  0.0000E+00  0.2323E-02  0.2400E-01  0.2210E-01
     -8.561  0.0000E+00  0.0000E+00  0.2700E-01  0.2700E-01
     -8.520  0.0000E+00  0.0000E+00  0.3000E-01  0.3000E-01
     -8.479  0.0000E+00  0.0000E+00  0.3300E-01  0.3300E-01
     -8.437  0.0000E+00  0.0000E+00  0.3700E-01  0.3600E-01
     -8.396  0.0000E+00  0.0000E+00  0.3900E-01  0.3900E-01
     -8.354  0.0000E+00  0.2412E-01  0.4200E-01  0.4200E-01
     -8.313  0.0000E+00  0.0000E+00  0.4600E-01  0.4500E-01
     -8.272  0.0000E+00  0.0000E+00  0.5000E-01  0.5000E-01
     -8.230  0.0000E+00  0.0000E+00  0.5400E-01  0.5300E-01
     -8.189  0.0000E+00  0.0000E+00  0.5800E-01  0.5600E-01
     -8.148  0.0000E+00  0.0000E+00  0.6100E-01  0.6100E-01
     -8.106  0.1932E-03  0.0000E+00  0.6401E-01  0.6400E-01
     -8.065  0.0000E+00  0.0000E+00  0.6800E-01  0.6700E-01
     -8.023  0.0000E+00  0.1315E-14  0.7100E-01  0.7000E-01
     -7.982  0.0000E+00  0.0000E+00  0.7400E-01  0.7400E-01
     -7.941  0.0000E+00  0.0000E+00  0.7800E-01  0.7700E-01
     -7.899  0.0000E+00  0.0000E+00  0.8100E-01  0.8100E-01
     -7.858  0.0000E+00  0.0000E+00  0.8400E-01  0.8300E-01
     -7.817  0.0000E+00  0.0000E+00  0.8800E-01  0.8700E-01
     -7.775  0.2417E-01  0.0000E+00  0.9100E-01  0.9000E-01
     -7.734  0.0000E+00  0.2417E-01  0.9300E-01  0.9300E-01
     -7.692  0.0000E+00  0.0000E+00  0.9600E-01  0.9500E-01
     -7.651  0.0000E+00  0.0000E+00  0.9900E-01  0.9900E-01
     -7.610  0.0000E+00  0.6576E-11  0.1020E+00  0.1010E+00
     -7.568  0.0000E+00  0.0000E+00  0.1040E+00  0.1030E+00
     -7.527  0.0000E+00  0.2417E-01  0.1070E+00  0.1060E+00
     -7.486  0.0000E+00  0.0000E+00  0.1100E+00  0.1090E+00
     -7.444  0.0000E+00  0.0000E+00  0.1130E+00  0.1120E+00
     -7.403  0.0000E+00  0.0000E+00  0.1160E+00  0.1150E+00
     -7.361  0.2417E-01  0.0000E+00  0.1190E+00  0.1180E+00
     -7.320  0.0000E+00  0.0000E+00  0.1220E+00  0.1220E+00
     -7.279  0.0000E+00  0.0000E+00  0.1250E+00  0.1250E+00
     -7.237  0.0000E+00  0.0000E+00  0.1290E+00  0.1280E+00
     -7.196  0.2417E-01  0.0000E+00  0.1330E+00  0.1310E+00
     -7.155  0.0000E+00  0.0000E+00  0.1360E+00  0.1360E+00
     -7.113  0.0000E+00  0.0000E+00  0.1380E+00  0.1380E+00
     -7.072  0.0000E+00  0.0000E+00  0.1420E+00  0.1410E+00
     -7.030  0.0000E+00  0.0000E+00  0.1450E+00  0.1440E+00
     -6.989  0.0000E+00  0.0000E+00  0.1490E+00  0.1470E+00
     -6.948  0.0000E+00  0.0000E+00  0.1530E+00  0.1530E+00
     -6.906  0.0000E+00  0.0000E+00  0.1570E+00  0.1570E+00
     -6.865  0.0000E+00  0.0000E+00  0.1590E+00  0.1580E+00
     -6.824  0.0000E+00  0.0000E+00  0.1630E+00  0.1620E+00
     -6.782  0.0000E+00  0.0000E+00  0.1670E+00  0.1670E+00
     -6.741  0.4171E-03  0.0000E+00  0.1730E+00  0.1720E+00
     -6.700  0.0000E+00  0.0000E+00  0.1790E+00  0.1770E+00
     -6.658  0.0000E+00  0.0000E+00  0.1840E+00  0.1840E+00
     -6.617  0.0000E+00  0.0000E+00  0.1880E+00  0.1880E+00
     -6.575  0.0000E+00  0.0000E+00  0.1950E+00  0.1940E+00
     -6.534  0.0000E+00  0.3819E-03  0.2000E+00  0.1990E+00
     -6.493  0.4112E-04  0.2019E-01  0.2050E+00  0.2048E+00
     -6.451  0.0000E+00  0.2383E-01  0.2110E+00  0.2100E+00
     -6.410  0.0000E+00  0.0000E+00  0.2160E+00  0.2150E+00
     -6.369  0.2417E-01  0.0000E+00  0.2210E+00  0.2200E+00
     -6.327  0.0000E+00  0.0000E+00  0.2260E+00  0.2260E+00
     -6.286  0.0000E+00  0.0000E+00  0.2290E+00  0.2290E+00
     -6.244  0.0000E+00  0.0000E+00  0.2320E+00  0.2320E+00
     -6.203  0.0000E+00  0.0000E+00  0.2370E+00  0.2360E+00
     -6.162  0.0000E+00  0.0000E+00  0.2410E+00  0.2400E+00
     -6.120  0.0000E+00  0.0000E+00  0.2430E+00  0.2430E+00
     -6.079  0.0000E+00  0.0000E+00  0.2460E+00  0.2460E+00
     -6.038  0.0000E+00  0.0000E+00  0.2490E+00  0.2480E+00
     -5.996  0.0000E+00  0.0000E+00  0.2510E+00  0.2510E+00
     -5.955  0.0000E+00  0.0000E+00  0.2520E+00  0.2520E+00
     -5.913  0.0000E+00  0.0000E+00  0.2530E+00  0.2530E+00
     -5.872  0.0000E+00  0.0000E+00  0.2530E+00  0.2530E+00
     -5.831  0.0000E+00  0.0000E+00  0.2530E+00  0.2530E+00
     -5.789  0.0000E+00  0.0000E+00  0.2530E+00  0.2530E+00
     -5.748  0.0000E+00  0.0000E+00  0.2530E+00  0.2530E+00
     -5.707  0.0000E+00  0.0000E+00  0.2530E+00  0.2530E+00
     -5.665  0.0000E+00  0.0000E+00  0.2540E+00  0.2540E+00
     -5.624  0.0000E+00  0.0000E+00  0.2540E+00  0.2540E+00
     -5.582  0.0000E+00  0.0000E+00  0.2540E+00  0.2540E+00
     -5.541  0.0000E+00  0.0000E+00  0.2540E+00  0.2540E+00
     -5.500  0.0000E+00  0.0000E+00  0.2540E+00  0.2540E+00
     -5.458  0.0000E+00  0.0000E+00  0.2550E+00  0.2540E+00
     -5.417  0.0000E+00  0.0000E+00  0.2550E+00  0.2550E+00
     -5.376  0.0000E+00  0.0000E+00  0.2550E+00  0.2550E+00
     -5.334  0.0000E+00  0.0000E+00  0.2550E+00  0.2550E+00
     -5.293  0.0000E+00  0.0000E+00  0.2550E+00  0.2550E+00
     -5.251  0.0000E+00  0.0000E+00  0.2560E+00  0.2550E+00
     -5.210  0.0000E+00  0.0000E+00  0.2560E+00  0.2560E+00
     -5.169  0.0000E+00  0.0000E+00  0.2560E+00  0.2560E+00
     -5.127  0.0000E+00  0.0000E+00  0.2570E+00  0.2570E+00
     -5.086  0.0000E+00  0.0000E+00  0.2570E+00  0.2570E+00
     -5.045  0.0000E+00  0.0000E+00  0.2570E+00  0.2570E+00
     -5.003  0.0000E+00  0.0000E+00  0.2570E+00  0.2570E+00
     -4.962  0.0000E+00  0.0000E+00  0.2580E+00  0.2570E+00
     -4.921  0.0000E+00  0.0000E+00  0.2590E+00  0.2590E+00
     -4.879  0.0000E+00  0.0000E+00  0.2590E+00  0.2590E+00
     -4.838  0.0000E+00  0.0000E+00  0.2590E+00  0.2590E+00
     -4.796  0.0000E+00  0.0000E+00  0.2590E+00  0.2590E+00
     -4.755  0.0000E+00  0.0000E+00  0.2600E+00  0.2590E+00
     -4.714  0.0000E+00  0.0000E+00  0.2600E+00  0.2600E+00
     -4.672  0.0000E+00  0.0000E+00  0.2600E+00  0.2600E+00
     -4.631  0.0000E+00  0.0000E+00  0.2600E+00  0.2600E+00
     -4.590  0.0000E+00  0.0000E+00  0.2600E+00  0.2600E+00
     -4.548  0.0000E+00  0.0000E+00  0.2600E+00  0.2600E+00
     -4.507  0.0000E+00  0.0000E+00  0.2610E+00  0.2600E+00
     -4.465  0.0000E+00  0.0000E+00  0.2610E+00  0.2610E+00
     -4.424  0.0000E+00  0.0000E+00  0.2620E+00  0.2620E+00
     -4.383  0.0000E+00  0.0000E+00  0.2620E+00  0.2620E+00
     -4.341  0.0000E+00  0.0000E+00  0.2620E+00  0.2620E+00
     -4.300  0.0000E+00  0.0000E+00  0.2620E+00  0.2620E+00
     -4.259  0.0000E+00  0.0000E+00  0.2630E+00  0.2620E+00
     -4.217  0.0000E+00  0.0000E+00  0.2630E+00  0.2630E+00
     -4.176  0.0000E+00  0.0000E+00  0.2630E+00  0.2630E+00
     -4.134  0.0000E+00  0.0000E+00  0.2630E+00  0.2630E+00
     -4.093  0.0000E+00  0.0000E+00  0.2630E+00  0.2630E+00
     -4.052  0.0000E+00  0.0000E+00  0.2630E+00  0.2630E+00
     -4.010  0.0000E+00  0.0000E+00  0.2630E+00  0.2630E+00
     -3.969  0.0000E+00  0.0000E+00  0.2630E+00  0.2630E+00
     -3.928  0.0000E+00  0.0000E+00  0.2640E+00  0.2640E+00
     -3.886  0.0000E+00  0.0000E+00  0.2640E+00  0.2640E+00
     -3.845  0.0000E+00  0.0000E+00  0.2650E+00  0.2650E+00
     -3.803  0.0000E+00  0.0000E+00  0.2650E+00  0.2650E+00
     -3.762  0.0000E+00  0.0000E+00  0.2650E+00  0.2650E+00
     -3.721  0.0000E+00  0.0000E+00  0.2650E+00  0.2650E+00
     -3.679  0.0000E+00  0.0000E+00  0.2650E+00  0.2650E+00
     -3.638  0.0000E+00  0.0000E+00  0.2660E+00  0.2660E+00
     -3.597  0.0000E+00  0.0000E+00  0.2670E+00  0.2660E+00
     -3.555  0.0000E+00  0.0000E+00  0.2670E+00  0.2670E+00
     -3.514  0.0000E+00  0.0000E+00  0.2680E+00  0.2680E+00
     -3.472  0.0000E+00  0.0000E+00  0.2680E+00  0.2680E+00
     -3.431  0.0000E+00  0.6709E-17  0.2690E+00  0.2680E+00
     -3.390  0.0000E+00  0.0000E+00  0.2690E+00  0.2690E+00
     -3.348  0.0000E+00  0.0000E+00  0.2690E+00  0.2690E+00
     -3.307  0.0000E+00  0.0000E+00  0.2700E+00  0.2690E+00
     -3.266  0.0000E+00  0.0000E+00  0.2700E+00  0.2690E+00
     -3.224  0.0000E+00  0.1121E-03  0.2700E+00  0.2690E+00
     -3.183  0.0000E+00  0.0000E+00  0.2700E+00  0.2700E+00
     -3.141  0.0000E+00  0.0000E+00  0.2700E+00  0.2700E+00
     -3.100  0.0000E+00  0.0000E+00  0.2710E+00  0.2700E+00
     -3.059  0.0000E+00  0.0000E+00  0.2710E+00  0.2710E+00
     -3.017  0.0000E+00  0.0000E+00  0.2710E+00  0.2710E+00
     -2.976  0.0000E+00  0.0000E+00  0.2710E+00  0.2710E+00
     -2.935  0.0000E+00  0.0000E+00  0.2720E+00  0.2720E+00
     -2.893  0.0000E+00  0.0000E+00  0.2720E+00  0.2720E+00
     -2.852  0.0000E+00  0.0000E+00  0.2720E+00  0.2720E+00
     -2.811  0.0000E+00  0.0000E+00  0.2720E+00  0.2720E+00
     -2.769  0.0000E+00  0.0000E+00  0.2730E+00  0.2730E+00
     -2.728  0.0000E+00  0.0000E+00  0.2730E+00  0.2730E+00
     -2.686  0.0000E+00  0.0000E+00  0.2740E+00  0.2740E+00
     -2.645  0.0000E+00  0.0000E+00  0.2740E+00  0.2740E+00
     -2.604  0.0000E+00  0.0000E+00  0.2750E+00  0.2740E+00
     -2.562  0.0000E+00  0.0000E+00  0.2760E+00  0.2750E+00
     -2.521  0.0000E+00  0.0000E+00  0.2760E+00  0.2760E+00
     -2.480  0.0000E+00  0.0000E+00  0.2760E+00  0.2760E+00
     -2.438  0.0000E+00  0.0000E+00  0.2760E+00  0.2760E+00
     -2.397  0.0000E+00  0.0000E+00  0.2760E+00  0.2760E+00
     -2.355  0.0000E+00  0.0000E+00  0.2760E+00  0.2760E+00
     -2.314  0.0000E+00  0.0000E+00  0.2770E+00  0.2770E+00
     -2.273  0.0000E+00  0.0000E+00  0.2780E+00  0.2770E+00
     -2.231  0.0000E+00  0.0000E+00  0.2780E+00  0.2780E+00
     -2.190  0.0000E+00  0.0000E+00  0.2790E+00  0.2790E+00
     -2.149  0.0000E+00  0.0000E+00  0.2800E+00  0.2800E+00
     -2.107  0.0000E+00  0.0000E+00  0.2800E+00  0.2800E+00
     -2.066  0.0000E+00  0.0000E+00  0.2800E+00  0.2800E+00
     -2.024  0.0000E+00  0.0000E+00  0.2810E+00  0.2800E+00
     -1.983  0.0000E+00  0.0000E+00  0.2810E+00  0.2810E+00
     -1.942  0.0000E+00  0.0000E+00  0.2820E+00  0.2820E+00
     -1.900  0.0000E+00  0.0000E+00  0.2830E+00  0.2830E+00
     -1.859  0.0000E+00  0.0000E+00  0.2830E+00  0.2830E+00
     -1.818  0.0000E+00  0.0000E+00  0.2840E+00  0.2830E+00
     -1.776  0.0000E+00  0.0000E+00  0.2840E+00  0.2840E+00
     -1.735  0.0000E+00  0.0000E+00  0.2840E+00  0.2840E+00
     -1.693  0.0000E+00  0.0000E+00  0.2850E+00  0.2840E+00
     -1.652  0.0000E+00  0.0000E+00  0.2860E+00  0.2850E+00
     -1.611  0.0000E+00  0.0000E+00  0.2870E+00  0.2860E+00
     -1.569  0.0000E+00  0.0000E+00  0.2870E+00  0.2870E+00
     -1.528  0.0000E+00  0.0000E+00  0.2870E+00  0.2870E+00
     -1.487  0.0000E+00  0.0000E+00  0.2870E+00  0.2870E+00
     -1.445  0.0000E+00  0.0000E+00  0.2880E+00  0.2870E+00
     -1.404  0.0000E+00  0.0000E+00  0.2880E+00  0.2880E+00
     -1.362  0.0000E+00  0.0000E+00  0.2890E+00  0.2890E+00
     -1.321  0.0000E+00  0.0000E+00  0.2890E+00  0.2890E+00
     -1.280  0.0000E+00  0.0000E+00  0.2910E+00  0.2900E+00
     -1.238  0.0000E+00  0.0000E+00  0.2910E+00  0.2910E+00
     -1.197  0.0000E+00  0.0000E+00  0.2910E+00  0.2910E+00
     -1.156  0.0000E+00  0.0000E+00  0.2910E+00  0.2910E+00
     -1.114  0.0000E+00  0.0000E+00  0.2910E+00  0.2910E+00
     -1.073  0.0000E+00  0.0000E+00  0.2920E+00  0.2920E+00
     -1.032  0.0000E+00  0.0000E+00  0.2930E+00  0.2920E+00
     -0.990  0.0000E+00  0.0000E+00  0.2930E+00  0.2930E+00
     -0.949  0.0000E+00  0.0000E+00  0.2930E+00  0.2930E+00
     -0.907  0.0000E+00  0.0000E+00  0.2940E+00  0.2940E+00
     -0.866  0.0000E+00  0.0000E+00  0.2950E+00  0.2940E+00
     -0.825  0.0000E+00  0.0000E+00  0.2950E+00  0.2950E+00
     -0.783  0.0000E+00  0.0000E+00  0.2960E+00  0.2950E+00
     -0.742  0.0000E+00  0.0000E+00  0.2960E+00  0.2960E+00
     -0.701  0.0000E+00  0.0000E+00  0.2960E+00  0.2960E+00
     -0.659  0.0000E+00  0.0000E+00  0.2970E+00  0.2960E+00
     -0.618  0.0000E+00  0.0000E+00  0.2970E+00  0.2970E+00
     -0.576  0.0000E+00  0.0000E+00  0.2980E+00  0.2970E+00
     -0.535  0.0000E+00  0.0000E+00  0.2980E+00  0.2980E+00
     -0.494  0.0000E+00  0.0000E+00  0.2990E+00  0.2980E+00
     -0.452  0.0000E+00  0.0000E+00  0.3000E+00  0.2990E+00
     -0.411  0.0000E+00  0.0000E+00  0.3000E+00  0.3000E+00
     -0.370  0.0000E+00  0.0000E+00  0.3000E+00  0.3000E+00
     -0.328  0.0000E+00  0.0000E+00  0.3010E+00  0.3000E+00
     -0.287  0.0000E+00  0.0000E+00  0.3010E+00  0.3010E+00
     -0.245  0.0000E+00  0.0000E+00  0.3010E+00  0.3010E+00
     -0.204  0.0000E+00  0.0000E+00  0.3010E+00  0.3010E+00
     -0.163  0.0000E+00  0.0000E+00  0.3020E+00  0.3010E+00
     -0.121  0.0000E+00  0.0000E+00  0.3040E+00  0.3030E+00
     -0.080  0.0000E+00  0.0000E+00  0.3040E+00  0.3040E+00
     -0.039  0.0000E+00  0.0000E+00  0.3040E+00  0.3040E+00
      0.003  0.0000E+00  0.0000E+00  0.3050E+00  0.3040E+00
      0.044  0.0000E+00  0.0000E+00  0.3050E+00  0.3050E+00
      0.086  0.0000E+00  0.0000E+00  0.3060E+00  0.3060E+00
      0.127  0.0000E+00  0.0000E+00  0.3060E+00  0.3060E+00
      0.168  0.0000E+00  0.0000E+00  0.3070E+00  0.3060E+00
      0.210  0.0000E+00  0.0000E+00  0.3070E+00  0.3070E+00
      0.251  0.0000E+00  0.0000E+00  0.3080E+00  0.3070E+00
      0.292  0.0000E+00  0.2417E-01  0.3100E+00  0.3090E+00
      0.334  0.0000E+00  0.0000E+00  0.3100E+00  0.3100E+00
      0.375  0.0000E+00  0.0000E+00  0.3110E+00  0.3100E+00
      0.417  0.0000E+00  0.0000E+00  0.3110E+00  0.3110E+00
      0.458  0.0000E+00  0.0000E+00  0.3120E+00  0.3120E+00
      0.499  0.0000E+00  0.0000E+00  0.3130E+00  0.3120E+00
      0.541  0.0000E+00  0.0000E+00  0.3130E+00  0.3130E+00
      0.582  0.0000E+00  0.0000E+00  0.3140E+00  0.3130E+00
      0.623  0.0000E+00  0.0000E+00  0.3150E+00  0.3140E+00
      0.665  0.0000E+00  0.0000E+00  0.3150E+00  0.3150E+00
      0.706  0.0000E+00  0.0000E+00  0.3160E+00  0.3160E+00
      0.748  0.0000E+00  0.0000E+00  0.3170E+00  0.3160E+00
      0.789  0.0000E+00  0.0000E+00  0.3180E+00  0.3180E+00
      0.830  0.0000E+00  0.0000E+00  0.3190E+00  0.3180E+00
      0.872  0.0000E+00  0.0000E+00  0.3190E+00  0.3190E+00
      0.913  0.0000E+00  0.0000E+00  0.3210E+00  0.3200E+00
      0.954  0.0000E+00  0.1437E-10  0.3220E+00  0.3210E+00
      0.996  0.0000E+00  0.0000E+00  0.3230E+00  0.3220E+00
      1.037  0.0000E+00  0.0000E+00  0.3250E+00  0.3240E+00
      1.078  0.0000E+00  0.0000E+00  0.3260E+00  0.3260E+00
      1.120  0.0000E+00  0.0000E+00  0.3280E+00  0.3270E+00
      1.161  0.0000E+00  0.0000E+00  0.3300E+00  0.3300E+00
      1.203  0.0000E+00  0.0000E+00  0.3340E+00  0.3340E+00
      1.244  0.0000E+00  0.0000E+00  0.3350E+00  0.3350E+00
      1.285  0.0000E+00  0.0000E+00  0.3360E+00  0.3360E+00
      1.327  0.0000E+00  0.0000E+00  0.3380E+00  0.3370E+00
      1.368  0.0000E+00  0.0000E+00  0.3390E+00  0.3380E+00
      1.409  0.0000E+00  0.0000E+00  0.3410E+00  0.3400E+00
      1.451  0.0000E+00  0.0000E+00  0.3420E+00  0.3420E+00
      1.492  0.0000E+00  0.0000E+00  0.3460E+00  0.3450E+00
      1.534  0.0000E+00  0.0000E+00  0.3480E+00  0.3470E+00
      1.575  0.0000E+00  0.0000E+00  0.3480E+00  0.3480E+00
      1.616  0.0000E+00  0.0000E+00  0.3480E+00  0.3480E+00
      1.658  0.0000E+00  0.0000E+00  0.3480E+00  0.3480E+00
      1.699  0.0000E+00  0.0000E+00  0.3480E+00  0.3480E+00
      1.740  0.0000E+00  0.0000E+00  0.3480E+00  0.3480E+00
      1.782  0.0000E+00  0.0000E+00  0.3480E+00  0.3480E+00
      1.823  0.0000E+00  0.0000E+00  0.3480E+00  0.3480E+00
      1.865  0.0000E+00  0.0000E+00  0.3480E+00  0.3480E+00
      1.906  0.0000E+00  0.0000E+00  0.3480E+00  0.3480E+00
      1.947  0.0000E+00  0.0000E+00  0.3480E+00  0.3480E+00
      1.989  0.0000E+00  0.0000E+00  0.3480E+00  0.3480E+00
      2.030  0.0000E+00  0.0000E+00  0.3480E+00  0.3480E+00
      2.071  0.0000E+00  0.0000E+00  0.3480E+00  0.3480E+00
      2.113  0.0000E+00  0.0000E+00  0.3480E+00  0.3480E+00
