24
Energy = -48.58813524 eV
Ag 10.346921549870443 10.449679230350332 14.98278842502257
Ag 9.26019374362114 12.494213214780364 13.42291813773196
Ag 10.878328434912698 14.502639932399687 12.47716651612226
Ag 11.999121119786292 12.124497370361635 13.441672959773447
Ag 8.24666045504556 9.877674654299714 13.203105431411581
Ag 13.860511481713981 10.943632627090174 11.717256276790659
Ag 6.775311892843712 12.125477554306947 12.26150679623577
Ag 12.222006567065502 9.295830446806852 13.318304874023775
Ag 9.94869866158127 7.824350700526527 13.948388747001289
Ag 8.7157495238415 13.668998979775477 10.868634017159962
Ag 13.179223552958522 13.528329726338665 11.25463160480011
Ag 11.112792949917404 14.416386595603756 9.651590607441806
Ag 9.661966499408853 12.37994563311909 8.489059327175916
Ag 11.678242830898695 6.775172424773153 11.972628083063446
Ag 12.387177237438857 11.595774996962056 9.254907919907618
Ag 11.891137579564546 13.45659047027464 7.193883189891189
Ag 8.594503299114827 10.905555372105965 10.625614242421353
Ag 12.35035701340888 9.051691257425352 10.524651081181219
Ag 11.111775022617223 6.9976836249817245 9.091152550558926
Ag 9.581880340995617 8.33849315318528 11.187324892509011
Ag 10.125955797729938 9.614064330105984 8.754646425213204
Ag 11.126284278300501 10.908777244733521 6.474801699299916
Ag 12.768315676938919 9.131413947088179 7.8395630099565965
Ag 10.629769081898484 8.04601110407711 6.496687776779501
