       N       E                     dE             d eps       ncg     rms          rms(c)
DAV:   1     0.109552678299E+04    0.10955E+04   -0.19198E+04   352   0.518E+02
DAV:   2     0.472703828791E+03   -0.62282E+03   -0.54346E+03   664   0.905E+01
DAV:   3     0.305412381107E+02   -0.44216E+03   -0.41162E+03   552   0.841E+01
DAV:   4    -0.463514964163E+02   -0.76893E+02   -0.62624E+02   456   0.378E+01
DAV:   5    -0.522232040286E+02   -0.58717E+01   -0.49560E+01   424   0.107E+01    0.163E+01
DAV:   6    -0.456060241617E+02    0.66172E+01   -0.13365E+01   360   0.101E+01    0.937E+00
DAV:   7    -0.426006600113E+02    0.30054E+01   -0.89964E+00   376   0.215E+01    0.177E+01
DAV:   8    -0.391954526785E+02    0.34052E+01   -0.92726E+00   376   0.172E+01    0.123E+01
DAV:   9    -0.384614790134E+02    0.73397E+00   -0.36112E+00   368   0.104E+01    0.656E+00
DAV:  10    -0.392074070618E+02   -0.74593E+00   -0.19583E+00   384   0.811E+00    0.662E+00
DAV:  11    -0.402070043545E+02   -0.99960E+00   -0.13492E+00   376   0.549E+00    0.516E+00
DAV:  12    -0.410770119516E+02   -0.87001E+00   -0.67205E-01   384   0.335E+00    0.326E+00
DAV:  13    -0.421517459156E+02   -0.10747E+01   -0.30766E-01   376   0.265E+00    0.216E+00
DAV:  14    -0.434349914263E+02   -0.12832E+01   -0.33916E-01   376   0.251E+00    0.192E+00
DAV:  15    -0.446309667528E+02   -0.11960E+01   -0.25153E-01   368   0.203E+00    0.105E+00
DAV:  16    -0.457157196954E+02   -0.10848E+01   -0.17450E-01   384   0.123E+00    0.105E+00
DAV:  17    -0.463483801076E+02   -0.63266E+00   -0.96023E-02   392   0.115E+00    0.937E-01
DAV:  18    -0.470846670398E+02   -0.73629E+00   -0.98278E-02   376   0.921E-01    0.613E-01
DAV:  19    -0.475379778570E+02   -0.45331E+00   -0.50038E-02   392   0.675E-01    0.589E-01
DAV:  20    -0.478839467387E+02   -0.34597E+00   -0.26200E-02   392   0.536E-01    0.415E-01
DAV:  21    -0.482965371309E+02   -0.41259E+00   -0.31150E-02   392   0.435E-01    0.348E-01
DAV:  22    -0.485931192229E+02   -0.29658E+00   -0.22061E-02   384   0.476E-01    0.286E-01
DAV:  23    -0.487741001593E+02   -0.18098E+00   -0.10589E-02   408   0.380E-01    0.223E-01
DAV:  24    -0.488155865757E+02   -0.41486E-01   -0.15261E-03   424   0.184E-01    0.122E-01
DAV:  25    -0.488992351472E+02   -0.83649E-01   -0.24689E-03   376   0.972E-02    0.117E-01
DAV:  26    -0.489531070148E+02   -0.53872E-01   -0.11898E-03   384   0.846E-02    0.959E-02
DAV:  27    -0.489947823064E+02   -0.41675E-01   -0.12679E-03   376   0.770E-02    0.530E-02
DAV:  28    -0.490122142500E+02   -0.17432E-01   -0.46686E-04   328   0.440E-02    0.400E-02
DAV:  29    -0.490207986704E+02   -0.85844E-02   -0.27856E-04   312   0.374E-02    0.228E-02
DAV:  30    -0.490256698310E+02   -0.48712E-02   -0.20990E-04   312   0.270E-02    0.127E-02
DAV:  31    -0.490270190095E+02   -0.13492E-02   -0.62672E-05   264   0.162E-02    0.933E-03
DAV:  32    -0.490274496049E+02   -0.43060E-03   -0.50905E-05   248   0.123E-02    0.492E-03
DAV:  33    -0.490278697875E+02   -0.42018E-03   -0.46215E-05   264   0.112E-02    0.395E-03
DAV:  34    -0.490281193375E+02   -0.24955E-03   -0.28512E-05   256   0.900E-03    0.272E-03
DAV:  35    -0.490283553283E+02   -0.23599E-03   -0.18792E-05   240   0.716E-03    0.231E-03
DAV:  36    -0.490285181310E+02   -0.16280E-03   -0.13236E-05   256   0.628E-03    0.162E-03
DAV:  37    -0.490286030879E+02   -0.84957E-04   -0.92140E-06   232   0.481E-03
   1 F= -.49028603E+02 E0= -.49028603E+02  d E =-.490286E+02  mag=     6.0002
       N       E                     dE             d eps       ncg     rms          rms(c)
DAV:   1    -0.490812383831E+02   -0.52720E-01   -0.34419E+00   368   0.500E+00    0.415E-01
DAV:   2    -0.490861615228E+02   -0.49231E-02   -0.64301E-02   376   0.974E-01    0.713E-01
DAV:   3    -0.490840807781E+02    0.20807E-02   -0.22596E-02   360   0.812E-01    0.582E-01
DAV:   4    -0.490828788194E+02    0.12020E-02   -0.78657E-03   368   0.372E-01    0.327E-01
DAV:   5    -0.490846954568E+02   -0.18166E-02   -0.22871E-03   368   0.304E-01    0.207E-01
DAV:   6    -0.490846675537E+02    0.27903E-04   -0.15227E-03   360   0.204E-01    0.163E-01
DAV:   7    -0.490849169699E+02   -0.24942E-03   -0.10124E-03   320   0.161E-01    0.203E-01
DAV:   8    -0.490843339406E+02    0.58303E-03   -0.34558E-04   240   0.110E-01    0.129E-01
DAV:   9    -0.490845417849E+02   -0.20784E-03   -0.27643E-04   240   0.785E-02    0.414E-02
DAV:  10    -0.490849266024E+02   -0.38482E-03   -0.82909E-05   232   0.514E-02    0.298E-02
DAV:  11    -0.490850142917E+02   -0.87689E-04   -0.16713E-05   232   0.299E-02
   2 F= -.49085014E+02 E0= -.49085014E+02  d E =-.564112E-01  mag=     6.0001
       N       E                     dE             d eps       ncg     rms          rms(c)
DAV:   1    -0.491901091273E+02   -0.10518E+00   -0.31008E+01   352   0.150E+01    0.134E+00
DAV:   2    -0.492424968230E+02   -0.52388E-01   -0.64022E-01   368   0.314E+00    0.233E+00
DAV:   3    -0.492200365667E+02    0.22460E-01   -0.21404E-01   368   0.271E+00    0.208E+00
DAV:   4    -0.492047704484E+02    0.15266E-01   -0.80982E-02   376   0.109E+00    0.934E-01
DAV:   5    -0.492217482458E+02   -0.16978E-01   -0.13662E-02   376   0.916E-01    0.601E-01
DAV:   6    -0.492240172378E+02   -0.22690E-02   -0.12945E-02   360   0.611E-01    0.683E-01
DAV:   7    -0.492215274978E+02    0.24897E-02   -0.76629E-03   360   0.511E-01    0.571E-01
DAV:   8    -0.492198102020E+02    0.17173E-02   -0.37967E-03   376   0.377E-01    0.382E-01
DAV:   9    -0.492213587936E+02   -0.15486E-02   -0.23465E-03   368   0.304E-01    0.197E-01
DAV:  10    -0.492231187668E+02   -0.17600E-02   -0.15491E-03   328   0.154E-01    0.122E-01
DAV:  11    -0.492241954691E+02   -0.10767E-02   -0.20967E-04   248   0.874E-02    0.640E-02
DAV:  12    -0.492243032449E+02   -0.10778E-03   -0.57650E-05   240   0.539E-02    0.479E-02
DAV:  13    -0.492244179835E+02   -0.11474E-03   -0.65320E-05   248   0.503E-02    0.478E-02
DAV:  14    -0.492244854406E+02   -0.67457E-04   -0.23153E-05   248   0.329E-02
   3 F= -.49224485E+02 E0= -.49224485E+02  d E =-.195882E+00  mag=     6.0000
       N       E                     dE             d eps       ncg     rms          rms(c)
DAV:   1    -0.492125225628E+02    0.11895E-01   -0.12454E+02   352   0.302E+01    0.305E+00
DAV:   2    -0.494843089390E+02   -0.27179E+00   -0.30328E+00   376   0.698E+00    0.543E+00
DAV:   3    -0.493367821893E+02    0.14753E+00   -0.98916E-01   368   0.618E+00    0.321E+00
DAV:   4    -0.493299289497E+02    0.68532E-02   -0.22889E-01   376   0.241E+00    0.196E+00
DAV:   5    -0.493428215615E+02   -0.12893E-01   -0.67527E-02   368   0.188E+00    0.150E+00
DAV:   6    -0.493457671910E+02   -0.29456E-02   -0.45769E-02   368   0.128E+00    0.138E+00
DAV:   7    -0.493436004555E+02    0.21667E-02   -0.27971E-02   368   0.980E-01    0.962E-01
DAV:   8    -0.493415127951E+02    0.20877E-02   -0.16959E-02   384   0.781E-01    0.527E-01
DAV:   9    -0.493477336875E+02   -0.62209E-02   -0.64661E-03   384   0.600E-01    0.295E-01
DAV:  10    -0.493501921722E+02   -0.24585E-02   -0.36477E-03   368   0.310E-01    0.318E-01
DAV:  11    -0.493501671510E+02    0.25021E-04   -0.17345E-03   352   0.202E-01    0.150E-01
DAV:  12    -0.493509607942E+02   -0.79364E-03   -0.59003E-04   336   0.161E-01    0.123E-01
DAV:  13    -0.493513205426E+02   -0.35975E-03   -0.25123E-04   264   0.109E-01    0.887E-02
DAV:  14    -0.493515949981E+02   -0.27446E-03   -0.86684E-05   264   0.586E-02    0.513E-02
DAV:  15    -0.493519453546E+02   -0.35036E-03   -0.52864E-05   264   0.373E-02    0.343E-02
DAV:  16    -0.493521075584E+02   -0.16220E-03   -0.33216E-05   264   0.362E-02    0.167E-02
DAV:  17    -0.493522122100E+02   -0.10465E-03   -0.14647E-05   256   0.188E-02    0.105E-02
DAV:  18    -0.493522608812E+02   -0.48671E-04   -0.58320E-06   216   0.110E-02
   4 F= -.49352261E+02 E0= -.49352261E+02  d E =-.323658E+00  mag=     6.0000
       N       E                     dE             d eps       ncg     rms          rms(c)
DAV:   1    -0.493823950609E+02   -0.30183E-01   -0.80204E+00   352   0.763E+00    0.421E-01
DAV:   2    -0.493930916643E+02   -0.10697E-01   -0.13139E-01   368   0.132E+00    0.842E-01
DAV:   3    -0.493897692143E+02    0.33225E-02   -0.29551E-02   368   0.896E-01    0.470E-01
DAV:   4    -0.493910162855E+02   -0.12471E-02   -0.86122E-03   368   0.421E-01    0.310E-01
DAV:   5    -0.493911801010E+02   -0.16382E-03   -0.16709E-03   368   0.266E-01    0.146E-01
DAV:   6    -0.493916519543E+02   -0.47185E-03   -0.71809E-04   376   0.163E-01    0.125E-01
DAV:   7    -0.493917512178E+02   -0.99263E-04   -0.47656E-04   376   0.154E-01
   5 F= -.49391751E+02 E0= -.49391751E+02  d E =-.394903E-01  mag=     6.0000
       N       E                     dE             d eps       ncg     rms          rms(c)
DAV:   1    -0.494170563372E+02   -0.25404E-01   -0.72571E+01   352   0.230E+01    0.343E+00
DAV:   2    -0.497991422781E+02   -0.38209E+00   -0.39298E+00   376   0.903E+00    0.931E+00
DAV:   3    -0.493786344115E+02    0.42051E+00   -0.20557E+00   384   0.812E+00    0.306E+00
DAV:   4    -0.494861214618E+02   -0.10749E+00   -0.28252E-01   368   0.323E+00    0.238E+00
DAV:   5    -0.494638212671E+02    0.22300E-01   -0.77363E-02   384   0.196E+00    0.109E+00
DAV:   6    -0.494704335989E+02   -0.66123E-02   -0.37907E-02   384   0.122E+00    0.827E-01
DAV:   7    -0.494784376081E+02   -0.80040E-02   -0.17008E-02   384   0.815E-01    0.407E-01
DAV:   8    -0.494860377101E+02   -0.76001E-02   -0.68611E-03   384   0.608E-01    0.404E-01
DAV:   9    -0.494885641377E+02   -0.25264E-02   -0.40092E-03   384   0.522E-01    0.283E-01
DAV:  10    -0.494899392280E+02   -0.13751E-02   -0.18066E-03   384   0.345E-01    0.187E-01
DAV:  11    -0.494911200584E+02   -0.11808E-02   -0.53917E-04   352   0.172E-01    0.661E-02
DAV:  12    -0.494922027067E+02   -0.10826E-02   -0.11797E-04   240   0.676E-02    0.485E-02
DAV:  13    -0.494927615974E+02   -0.55889E-03   -0.52748E-05   272   0.594E-02    0.270E-02
DAV:  14    -0.494935415848E+02   -0.77999E-03   -0.30362E-05   240   0.276E-02    0.144E-02
DAV:  15    -0.494941171129E+02   -0.57553E-03   -0.17193E-05   248   0.190E-02    0.128E-02
DAV:  16    -0.494945483594E+02   -0.43125E-03   -0.11642E-05   248   0.167E-02    0.816E-03
DAV:  17    -0.494950551816E+02   -0.50682E-03   -0.99845E-06   248   0.866E-03    0.475E-03
DAV:  18    -0.494955150400E+02   -0.45986E-03   -0.81788E-06   248   0.566E-03    0.331E-03
DAV:  19    -0.494959472825E+02   -0.43224E-03   -0.85959E-06   256   0.608E-03    0.280E-03
DAV:  20    -0.494962580505E+02   -0.31077E-03   -0.81967E-06   240   0.628E-03    0.288E-03
DAV:  21    -0.494965397630E+02   -0.28171E-03   -0.95733E-06   256   0.563E-03    0.174E-03
DAV:  22    -0.494966564405E+02   -0.11668E-03   -0.63215E-06   240   0.390E-03    0.109E-03
DAV:  23    -0.494967090077E+02   -0.52567E-04   -0.39745E-06   240   0.296E-03
   6 F= -.49496709E+02 E0= -.49496709E+02  d E =-.144448E+00  mag=     6.0000
       N       E                     dE             d eps       ncg     rms          rms(c)
DAV:   1    -0.492753596820E+02    0.22130E+00   -0.29237E+02   352   0.468E+01    0.255E+00
DAV:   2    -0.496376096992E+02   -0.36225E+00   -0.42738E+00   368   0.762E+00    0.322E+00
DAV:   3    -0.496191271341E+02    0.18483E-01   -0.51362E-01   384   0.479E+00    0.202E+00
DAV:   4    -0.496210385038E+02   -0.19114E-02   -0.19525E-01   368   0.236E+00    0.197E+00
DAV:   5    -0.496006854766E+02    0.20353E-01   -0.86156E-02   360   0.153E+00    0.866E-01
DAV:   6    -0.496121824646E+02   -0.11497E-01   -0.27479E-02   384   0.105E+00    0.777E-01
DAV:   7    -0.496111054769E+02    0.10770E-02   -0.21195E-02   384   0.949E-01    0.411E-01
DAV:   8    -0.496136358191E+02   -0.25303E-02   -0.63386E-03   392   0.565E-01    0.268E-01
DAV:   9    -0.496140245041E+02   -0.38868E-03   -0.22797E-03   400   0.344E-01    0.151E-01
DAV:  10    -0.496146381094E+02   -0.61361E-03   -0.90816E-04   368   0.191E-01    0.122E-01
DAV:  11    -0.496151016245E+02   -0.46352E-03   -0.24677E-04   272   0.112E-01    0.487E-02
DAV:  12    -0.496155665440E+02   -0.46492E-03   -0.84259E-05   272   0.610E-02    0.385E-02
DAV:  13    -0.496159137396E+02   -0.34720E-03   -0.49879E-05   248   0.390E-02    0.179E-02
DAV:  14    -0.496163152172E+02   -0.40148E-03   -0.33779E-05   256   0.282E-02    0.187E-02
DAV:  15    -0.496165364492E+02   -0.22123E-03   -0.14892E-05   256   0.203E-02    0.917E-03
DAV:  16    -0.496168407489E+02   -0.30430E-03   -0.79303E-06   264   0.971E-03    0.449E-03
DAV:  17    -0.496170399080E+02   -0.19916E-03   -0.40237E-06   256   0.584E-03    0.334E-03
DAV:  18    -0.496171954544E+02   -0.15555E-03   -0.26167E-06   248   0.473E-03    0.301E-03
DAV:  19    -0.496174268889E+02   -0.23143E-03   -0.37462E-06   264   0.432E-03    0.217E-03
DAV:  20    -0.496176827023E+02   -0.25581E-03   -0.50426E-06   264   0.397E-03    0.135E-03
DAV:  21    -0.496177933925E+02   -0.11069E-03   -0.33806E-06   256   0.300E-03    0.963E-04
DAV:  22    -0.496178597982E+02   -0.66406E-04   -0.30853E-06   256   0.275E-03
   7 F= -.49617860E+02 E0= -.49617860E+02  d E =-.265599E+00  mag=     6.0000
       N       E                     dE             d eps       ncg     rms          rms(c)
DAV:   1    -0.496409514101E+02   -0.23158E-01   -0.31003E+01   352   0.149E+01    0.833E-01
DAV:   2    -0.496851344081E+02   -0.44183E-01   -0.48526E-01   368   0.267E+00    0.156E+00
DAV:   3    -0.496735380741E+02    0.11596E-01   -0.93355E-02   368   0.173E+00    0.761E-01
DAV:   4    -0.496776080656E+02   -0.40700E-02   -0.32863E-02   376   0.954E-01    0.799E-01
DAV:   5    -0.496736931443E+02    0.39149E-02   -0.82164E-03   368   0.569E-01    0.332E-01
DAV:   6    -0.496757325562E+02   -0.20394E-02   -0.40503E-03   376   0.383E-01    0.295E-01
DAV:   7    -0.496757621948E+02   -0.29639E-04   -0.30201E-03   392   0.355E-01    0.165E-01
DAV:   8    -0.496760496539E+02   -0.28746E-03   -0.86713E-04   368   0.213E-01    0.957E-02
DAV:   9    -0.496760692063E+02   -0.19552E-04   -0.31926E-04   248   0.113E-01
   8 F= -.49676069E+02 E0= -.49676069E+02  d E =-.582094E-01  mag=     6.0000
       N       E                     dE             d eps       ncg     rms          rms(c)
DAV:   1    -0.495310592545E+02    0.14499E+00   -0.17847E+02   352   0.361E+01    0.194E+00
DAV:   2    -0.498014759473E+02   -0.27042E+00   -0.27508E+00   368   0.652E+00    0.388E+00
DAV:   3    -0.497261836633E+02    0.75292E-01   -0.46006E-01   360   0.428E+00    0.161E+00
DAV:   4    -0.497401906274E+02   -0.14007E-01   -0.15706E-01   376   0.210E+00    0.155E+00
DAV:   5    -0.497275158498E+02    0.12675E-01   -0.40634E-02   376   0.125E+00    0.743E-01
DAV:   6    -0.497313600281E+02   -0.38442E-02   -0.14504E-02   376   0.787E-01    0.650E-01
DAV:   7    -0.497312860592E+02    0.73969E-04   -0.18959E-02   384   0.776E-01    0.470E-01
DAV:   8    -0.497317538396E+02   -0.46778E-03   -0.52668E-03   376   0.570E-01    0.228E-01
DAV:   9    -0.497320798501E+02   -0.32601E-03   -0.12427E-03   376   0.259E-01    0.127E-01
DAV:  10    -0.497323148160E+02   -0.23497E-03   -0.34054E-04   296   0.141E-01    0.738E-02
DAV:  11    -0.497326476132E+02   -0.33280E-03   -0.16395E-04   272   0.660E-02    0.432E-02
DAV:  12    -0.497329036527E+02   -0.25604E-03   -0.11523E-04   256   0.588E-02    0.347E-02
DAV:  13    -0.497330999315E+02   -0.19628E-03   -0.57608E-05   264   0.411E-02    0.162E-02
DAV:  14    -0.497332609184E+02   -0.16099E-03   -0.22172E-05   256   0.233E-02    0.880E-03
DAV:  15    -0.497333954767E+02   -0.13456E-03   -0.78049E-06   248   0.132E-02    0.433E-03
DAV:  16    -0.497335813086E+02   -0.18583E-03   -0.41870E-06   264   0.597E-03    0.304E-03
DAV:  17    -0.497337095938E+02   -0.12829E-03   -0.26030E-06   248   0.504E-03    0.231E-03
DAV:  18    -0.497338301452E+02   -0.12055E-03   -0.22965E-06   264   0.416E-03    0.182E-03
DAV:  19    -0.497340071059E+02   -0.17696E-03   -0.37621E-06   256   0.335E-03    0.104E-03
DAV:  20    -0.497341179481E+02   -0.11084E-03   -0.32635E-06   256   0.300E-03    0.774E-04
DAV:  21    -0.497341655703E+02   -0.47622E-04   -0.24874E-06   256   0.246E-03
   9 F= -.49734166E+02 E0= -.49734166E+02  d E =-.116306E+00  mag=     6.0000
       N       E                     dE             d eps       ncg     rms          rms(c)
DAV:   1    -0.497423976020E+02   -0.82797E-02   -0.14672E+01   352   0.102E+01    0.653E-01
DAV:   2    -0.497668499294E+02   -0.24452E-01   -0.26808E-01   368   0.203E+00    0.167E+00
DAV:   3    -0.497519093340E+02    0.14941E-01   -0.86614E-02   368   0.165E+00    0.568E-01
DAV:   4    -0.497578965221E+02   -0.59872E-02   -0.10456E-02   368   0.539E-01    0.275E-01
DAV:   5    -0.497579165948E+02   -0.20073E-04   -0.13345E-03   384   0.292E-01    0.173E-01
DAV:   6    -0.497585780212E+02   -0.66143E-03   -0.18381E-03   368   0.239E-01    0.218E-01
DAV:   7    -0.497585048283E+02    0.73193E-04   -0.95369E-04   384   0.240E-01
  10 F= -.49758505E+02 E0= -.49758505E+02  d E =-.243393E-01  mag=     6.0000
       N       E                     dE             d eps       ncg     rms          rms(c)
DAV:   1    -0.496470023301E+02    0.11158E+00   -0.11689E+02   352   0.289E+01    0.169E+00
DAV:   2    -0.498194658863E+02   -0.17246E+00   -0.19259E+00   368   0.524E+00    0.359E+00
DAV:   3    -0.497668218618E+02    0.52644E-01   -0.45752E-01   368   0.396E+00    0.150E+00
DAV:   4    -0.497773315404E+02   -0.10510E-01   -0.70366E-02   368   0.148E+00    0.755E-01
DAV:   5    -0.497768592352E+02    0.47231E-03   -0.10790E-02   376   0.757E-01    0.456E-01
DAV:   6    -0.497806668245E+02   -0.38076E-02   -0.13019E-02   368   0.613E-01    0.565E-01
DAV:   7    -0.497805333155E+02    0.13351E-03   -0.77357E-03   376   0.655E-01    0.298E-01
DAV:   8    -0.497817827833E+02   -0.12495E-02   -0.20698E-03   384   0.352E-01    0.141E-01
DAV:   9    -0.497822507970E+02   -0.46801E-03   -0.54251E-04   384   0.181E-01    0.665E-02
DAV:  10    -0.497828067607E+02   -0.55596E-03   -0.14051E-04   256   0.722E-02    0.467E-02
DAV:  11    -0.497830925025E+02   -0.28574E-03   -0.77980E-05   248   0.605E-02    0.307E-02
DAV:  12    -0.497834507493E+02   -0.35825E-03   -0.49591E-05   240   0.386E-02    0.209E-02
DAV:  13    -0.497836619704E+02   -0.21122E-03   -0.22410E-05   248   0.279E-02    0.126E-02
DAV:  14    -0.497838678459E+02   -0.20588E-03   -0.96834E-06   248   0.145E-02    0.501E-03
DAV:  15    -0.497840628592E+02   -0.19501E-03   -0.48734E-06   240   0.871E-03    0.451E-03
DAV:  16    -0.497843161568E+02   -0.25330E-03   -0.46135E-06   256   0.621E-03    0.250E-03
DAV:  17    -0.497845240368E+02   -0.20788E-03   -0.35267E-06   240   0.382E-03    0.193E-03
DAV:  18    -0.497847187495E+02   -0.19471E-03   -0.34798E-06   256   0.343E-03    0.178E-03
DAV:  19    -0.497849029841E+02   -0.18423E-03   -0.36236E-06   256   0.370E-03    0.129E-03
DAV:  20    -0.497850431444E+02   -0.14016E-03   -0.36404E-06   248   0.327E-03    0.855E-04
DAV:  21    -0.497851368327E+02   -0.93688E-04   -0.28819E-06   256   0.275E-03
  11 F= -.49785137E+02 E0= -.49785137E+02  d E =-.509713E-01  mag=     6.0000
       N       E                     dE             d eps       ncg     rms          rms(c)
DAV:   1    -0.497791385010E+02    0.59046E-02   -0.16959E+01   352   0.111E+01    0.665E-01
DAV:   2    -0.498007632269E+02   -0.21625E-01   -0.26325E-01   376   0.193E+00    0.103E+00
DAV:   3    -0.497973958745E+02    0.33674E-02   -0.43426E-02   376   0.134E+00    0.520E-01
DAV:   4    -0.497988941993E+02   -0.14983E-02   -0.14368E-02   376   0.668E-01    0.433E-01
DAV:   5    -0.497978204850E+02    0.10737E-02   -0.37331E-03   376   0.387E-01    0.226E-01
DAV:   6    -0.497988696590E+02   -0.10492E-02   -0.20275E-03   368   0.310E-01    0.259E-01
DAV:   7    -0.497986567322E+02    0.21293E-03   -0.17199E-03   392   0.282E-01    0.984E-02
DAV:   8    -0.497988322149E+02   -0.17548E-03   -0.37656E-04   280   0.141E-01    0.597E-02
DAV:   9    -0.497988446181E+02   -0.12403E-04   -0.86845E-05   248   0.673E-02
  12 F= -.49798845E+02 E0= -.49798845E+02  d E =-.137078E-01  mag=     6.0000
       N       E                     dE             d eps       ncg     rms          rms(c)
DAV:   1    -0.497939019131E+02    0.49303E-02   -0.56926E+00   352   0.642E+00    0.392E-01
DAV:   2    -0.498010192989E+02   -0.71174E-02   -0.88515E-02   376   0.111E+00    0.591E-01
DAV:   3    -0.498001008398E+02    0.91846E-03   -0.15056E-02   376   0.777E-01    0.313E-01
DAV:   4    -0.498005915339E+02   -0.49069E-03   -0.52043E-03   376   0.402E-01    0.256E-01
DAV:   5    -0.498002117490E+02    0.37978E-03   -0.13037E-03   368   0.234E-01    0.131E-01
DAV:   6    -0.498006340925E+02   -0.42234E-03   -0.71120E-04   360   0.181E-01    0.154E-01
DAV:   7    -0.498005589025E+02    0.75190E-04   -0.55507E-04   336   0.167E-01
  13 F= -.49800559E+02 E0= -.49800559E+02  d E =-.154221E-01  mag=     6.0000
       N       E                     dE             d eps       ncg     rms          rms(c)
DAV:   1    -0.497997535502E+02    0.88054E-03   -0.75850E+00   352   0.743E+00    0.429E-01
DAV:   2    -0.498092470148E+02   -0.94935E-02   -0.11474E-01   360   0.129E+00    0.647E-01
DAV:   3    -0.498077323826E+02    0.15146E-02   -0.16388E-02   368   0.888E-01    0.270E-01
DAV:   4    -0.498081371371E+02   -0.40475E-03   -0.19656E-03   368   0.282E-01    0.146E-01
DAV:   5    -0.498083360850E+02   -0.19895E-03   -0.75540E-04   368   0.191E-01    0.146E-01
DAV:   6    -0.498085078497E+02   -0.17176E-03   -0.13296E-03   376   0.193E-01    0.156E-01
DAV:   7    -0.498084538431E+02    0.54007E-04   -0.85568E-04   272   0.169E-01
  14 F= -.49808454E+02 E0= -.49808454E+02  d E =-.789494E-02  mag=     6.0000
       N       E                     dE             d eps       ncg     rms          rms(c)
DAV:   1    -0.498039013493E+02    0.46065E-02   -0.55332E+00   352   0.635E+00    0.369E-01
DAV:   2    -0.498107238236E+02   -0.68225E-02   -0.83883E-02   368   0.110E+00    0.549E-01
DAV:   3    -0.498097120476E+02    0.10118E-02   -0.12117E-02   368   0.750E-01    0.245E-01
DAV:   4    -0.498100162117E+02   -0.30416E-03   -0.16847E-03   360   0.255E-01    0.141E-01
DAV:   5    -0.498101765963E+02   -0.16038E-03   -0.68280E-04   312   0.180E-01    0.140E-01
DAV:   6    -0.498102860617E+02   -0.10947E-03   -0.95897E-04   344   0.174E-01    0.134E-01
DAV:   7    -0.498102838246E+02    0.22370E-05   -0.58989E-04   272   0.149E-01
  15 F= -.49810284E+02 E0= -.49810284E+02  d E =-.972492E-02  mag=     6.0000
       N       E                     dE             d eps       ncg     rms          rms(c)
DAV:   1    -0.498078617886E+02    0.24243E-02   -0.45382E+00   352   0.575E+00    0.342E-01
DAV:   2    -0.498134718684E+02   -0.56101E-02   -0.68719E-02   376   0.106E+00    0.549E-01
DAV:   3    -0.498126381125E+02    0.83376E-03   -0.10213E-02   368   0.722E-01    0.268E-01
DAV:   4    -0.498129063999E+02   -0.26829E-03   -0.26009E-03   360   0.316E-01    0.184E-01
DAV:   5    -0.498129378920E+02   -0.31492E-04   -0.95453E-04   336   0.205E-01
  16 F= -.49812938E+02 E0= -.49812938E+02  d E =-.265407E-02  mag=     6.0000
       N       E                     dE             d eps       ncg     rms          rms(c)
DAV:   1    -0.498126600356E+02    0.24636E-03   -0.45854E-01   368   0.184E+00    0.156E-01
DAV:   2    -0.498138157956E+02   -0.11558E-02   -0.81699E-03   376   0.467E-01    0.385E-01
DAV:   3    -0.498126738102E+02    0.11420E-02   -0.26736E-03   368   0.378E-01    0.859E-02
DAV:   4    -0.498132020295E+02   -0.52822E-03   -0.45281E-04   240   0.109E-01    0.978E-02
DAV:   5    -0.498131772932E+02    0.24736E-04   -0.26217E-04   224   0.101E-01
  17 F= -.49813177E+02 E0= -.49813177E+02  d E =-.289347E-02  mag=     6.0000
       N       E                     dE             d eps       ncg     rms          rms(c)
DAV:   1    -0.498119387045E+02    0.12633E-02   -0.23146E+00   368   0.407E+00    0.259E-01
DAV:   2    -0.498151157987E+02   -0.31771E-02   -0.40070E-02   376   0.802E-01    0.511E-01
DAV:   3    -0.498138726464E+02    0.12432E-02   -0.10330E-02   368   0.597E-01    0.208E-01
DAV:   4    -0.498144934359E+02   -0.62079E-03   -0.19228E-03   360   0.243E-01    0.140E-01
DAV:   5    -0.498144844867E+02    0.89491E-05   -0.49600E-04   288   0.155E-01
  18 F= -.49814484E+02 E0= -.49814484E+02  d E =-.130719E-02  mag=     6.0000
       N       E                     dE             d eps       ncg     rms          rms(c)
DAV:   1    -0.498142323339E+02    0.26110E-03   -0.44701E-01   368   0.180E+00    0.127E-01
DAV:   2    -0.498148250699E+02   -0.59274E-03   -0.72954E-03   368   0.365E-01    0.236E-01
DAV:   3    -0.498144893010E+02    0.33577E-03   -0.17394E-03   368   0.270E-01    0.725E-02
DAV:   4    -0.498147201597E+02   -0.23086E-03   -0.20695E-04   232   0.767E-02    0.603E-02
DAV:   5    -0.498147564106E+02   -0.36251E-04   -0.14275E-04   224   0.749E-02
  19 F= -.49814756E+02 E0= -.49814756E+02  d E =-.157912E-02  mag=     6.0000
       N       E                     dE             d eps       ncg     rms          rms(c)
DAV:   1    -0.498131846823E+02    0.15355E-02   -0.20648E+00   352   0.384E+00    0.242E-01
DAV:   2    -0.498165539949E+02   -0.33693E-02   -0.36060E-02   376   0.765E-01    0.564E-01
DAV:   3    -0.498146355963E+02    0.19184E-02   -0.93977E-03   376   0.585E-01    0.165E-01
DAV:   4    -0.498154747374E+02   -0.83914E-03   -0.13987E-03   360   0.213E-01    0.115E-01
DAV:   5    -0.498154715691E+02    0.31683E-05   -0.29927E-04   264   0.127E-01
  20 F= -.49815472E+02 E0= -.49815472E+02  d E =-.715159E-03  mag=     6.0000
       N       E                     dE             d eps       ncg     rms          rms(c)
DAV:   1    -0.498155090983E+02   -0.34361E-04   -0.72853E-02   376   0.734E-01    0.991E-02
DAV:   2    -0.498160025313E+02   -0.49343E-03   -0.20996E-03   400   0.330E-01    0.274E-01
DAV:   3    -0.498153442962E+02    0.65824E-03   -0.89183E-04   384   0.264E-01    0.450E-02
DAV:   4    -0.498155952039E+02   -0.25091E-03   -0.13035E-04   240   0.669E-02    0.352E-02
DAV:   5    -0.498156262374E+02   -0.31033E-04   -0.58821E-05   232   0.441E-02
  21 F= -.49815626E+02 E0= -.49815626E+02  d E =-.869827E-03  mag=     6.0000
