13
Energy = -122.5625143 eV
Ta 11.899506063051687 9.398392051090187 9.033200752649979
Ta 10.547323758860554 7.065146829292198 8.528155711865903
Ta 11.186092940005397 7.8584232449139515 10.985729518359973
Ta 10.852788106965685 10.683761353759532 11.016049819104294
Ta 9.209292103716542 9.103410304770316 7.731137237006062
Ta 10.035008534884243 11.380619993253038 8.582395352629149
Ta 8.198053845056773 10.335428456635778 10.05405775783848
Ta 8.51635563233104 7.622558190022008 10.014909533388279
Ta 7.148526883941531 10.936793878470988 7.555102120025414
Ta 7.001174666380565 8.865323171081348 6.117204332732083
Ta 9.397083720545938 9.071754638844366 12.152616014214583
Ta 6.326492251009807 8.761947313328802 8.670416562388473
Ta 7.613967078252292 6.854198308871568 7.50723810153806
