11
Energy = -102.95592019 eV
Ta 11.818706972367439 7.558448007752706 10.587799992419972
Ta 11.351470422139814 10.207867362076296 10.833741333667483
Ta 10.390722537142432 8.801459320444728 8.684466721208764
Ta 9.53710668575336 8.29146361201937 11.593250519093697
Ta 9.769285708630497 6.439945995924511 9.799168247177732
Ta 7.859182275063141 8.260252640833018 9.478533091405637
Ta 10.767372784951048 11.453726055183775 8.457259307595303
Ta 10.31397177552709 12.700178061233348 10.69336574729892
Ta 8.655815753107941 10.593417838414647 10.52149008568032
Ta 8.380711329246832 10.352402215339945 7.8372364051188335
Ta 8.58397408280479 12.762428781190609 8.939204378070906
