10
Energy = -94.11192332 eV
Ta 6.535348323287194 9.359245262850033 6.32415563038203
Ta 5.915515376258411 8.365001800077122 8.689865812020848
Ta 8.000132865501477 7.619245051555505 5.092788651262526
Ta 7.643871288447824 10.217506494586425 8.488579325805665
Ta 6.14172927352658 6.750621788648711 6.601480392641811
Ta 9.757356380960346 6.480260948436658 8.844037029613176
Ta 8.161926879246048 8.168212789576055 10.037247532701508
Ta 8.545700970551252 5.647455880511618 6.70971533469606
Ta 9.04998531374778 8.422303122104779 7.282808503748275
Ta 7.267240193301586 5.988953726481729 8.948128651956992
