5
Energy = -42.83719975 eV
Ta 9.640852355171805 7.058289122346758 8.737109939960934
Ta 10.428669490731435 10.8187254344504 9.291510451340843
Ta 9.110230481636053 9.31646192352995 7.730815862266324
Ta 11.491408411016188 8.692274176692212 8.635057771790107
Ta 9.246030318650527 8.90976173270449 10.31849597302381
