5
Energy = -42.83568838 eV
Ta 8.925407314574977 10.328340435654324 9.325462249885966
Ta 9.558554612496104 10.124446543768524 11.703792983724648
Ta 10.570206806494006 12.026589042137992 10.22468574719601
Ta 12.00010476724992 10.538414759935211 11.682915858423822
Ta 11.26408435661058 9.575514149917307 9.539303991334574
