55
Energy = -565.54881851 eV
Ta 13.723930310476918 14.367587690361963 13.555442882180127
Ta 8.872973829721644 9.260878307773616 12.423174242082652
Ta 13.735800971958124 9.525075443454561 16.151354406408302
Ta 9.166721974025881 13.89367942854295 14.437754002925649
Ta 13.475785648648465 12.712658157821224 11.228754730457542
Ta 14.121565966838105 12.656645472717736 16.003749671089754
Ta 13.771914710540425 17.29084017492334 13.554489703642751
Ta 13.910044130018258 15.857013873449045 11.089054821969002
Ta 15.75066902140494 16.788799647174876 14.948424372537888
Ta 13.823963786440746 10.946019792085442 13.670595224085133
Ta 13.536393063917009 9.320412076415932 11.410080335493237
Ta 11.598159256725204 13.792876742258727 16.611186403230615
Ta 9.30373832476183 10.920436774800793 14.317234552609689
Ta 15.858749969321345 13.979400270137136 10.959387005828225
Ta 9.463157139461453 12.285027565222057 16.499109575923683
Ta 13.934511348835324 7.923191517773944 13.590577947335891
Ta 15.747900219656815 11.001793088313782 11.022760625295684
Ta 16.310780585572576 11.137892975476198 15.570107671016697
Ta 11.497884453785801 12.538046350851141 13.990984004461534
Ta 8.800540258349102 14.059861617920335 9.974965592970571
Ta 15.899980455938792 8.547669892900403 15.243426945470489
Ta 11.171187310788715 15.705988117131099 14.455375926038958
Ta 8.759984889175161 11.079901673848898 9.856472749920483
Ta 13.521795429583156 15.653329133452926 16.06333461313936
Ta 11.566846078812581 9.274071540586652 13.934852865111067
Ta 11.14279506184088 12.507635782931404 9.15625037898561
Ta 16.348972172741405 14.212978021554356 15.234231341435754
Ta 16.029020222030244 12.529789214725318 13.252806823948534
Ta 15.666861273231543 12.381724297935005 8.800489990793102
Ta 9.08189441758728 12.583724437874555 7.199341205056324
Ta 16.216619963976285 15.77005887910613 12.771980239878244
Ta 11.659022553469445 15.352999619117472 9.397215306146405
Ta 9.603470093553764 15.032180123743283 7.704619644631571
Ta 16.21787102624438 9.423286826444953 12.95784632153287
Ta 9.590327662281018 16.554535642365224 10.34900899435099
Ta 9.370195320264678 10.113324625425719 7.504276078804862
Ta 11.087097374091922 14.202011805667405 11.859373062870342
Ta 11.430140959218951 9.41653200353457 9.134095699797118
Ta 11.621837884809256 13.951983329201543 6.657621728268726
Ta 11.62363232581112 16.88394202299358 12.12359971272508
Ta 9.282914131519268 8.494954327131705 10.08410363680311
Ta 11.540446745603653 11.017954463405694 6.641439945715379
Ta 11.203677481225895 10.875309470396846 11.572090895061462
Ta 13.800400465994626 14.12212483844944 8.671624743053682
Ta 13.627990602646923 12.383773130971308 6.6734911132515355
Ta 11.206888635137757 7.897611462797708 11.799889854427784
Ta 13.515209126351428 10.93607379019571 9.040168877444074
Ta 15.781620857833161 12.787416423053815 18.282947785443696
Ta 8.914032505077191 12.452632210780688 12.147875882992107
Ta 11.587945036830364 10.941659974218757 16.207533082304025
Ta 15.606001159729464 15.26267508466773 17.487317783415314
Ta 8.896885758478989 15.75722017434183 12.583529610380898
Ta 13.491245686601175 14.260996336880904 18.60698224722683
Ta 15.333955983688293 10.431452755168408 17.93890583400338
Ta 13.024172699571709 11.770465921726029 18.42481563022648
