6
Energy = -52.82901479 eV
Ta 9.761788597593405 9.02476149535322 10.360470018824415
Ta 9.89826814247485 9.292332192560353 7.912288442346443
Ta 9.256637389022353 6.847917065925529 8.875378532229808
Ta 7.941493451954817 8.018076816579596 7.007198895112282
Ta 7.455965850939506 8.412901485940493 9.639089861089248
Ta 7.6869545207368235 10.40579339345881 8.202810822824542
