7
Energy = -62.29186952 eV
Ta 8.96784643883432 9.899580389002438 8.84672350627814
Ta 10.648651843329704 11.857221234587533 8.801290480433842
Ta 11.397123055081913 9.527994325931134 9.38551303080594
Ta 11.296756213738217 11.435881471695954 11.621793580824743
Ta 8.985682901368007 11.627774434709329 10.74671082095453
Ta 11.976990805808992 9.07974133804556 11.749683288573761
Ta 9.542294424429286 9.387152488618614 11.663630974719482
