7
Energy = -63.6401702 eV
Ta 10.707051542210712 10.24407433681946 8.669334092445697
Ta 10.001407919668232 9.298582075440931 10.855119628259388
Ta 9.822545599942261 7.711919095697764 8.646641425253842
Ta 8.050323523613402 7.72147489462279 10.430938838112363
Ta 8.176930257549621 10.325283814157343 9.349929350135678
Ta 9.070082315033321 9.362790466208285 6.894088934075386
Ta 7.174262646038054 8.342126748283386 8.169219993275526
