    4    4 1000    2
  0.1146563E+04  0.1661445E-08  0.1661445E-08  0.1661445E-08  0.1000000E-15
  1.000000000000000E-004
  CAR 
 unknown system                          
     44      1     28
 
  0.0000000E+00  0.0000000E+00  0.0000000E+00  0.1000000E+01
    1       -8.846579     -8.846579
    2       -8.796763     -8.796763
    3       -8.288792     -8.288792
    4       -8.240858     -8.240858
    5       -8.167102     -8.167102
    6       -7.982968     -7.982968
    7       -7.718781     -7.718781
    8       -7.608986     -7.608986
    9       -7.264586     -7.264586
   10       -7.242054     -7.242054
   11       -7.151358     -7.151358
   12       -6.991559     -6.991559
   13       -6.970946     -6.970946
   14       -6.963179     -6.963179
   15       -6.864836     -6.864836
   16       -6.832480     -6.832480
   17       -6.780680     -6.780680
   18       -6.742875     -6.742875
   19       -6.675389     -6.675389
   20       -6.450129     -6.450129
   21       -6.190955     -6.190955
   22       -4.252359     -4.252359
   23       -3.412190     -3.412190
   24       -2.255907     -2.255907
   25       -1.644313     -1.644312
   26       -0.921430     -0.921428
   27       -0.869993     -0.869988
   28       -0.381916     -0.381914
