<?xml version="1.0" encoding="ISO-8859-1"?>
<modeling>
 <generator>
  <i name="program" type="string">vasp </i>
  <i name="version" type="string">5.3.5  </i>
  <i name="subversion" type="string">31Mar14 (build Feb 01 2018 12:10:03) gamma-only                       parallel </i>
  <i name="platform" type="string">LinuxIFC </i>
  <i name="date" type="string">2019 03 21 </i>
  <i name="time" type="string">21:26:29 </i>
 </generator>
 <incar>
  <i type="string" name="PREC">normal</i>
  <i type="int" name="ISPIN">     2</i>
  <i type="int" name="IBRION">     2</i>
  <i type="int" name="NSW">  1000</i>
  <i type="int" name="ISIF">     2</i>
  <i name="POTIM">      0.10000000</i>
  <i type="logical" name="LPLANE"> T  </i>
  <i type="int" name="ISMEAR">     0</i>
  <i name="SIGMA">      0.00010000</i>
  <i type="logical" name="LWAVE"> F  </i>
  <i type="logical" name="LCHARG"> F  </i>
  <i type="logical" name="LVTOT"> F  </i>
  <i type="string" name="GGA"> PE</i>
 </incar>
 <kpoints>
  <varray name="kpointlist" >
   <v>       0.00000000       0.00000000       0.00000000 </v>
  </varray>
  <varray name="weights" >
   <v>       1.00000000 </v>
  </varray>
 </kpoints>
 <parameters>
  <separator name="general" >
   <i type="string" name="SYSTEM">unknown system</i>
   <i type="logical" name="LCOMPAT"> F  </i>
  </separator>
  <separator name="electronic" >
   <i type="string" name="PREC">normal</i>
   <i name="ENMAX">    249.84400000</i>
   <i name="ENAUG">    412.49600000</i>
   <i name="EDIFF">      0.00010000</i>
   <i type="int" name="IALGO">    38</i>
   <i type="int" name="IWAVPR">    11</i>
   <i type="int" name="NBANDS">   152</i>
   <i name="NELECT">    231.00000000</i>
   <i type="int" name="TURBO">     0</i>
   <i type="int" name="IRESTART">     0</i>
   <i type="int" name="NREBOOT">     0</i>
   <i type="int" name="NMIN">     0</i>
   <i name="EREF">      0.00000000</i>
   <separator name="electronic smearing" >
    <i type="int" name="ISMEAR">     0</i>
    <i name="SIGMA">      0.00010000</i>
    <i name="KSPACING">      0.50000000</i>
    <i type="logical" name="KGAMMA"> T  </i>
   </separator>
   <separator name="electronic projectors" >
    <i type="logical" name="LREAL"> F  </i>
    <v name="ROPT">      0.00000000</v>
    <i type="int" name="LMAXPAW">  -100</i>
    <i type="int" name="LMAXMIX">     2</i>
    <i type="logical" name="NLSPLINE"> F  </i>
   </separator>
   <separator name="electronic startup" >
    <i type="int" name="ISTART">     0</i>
    <i type="int" name="ICHARG">     2</i>
    <i type="int" name="INIWAV">     1</i>
   </separator>
   <separator name="electronic spin" >
    <i type="int" name="ISPIN">     2</i>
    <i type="logical" name="LNONCOLLINEAR"> F  </i>
    <v name="MAGMOM">      1.00000000      1.00000000      1.00000000      1.00000000      1.00000000      1.00000000      1.00000000      1.00000000      1.00000000      1.00000000      1.00000000      1.00000000      1.00000000      1.00000000      1.00000000      1.00000000      1.00000000      1.00000000      1.00000000      1.00000000
      1.00000000</v>
    <i name="NUPDOWN">     -1.00000000</i>
    <i type="logical" name="LSORBIT"> F  </i>
    <v name="SAXIS">      0.00000000      0.00000000      1.00000000</v>
    <i type="logical" name="LSPIRAL"> F  </i>
    <v name="QSPIRAL">      0.00000000      0.00000000      0.00000000</v>
    <i type="logical" name="LZEROZ"> F  </i>
   </separator>
   <separator name="electronic exchange-correlation" >
    <i type="logical" name="LASPH"> F  </i>
    <i type="logical" name="LMETAGGA"> F  </i>
   </separator>
   <separator name="electronic convergence" >
    <i type="int" name="NELM">    60</i>
    <i type="int" name="NELMDL">    -5</i>
    <i type="int" name="NELMIN">     2</i>
    <i name="ENINI">    249.84400000</i>
    <separator name="electronic convergence detail" >
     <i type="logical" name="LDIAG"> T  </i>
     <i type="logical" name="LSUBROT"> F  </i>
     <i name="WEIMIN">      0.00100000</i>
     <i name="EBREAK">      0.00000016</i>
     <i name="DEPER">      0.30000000</i>
     <i type="int" name="NRMM">     4</i>
     <i name="TIME">      0.40000000</i>
    </separator>
   </separator>
   <separator name="electronic mixer" >
    <i name="AMIX">      0.40000000</i>
    <i name="BMIX">      1.00000000</i>
    <i name="AMIN">      0.10000000</i>
    <i name="AMIX_MAG">      1.60000000</i>
    <i name="BMIX_MAG">      1.00000000</i>
    <separator name="electronic mixer details" >
     <i type="int" name="IMIX">     4</i>
     <i type="int" name="MAXMIX">   -45</i>
     <i name="WC">    100.00000000</i>
     <i type="int" name="INIMIX">     1</i>
     <i type="int" name="MIXPRE">     1</i>
     <i type="int" name="MREMOVE">     5</i>
    </separator>
   </separator>
   <separator name="electronic dipolcorrection" >
    <i type="logical" name="LDIPOL"> F  </i>
    <i type="logical" name="LMONO"> F  </i>
    <i type="int" name="IDIPOL">     0</i>
    <i name="EPSILON">      1.00000000</i>
    <v name="DIPOL">   -100.00000000   -100.00000000   -100.00000000</v>
    <i name="EFIELD">      0.00000000</i>
   </separator>
  </separator>
  <separator name="grids" >
   <i type="int" name="NGX">    80</i>
   <i type="int" name="NGY">    80</i>
   <i type="int" name="NGZ">    80</i>
   <i type="int" name="NGXF">   160</i>
   <i type="int" name="NGYF">   160</i>
   <i type="int" name="NGZF">   160</i>
   <i type="logical" name="ADDGRID"> F  </i>
  </separator>
  <separator name="ionic" >
   <i type="int" name="NSW">  1000</i>
   <i type="int" name="IBRION">     2</i>
   <i type="int" name="ISIF">     2</i>
   <i name="PSTRESS">      0.00000000</i>
   <i name="EDIFFG">      0.00100000</i>
   <i type="int" name="NFREE">     1</i>
   <i name="POTIM">      0.10000000</i>
   <i name="SMASS">     -3.00000000</i>
   <i name="SCALEE">      1.00000000</i>
  </separator>
  <separator name="ionic md" >
   <i name="TEBEG">      0.00010000</i>
   <i name="TEEND">      0.00010000</i>
   <i type="int" name="NBLOCK">     1</i>
   <i type="int" name="KBLOCK">  1000</i>
   <i type="int" name="NPACO">   256</i>
   <i name="APACO">     16.00000000</i>
  </separator>
  <separator name="symmetry" >
   <i type="int" name="ISYM">     2</i>
   <i name="SYMPREC">      0.00001000</i>
  </separator>
  <separator name="dos" >
   <i type="logical" name="LORBIT"> F  </i>
   <v name="RWIGS">     -1.00000000</v>
   <i type="int" name="NEDOS">   301</i>
   <i name="EMIN">     10.00000000</i>
   <i name="EMAX">    -10.00000000</i>
   <i name="EFERMI">      0.00000000</i>
  </separator>
  <separator name="writing" >
   <i type="int" name="NWRITE">     2</i>
   <i type="logical" name="LWAVE"> F  </i>
   <i type="logical" name="LCHARG"> F  </i>
   <i type="logical" name="LPARD"> F  </i>
   <i type="logical" name="LVTOT"> F  </i>
   <i type="logical" name="LVHAR"> F  </i>
   <i type="logical" name="LELF"> F  </i>
   <i type="logical" name="LOPTICS"> F  </i>
   <v name="STM">      0.00000000      0.00000000      0.00000000      0.00000000      0.00000000      0.00000000      0.00000000</v>
  </separator>
  <separator name="performance" >
   <i type="int" name="NPAR">     4</i>
   <i type="int" name="NSIM">     4</i>
   <i type="int" name="NBLK">    -1</i>
   <i type="logical" name="LPLANE"> T  </i>
   <i type="logical" name="LSCALAPACK"> T  </i>
   <i type="logical" name="LSCAAWARE"> F  </i>
   <i type="logical" name="LSCALU"> F  </i>
   <i type="logical" name="LASYNC"> F  </i>
   <i type="logical" name="LORBITALREAL"> F  </i>
  </separator>
  <separator name="miscellaneous" >
   <i type="int" name="IDIOT">     3</i>
   <i type="logical" name="LMUSIC"> F  </i>
   <v name="POMASS">    107.86800000</v>
   <v name="DARWINR">      0.00000000</v>
   <v name="DARWINV">      1.00000000</v>
   <i type="logical" name="LCORR"> T  </i>
  </separator>
  <i type="logical" name="GGA_COMPAT"> T  </i>
  <i type="logical" name="LBERRY"> F  </i>
  <i type="int" name="ICORELEVEL">     0</i>
  <i type="logical" name="LDAU"> F  </i>
  <i type="int" name="I_CONSTRAINED_M">     0</i>
  <separator name="electronic exchange-correlation" >
   <i type="string" name="GGA">PE</i>
   <i type="int" name="VOSKOWN">     0</i>
   <i type="logical" name="LHFCALC"> F  </i>
   <i type="string" name="PRECFOCK"></i>
   <i type="logical" name="LSYMGRAD"> F  </i>
   <i type="logical" name="LHFONE"> F  </i>
   <i type="logical" name="LRHFCALC"> F  </i>
   <i type="logical" name="LTHOMAS"> F  </i>
   <i type="logical" name="LMODELHF"> F  </i>
   <i name="ENCUT4O">     -1.00000000</i>
   <i type="int" name="EXXOEP">     0</i>
   <i type="int" name="FOURORBIT">     0</i>
   <i name="AEXX">      0.00000000</i>
   <i name="HFALPHA">      0.00000000</i>
   <i name="MCALPHA">      0.00000000</i>
   <i name="ALDAX">      1.00000000</i>
   <i name="AGGAX">      1.00000000</i>
   <i name="ALDAC">      1.00000000</i>
   <i name="AGGAC">      1.00000000</i>
   <i type="int" name="NKREDX">     1</i>
   <i type="int" name="NKREDY">     1</i>
   <i type="int" name="NKREDZ">     1</i>
   <i type="logical" name="SHIFTRED"> F  </i>
   <i type="logical" name="ODDONLY"> F  </i>
   <i type="logical" name="EVENONLY"> F  </i>
   <i type="int" name="LMAXFOCK">     0</i>
   <i type="int" name="NMAXFOCKAE">     0</i>
   <i type="logical" name="LFOCKAEDFT"> F  </i>
   <i name="HFSCREEN">      0.00000000</i>
   <i name="HFSCREENC">      0.00000000</i>
   <i type="int" name="NBANDSGWLOW">     0</i>
  </separator>
  <separator name="vdW DFT" >
   <i type="logical" name="LUSE_VDW"> F  </i>
   <i name="Zab_VDW">     -0.84910000</i>
   <i name="PARAM1">      0.12340000</i>
   <i name="PARAM2">      1.00000000</i>
   <i name="PARAM3">      0.00000000</i>
  </separator>
  <separator name="model GW" >
   <i type="int" name="MODEL_GW">     0</i>
   <i name="MODEL_EPS0">    256.38645395</i>
   <i name="MODEL_ALPHA">      1.00000000</i>
  </separator>
  <separator name="linear response parameters" >
   <i type="logical" name="LEPSILON"> F  </i>
   <i type="logical" name="LRPA"> F  </i>
   <i type="logical" name="LNABLA"> F  </i>
   <i type="logical" name="LVEL"> F  </i>
   <i type="int" name="KINTER">     0</i>
   <i name="CSHIFT">      0.10000000</i>
   <i name="OMEGAMAX">     -1.00000000</i>
   <i name="DEG_THRESHOLD">      0.00200000</i>
  </separator>
  <separator name="orbital magnetization" >
   <i type="logical" name="NUCIND"> F  </i>
   <v name="MAGPOS">      0.00000000      0.00000000      0.00000000</v>
   <i type="logical" name="LNICSALL"> T  </i>
   <i type="logical" name="ORBITALMAG"> F  </i>
   <i type="logical" name="LMAGBLOCH"> F  </i>
   <i type="logical" name="LCHIMAG"> F  </i>
   <i type="logical" name="LGAUGE"> T  </i>
   <i type="int" name="MAGATOM">     0</i>
   <v name="MAGDIPOL">      0.00000000      0.00000000      0.00000000</v>
   <v name="AVECCONST">      0.00000000      0.00000000      0.00000000</v>
  </separator>
  <separator name="response functions" >
   <i type="logical" name="LADDER"> F  </i>
   <i type="logical" name="LFXC"> F  </i>
   <i type="logical" name="LHARTREE"> T  </i>
   <i type="int" name="IBSE">     0</i>
   <i type="logical" name="LTCTE"> F  </i>
   <i type="logical" name="LTETE"> F  </i>
   <i type="logical" name="LTRIPLET"> F  </i>
   <i type="logical" name="LFXCEPS"> F  </i>
   <i type="logical" name="LFXHEG"> F  </i>
   <i type="logical" name="L2ORDER"> F  </i>
   <i type="logical" name="LUSEW"> F  </i>
   <i name="ENCUTGW">     -2.00000000</i>
   <i name="ENCUTGWSOFT">     -2.00000000</i>
   <i name="ENCUTLF">     -1.00000000</i>
   <i type="int" name="LMAXMP2">    -1</i>
   <i name="SCISSOR">      0.00000000</i>
   <i type="int" name="NOMEGA">     0</i>
   <i type="int" name="NOMEGAR">     0</i>
   <i type="int" name="NBANDSGW">    -1</i>
   <i type="int" name="NBANDSO">    -1</i>
   <i type="int" name="NBANDSV">    -1</i>
   <i type="int" name="NELM">     1</i>
   <i type="int" name="DIM">     3</i>
   <i type="int" name="ANTIRES">     0</i>
   <i name="OMEGAMAX">    -30.00000000</i>
   <i name="OMEGAMIN">    -30.00000000</i>
   <i name="OMEGATL">   -200.00000000</i>
   <i type="int" name="OMEGAGRID">     0</i>
   <i name="CSHIFT">     -0.10000000</i>
   <i type="logical" name="SELFENERGY"> F  </i>
   <i type="logical" name="LSPECTRAL"> F  </i>
   <i type="logical" name="ODDONLYGW"> F  </i>
   <i type="logical" name="EVENONLYGW"> F  </i>
   <i type="int" name="NKREDLFX">     1</i>
   <i type="int" name="NKREDLFY">     1</i>
   <i type="int" name="NKREDLFZ">     1</i>
   <i type="int" name="MAXMEM">  1800</i>
   <i type="int" name="TELESCOPE">     0</i>
   <i type="int" name="TAUPAR">     1</i>
  </separator>
  <separator name="External order field" >
   <i name="OFIELD_KAPPA">      0.00000000</i>
   <v name="OFIELD_K">      0.00000000      0.00000000      0.00000000</v>
   <i name="OFIELD_Q6_NEAR">      0.00000000</i>
   <i name="OFIELD_Q6_FAR">      0.00000000</i>
   <i name="OFIELD_A">      0.00000000</i>
  </separator>
 </parameters>
 <atominfo>
  <atoms>      21 </atoms>
  <types>       1 </types>
  <array name="atoms" >
   <dimension dim="1">ion</dimension>
   <field type="string">element</field>
   <field type="int">atomtype</field>
   <set>
    <rc><c>Ag</c><c>   1</c></rc>
    <rc><c>Ag</c><c>   1</c></rc>
    <rc><c>Ag</c><c>   1</c></rc>
    <rc><c>Ag</c><c>   1</c></rc>
    <rc><c>Ag</c><c>   1</c></rc>
    <rc><c>Ag</c><c>   1</c></rc>
    <rc><c>Ag</c><c>   1</c></rc>
    <rc><c>Ag</c><c>   1</c></rc>
    <rc><c>Ag</c><c>   1</c></rc>
    <rc><c>Ag</c><c>   1</c></rc>
    <rc><c>Ag</c><c>   1</c></rc>
    <rc><c>Ag</c><c>   1</c></rc>
    <rc><c>Ag</c><c>   1</c></rc>
    <rc><c>Ag</c><c>   1</c></rc>
    <rc><c>Ag</c><c>   1</c></rc>
    <rc><c>Ag</c><c>   1</c></rc>
    <rc><c>Ag</c><c>   1</c></rc>
    <rc><c>Ag</c><c>   1</c></rc>
    <rc><c>Ag</c><c>   1</c></rc>
    <rc><c>Ag</c><c>   1</c></rc>
    <rc><c>Ag</c><c>   1</c></rc>
   </set>
  </array>
  <array name="atomtypes" >
   <dimension dim="1">type</dimension>
   <field type="int">atomspertype</field>
   <field type="string">element</field>
   <field>mass</field>
   <field>valence</field>
   <field type="string">pseudopotential</field>
   <set>
    <rc><c>  21</c><c>Ag</c><c>    107.86800000</c><c>     11.00000000</c><c>  PAW_PBE Ag 02Apr2005                  </c></rc>
   </set>
  </array>
 </atominfo>
 <structure name="initialpos" >
  <crystal>
   <varray name="basis" >
    <v>      20.78042251       0.00000000       0.00000000 </v>
    <v>       0.00000000      20.78042251       0.00000000 </v>
    <v>       0.00000000       0.00000000      20.78042251 </v>
   </varray>
   <i name="volume">   8973.52588835 </i>
   <varray name="rec_basis" >
    <v>       0.04812222       0.00000000       0.00000000 </v>
    <v>       0.00000000       0.04812222       0.00000000 </v>
    <v>       0.00000000       0.00000000       0.04812222 </v>
   </varray>
  </crystal>
  <varray name="positions" >
   <v>       0.61389986       0.49077062       0.33001010 </v>
   <v>       0.50715970       0.56325549       0.32907703 </v>
   <v>       0.50940400       0.45849462       0.40047571 </v>
   <v>       0.40826871       0.60465644       0.40626053 </v>
   <v>       0.42782692       0.36808419       0.44181381 </v>
   <v>       0.61890146       0.50764687       0.45815186 </v>
   <v>       0.52988610       0.40386743       0.52134949 </v>
   <v>       0.73757215       0.50793060       0.50650371 </v>
   <v>       0.53193407       0.60234792       0.44732265 </v>
   <v>       0.66225427       0.40062466       0.52538826 </v>
   <v>       0.41306006       0.49653175       0.47945332 </v>
   <v>       0.59844394       0.49055637       0.58999454 </v>
   <v>       0.40137599       0.38796988       0.56532780 </v>
   <v>       0.43913222       0.61681996       0.53610145 </v>
   <v>       0.57092862       0.62123013       0.56706072 </v>
   <v>       0.47188513       0.49020031       0.61248612 </v>
   <v>       0.68812558       0.58091852       0.59718456 </v>
   <v>       0.34635381       0.49984414       0.59372206 </v>
   <v>       0.59541270       0.57626890       0.69141023 </v>
   <v>       0.35127011       0.62043837       0.63132293 </v>
   <v>       0.47296513       0.60579081       0.66499696 </v>
  </varray>
 </structure>
 <calculation>
  <scstep>
   <time name="dav">    2.00    2.00</time>
   <time name="total">    2.24    2.27</time>
   <energy>
    <i name="alphaZ">     41.80128671 </i>
    <i name="ewald">  35856.79492080 </i>
    <i name="hartreedc"> -56712.12522715 </i>
    <i name="XCdc">   -231.32554202 </i>
    <i name="pawpsdc">  21070.81573946 </i>
    <i name="pawaedc"> -20102.55678646 </i>
    <i name="eentropy">      0.00000000 </i>
    <i name="bandstr">    344.60353788 </i>
    <i name="atom">  21781.17123181 </i>
    <i name="e_fr_energy">   2049.17916103 </i>
    <i name="e_wo_entrp">   2049.17916103 </i>
    <i name="e_0_energy">   2049.17916103 </i>
   </energy>
  </scstep>
  <scstep>
   <time name="dav">    3.24    3.24</time>
   <time name="total">    3.24    3.25</time>
   <energy>
    <i name="e_fr_energy">    532.63803692 </i>
    <i name="e_wo_entrp">    532.63803692 </i>
    <i name="e_0_energy">    532.63803692 </i>
   </energy>
  </scstep>
  <scstep>
   <time name="dav">    2.60    2.60</time>
   <time name="total">    2.60    2.61</time>
   <energy>
    <i name="e_fr_energy">     -5.68971169 </i>
    <i name="e_wo_entrp">     -5.68971169 </i>
    <i name="e_0_energy">     -5.68971169 </i>
   </energy>
  </scstep>
  <scstep>
   <time name="dav">    2.26    2.25</time>
   <time name="total">    2.26    2.26</time>
   <energy>
    <i name="e_fr_energy">    -39.67798557 </i>
    <i name="e_wo_entrp">    -39.67798557 </i>
    <i name="e_0_energy">    -39.67798557 </i>
   </energy>
  </scstep>
  <scstep>
   <time name="dav">    2.21    2.21</time>
   <time name="total">    2.30    2.36</time>
   <energy>
    <i name="e_fr_energy">    -40.18143497 </i>
    <i name="e_wo_entrp">    -40.18143497 </i>
    <i name="e_0_energy">    -40.18143497 </i>
   </energy>
  </scstep>
  <scstep>
   <time name="dav">    2.05    2.05</time>
   <time name="total">    2.38    2.38</time>
   <energy>
    <i name="e_fr_energy">    -14.20411861 </i>
    <i name="e_wo_entrp">    -14.20411861 </i>
    <i name="e_0_energy">    -14.20411861 </i>
   </energy>
  </scstep>
  <scstep>
   <time name="dav">    2.11    2.11</time>
   <time name="total">    2.44    2.45</time>
   <energy>
    <i name="e_fr_energy">     -7.06259800 </i>
    <i name="e_wo_entrp">     -7.06259800 </i>
    <i name="e_0_energy">     -7.06259800 </i>
   </energy>
  </scstep>
  <scstep>
   <time name="dav">    2.19    2.19</time>
   <time name="total">    2.52    2.52</time>
   <energy>
    <i name="e_fr_energy">     -4.80067969 </i>
    <i name="e_wo_entrp">     -4.80067969 </i>
    <i name="e_0_energy">     -4.80067969 </i>
   </energy>
  </scstep>
  <scstep>
   <time name="dav">    2.17    2.18</time>
   <time name="total">    2.50    2.51</time>
   <energy>
    <i name="e_fr_energy">    -11.49253042 </i>
    <i name="e_wo_entrp">    -11.49253042 </i>
    <i name="e_0_energy">    -11.49253042 </i>
   </energy>
  </scstep>
  <scstep>
   <time name="dav">    2.10    2.10</time>
   <time name="total">    2.42    2.43</time>
   <energy>
    <i name="e_fr_energy">    -20.51183577 </i>
    <i name="e_wo_entrp">    -20.51183577 </i>
    <i name="e_0_energy">    -20.51183577 </i>
   </energy>
  </scstep>
  <scstep>
   <time name="dav">    2.15    2.16</time>
   <time name="total">    2.49    2.49</time>
   <energy>
    <i name="e_fr_energy">    -28.76138246 </i>
    <i name="e_wo_entrp">    -28.76138246 </i>
    <i name="e_0_energy">    -28.76138246 </i>
   </energy>
  </scstep>
  <scstep>
   <time name="dav">    2.10    2.10</time>
   <time name="total">    2.43    2.43</time>
   <energy>
    <i name="e_fr_energy">    -32.90042800 </i>
    <i name="e_wo_entrp">    -32.90042800 </i>
    <i name="e_0_energy">    -32.90042800 </i>
   </energy>
  </scstep>
  <scstep>
   <time name="dav">    2.20    2.20</time>
   <time name="total">    2.53    4.07</time>
   <energy>
    <i name="e_fr_energy">    -36.58963121 </i>
    <i name="e_wo_entrp">    -36.58963121 </i>
    <i name="e_0_energy">    -36.58963121 </i>
   </energy>
  </scstep>
  <scstep>
   <time name="dav">    2.24    2.25</time>
   <time name="total">    2.57    2.69</time>
   <energy>
    <i name="e_fr_energy">    -36.95188143 </i>
    <i name="e_wo_entrp">    -36.95188143 </i>
    <i name="e_0_energy">    -36.95188143 </i>
   </energy>
  </scstep>
  <scstep>
   <time name="dav">    2.14    2.15</time>
   <time name="total">    2.48    2.49</time>
   <energy>
    <i name="e_fr_energy">    -37.54354256 </i>
    <i name="e_wo_entrp">    -37.54354256 </i>
    <i name="e_0_energy">    -37.54354256 </i>
   </energy>
  </scstep>
  <scstep>
   <time name="dav">    2.11    2.11</time>
   <time name="total">    2.44    2.45</time>
   <energy>
    <i name="e_fr_energy">    -38.33966440 </i>
    <i name="e_wo_entrp">    -38.33966440 </i>
    <i name="e_0_energy">    -38.33966440 </i>
   </energy>
  </scstep>
  <scstep>
   <time name="dav">    2.15    2.15</time>
   <time name="total">    2.48    2.49</time>
   <energy>
    <i name="e_fr_energy">    -38.97559579 </i>
    <i name="e_wo_entrp">    -38.97559579 </i>
    <i name="e_0_energy">    -38.97559579 </i>
   </energy>
  </scstep>
  <scstep>
   <time name="dav">    2.17    2.17</time>
   <time name="total">    2.50    2.51</time>
   <energy>
    <i name="e_fr_energy">    -39.39333287 </i>
    <i name="e_wo_entrp">    -39.39333287 </i>
    <i name="e_0_energy">    -39.39333287 </i>
   </energy>
  </scstep>
  <scstep>
   <time name="dav">    2.19    2.19</time>
   <time name="total">    2.52    2.61</time>
   <energy>
    <i name="e_fr_energy">    -39.58765660 </i>
    <i name="e_wo_entrp">    -39.58765660 </i>
    <i name="e_0_energy">    -39.58765660 </i>
   </energy>
  </scstep>
  <scstep>
   <time name="dav">    1.79    1.79</time>
   <time name="total">    2.12    2.14</time>
   <energy>
    <i name="e_fr_energy">    -39.62685664 </i>
    <i name="e_wo_entrp">    -39.62685664 </i>
    <i name="e_0_energy">    -39.62685664 </i>
   </energy>
  </scstep>
  <scstep>
   <time name="dav">    1.83    1.83</time>
   <time name="total">    2.17    2.21</time>
   <energy>
    <i name="e_fr_energy">    -39.64938680 </i>
    <i name="e_wo_entrp">    -39.64938680 </i>
    <i name="e_0_energy">    -39.64938680 </i>
   </energy>
  </scstep>
  <scstep>
   <time name="dav">    1.71    1.71</time>
   <time name="total">    2.05    2.07</time>
   <energy>
    <i name="e_fr_energy">    -39.65186327 </i>
    <i name="e_wo_entrp">    -39.65186327 </i>
    <i name="e_0_energy">    -39.65186327 </i>
   </energy>
  </scstep>
  <scstep>
   <time name="dav">    1.71    1.71</time>
   <time name="total">    2.05    2.05</time>
   <energy>
    <i name="e_fr_energy">    -39.65652144 </i>
    <i name="e_wo_entrp">    -39.65652144 </i>
    <i name="e_0_energy">    -39.65652144 </i>
   </energy>
  </scstep>
  <scstep>
   <time name="dav">    1.69    1.69</time>
   <time name="total">    2.03    2.04</time>
   <energy>
    <i name="e_fr_energy">    -39.65837953 </i>
    <i name="e_wo_entrp">    -39.65837953 </i>
    <i name="e_0_energy">    -39.65837953 </i>
   </energy>
  </scstep>
  <scstep>
   <time name="dav">    1.61    1.61</time>
   <time name="total">    1.95    1.97</time>
   <energy>
    <i name="e_fr_energy">    -39.65944018 </i>
    <i name="e_wo_entrp">    -39.65944018 </i>
    <i name="e_0_energy">    -39.65944018 </i>
   </energy>
  </scstep>
  <scstep>
   <time name="dav">    1.61    1.61</time>
   <time name="total">    1.94    1.97</time>
   <energy>
    <i name="e_fr_energy">    -39.66004632 </i>
    <i name="e_wo_entrp">    -39.66004632 </i>
    <i name="e_0_energy">    -39.66004632 </i>
   </energy>
  </scstep>
  <scstep>
   <time name="dav">    1.65    1.65</time>
   <time name="total">    1.89    1.92</time>
   <energy>
    <i name="alphaZ">     41.80128671 </i>
    <i name="ewald">  35856.79492080 </i>
    <i name="hartreedc"> -56699.21847138 </i>
    <i name="XCdc">   -238.56347429 </i>
    <i name="pawpsdc">  22870.06943855 </i>
    <i name="pawaedc"> -21941.63237863 </i>
    <i name="eentropy">     -0.00000000 </i>
    <i name="bandstr">  -1710.08266727 </i>
    <i name="atom">  21781.17123181 </i>
    <i name="e_fr_energy">    -39.66011371 </i>
    <i name="e_wo_entrp">    -39.66011371 </i>
    <i name="e_0_energy">    -39.66011371 </i>
   </energy>
  </scstep>
  <structure>
   <crystal>
    <varray name="basis" >
     <v>      20.78042251       0.00000000       0.00000000 </v>
     <v>       0.00000000      20.78042251       0.00000000 </v>
     <v>       0.00000000       0.00000000      20.78042251 </v>
    </varray>
    <i name="volume">   8973.52588835 </i>
    <varray name="rec_basis" >
     <v>       0.04812222       0.00000000       0.00000000 </v>
     <v>       0.00000000       0.04812222       0.00000000 </v>
     <v>       0.00000000       0.00000000       0.04812222 </v>
    </varray>
   </crystal>
   <varray name="positions" >
    <v>       0.61389986       0.49077062       0.33001010 </v>
    <v>       0.50715970       0.56325549       0.32907703 </v>
    <v>       0.50940400       0.45849462       0.40047571 </v>
    <v>       0.40826871       0.60465644       0.40626053 </v>
    <v>       0.42782692       0.36808419       0.44181381 </v>
    <v>       0.61890146       0.50764687       0.45815186 </v>
    <v>       0.52988610       0.40386743       0.52134949 </v>
    <v>       0.73757215       0.50793060       0.50650371 </v>
    <v>       0.53193407       0.60234792       0.44732265 </v>
    <v>       0.66225427       0.40062466       0.52538826 </v>
    <v>       0.41306006       0.49653175       0.47945332 </v>
    <v>       0.59844394       0.49055637       0.58999454 </v>
    <v>       0.40137599       0.38796988       0.56532780 </v>
    <v>       0.43913222       0.61681996       0.53610145 </v>
    <v>       0.57092862       0.62123013       0.56706072 </v>
    <v>       0.47188513       0.49020031       0.61248612 </v>
    <v>       0.68812558       0.58091852       0.59718456 </v>
    <v>       0.34635381       0.49984414       0.59372206 </v>
    <v>       0.59541270       0.57626890       0.69141023 </v>
    <v>       0.35127011       0.62043837       0.63132293 </v>
    <v>       0.47296513       0.60579081       0.66499696 </v>
   </varray>
  </structure>
  <varray name="forces" >
   <v>       0.31310549       0.00305975      -0.16120105 </v>
   <v>      -0.25308843       0.60144777      -0.77891175 </v>
   <v>       0.08264776      -0.23498680      -0.00185394 </v>
   <v>      -0.19238334       0.10750434      -0.33879766 </v>
   <v>      -0.12660274      -0.48988345      -0.30508329 </v>
   <v>       0.01163909       0.04297972       0.27111208 </v>
   <v>      -0.32142958      -0.12763984      -0.01204535 </v>
   <v>       0.49452173      -0.33756240      -0.28036573 </v>
   <v>       0.20123851       0.19963724      -0.16521709 </v>
   <v>       0.32661425      -0.40376134      -0.15618180 </v>
   <v>      -0.04788379      -0.16214413       0.16339153 </v>
   <v>       0.09512188      -0.02055348       0.31770936 </v>
   <v>       0.04577059      -0.55065827       0.24494439 </v>
   <v>      -0.12114489      -0.10368681       0.19945813 </v>
   <v>      -0.42623495       0.18504801       0.03312505 </v>
   <v>       0.26947311      -0.36061625      -0.06811445 </v>
   <v>       0.59157965       0.37308762       0.34310204 </v>
   <v>      -0.56321280       0.20973035       0.01100179 </v>
   <v>       0.04890228      -0.13929550       0.14852662 </v>
   <v>      -0.61546750       0.55017398       0.20314900 </v>
   <v>       0.18683366       0.65811950       0.33225212 </v>
  </varray>
  <varray name="stress" >
   <v>       0.72439704      -0.34372791      -0.10818891 </v>
   <v>      -0.34372790       0.36773665       0.17147872 </v>
   <v>      -0.10818892       0.17147871       0.22581722 </v>
  </varray>
  <energy>
   <i name="e_fr_energy">    -39.66011371 </i>
   <i name="e_wo_entrp">    -39.66011371 </i>
   <i name="e_0_energy">     -0.00000000 </i>
  </energy>
  <time name="totalsc">   67.20   70.88</time>
 </calculation>
 <calculation>
  <scstep>
   <time name="dav">    2.17    2.17</time>
   <time name="total">    2.50    2.51</time>
   <energy>
    <i name="alphaZ">     41.80128671 </i>
    <i name="ewald">  35772.48181883 </i>
    <i name="hartreedc"> -56615.53068299 </i>
    <i name="XCdc">   -238.69937589 </i>
    <i name="pawpsdc">  22870.05304084 </i>
    <i name="pawaedc"> -21941.61693041 </i>
    <i name="eentropy">      0.00000000 </i>
    <i name="bandstr">  -1709.37532026 </i>
    <i name="atom">  21781.17123181 </i>
    <i name="e_fr_energy">    -39.71493137 </i>
    <i name="e_wo_entrp">    -39.71493137 </i>
    <i name="e_0_energy">    -39.71493137 </i>
   </energy>
  </scstep>
  <scstep>
   <time name="dav">    2.17    2.17</time>
   <time name="total">    2.50    2.50</time>
   <energy>
    <i name="e_fr_energy">    -39.71687646 </i>
    <i name="e_wo_entrp">    -39.71687646 </i>
    <i name="e_0_energy">    -39.71687646 </i>
   </energy>
  </scstep>
  <scstep>
   <time name="dav">    2.23    2.23</time>
   <time name="total">    2.47    4.60</time>
   <energy>
    <i name="alphaZ">     41.80128671 </i>
    <i name="ewald">  35772.48181883 </i>
    <i name="hartreedc"> -56616.28865849 </i>
    <i name="XCdc">   -238.67900300 </i>
    <i name="pawpsdc">  22857.37495789 </i>
    <i name="pawaedc"> -21928.74302315 </i>
    <i name="eentropy">      0.00000000 </i>
    <i name="bandstr">  -1708.83547135 </i>
    <i name="atom">  21781.17123181 </i>
    <i name="e_fr_energy">    -39.71686075 </i>
    <i name="e_wo_entrp">    -39.71686075 </i>
    <i name="e_0_energy">    -39.71686075 </i>
   </energy>
  </scstep>
  <structure>
   <crystal>
    <varray name="basis" >
     <v>      20.78042251       0.00000000       0.00000000 </v>
     <v>       0.00000000      20.78042251       0.00000000 </v>
     <v>       0.00000000       0.00000000      20.78042251 </v>
    </varray>
    <i name="volume">   8973.52588835 </i>
    <varray name="rec_basis" >
     <v>       0.04812222       0.00000000       0.00000000 </v>
     <v>       0.00000000       0.04812222       0.00000000 </v>
     <v>       0.00000000       0.00000000       0.04812222 </v>
    </varray>
   </crystal>
   <varray name="positions" >
    <v>       0.61404523       0.49077204       0.32993525 </v>
    <v>       0.50704219       0.56353475       0.32871537 </v>
    <v>       0.50944237       0.45838552       0.40047485 </v>
    <v>       0.40817939       0.60470635       0.40610322 </v>
    <v>       0.42776813       0.36785673       0.44167215 </v>
    <v>       0.61890686       0.50766682       0.45827774 </v>
    <v>       0.52973685       0.40380817       0.52134390 </v>
    <v>       0.73780176       0.50777386       0.50637353 </v>
    <v>       0.53202751       0.60244061       0.44724594 </v>
    <v>       0.66240592       0.40043719       0.52531574 </v>
    <v>       0.41303783       0.49645646       0.47952919 </v>
    <v>       0.59848811       0.49054683       0.59014206 </v>
    <v>       0.40139724       0.38771420       0.56544153 </v>
    <v>       0.43907598       0.61677182       0.53619406 </v>
    <v>       0.57073071       0.62131605       0.56707610 </v>
    <v>       0.47201025       0.49003288       0.61245450 </v>
    <v>       0.68840026       0.58109175       0.59734386 </v>
    <v>       0.34609231       0.49994152       0.59372717 </v>
    <v>       0.59543540       0.57620423       0.69147919 </v>
    <v>       0.35098435       0.62069382       0.63141726 </v>
    <v>       0.47305187       0.60609638       0.66515123 </v>
   </varray>
  </structure>
  <varray name="forces" >
   <v>       0.27384408       0.01796256      -0.13707349 </v>
   <v>      -0.22610305       0.54558573      -0.72069209 </v>
   <v>       0.08693373      -0.18870666      -0.02835011 </v>
   <v>      -0.17097111       0.09013677      -0.31760326 </v>
   <v>      -0.12175760      -0.47128871      -0.28235532 </v>
   <v>       0.01443817       0.03427915       0.26489874 </v>
   <v>      -0.29337657      -0.11844841      -0.00837073 </v>
   <v>       0.45981685      -0.32247636      -0.25861530 </v>
   <v>       0.17457139       0.18582590      -0.18141681 </v>
   <v>       0.29513184      -0.36806031      -0.14638890 </v>
   <v>      -0.04276969      -0.16071681       0.15663537 </v>
   <v>       0.12683579      -0.02601208       0.28890624 </v>
   <v>       0.03487705      -0.50850543       0.23204406 </v>
   <v>      -0.12570094      -0.11352645       0.18924570 </v>
   <v>      -0.37960799       0.15918184       0.05028672 </v>
   <v>       0.21847932      -0.31376655      -0.05184637 </v>
   <v>       0.54055829       0.34724208       0.30810948 </v>
   <v>      -0.50168891       0.19517777       0.00805770 </v>
   <v>       0.05284981      -0.13352980       0.13696945 </v>
   <v>      -0.56631883       0.52234324       0.19925628 </v>
   <v>       0.14995838       0.62730251       0.29830264 </v>
  </varray>
  <varray name="stress" >
   <v>       0.60086086      -0.32616668      -0.10530514 </v>
   <v>      -0.32616668       0.24569665       0.15474859 </v>
   <v>      -0.10530514       0.15474860       0.12991924 </v>
  </varray>
  <energy>
   <i name="e_fr_energy">    -39.71686075 </i>
   <i name="e_wo_entrp">    -39.71686075 </i>
   <i name="e_0_energy">      0.00000000 </i>
  </energy>
  <time name="totalsc">   11.12   13.28</time>
 </calculation>
 <calculation>
  <scstep>
   <time name="dav">    2.14    2.14</time>
   <time name="total">    2.46    2.48</time>
   <energy>
    <i name="alphaZ">     41.80128671 </i>
    <i name="ewald">  35520.89313571 </i>
    <i name="hartreedc"> -56366.98847509 </i>
    <i name="XCdc">   -239.07280876 </i>
    <i name="pawpsdc">  22850.55749844 </i>
    <i name="pawaedc"> -21921.81344778 </i>
    <i name="eentropy">      0.00000000 </i>
    <i name="bandstr">  -1706.39343325 </i>
    <i name="atom">  21781.17123181 </i>
    <i name="e_fr_energy">    -39.84501221 </i>
    <i name="e_wo_entrp">    -39.84501221 </i>
    <i name="e_0_energy">    -39.84501221 </i>
   </energy>
  </scstep>
  <scstep>
   <time name="dav">    2.18    2.18</time>
   <time name="total">    2.51    2.51</time>
   <energy>
    <i name="e_fr_energy">    -39.86240143 </i>
    <i name="e_wo_entrp">    -39.86240143 </i>
    <i name="e_0_energy">    -39.86240143 </i>
   </energy>
  </scstep>
  <scstep>
   <time name="dav">    2.24    2.24</time>
   <time name="total">    2.57    2.57</time>
   <energy>
    <i name="e_fr_energy">    -39.86211203 </i>
    <i name="e_wo_entrp">    -39.86211203 </i>
    <i name="e_0_energy">    -39.86211203 </i>
   </energy>
  </scstep>
  <scstep>
   <time name="dav">    2.24    2.24</time>
   <time name="total">    2.57    2.57</time>
   <energy>
    <i name="e_fr_energy">    -39.86186858 </i>
    <i name="e_wo_entrp">    -39.86186858 </i>
    <i name="e_0_energy">    -39.86186858 </i>
   </energy>
  </scstep>
  <scstep>
   <time name="dav">    1.60    1.60</time>
   <time name="total">    1.84    3.32</time>
   <energy>
    <i name="alphaZ">     41.80128671 </i>
    <i name="ewald">  35520.89313571 </i>
    <i name="hartreedc"> -56370.16690461 </i>
    <i name="XCdc">   -238.99255529 </i>
    <i name="pawpsdc">  22791.75300687 </i>
    <i name="pawaedc"> -21862.05841693 </i>
    <i name="eentropy">      0.00000000 </i>
    <i name="bandstr">  -1704.26264247 </i>
    <i name="atom">  21781.17123181 </i>
    <i name="e_fr_energy">    -39.86185820 </i>
    <i name="e_wo_entrp">    -39.86185820 </i>
    <i name="e_0_energy">    -39.86185820 </i>
   </energy>
  </scstep>
  <structure>
   <crystal>
    <varray name="basis" >
     <v>      20.78042251       0.00000000       0.00000000 </v>
     <v>       0.00000000      20.78042251       0.00000000 </v>
     <v>       0.00000000       0.00000000      20.78042251 </v>
    </varray>
    <i name="volume">   8973.52588835 </i>
    <varray name="rec_basis" >
     <v>       0.04812222       0.00000000       0.00000000 </v>
     <v>       0.00000000       0.04812222       0.00000000 </v>
     <v>       0.00000000       0.00000000       0.04812222 </v>
    </varray>
   </crystal>
   <varray name="positions" >
    <v>       0.61448137       0.49077630       0.32971071 </v>
    <v>       0.50668966       0.56437252       0.32763040 </v>
    <v>       0.50955749       0.45805820       0.40047227 </v>
    <v>       0.40791141       0.60485610       0.40563130 </v>
    <v>       0.42759179       0.36717436       0.44124720 </v>
    <v>       0.61892307       0.50772669       0.45865538 </v>
    <v>       0.52928913       0.40363037       0.52132712 </v>
    <v>       0.73849059       0.50730366       0.50598300 </v>
    <v>       0.53230782       0.60271869       0.44701581 </v>
    <v>       0.66286087       0.39987478       0.52509819 </v>
    <v>       0.41297113       0.49623061       0.47975678 </v>
    <v>       0.59862061       0.49051820       0.59058460 </v>
    <v>       0.40146099       0.38694717       0.56578272 </v>
    <v>       0.43890723       0.61662739       0.53647189 </v>
    <v>       0.57013700       0.62157381       0.56712224 </v>
    <v>       0.47238561       0.48953056       0.61235962 </v>
    <v>       0.68922428       0.58161143       0.59782178 </v>
    <v>       0.34530780       0.50023366       0.59374250 </v>
    <v>       0.59550352       0.57601020       0.69168608 </v>
    <v>       0.35012705       0.62146017       0.63170023 </v>
    <v>       0.47331212       0.60701310       0.66561404 </v>
   </varray>
  </structure>
  <varray name="forces" >
   <v>       0.17173227       0.05710227      -0.07437483 </v>
   <v>      -0.16146473       0.40246498      -0.56456655 </v>
   <v>       0.10005562      -0.07418638      -0.09657592 </v>
   <v>      -0.11317678       0.04546035      -0.26400415 </v>
   <v>      -0.10794602      -0.42374062      -0.22085648 </v>
   <v>       0.02333293       0.00925102       0.25086484 </v>
   <v>      -0.22124138      -0.09741673       0.00159113 </v>
   <v>       0.37171187      -0.29102737      -0.21991766 </v>
   <v>       0.10368595       0.14793034      -0.22809011 </v>
   <v>       0.21578071      -0.27471125      -0.11989952 </v>
   <v>      -0.02841107      -0.16025876       0.14222906 </v>
   <v>       0.21624543      -0.04283869       0.21400061 </v>
   <v>       0.00856364      -0.40286322       0.19835470 </v>
   <v>      -0.14014097      -0.14231360       0.16557513 </v>
   <v>      -0.26052397       0.09080855       0.09779486 </v>
   <v>       0.08142834      -0.19529131      -0.00906207 </v>
   <v>       0.40877694       0.29885474       0.21881791 </v>
   <v>      -0.34596611       0.15843603       0.00109255 </v>
   <v>       0.06646413      -0.12035189       0.10869211 </v>
   <v>      -0.44093142       0.44799535       0.18697961 </v>
   <v>       0.05202462       0.56669620       0.21135477 </v>
  </varray>
  <varray name="stress" >
   <v>       0.27748311      -0.28593940      -0.09529281 </v>
   <v>      -0.28593940      -0.08060601       0.11533088 </v>
   <v>      -0.09529282       0.11533087      -0.12219692 </v>
  </varray>
  <energy>
   <i name="e_fr_energy">    -39.86185820 </i>
   <i name="e_wo_entrp">    -39.86185820 </i>
   <i name="e_0_energy">      0.00000000 </i>
  </energy>
  <time name="totalsc">   15.61   18.10</time>
 </calculation>
 <calculation>
  <scstep>
   <time name="dav">    2.10    2.10</time>
   <time name="total">    2.43    2.44</time>
   <energy>
    <i name="alphaZ">     41.80128671 </i>
    <i name="ewald">  35023.68649587 </i>
    <i name="hartreedc"> -55876.46426053 </i>
    <i name="XCdc">   -239.75446018 </i>
    <i name="pawpsdc">  22792.29994603 </i>
    <i name="pawaedc"> -21862.61137571 </i>
    <i name="eentropy">      0.00000000 </i>
    <i name="bandstr">  -1700.11222107 </i>
    <i name="atom">  21781.17123181 </i>
    <i name="e_fr_energy">    -39.98335707 </i>
    <i name="e_wo_entrp">    -39.98335707 </i>
    <i name="e_0_energy">    -39.98335707 </i>
   </energy>
  </scstep>
  <scstep>
   <time name="dav">    2.20    2.20</time>
   <time name="total">    2.53    2.54</time>
   <energy>
    <i name="e_fr_energy">    -40.05078651 </i>
    <i name="e_wo_entrp">    -40.05078651 </i>
    <i name="e_0_energy">    -40.05078651 </i>
   </energy>
  </scstep>
  <scstep>
   <time name="dav">    2.22    2.22</time>
   <time name="total">    2.55    2.55</time>
   <energy>
    <i name="e_fr_energy">    -40.05014537 </i>
    <i name="e_wo_entrp">    -40.05014537 </i>
    <i name="e_0_energy">    -40.05014537 </i>
   </energy>
  </scstep>
  <scstep>
   <time name="dav">    2.20    2.20</time>
   <time name="total">    2.53    2.55</time>
   <energy>
    <i name="e_fr_energy">    -40.04873222 </i>
    <i name="e_wo_entrp">    -40.04873222 </i>
    <i name="e_0_energy">    -40.04873222 </i>
   </energy>
  </scstep>
  <scstep>
   <time name="dav">    1.66    1.66</time>
   <time name="total">    1.90    2.14</time>
   <energy>
    <i name="alphaZ">     41.80128671 </i>
    <i name="ewald">  35023.68649587 </i>
    <i name="hartreedc"> -55882.77168137 </i>
    <i name="XCdc">   -239.59830264 </i>
    <i name="pawpsdc">  22686.18198626 </i>
    <i name="pawaedc"> -21754.73642180 </i>
    <i name="eentropy">      0.00000000 </i>
    <i name="bandstr">  -1695.78334344 </i>
    <i name="atom">  21781.17123181 </i>
    <i name="e_fr_energy">    -40.04874860 </i>
    <i name="e_wo_entrp">    -40.04874860 </i>
    <i name="e_0_energy">    -40.04874860 </i>
   </energy>
  </scstep>
  <structure>
   <crystal>
    <varray name="basis" >
     <v>      20.78042251       0.00000000       0.00000000 </v>
     <v>       0.00000000      20.78042251       0.00000000 </v>
     <v>       0.00000000       0.00000000      20.78042251 </v>
    </varray>
    <i name="volume">   8973.52588835 </i>
    <varray name="rec_basis" >
     <v>       0.04812222       0.00000000       0.00000000 </v>
     <v>       0.00000000       0.04812222       0.00000000 </v>
     <v>       0.00000000       0.00000000       0.04812222 </v>
    </varray>
   </crystal>
   <varray name="positions" >
    <v>       0.61535363       0.49078483       0.32926163 </v>
    <v>       0.50598459       0.56604807       0.32546047 </v>
    <v>       0.50978774       0.45740356       0.40046711 </v>
    <v>       0.40737546       0.60515559       0.40468746 </v>
    <v>       0.42723909       0.36580962       0.44039728 </v>
    <v>       0.61895550       0.50784642       0.45941065 </v>
    <v>       0.52839367       0.40327479       0.52129356 </v>
    <v>       0.73986825       0.50636327       0.50520194 </v>
    <v>       0.53286844       0.60327485       0.44655554 </v>
    <v>       0.66377077       0.39874996       0.52466309 </v>
    <v>       0.41283773       0.49577890       0.48021196 </v>
    <v>       0.59888560       0.49046094       0.59146969 </v>
    <v>       0.40158850       0.38541312       0.56646510 </v>
    <v>       0.43856974       0.61633853       0.53702755 </v>
    <v>       0.56894957       0.62208932       0.56721452 </v>
    <v>       0.47313632       0.48852594       0.61216986 </v>
    <v>       0.69087234       0.58265080       0.59877761 </v>
    <v>       0.34373877       0.50081794       0.59377315 </v>
    <v>       0.59563976       0.57562214       0.69209985 </v>
    <v>       0.34841244       0.62299288       0.63226617 </v>
    <v>       0.47383261       0.60884652       0.66653964 </v>
   </varray>
  </structure>
  <varray name="forces" >
   <v>      -0.01162158       0.12926876       0.03933094 </v>
   <v>      -0.07398024       0.18077945      -0.28451824 </v>
   <v>       0.12479090       0.11056792      -0.20740593 </v>
   <v>      -0.00998084      -0.02792782      -0.15517462 </v>
   <v>      -0.07208433      -0.29998383      -0.09845311 </v>
   <v>       0.04503203      -0.03454460       0.21957415 </v>
   <v>      -0.08201422      -0.05404818       0.01174257 </v>
   <v>       0.21294856      -0.23980020      -0.12222966 </v>
   <v>      -0.02881436       0.08242276      -0.31295405 </v>
   <v>       0.08578204      -0.10106497      -0.07671582 </v>
   <v>       0.00107509      -0.15561650       0.11492956 </v>
   <v>       0.38444841      -0.06826757       0.07216772 </v>
   <v>      -0.03285956      -0.21162125       0.12775450 </v>
   <v>      -0.16993438      -0.18951864       0.12267606 </v>
   <v>      -0.05911919      -0.02490054       0.17701631 </v>
   <v>      -0.16320593       0.00770265       0.06296696 </v>
   <v>       0.17829175       0.16643315       0.05927873 </v>
   <v>      -0.08368171       0.10596386      -0.01573847 </v>
   <v>       0.09227695      -0.08450650       0.05348276 </v>
   <v>      -0.22389759       0.30079353       0.15177823 </v>
   <v>      -0.11345183       0.40786853       0.06049140 </v>
  </varray>
  <varray name="stress" >
   <v>      -0.32996425      -0.21507944      -0.07746975 </v>
   <v>      -0.21507944      -0.67305976       0.04306810 </v>
   <v>      -0.07746976       0.04306810      -0.59740382 </v>
  </varray>
  <energy>
   <i name="e_fr_energy">    -40.04874860 </i>
   <i name="e_wo_entrp">    -40.04874860 </i>
   <i name="e_0_energy">      0.00000000 </i>
  </energy>
  <time name="totalsc">   15.59   15.92</time>
 </calculation>
 <calculation>
  <scstep>
   <time name="dav">    2.08    2.08</time>
   <time name="total">    2.41    2.43</time>
   <energy>
    <i name="alphaZ">     41.80128671 </i>
    <i name="ewald">  34052.29947165 </i>
    <i name="hartreedc"> -54917.17504763 </i>
    <i name="XCdc">   -240.98871773 </i>
    <i name="pawpsdc">  22686.95459469 </i>
    <i name="pawaedc"> -21755.51200260 </i>
    <i name="eentropy">      0.00000000 </i>
    <i name="bandstr">  -1688.37101282 </i>
    <i name="atom">  21781.17123181 </i>
    <i name="e_fr_energy">    -39.82019591 </i>
    <i name="e_wo_entrp">    -39.82019591 </i>
    <i name="e_0_energy">    -39.82019591 </i>
   </energy>
  </scstep>
  <scstep>
   <time name="dav">    2.15    2.15</time>
   <time name="total">    2.48    2.48</time>
   <energy>
    <i name="e_fr_energy">    -40.09868391 </i>
    <i name="e_wo_entrp">    -40.09868391 </i>
    <i name="e_0_energy">    -40.09868391 </i>
   </energy>
  </scstep>
  <scstep>
   <time name="dav">    2.23    2.23</time>
   <time name="total">    2.56    2.56</time>
   <energy>
    <i name="e_fr_energy">    -40.09955273 </i>
    <i name="e_wo_entrp">    -40.09955273 </i>
    <i name="e_0_energy">    -40.09955273 </i>
   </energy>
  </scstep>
  <scstep>
   <time name="dav">    2.18    2.18</time>
   <time name="total">    2.51    2.52</time>
   <energy>
    <i name="e_fr_energy">    -40.09312896 </i>
    <i name="e_wo_entrp">    -40.09312896 </i>
    <i name="e_0_energy">    -40.09312896 </i>
   </energy>
  </scstep>
  <scstep>
   <time name="dav">    2.24    2.25</time>
   <time name="total">    2.58    2.58</time>
   <energy>
    <i name="e_fr_energy">    -40.09311889 </i>
    <i name="e_wo_entrp">    -40.09311889 </i>
    <i name="e_0_energy">    -40.09311889 </i>
   </energy>
  </scstep>
  <scstep>
   <time name="dav">    2.20    2.20</time>
   <time name="total">    2.44    2.93</time>
   <energy>
    <i name="alphaZ">     41.80128671 </i>
    <i name="ewald">  34052.29947165 </i>
    <i name="hartreedc"> -54928.46491334 </i>
    <i name="XCdc">   -240.68830254 </i>
    <i name="pawpsdc">  22508.71369008 </i>
    <i name="pawaedc"> -21574.18318277 </i>
    <i name="eentropy">      0.00000000 </i>
    <i name="bandstr">  -1680.74234399 </i>
    <i name="atom">  21781.17123181 </i>
    <i name="e_fr_energy">    -40.09306239 </i>
    <i name="e_wo_entrp">    -40.09306239 </i>
    <i name="e_0_energy">    -40.09306239 </i>
   </energy>
  </scstep>
  <structure>
   <crystal>
    <varray name="basis" >
     <v>      20.78042251       0.00000000       0.00000000 </v>
     <v>       0.00000000      20.78042251       0.00000000 </v>
     <v>       0.00000000       0.00000000      20.78042251 </v>
    </varray>
    <i name="volume">   8973.52588835 </i>
    <varray name="rec_basis" >
     <v>       0.04812222       0.00000000       0.00000000 </v>
     <v>       0.00000000       0.04812222       0.00000000 </v>
     <v>       0.00000000       0.00000000       0.04812222 </v>
    </varray>
   </crystal>
   <varray name="positions" >
    <v>       0.61709816       0.49080188       0.32836347 </v>
    <v>       0.50457446       0.56939916       0.32112061 </v>
    <v>       0.51024823       0.45609428       0.40045678 </v>
    <v>       0.40630356       0.60575457       0.40279978 </v>
    <v>       0.42653370       0.36308013       0.43869744 </v>
    <v>       0.61902035       0.50808589       0.46092121 </v>
    <v>       0.52660276       0.40256362       0.52122645 </v>
    <v>       0.74262358       0.50448247       0.50363983 </v>
    <v>       0.53398968       0.60438717       0.44563500 </v>
    <v>       0.66559057       0.39650032       0.52379289 </v>
    <v>       0.41257094       0.49487548       0.48112233 </v>
    <v>       0.59941559       0.49034642       0.59323987 </v>
    <v>       0.40184353       0.38234502       0.56782985 </v>
    <v>       0.43789475       0.61576082       0.53813888 </v>
    <v>       0.56657472       0.62312036       0.56739908 </v>
    <v>       0.47463775       0.48651669       0.61179035 </v>
    <v>       0.69416844       0.58472953       0.60068927 </v>
    <v>       0.34060071       0.50198649       0.59383444 </v>
    <v>       0.59591223       0.57484603       0.69292740 </v>
    <v>       0.34498324       0.62605828       0.63339806 </v>
    <v>       0.47487359       0.61251337       0.66839085 </v>
   </varray>
  </structure>
  <varray name="forces" >
   <v>      -0.29713525       0.23241728       0.22904056 </v>
   <v>       0.07669875       0.00038520       0.13329754 </v>
   <v>       0.15426207       0.31998045      -0.34366447 </v>
   <v>       0.16275234      -0.15039751       0.03766739 </v>
   <v>      -0.01085700      -0.05047923       0.11028954 </v>
   <v>       0.08454097      -0.11467995       0.15862447 </v>
   <v>       0.14593203       0.00310670      -0.00673586 </v>
   <v>      -0.04982761      -0.20588867       0.03096460 </v>
   <v>      -0.26914245      -0.03189818      -0.44433828 </v>
   <v>      -0.09263129       0.19672315      -0.02186702 </v>
   <v>       0.04491833      -0.15330272       0.07653850 </v>
   <v>       0.66280029      -0.11006164      -0.15858423 </v>
   <v>      -0.10665367       0.06513135       0.01120974 </v>
   <v>      -0.24840822      -0.25836132       0.05382287 </v>
   <v>       0.26136069      -0.19918750       0.28015386 </v>
   <v>      -0.56910961       0.29563623       0.17050956 </v>
   <v>      -0.13250575      -0.08859090      -0.16983232 </v>
   <v>       0.29890619       0.07307666      -0.05073070 </v>
   <v>       0.12498636       0.00219241      -0.02959007 </v>
   <v>       0.10089610       0.03957871       0.05472439 </v>
   <v>      -0.34178326       0.13461947      -0.12150006 </v>
  </varray>
  <varray name="stress" >
   <v>      -1.27422580      -0.11840764      -0.04565754 </v>
   <v>      -0.11840764      -1.56999055      -0.06508303 </v>
   <v>      -0.04565755      -0.06508304      -1.37849311 </v>
  </varray>
  <energy>
   <i name="e_fr_energy">    -40.09306239 </i>
   <i name="e_wo_entrp">    -40.09306239 </i>
   <i name="e_0_energy">      0.00000000 </i>
  </energy>
  <time name="totalsc">   18.64   19.18</time>
 </calculation>
 <calculation>
  <scstep>
   <time name="dav">    2.08    2.08</time>
   <time name="total">    2.42    2.43</time>
   <energy>
    <i name="alphaZ">     41.80128671 </i>
    <i name="ewald">  34114.15965655 </i>
    <i name="hartreedc"> -54990.09166311 </i>
    <i name="XCdc">   -240.56378399 </i>
    <i name="pawpsdc">  22511.39745841 </i>
    <i name="pawaedc"> -21576.87030959 </i>
    <i name="eentropy">      0.00000000 </i>
    <i name="bandstr">  -1681.17546789 </i>
    <i name="atom">  21781.17123181 </i>
    <i name="e_fr_energy">    -40.17159110 </i>
    <i name="e_wo_entrp">    -40.17159110 </i>
    <i name="e_0_energy">    -40.17159110 </i>
   </energy>
  </scstep>
  <scstep>
   <time name="dav">    2.24    2.25</time>
   <time name="total">    2.57    2.58</time>
   <energy>
    <i name="e_fr_energy">    -40.19268072 </i>
    <i name="e_wo_entrp">    -40.19268072 </i>
    <i name="e_0_energy">    -40.19268072 </i>
   </energy>
  </scstep>
  <scstep>
   <time name="dav">    2.24    2.25</time>
   <time name="total">    2.58    2.59</time>
   <energy>
    <i name="e_fr_energy">    -40.19244739 </i>
    <i name="e_wo_entrp">    -40.19244739 </i>
    <i name="e_0_energy">    -40.19244739 </i>
   </energy>
  </scstep>
  <scstep>
   <time name="dav">    2.24    2.25</time>
   <time name="total">    2.58    2.59</time>
   <energy>
    <i name="e_fr_energy">    -40.19240517 </i>
    <i name="e_wo_entrp">    -40.19240517 </i>
    <i name="e_0_energy">    -40.19240517 </i>
   </energy>
  </scstep>
  <scstep>
   <time name="dav">    1.64    1.65</time>
   <time name="total">    1.98    2.80</time>
   <energy>
    <i name="e_fr_energy">    -40.19254123 </i>
    <i name="e_wo_entrp">    -40.19254123 </i>
    <i name="e_0_energy">    -40.19254123 </i>
   </energy>
  </scstep>
  <scstep>
   <time name="dav">    1.64    1.64</time>
   <time name="total">    1.88    1.89</time>
   <energy>
    <i name="alphaZ">     41.80128671 </i>
    <i name="ewald">  34114.15965655 </i>
    <i name="hartreedc"> -54989.97979184 </i>
    <i name="XCdc">   -240.59392799 </i>
    <i name="pawpsdc">  22524.23519546 </i>
    <i name="pawaedc"> -21589.91764431 </i>
    <i name="eentropy">      0.00000000 </i>
    <i name="bandstr">  -1681.06863664 </i>
    <i name="atom">  21781.17123181 </i>
    <i name="e_fr_energy">    -40.19263025 </i>
    <i name="e_wo_entrp">    -40.19263025 </i>
    <i name="e_0_energy">    -40.19263025 </i>
   </energy>
  </scstep>
  <structure>
   <crystal>
    <varray name="basis" >
     <v>      20.78042251       0.00000000       0.00000000 </v>
     <v>       0.00000000      20.78042251       0.00000000 </v>
     <v>       0.00000000       0.00000000      20.78042251 </v>
    </varray>
    <i name="volume">   8973.52588835 </i>
    <varray name="rec_basis" >
     <v>       0.04812222       0.00000000       0.00000000 </v>
     <v>       0.00000000       0.04812222       0.00000000 </v>
     <v>       0.00000000       0.00000000       0.04812222 </v>
    </varray>
   </crystal>
   <varray name="positions" >
    <v>       0.61638076       0.49136302       0.32891646 </v>
    <v>       0.50475964       0.56940009       0.32144244 </v>
    <v>       0.51062068       0.45686684       0.39962703 </v>
    <v>       0.40669651       0.60539145       0.40289073 </v>
    <v>       0.42650748       0.36295826       0.43896373 </v>
    <v>       0.61922446       0.50780901       0.46130419 </v>
    <v>       0.52695510       0.40257112       0.52121019 </v>
    <v>       0.74250328       0.50398537       0.50371459 </v>
    <v>       0.53333986       0.60431016       0.44456218 </v>
    <v>       0.66536692       0.39697529       0.52374010 </v>
    <v>       0.41267939       0.49450534       0.48130713 </v>
    <v>       0.60101586       0.49008069       0.59285699 </v>
    <v>       0.40158602       0.38250227       0.56785692 </v>
    <v>       0.43729500       0.61513703       0.53826883 </v>
    <v>       0.56720575       0.62263944       0.56807549 </v>
    <v>       0.47326368       0.48723048       0.61220203 </v>
    <v>       0.69384852       0.58451564       0.60027923 </v>
    <v>       0.34132239       0.50216293       0.59371196 </v>
    <v>       0.59621399       0.57485132       0.69285596 </v>
    <v>       0.34522685       0.62615384       0.63353019 </v>
    <v>       0.47404839       0.61283839       0.66809750 </v>
   </varray>
  </structure>
  <varray name="forces" >
   <v>      -0.19441459       0.22290507       0.16516571 </v>
   <v>       0.03882006       0.03746711      -0.00153671 </v>
   <v>       0.01487174       0.22801072      -0.18113969 </v>
   <v>       0.09466488      -0.15254772       0.02722871 </v>
   <v>       0.04196398      -0.00386003       0.08218408 </v>
   <v>       0.01055320      -0.02276056       0.10954226 </v>
   <v>       0.07560916       0.06490121       0.00231917 </v>
   <v>       0.00815068      -0.17601237       0.02655168 </v>
   <v>      -0.12548041      -0.02387323      -0.16980077 </v>
   <v>      -0.05576881       0.06860038      -0.02958946 </v>
   <v>       0.07126162      -0.17510086       0.03891406 </v>
   <v>       0.30051797      -0.11561990      -0.04434079 </v>
   <v>      -0.07101199       0.04550825       0.00965138 </v>
   <v>      -0.13252628      -0.25247866       0.01564843 </v>
   <v>       0.09480429      -0.20377893       0.08611544 </v>
   <v>      -0.18639710       0.23560461       0.09477961 </v>
   <v>      -0.04692096      -0.04443968      -0.14703492 </v>
   <v>       0.18365524       0.08814077      -0.05033679 </v>
   <v>       0.03801563      -0.00588583      -0.03408072 </v>
   <v>       0.04016808       0.06235392       0.07188853 </v>
   <v>      -0.20053637       0.12286574      -0.07212921 </v>
  </varray>
  <varray name="stress" >
   <v>      -1.26702157      -0.12360740      -0.03527311 </v>
   <v>      -0.12360740      -1.46982113      -0.08203115 </v>
   <v>      -0.03527311      -0.08203114      -1.30787529 </v>
  </varray>
  <energy>
   <i name="e_fr_energy">    -40.19263025 </i>
   <i name="e_wo_entrp">    -40.19263025 </i>
   <i name="e_0_energy">      0.00000000 </i>
  </energy>
  <time name="totalsc">   17.69   19.45</time>
 </calculation>
 <calculation>
  <scstep>
   <time name="dav">    2.10    2.10</time>
   <time name="total">    2.43    2.45</time>
   <energy>
    <i name="alphaZ">     41.80128671 </i>
    <i name="ewald">  34189.34049772 </i>
    <i name="hartreedc"> -55064.58988422 </i>
    <i name="XCdc">   -240.41791626 </i>
    <i name="pawpsdc">  22523.93859857 </i>
    <i name="pawaedc"> -21589.61950943 </i>
    <i name="eentropy">      0.00000000 </i>
    <i name="bandstr">  -1681.83166028 </i>
    <i name="atom">  21781.17123181 </i>
    <i name="e_fr_energy">    -40.20735538 </i>
    <i name="e_wo_entrp">    -40.20735538 </i>
    <i name="e_0_energy">    -40.20735538 </i>
   </energy>
  </scstep>
  <scstep>
   <time name="dav">    2.21    2.21</time>
   <time name="total">    2.54    2.54</time>
   <energy>
    <i name="e_fr_energy">    -40.23595268 </i>
    <i name="e_wo_entrp">    -40.23595268 </i>
    <i name="e_0_energy">    -40.23595268 </i>
   </energy>
  </scstep>
  <scstep>
   <time name="dav">    2.24    2.25</time>
   <time name="total">    2.58    2.59</time>
   <energy>
    <i name="e_fr_energy">    -40.23551191 </i>
    <i name="e_wo_entrp">    -40.23551191 </i>
    <i name="e_0_energy">    -40.23551191 </i>
   </energy>
  </scstep>
  <scstep>
   <time name="dav">    2.25    2.25</time>
   <time name="total">    2.58    2.59</time>
   <energy>
    <i name="e_fr_energy">    -40.23515855 </i>
    <i name="e_wo_entrp">    -40.23515855 </i>
    <i name="e_0_energy">    -40.23515855 </i>
   </energy>
  </scstep>
  <scstep>
   <time name="dav">    1.62    1.63</time>
   <time name="total">    1.86    1.87</time>
   <energy>
    <i name="alphaZ">     41.80128671 </i>
    <i name="ewald">  34189.34049772 </i>
    <i name="hartreedc"> -55063.60202595 </i>
    <i name="XCdc">   -240.45910375 </i>
    <i name="pawpsdc">  22545.44970230 </i>
    <i name="pawaedc"> -21611.49323890 </i>
    <i name="eentropy">      0.00000000 </i>
    <i name="bandstr">  -1682.44360817 </i>
    <i name="atom">  21781.17123181 </i>
    <i name="e_fr_energy">    -40.23525824 </i>
    <i name="e_wo_entrp">    -40.23525824 </i>
    <i name="e_0_energy">    -40.23525824 </i>
   </energy>
  </scstep>
  <structure>
   <crystal>
    <varray name="basis" >
     <v>      20.78042251       0.00000000       0.00000000 </v>
     <v>       0.00000000      20.78042251       0.00000000 </v>
     <v>       0.00000000       0.00000000      20.78042251 </v>
    </varray>
    <i name="volume">   8973.52588835 </i>
    <varray name="rec_basis" >
     <v>       0.04812222       0.00000000       0.00000000 </v>
     <v>       0.00000000       0.04812222       0.00000000 </v>
     <v>       0.00000000       0.00000000       0.04812222 </v>
    </varray>
   </crystal>
   <varray name="positions" >
    <v>       0.61554360       0.49201784       0.32956177 </v>
    <v>       0.50497573       0.56940117       0.32181800 </v>
    <v>       0.51105530       0.45776837       0.39865878 </v>
    <v>       0.40715505       0.60496772       0.40299685 </v>
    <v>       0.42647689       0.36281604       0.43927446 </v>
    <v>       0.61946265       0.50748591       0.46175111 </v>
    <v>       0.52736625       0.40257987       0.52119121 </v>
    <v>       0.74236289       0.50340529       0.50380183 </v>
    <v>       0.53258157       0.60422029       0.44331029 </v>
    <v>       0.66510593       0.39752955       0.52367849 </v>
    <v>       0.41280594       0.49407342       0.48152277 </v>
    <v>       0.60288326       0.48977060       0.59241019 </v>
    <v>       0.40128553       0.38268577       0.56788850 </v>
    <v>       0.43659512       0.61440912       0.53842047 </v>
    <v>       0.56794211       0.62207824       0.56886480 </v>
    <v>       0.47166026       0.48806341       0.61268243 </v>
    <v>       0.69347519       0.58426604       0.59980074 </v>
    <v>       0.34216454       0.50236882       0.59356903 </v>
    <v>       0.59656613       0.57485750       0.69277259 </v>
    <v>       0.34551111       0.62626535       0.63368437 </v>
    <v>       0.47308544       0.61321767       0.66775518 </v>
   </varray>
  </structure>
  <varray name="forces" >
   <v>      -0.04719778       0.22324954       0.08952474 </v>
   <v>      -0.00873940       0.08059127      -0.17622283 </v>
   <v>      -0.16015267       0.09862093       0.01028132 </v>
   <v>       0.00211419      -0.15811590       0.01499264 </v>
   <v>       0.09778401       0.04522514       0.05435951 </v>
   <v>      -0.07582575       0.08131711       0.03909396 </v>
   <v>       0.00200512       0.12730282       0.01091036 </v>
   <v>       0.07842778      -0.13400527       0.02482339 </v>
   <v>       0.04171382      -0.01414478       0.12202604 </v>
   <v>      -0.00648204      -0.09651046      -0.04278570 </v>
   <v>       0.10383579      -0.19851391      -0.01966713 </v>
   <v>      -0.04204017      -0.11085708       0.08802173 </v>
   <v>      -0.02972896       0.02760935       0.00738108 </v>
   <v>      -0.01100678      -0.24015396      -0.03339517 </v>
   <v>      -0.08102677      -0.19916599      -0.09616543 </v>
   <v>       0.18585061       0.16579465       0.03464194 </v>
   <v>       0.05764402       0.01108406      -0.12132087 </v>
   <v>       0.02634039       0.10776468      -0.04414964 </v>
   <v>      -0.04824578      -0.01772243      -0.03212361 </v>
   <v>      -0.04009268       0.08733560       0.09033353 </v>
   <v>      -0.04517695       0.11329461      -0.02055985 </v>
  </varray>
  <varray name="stress" >
   <v>      -1.20690567      -0.12819100      -0.02603878 </v>
   <v>      -0.12819099      -1.36358304      -0.09302599 </v>
   <v>      -0.02603879      -0.09302598      -1.22017806 </v>
  </varray>
  <energy>
   <i name="e_fr_energy">    -40.23525824 </i>
   <i name="e_wo_entrp">    -40.23525824 </i>
   <i name="e_0_energy">      0.00000000 </i>
  </energy>
  <time name="totalsc">   15.66   15.76</time>
 </calculation>
 <calculation>
  <scstep>
   <time name="dav">    2.12    2.12</time>
   <time name="total">    2.45    2.46</time>
   <energy>
    <i name="alphaZ">     41.80128671 </i>
    <i name="ewald">  34247.01033791 </i>
    <i name="hartreedc"> -55121.15319140 </i>
    <i name="XCdc">   -240.39371680 </i>
    <i name="pawpsdc">  22545.08816206 </i>
    <i name="pawaedc"> -21611.12945593 </i>
    <i name="eentropy">      0.00000000 </i>
    <i name="bandstr">  -1682.65601728 </i>
    <i name="atom">  21781.17123181 </i>
    <i name="e_fr_energy">    -40.26136291 </i>
    <i name="e_wo_entrp">    -40.26136291 </i>
    <i name="e_0_energy">    -40.26136291 </i>
   </energy>
  </scstep>
  <scstep>
   <time name="dav">    2.18    2.18</time>
   <time name="total">    2.52    2.52</time>
   <energy>
    <i name="e_fr_energy">    -40.27065872 </i>
    <i name="e_wo_entrp">    -40.27065872 </i>
    <i name="e_0_energy">    -40.27065872 </i>
   </energy>
  </scstep>
  <scstep>
   <time name="dav">    2.22    2.22</time>
   <time name="total">    2.55    2.57</time>
   <energy>
    <i name="e_fr_energy">    -40.27061719 </i>
    <i name="e_wo_entrp">    -40.27061719 </i>
    <i name="e_0_energy">    -40.27061719 </i>
   </energy>
  </scstep>
  <scstep>
   <time name="dav">    2.16    2.16</time>
   <time name="total">    2.49    2.50</time>
   <energy>
    <i name="e_fr_energy">    -40.27045880 </i>
    <i name="e_wo_entrp">    -40.27045880 </i>
    <i name="e_0_energy">    -40.27045880 </i>
   </energy>
  </scstep>
  <scstep>
   <time name="dav">    1.64    1.65</time>
   <time name="total">    1.88    1.97</time>
   <energy>
    <i name="alphaZ">     41.80128671 </i>
    <i name="ewald">  34247.01033791 </i>
    <i name="hartreedc"> -55120.79186090 </i>
    <i name="XCdc">   -240.40815306 </i>
    <i name="pawpsdc">  22551.15179119 </i>
    <i name="pawaedc"> -21617.30836530 </i>
    <i name="eentropy">      0.00000000 </i>
    <i name="bandstr">  -1682.89680390 </i>
    <i name="atom">  21781.17123181 </i>
    <i name="e_fr_energy">    -40.27053553 </i>
    <i name="e_wo_entrp">    -40.27053553 </i>
    <i name="e_0_energy">    -40.27053553 </i>
   </energy>
  </scstep>
  <structure>
   <crystal>
    <varray name="basis" >
     <v>      20.78042251       0.00000000       0.00000000 </v>
     <v>       0.00000000      20.78042251       0.00000000 </v>
     <v>       0.00000000       0.00000000      20.78042251 </v>
    </varray>
    <i name="volume">   8973.52588835 </i>
    <varray name="rec_basis" >
     <v>       0.04812222       0.00000000       0.00000000 </v>
     <v>       0.00000000       0.04812222       0.00000000 </v>
     <v>       0.00000000       0.00000000       0.04812222 </v>
    </varray>
   </crystal>
   <varray name="positions" >
    <v>       0.61523964       0.49281047       0.32995432 </v>
    <v>       0.50499189       0.56964138       0.32136653 </v>
    <v>       0.51066322       0.45823802       0.39850040 </v>
    <v>       0.40725085       0.60441416       0.40306221 </v>
    <v>       0.42676211       0.36292295       0.43949699 </v>
    <v>       0.61928334       0.50766499       0.46195476 </v>
    <v>       0.52745248       0.40296067       0.52121999 </v>
    <v>       0.74256904       0.50289301       0.50389278 </v>
    <v>       0.53255778       0.60416062       0.44342931 </v>
    <v>       0.66503569       0.39735034       0.52353905 </v>
    <v>       0.41313986       0.49339796       0.48150629 </v>
    <v>       0.60312257       0.48937995       0.59258510 </v>
    <v>       0.40113835       0.38280381       0.56791665 </v>
    <v>       0.43642574       0.61355188       0.53835062 </v>
    <v>       0.56784456       0.62137560       0.56873250 </v>
    <v>       0.47190072       0.48871971       0.61287936 </v>
    <v>       0.69357398       0.58425033       0.59934606 </v>
    <v>       0.34240736       0.50272992       0.59340966 </v>
    <v>       0.59649120       0.57480593       0.69266065 </v>
    <v>       0.34544721       0.62654720       0.63398347 </v>
    <v>       0.47276294       0.61362909       0.66762714 </v>
   </varray>
  </structure>
  <varray name="forces" >
   <v>      -0.01792248       0.23198701       0.07762843 </v>
   <v>      -0.02243299       0.11215251      -0.15126187 </v>
   <v>      -0.13502112       0.09775149       0.00005778 </v>
   <v>      -0.00187178      -0.17535341       0.00824761 </v>
   <v>       0.08971283       0.01760156       0.03572166 </v>
   <v>      -0.04846555       0.07005822       0.06457678 </v>
   <v>      -0.01310657       0.11640439       0.01036364 </v>
   <v>       0.06708177      -0.12695373       0.01609843 </v>
   <v>       0.03084249      -0.00931069       0.07079685 </v>
   <v>      -0.00630675      -0.10538797      -0.04679626 </v>
   <v>       0.06746371      -0.19618016      -0.00288007 </v>
   <v>      -0.03040952      -0.09867291       0.10854259 </v>
   <v>      -0.00817151       0.04379739       0.02979399 </v>
   <v>      -0.02162839      -0.21683373      -0.02147426 </v>
   <v>      -0.08562838      -0.18490403      -0.08927850 </v>
   <v>       0.18114722       0.12267425       0.01968131 </v>
   <v>       0.04610924       0.00499156      -0.10377019 </v>
   <v>       0.02190949       0.10824114      -0.04913848 </v>
   <v>      -0.05784055      -0.01450517      -0.04651820 </v>
   <v>      -0.04984408       0.08553229       0.07631616 </v>
   <v>      -0.00561708       0.11690999      -0.00670741 </v>
  </varray>
  <varray name="stress" >
   <v>      -1.19582320      -0.14475546      -0.03023840 </v>
   <v>      -0.14475546      -1.32423812      -0.09324219 </v>
   <v>      -0.03023839      -0.09324220      -1.20074280 </v>
  </varray>
  <energy>
   <i name="e_fr_energy">    -40.27053553 </i>
   <i name="e_wo_entrp">    -40.27053553 </i>
   <i name="e_0_energy">      0.00000000 </i>
  </energy>
  <time name="totalsc">   15.55   15.70</time>
 </calculation>
 <calculation>
  <scstep>
   <time name="dav">    2.08    2.08</time>
   <time name="total">    2.41    2.42</time>
   <energy>
    <i name="alphaZ">     41.80128671 </i>
    <i name="ewald">  34418.41967507 </i>
    <i name="hartreedc"> -55291.79656709 </i>
    <i name="XCdc">   -240.19883870 </i>
    <i name="pawpsdc">  22551.07434603 </i>
    <i name="pawaedc"> -21617.23167944 </i>
    <i name="eentropy">      0.00000000 </i>
    <i name="bandstr">  -1683.51196729 </i>
    <i name="atom">  21781.17123181 </i>
    <i name="e_fr_energy">    -40.27251290 </i>
    <i name="e_wo_entrp">    -40.27251290 </i>
    <i name="e_0_energy">    -40.27251290 </i>
   </energy>
  </scstep>
  <scstep>
   <time name="dav">    2.20    2.21</time>
   <time name="total">    2.54    2.54</time>
   <energy>
    <i name="e_fr_energy">    -40.35687818 </i>
    <i name="e_wo_entrp">    -40.35687818 </i>
    <i name="e_0_energy">    -40.35687818 </i>
   </energy>
  </scstep>
  <scstep>
   <time name="dav">    2.22    2.23</time>
   <time name="total">    2.56    2.56</time>
   <energy>
    <i name="e_fr_energy">    -40.35602868 </i>
    <i name="e_wo_entrp">    -40.35602868 </i>
    <i name="e_0_energy">    -40.35602868 </i>
   </energy>
  </scstep>
  <scstep>
   <time name="dav">    2.20    2.20</time>
   <time name="total">    2.54    2.54</time>
   <energy>
    <i name="e_fr_energy">    -40.35411301 </i>
    <i name="e_wo_entrp">    -40.35411301 </i>
    <i name="e_0_energy">    -40.35411301 </i>
   </energy>
  </scstep>
  <scstep>
   <time name="dav">    2.20    2.21</time>
   <time name="total">    2.54    2.54</time>
   <energy>
    <i name="e_fr_energy">    -40.35409517 </i>
    <i name="e_wo_entrp">    -40.35409517 </i>
    <i name="e_0_energy">    -40.35409517 </i>
   </energy>
  </scstep>
  <scstep>
   <time name="dav">    1.64    1.64</time>
   <time name="total">    1.88    2.84</time>
   <energy>
    <i name="alphaZ">     41.80128671 </i>
    <i name="ewald">  34418.41967507 </i>
    <i name="hartreedc"> -55290.42267140 </i>
    <i name="XCdc">   -240.24741708 </i>
    <i name="pawpsdc">  22573.85977515 </i>
    <i name="pawaedc"> -21640.39415230 </i>
    <i name="eentropy">      0.00000000 </i>
    <i name="bandstr">  -1684.54188117 </i>
    <i name="atom">  21781.17123181 </i>
    <i name="e_fr_energy">    -40.35415322 </i>
    <i name="e_wo_entrp">    -40.35415322 </i>
    <i name="e_0_energy">    -40.35415322 </i>
   </energy>
  </scstep>
  <structure>
   <crystal>
    <varray name="basis" >
     <v>      20.78042251       0.00000000       0.00000000 </v>
     <v>       0.00000000      20.78042251       0.00000000 </v>
     <v>       0.00000000       0.00000000      20.78042251 </v>
    </varray>
    <i name="volume">   8973.52588835 </i>
    <varray name="rec_basis" >
     <v>       0.04812222       0.00000000       0.00000000 </v>
     <v>       0.00000000       0.04812222       0.00000000 </v>
     <v>       0.00000000       0.00000000       0.04812222 </v>
    </varray>
   </crystal>
   <varray name="positions" >
    <v>       0.61432777       0.49518836       0.33113198 </v>
    <v>       0.50504035       0.57036199       0.32001213 </v>
    <v>       0.50948697       0.45964698       0.39802527 </v>
    <v>       0.40753825       0.60275347       0.40325830 </v>
    <v>       0.42761777       0.36324370       0.44016458 </v>
    <v>       0.61874542       0.50820225       0.46256572 </v>
    <v>       0.52771115       0.40410308       0.52130635 </v>
    <v>       0.74318748       0.50135617       0.50416563 </v>
    <v>       0.53248640       0.60398163       0.44378637 </v>
    <v>       0.66482496       0.39681270       0.52312074 </v>
    <v>       0.41414160       0.49137158       0.48145687 </v>
    <v>       0.60384050       0.48820801       0.59310982 </v>
    <v>       0.40069680       0.38315792       0.56800108 </v>
    <v>       0.43591758       0.61098017       0.53814108 </v>
    <v>       0.56755189       0.61926770       0.56833559 </v>
    <v>       0.47262212       0.49068862       0.61347015 </v>
    <v>       0.69387034       0.58420319       0.59798202 </v>
    <v>       0.34313582       0.50381322       0.59293154 </v>
    <v>       0.59626639       0.57465122       0.69232485 </v>
    <v>       0.34525549       0.62739272       0.63488076 </v>
    <v>       0.47179547       0.61486332       0.66724301 </v>
   </varray>
  </structure>
  <varray name="forces" >
   <v>       0.07594120       0.29038714       0.04161909 </v>
   <v>      -0.07076888       0.18675155      -0.09002526 </v>
   <v>      -0.03985182       0.06440993      -0.04581148 </v>
   <v>      -0.00642465      -0.18126458      -0.01449809 </v>
   <v>       0.05720182      -0.08589693      -0.03100210 </v>
   <v>       0.03709964       0.02086252       0.13972393 </v>
   <v>      -0.05700121       0.06764013       0.00613754 </v>
   <v>       0.02854578      -0.09310363      -0.00635926 </v>
   <v>      -0.00852661       0.00581727      -0.08781405 </v>
   <v>      -0.00488300      -0.13030540      -0.05301619 </v>
   <v>      -0.05808768      -0.12404744       0.06533878 </v>
   <v>       0.01508763      -0.06022995       0.16436569 </v>
   <v>       0.04680391       0.07006932       0.09456473 </v>
   <v>      -0.06331654      -0.11057921       0.02060085 </v>
   <v>      -0.08751702      -0.16289680      -0.04451250 </v>
   <v>       0.15936922      -0.01671072      -0.01804949 </v>
   <v>       0.01392022      -0.02236484      -0.04954393 </v>
   <v>       0.01312217       0.09890086      -0.05585473 </v>
   <v>      -0.08090969      -0.01081447      -0.08887043 </v>
   <v>      -0.08115769       0.07371783       0.02308322 </v>
   <v>       0.11135320       0.11965743       0.02992365 </v>
  </varray>
  <varray name="stress" >
   <v>      -1.14100913      -0.19168411      -0.03901435 </v>
   <v>      -0.19168412      -1.18895470      -0.08937336 </v>
   <v>      -0.03901436      -0.08937337      -1.12690766 </v>
  </varray>
  <energy>
   <i name="e_fr_energy">    -40.35415322 </i>
   <i name="e_wo_entrp">    -40.35415322 </i>
   <i name="e_0_energy">      0.00000000 </i>
  </energy>
  <time name="totalsc">   18.12   19.14</time>
 </calculation>
 <calculation>
  <scstep>
   <time name="dav">    2.08    2.08</time>
   <time name="total">    2.42    2.43</time>
   <energy>
    <i name="alphaZ">     41.80128671 </i>
    <i name="ewald">  34753.89385558 </i>
    <i name="hartreedc"> -55625.12519798 </i>
    <i name="XCdc">   -239.77512733 </i>
    <i name="pawpsdc">  22573.41826752 </i>
    <i name="pawaedc"> -21639.95245729 </i>
    <i name="eentropy">      0.00000000 </i>
    <i name="bandstr">  -1685.49885484 </i>
    <i name="atom">  21781.17123181 </i>
    <i name="e_fr_energy">    -40.06699582 </i>
    <i name="e_wo_entrp">    -40.06699582 </i>
    <i name="e_0_energy">    -40.06699582 </i>
   </energy>
  </scstep>
  <scstep>
   <time name="dav">    2.18    2.19</time>
   <time name="total">    2.51    2.53</time>
   <energy>
    <i name="e_fr_energy">    -40.41867950 </i>
    <i name="e_wo_entrp">    -40.41867950 </i>
    <i name="e_0_energy">    -40.41867950 </i>
   </energy>
  </scstep>
  <scstep>
   <time name="dav">    2.22    2.23</time>
   <time name="total">    2.56    2.58</time>
   <energy>
    <i name="e_fr_energy">    -40.41435875 </i>
    <i name="e_wo_entrp">    -40.41435875 </i>
    <i name="e_0_energy">    -40.41435875 </i>
   </energy>
  </scstep>
  <scstep>
   <time name="dav">    2.16    2.16</time>
   <time name="total">    2.49    2.50</time>
   <energy>
    <i name="e_fr_energy">    -40.40764019 </i>
    <i name="e_wo_entrp">    -40.40764019 </i>
    <i name="e_0_energy">    -40.40764019 </i>
   </energy>
  </scstep>
  <scstep>
   <time name="dav">    2.24    2.25</time>
   <time name="total">    2.58    2.96</time>
   <energy>
    <i name="e_fr_energy">    -40.40747726 </i>
    <i name="e_wo_entrp">    -40.40747726 </i>
    <i name="e_0_energy">    -40.40747726 </i>
   </energy>
  </scstep>
  <scstep>
   <time name="dav">    1.72    1.72</time>
   <time name="total">    2.05    2.06</time>
   <energy>
    <i name="e_fr_energy">    -40.40765278 </i>
    <i name="e_wo_entrp">    -40.40765278 </i>
    <i name="e_0_energy">    -40.40765278 </i>
   </energy>
  </scstep>
  <scstep>
   <time name="dav">    1.66    1.66</time>
   <time name="total">    2.00    2.00</time>
   <energy>
    <i name="e_fr_energy">    -40.40789783 </i>
    <i name="e_wo_entrp">    -40.40789783 </i>
    <i name="e_0_energy">    -40.40789783 </i>
   </energy>
  </scstep>
  <scstep>
   <time name="dav">    1.66    1.66</time>
   <time name="total">    2.00    2.00</time>
   <energy>
    <i name="e_fr_energy">    -40.40810989 </i>
    <i name="e_wo_entrp">    -40.40810989 </i>
    <i name="e_0_energy">    -40.40810989 </i>
   </energy>
  </scstep>
  <scstep>
   <time name="dav">    1.66    1.66</time>
   <time name="total">    2.00    2.00</time>
   <energy>
    <i name="e_fr_energy">    -40.40829071 </i>
    <i name="e_wo_entrp">    -40.40829071 </i>
    <i name="e_0_energy">    -40.40829071 </i>
   </energy>
  </scstep>
  <scstep>
   <time name="dav">    1.64    1.64</time>
   <time name="total">    1.98    1.98</time>
   <energy>
    <i name="e_fr_energy">    -40.40845012 </i>
    <i name="e_wo_entrp">    -40.40845012 </i>
    <i name="e_0_energy">    -40.40845012 </i>
   </energy>
  </scstep>
  <scstep>
   <time name="dav">    1.68    1.68</time>
   <time name="total">    2.02    2.02</time>
   <energy>
    <i name="e_fr_energy">    -40.40868819 </i>
    <i name="e_wo_entrp">    -40.40868819 </i>
    <i name="e_0_energy">    -40.40868819 </i>
[...]
       <r>    -0.8952     0.0000   130.0000 </r>
       <r>    -0.8574     0.0000   130.0000 </r>
       <r>    -0.8197     0.0000   130.0000 </r>
       <r>    -0.7820     0.0000   130.0000 </r>
       <r>    -0.7443     0.0000   130.0000 </r>
       <r>    -0.7065     0.0000   131.0000 </r>
       <r>    -0.6688     0.0000   132.0000 </r>
       <r>    -0.6311     0.0000   132.0000 </r>
       <r>    -0.5934     0.0000   133.0000 </r>
       <r>    -0.5556     0.0000   133.0000 </r>
       <r>    -0.5179     0.0000   133.0000 </r>
       <r>    -0.4802     0.0000   134.0000 </r>
       <r>    -0.4425     0.0000   134.0000 </r>
       <r>    -0.4047     0.0000   134.0000 </r>
       <r>    -0.3670     0.0000   134.0000 </r>
       <r>    -0.3293     0.0000   135.0000 </r>
       <r>    -0.2916     0.0000   135.0000 </r>
       <r>    -0.2538     0.0000   135.0000 </r>
       <r>    -0.2161     0.0000   135.0000 </r>
       <r>    -0.1784     0.0000   136.0000 </r>
       <r>    -0.1407     0.0000   136.0000 </r>
       <r>    -0.1029     0.0000   136.0000 </r>
       <r>    -0.0652     0.0000   137.0000 </r>
       <r>    -0.0275     0.0000   137.0000 </r>
       <r>     0.0102     0.0000   137.0000 </r>
       <r>     0.0480     0.0000   138.0000 </r>
       <r>     0.0857     0.0000   138.0000 </r>
       <r>     0.1234     0.0000   138.0000 </r>
       <r>     0.1611     0.0000   138.0000 </r>
       <r>     0.1989     0.0000   138.0000 </r>
       <r>     0.2366     0.0000   138.0000 </r>
       <r>     0.2743     0.0000   139.0000 </r>
       <r>     0.3120     0.0000   139.0000 </r>
       <r>     0.3498     0.0000   139.0000 </r>
       <r>     0.3875     0.0000   140.0000 </r>
       <r>     0.4252     0.0000   141.0000 </r>
       <r>     0.4629     0.0000   141.0000 </r>
       <r>     0.5007     0.0000   141.0000 </r>
       <r>     0.5384     0.0000   141.0000 </r>
       <r>     0.5761     0.0000   142.0000 </r>
       <r>     0.6138     0.0000   143.0000 </r>
       <r>     0.6516     0.0000   145.0000 </r>
       <r>     0.6893     0.0000   146.0000 </r>
       <r>     0.7270     0.0000   147.0000 </r>
       <r>     0.7647     0.0000   147.0000 </r>
       <r>     0.8025     0.0000   147.0000 </r>
       <r>     0.8402     0.0000   149.0000 </r>
       <r>     0.8779     0.0000   149.0000 </r>
       <r>     0.9156     0.0000   151.0000 </r>
       <r>     0.9534     0.0000   152.0000 </r>
       <r>     0.9911     0.0000   152.0000 </r>
       <r>     1.0288     0.0000   152.0000 </r>
       <r>     1.0666     0.0000   152.0000 </r>
       <r>     1.1043     0.0000   152.0000 </r>
       <r>     1.1420     0.0000   152.0000 </r>
       <r>     1.1797     0.0000   152.0000 </r>
       <r>     1.2175     0.0000   152.0000 </r>
       <r>     1.2552     0.0000   152.0000 </r>
       <r>     1.2929     0.0000   152.0000 </r>
       <r>     1.3306     0.0000   152.0000 </r>
       <r>     1.3684     0.0000   152.0000 </r>
       <r>     1.4061     0.0000   152.0000 </r>
       <r>     1.4438     0.0000   152.0000 </r>
       <r>     1.4815     0.0000   152.0000 </r>
      </set>
      <set comment="spin 2">
       <r>    -9.8361     0.0000     0.0000 </r>
       <r>    -9.7983     0.0000     0.0000 </r>
       <r>    -9.7606     0.0000     0.0000 </r>
       <r>    -9.7229     0.0000     0.0000 </r>
       <r>    -9.6852     0.0000     0.0000 </r>
       <r>    -9.6474     0.0000     0.0000 </r>
       <r>    -9.6097     0.0000     0.0000 </r>
       <r>    -9.5720     0.0000     0.0000 </r>
       <r>    -9.5343     0.0000     0.0000 </r>
       <r>    -9.4965     0.0000     0.0000 </r>
       <r>    -9.4588     0.0000     0.0000 </r>
       <r>    -9.4211     0.0000     0.0000 </r>
       <r>    -9.3834     0.0000     0.0000 </r>
       <r>    -9.3456     0.0000     0.0000 </r>
       <r>    -9.3079     0.0000     0.0000 </r>
       <r>    -9.2702     0.0000     1.0000 </r>
       <r>    -9.2325     0.0000     1.0000 </r>
       <r>    -9.1947     0.0000     1.0000 </r>
       <r>    -9.1570     0.0000     1.0000 </r>
       <r>    -9.1193     0.0000     1.0000 </r>
       <r>    -9.0816     0.0000     1.0000 </r>
       <r>    -9.0438     0.0000     2.0000 </r>
       <r>    -9.0061     0.0000     3.0000 </r>
       <r>    -8.9684     0.0000     4.0000 </r>
       <r>    -8.9307     0.0000     5.0000 </r>
       <r>    -8.8929     0.0000     5.0000 </r>
       <r>    -8.8552     0.0000     6.0000 </r>
       <r>    -8.8175     0.0000     7.0000 </r>
       <r>    -8.7798     0.0000     9.0000 </r>
       <r>    -8.7420     0.0000     9.0000 </r>
       <r>    -8.7043     0.0000     9.0000 </r>
       <r>    -8.6666     0.0000    10.0000 </r>
       <r>    -8.6289     0.0000    12.0000 </r>
       <r>    -8.5911     0.0000    12.0000 </r>
       <r>    -8.5534     0.0000    13.0000 </r>
       <r>    -8.5157     0.0000    14.0000 </r>
       <r>    -8.4780     0.0000    16.0000 </r>
       <r>    -8.4402     0.0000    17.0000 </r>
       <r>    -8.4025     0.0000    19.0000 </r>
       <r>    -8.3648     0.0000    19.0000 </r>
       <r>    -8.3271     0.0000    20.0000 </r>
       <r>    -8.2893     0.0000    22.0000 </r>
       <r>    -8.2516     0.0000    23.0000 </r>
       <r>    -8.2139     0.0000    24.0000 </r>
       <r>    -8.1762     0.0000    25.0000 </r>
       <r>    -8.1384     0.0000    26.0000 </r>
       <r>    -8.1007     0.0000    26.0000 </r>
       <r>    -8.0630     0.0000    28.0000 </r>
       <r>    -8.0253     0.0000    29.0000 </r>
       <r>    -7.9875     0.0000    31.0000 </r>
       <r>    -7.9498     0.0000    33.0000 </r>
       <r>    -7.9121     0.0001    34.0000 </r>
       <r>    -7.8744     0.0000    36.0000 </r>
       <r>    -7.8366     0.0000    36.0000 </r>
       <r>    -7.7989     0.0000    38.0000 </r>
       <r>    -7.7612     0.0000    39.0000 </r>
       <r>    -7.7235     0.0000    40.0000 </r>
       <r>    -7.6857     0.0000    42.0000 </r>
       <r>    -7.6480     0.0000    43.0000 </r>
       <r>    -7.6103     0.0000    44.0000 </r>
       <r>    -7.5725     0.0000    45.0000 </r>
       <r>    -7.5348     0.0000    46.0000 </r>
       <r>    -7.4971     0.0000    47.0000 </r>
       <r>    -7.4594     0.0000    48.0000 </r>
       <r>    -7.4216     0.0000    49.0000 </r>
       <r>    -7.3839     0.0000    50.0000 </r>
       <r>    -7.3462     0.0000    52.0000 </r>
       <r>    -7.3085     0.0000    54.0000 </r>
       <r>    -7.2707     0.0000    55.0000 </r>
       <r>    -7.2330     0.0000    56.0000 </r>
       <r>    -7.1953     0.0000    58.0000 </r>
       <r>    -7.1576     0.0000    59.0000 </r>
       <r>    -7.1198     2.3618    60.0891 </r>
       <r>    -7.0821     0.0000    63.0000 </r>
       <r>    -7.0444     0.0000    66.0000 </r>
       <r>    -7.0067     0.0000    68.0000 </r>
       <r>    -6.9689     0.0000    70.0000 </r>
       <r>    -6.9312     0.0000    74.0000 </r>
       <r>    -6.8935     0.0000    76.0000 </r>
       <r>    -6.8558     0.0000    78.0000 </r>
       <r>    -6.8180     0.0000    80.0000 </r>
       <r>    -6.7803     0.0000    82.0000 </r>
       <r>    -6.7426    25.9013    83.9771 </r>
       <r>    -6.7049     0.0000    86.0000 </r>
       <r>    -6.6671     0.0000    88.0000 </r>
       <r>    -6.6294     0.0000    90.0000 </r>
       <r>    -6.5917     0.0000    91.0000 </r>
       <r>    -6.5540     0.0000    93.0000 </r>
       <r>    -6.5162     0.0005    95.0000 </r>
       <r>    -6.4785     0.0000    96.0000 </r>
       <r>    -6.4408     0.0000    98.0000 </r>
       <r>    -6.4031     0.0000   100.0000 </r>
       <r>    -6.3653     0.0000   102.0000 </r>
       <r>    -6.3276     0.0000   103.0000 </r>
       <r>    -6.2899     0.0000   104.0000 </r>
       <r>    -6.2522     0.0000   106.0000 </r>
       <r>    -6.2144    25.8501   106.9752 </r>
       <r>    -6.1767     0.0000   108.0000 </r>
       <r>    -6.1390     0.0000   108.0000 </r>
       <r>    -6.1013     0.0000   108.0000 </r>
       <r>    -6.0635     0.0000   109.0000 </r>
       <r>    -6.0258     0.0000   109.0000 </r>
       <r>    -5.9881     0.0000   109.0000 </r>
       <r>    -5.9504     0.0000   109.0000 </r>
       <r>    -5.9126     0.0000   109.0000 </r>
       <r>    -5.8749     0.0000   109.0000 </r>
       <r>    -5.8372     0.0000   109.0000 </r>
       <r>    -5.7995     0.0000   109.0000 </r>
       <r>    -5.7617     0.0000   109.0000 </r>
       <r>    -5.7240     0.0000   109.0000 </r>
       <r>    -5.6863     0.0000   109.0000 </r>
       <r>    -5.6486     0.0000   109.0000 </r>
       <r>    -5.6108     0.0000   109.0000 </r>
       <r>    -5.5731     0.0000   109.0000 </r>
       <r>    -5.5354     0.0000   109.0000 </r>
       <r>    -5.4977     0.0000   109.0000 </r>
       <r>    -5.4599     0.0000   109.0000 </r>
       <r>    -5.4222     0.0000   109.0000 </r>
       <r>    -5.3845     0.0000   109.0000 </r>
       <r>    -5.3468     0.0000   109.0000 </r>
       <r>    -5.3090     0.0000   109.0000 </r>
       <r>    -5.2713     0.0000   110.0000 </r>
       <r>    -5.2336     0.0000   110.0000 </r>
       <r>    -5.1959     0.0000   110.0000 </r>
       <r>    -5.1581     0.0000   110.0000 </r>
       <r>    -5.1204     0.0000   110.0000 </r>
       <r>    -5.0827     0.0000   110.0000 </r>
       <r>    -5.0450     0.0000   110.0000 </r>
       <r>    -5.0072     0.0000   110.0000 </r>
       <r>    -4.9695     0.0000   110.0000 </r>
       <r>    -4.9318     0.0000   110.0000 </r>
       <r>    -4.8941     0.0000   110.0000 </r>
       <r>    -4.8563     0.0000   110.0000 </r>
       <r>    -4.8186     0.0000   110.0000 </r>
       <r>    -4.7809     0.0000   110.0000 </r>
       <r>    -4.7431     0.0000   111.0000 </r>
       <r>    -4.7054     0.0000   111.0000 </r>
       <r>    -4.6677     0.0000   111.0000 </r>
       <r>    -4.6300     0.0000   111.0000 </r>
       <r>    -4.5922     0.0000   111.0000 </r>
       <r>    -4.5545     0.0000   111.0000 </r>
       <r>    -4.5168     0.0000   112.0000 </r>
       <r>    -4.4791     0.0000   113.0000 </r>
       <r>    -4.4413     0.0000   113.0000 </r>
       <r>    -4.4036     0.0000   113.0000 </r>
       <r>    -4.3659     0.0000   113.0000 </r>
       <r>    -4.3282     0.0000   114.0000 </r>
       <r>    -4.2904     0.0000   114.0000 </r>
       <r>    -4.2527     0.0000   114.0000 </r>
       <r>    -4.2150     0.0000   114.0000 </r>
       <r>    -4.1773     0.0000   114.0000 </r>
       <r>    -4.1395     0.0000   114.0000 </r>
       <r>    -4.1018     0.0000   114.0000 </r>
       <r>    -4.0641     0.0000   114.0000 </r>
       <r>    -4.0264     0.0000   114.0000 </r>
       <r>    -3.9886     0.0000   114.0000 </r>
       <r>    -3.9509     0.0000   114.0000 </r>
       <r>    -3.9132     0.0000   114.0000 </r>
       <r>    -3.8755     0.0000   114.0000 </r>
       <r>    -3.8377     0.0000   114.0000 </r>
       <r>    -3.8000     0.0000   114.0000 </r>
       <r>    -3.7623     0.0000   114.0000 </r>
       <r>    -3.7246     0.0000   114.0000 </r>
       <r>    -3.6868     0.0000   114.0000 </r>
       <r>    -3.6491     0.0000   115.0000 </r>
       <r>    -3.6114     0.0000   115.0000 </r>
       <r>    -3.5737     0.0000   115.0000 </r>
       <r>    -3.5359     0.0000   115.0000 </r>
       <r>    -3.4982     0.0000   116.0000 </r>
       <r>    -3.4605     0.0000   116.0000 </r>
       <r>    -3.4228     0.0000   116.0000 </r>
       <r>    -3.3850     0.0000   116.0000 </r>
       <r>    -3.3473     0.0000   116.0000 </r>
       <r>    -3.3096     0.0000   116.0000 </r>
       <r>    -3.2719     0.0000   116.0000 </r>
       <r>    -3.2341     0.0000   116.0000 </r>
       <r>    -3.1964     0.0000   116.0000 </r>
       <r>    -3.1587     0.0000   116.0000 </r>
       <r>    -3.1210     0.0000   116.0000 </r>
       <r>    -3.0832     0.0000   116.0000 </r>
       <r>    -3.0455     0.0000   116.0000 </r>
       <r>    -3.0078     0.0000   116.0000 </r>
       <r>    -2.9701     0.0000   116.0000 </r>
       <r>    -2.9323     0.0000   117.0000 </r>
       <r>    -2.8946     0.0000   117.0000 </r>
       <r>    -2.8569     0.0000   117.0000 </r>
       <r>    -2.8192     0.0000   117.0000 </r>
       <r>    -2.7814     0.0000   117.0000 </r>
       <r>    -2.7437     0.0000   117.0000 </r>
       <r>    -2.7060     0.0000   118.0000 </r>
       <r>    -2.6683     0.0000   118.0000 </r>
       <r>    -2.6305     0.0000   118.0000 </r>
       <r>    -2.5928     0.0000   118.0000 </r>
       <r>    -2.5551     0.0000   119.0000 </r>
       <r>    -2.5174     0.0000   119.0000 </r>
       <r>    -2.4796     0.0000   119.0000 </r>
       <r>    -2.4419     0.0000   119.0000 </r>
       <r>    -2.4042     0.0000   120.0000 </r>
       <r>    -2.3665     0.0000   121.0000 </r>
       <r>    -2.3287     0.0000   121.0000 </r>
       <r>    -2.2910     0.0000   121.0000 </r>
       <r>    -2.2533     0.0000   121.0000 </r>
       <r>    -2.2156     0.0000   121.0000 </r>
       <r>    -2.1778     0.0000   121.0000 </r>
       <r>    -2.1401     0.0000   122.0000 </r>
       <r>    -2.1024     0.0000   122.0000 </r>
       <r>    -2.0647     0.0000   122.0000 </r>
       <r>    -2.0269     0.0000   122.0000 </r>
       <r>    -1.9892     0.0000   122.0000 </r>
       <r>    -1.9515     0.0000   123.0000 </r>
       <r>    -1.9137     0.0000   123.0000 </r>
       <r>    -1.8760     0.0000   123.0000 </r>
       <r>    -1.8383     0.0000   123.0000 </r>
       <r>    -1.8006     0.0000   124.0000 </r>
       <r>    -1.7628     0.0000   124.0000 </r>
       <r>    -1.7251     0.0000   125.0000 </r>
       <r>    -1.6874     0.0000   125.0000 </r>
       <r>    -1.6497     0.0000   125.0000 </r>
       <r>    -1.6119     0.0000   125.0000 </r>
       <r>    -1.5742     0.0000   125.0000 </r>
       <r>    -1.5365     0.0000   125.0000 </r>
       <r>    -1.4988     0.0000   125.0000 </r>
       <r>    -1.4610     0.0000   125.0000 </r>
       <r>    -1.4233     0.0000   125.0000 </r>
       <r>    -1.3856     0.0000   126.0000 </r>
       <r>    -1.3479     0.0000   126.0000 </r>
       <r>    -1.3101     0.0000   126.0000 </r>
       <r>    -1.2724     0.0000   126.0000 </r>
       <r>    -1.2347     0.0000   126.0000 </r>
       <r>    -1.1970     0.0000   126.0000 </r>
       <r>    -1.1592     0.0000   127.0000 </r>
       <r>    -1.1215     0.0000   127.0000 </r>
       <r>    -1.0838     0.0000   127.0000 </r>
       <r>    -1.0461     0.0000   127.0000 </r>
       <r>    -1.0083     0.0000   127.0000 </r>
       <r>    -0.9706     0.0000   128.0000 </r>
       <r>    -0.9329     0.0000   128.0000 </r>
       <r>    -0.8952     0.0000   129.0000 </r>
       <r>    -0.8574     0.0000   130.0000 </r>
       <r>    -0.8197     0.0000   130.0000 </r>
       <r>    -0.7820     0.0000   130.0000 </r>
       <r>    -0.7443     0.0000   130.0000 </r>
       <r>    -0.7065     0.0000   130.0000 </r>
       <r>    -0.6688     0.0000   131.0000 </r>
       <r>    -0.6311     0.0000   132.0000 </r>
       <r>    -0.5934     0.0000   132.0000 </r>
       <r>    -0.5556     0.0000   132.0000 </r>
       <r>    -0.5179     0.0000   133.0000 </r>
       <r>    -0.4802     0.0000   133.0000 </r>
       <r>    -0.4425     0.0000   133.0000 </r>
       <r>    -0.4047     0.0000   134.0000 </r>
       <r>    -0.3670     0.0000   134.0000 </r>
       <r>    -0.3293     0.0000   134.0000 </r>
       <r>    -0.2916     0.0000   135.0000 </r>
       <r>    -0.2538     0.0000   135.0000 </r>
       <r>    -0.2161     0.0000   135.0000 </r>
       <r>    -0.1784     0.0000   135.0000 </r>
       <r>    -0.1407     0.0000   136.0000 </r>
       <r>    -0.1029     0.0000   136.0000 </r>
       <r>    -0.0652     0.0000   136.0000 </r>
       <r>    -0.0275     0.0000   137.0000 </r>
       <r>     0.0102     0.0000   137.0000 </r>
       <r>     0.0480     0.0000   137.0000 </r>
       <r>     0.0857     0.0000   137.0000 </r>
       <r>     0.1234     0.0000   138.0000 </r>
       <r>     0.1611     0.0000   138.0000 </r>
       <r>     0.1989     0.0000   138.0000 </r>
       <r>     0.2366     0.0000   138.0000 </r>
       <r>     0.2743     0.0000   138.0000 </r>
       <r>     0.3120     0.0000   139.0000 </r>
       <r>     0.3498     0.0000   139.0000 </r>
       <r>     0.3875     0.0000   139.0000 </r>
       <r>     0.4252     0.0000   140.0000 </r>
       <r>     0.4629     0.0000   141.0000 </r>
       <r>     0.5007     0.0000   141.0000 </r>
       <r>     0.5384     0.0000   141.0000 </r>
       <r>     0.5761     0.0000   142.0000 </r>
       <r>     0.6138     0.0000   142.0000 </r>
       <r>     0.6516     0.0000   143.0000 </r>
       <r>     0.6893     0.0000   146.0000 </r>
       <r>     0.7270     0.0000   147.0000 </r>
       <r>     0.7647     0.0000   147.0000 </r>
       <r>     0.8025     0.0000   147.0000 </r>
       <r>     0.8402     0.0000   148.0000 </r>
       <r>     0.8779     0.0000   149.0000 </r>
       <r>     0.9156     0.0000   149.0000 </r>
       <r>     0.9534     0.0000   151.0000 </r>
       <r>     0.9911     0.0000   152.0000 </r>
       <r>     1.0288     0.0000   152.0000 </r>
       <r>     1.0666     0.0000   152.0000 </r>
       <r>     1.1043     0.0000   152.0000 </r>
       <r>     1.1420     0.0000   152.0000 </r>
       <r>     1.1797     0.0000   152.0000 </r>
       <r>     1.2175     0.0000   152.0000 </r>
       <r>     1.2552     0.0000   152.0000 </r>
       <r>     1.2929     0.0000   152.0000 </r>
       <r>     1.3306     0.0000   152.0000 </r>
       <r>     1.3684     0.0000   152.0000 </r>
       <r>     1.4061     0.0000   152.0000 </r>
       <r>     1.4438     0.0000   152.0000 </r>
       <r>     1.4815     0.0000   152.0000 </r>
      </set>
     </set>
    </array>
   </total>
  </dos>
 </calculation>
 <structure name="finalpos" >
  <crystal>
   <varray name="basis" >
    <v>      20.78042251       0.00000000       0.00000000 </v>
    <v>       0.00000000      20.78042251       0.00000000 </v>
    <v>       0.00000000       0.00000000      20.78042251 </v>
   </varray>
   <i name="volume">   8973.52588835 </i>
   <varray name="rec_basis" >
    <v>       0.04812222       0.00000000       0.00000000 </v>
    <v>       0.00000000       0.04812222       0.00000000 </v>
    <v>       0.00000000       0.00000000       0.04812222 </v>
   </varray>
  </crystal>
  <varray name="positions" >
   <v>       0.61165216       0.53692692       0.35287122 </v>
   <v>       0.49823480       0.58632131       0.30371977 </v>
   <v>       0.50511770       0.47054426       0.39883132 </v>
   <v>       0.40348323       0.57054745       0.39601133 </v>
   <v>       0.43655401       0.35553966       0.45033221 </v>
   <v>       0.61387507       0.51068806       0.48346113 </v>
   <v>       0.53179229       0.40675596       0.52181126 </v>
   <v>       0.73910782       0.47586345       0.52593674 </v>
   <v>       0.52744413       0.60538997       0.43164526 </v>
   <v>       0.65871680       0.37455902       0.51147186 </v>
   <v>       0.41178781       0.47909435       0.49151615 </v>
   <v>       0.62502628       0.46146052       0.60875358 </v>
   <v>       0.41423804       0.38790481       0.58638939 </v>
   <v>       0.42861401       0.61058206       0.52279281 </v>
   <v>       0.55908344       0.61840444       0.55668379 </v>
   <v>       0.49523708       0.49779916       0.61248394 </v>
   <v>       0.68476611       0.58033617       0.58504097 </v>
   <v>       0.36586171       0.51984133       0.61100601 </v>
   <v>       0.58522082       0.57216187       0.67859144 </v>
   <v>       0.33798716       0.64923222       0.61379318 </v>
   <v>       0.46226006       0.62429501       0.65227049 </v>
  </varray>
 </structure>
</modeling>
