unknown system                          
           1
    20.251372    0.000000    0.000000
     0.000000   20.251372    0.000000
     0.000000    0.000000   20.251372
   Ag
  25
Direct configuration=     1
   0.61825344  0.43522873  0.68622353
   0.69661979  0.48817666  0.48068697
   0.35594970  0.69027820  0.66633284
   0.60359554  0.57300287  0.67303457
   0.65676966  0.60580290  0.40728050
   0.57610976  0.69425004  0.60322115
   0.54033329  0.65745634  0.46408690
   0.51290520  0.56733931  0.56065509
   0.38211592  0.56200581  0.60913155
   0.48843749  0.48317276  0.66339910
   0.56816861  0.43652028  0.55872022
   0.65455003  0.47790737  0.35103500
   0.62122292  0.38135477  0.44516135
   0.43678598  0.46248390  0.52839671
   0.55693933  0.51276824  0.44185618
   0.43677935  0.68488347  0.55714519
   0.65080196  0.72900252  0.48617871
   0.57391019  0.70349371  0.73671644
   0.74865386  0.39554812  0.68898292
   0.52393946  0.78819103  0.52578148
   0.65489301  0.60154434  0.54276588
   0.47464180  0.62755362  0.68693572
   0.47394901  0.76851949  0.66071891
   0.71397526  0.50611518  0.61788148
   0.68993176  0.37763267  0.56790395
Direct configuration=     2
   0.61819814  0.43522688  0.68626172
   0.69667012  0.48818751  0.48069585
   0.35590919  0.69029267  0.66634256
   0.60355953  0.57301533  0.67300672
   0.65677535  0.60580702  0.40727947
   0.57615025  0.69422613  0.60322057
   0.54030385  0.65741163  0.46410451
   0.51294377  0.56735065  0.56061993
   0.38210463  0.56197215  0.60915308
   0.48845676  0.48315409  0.66344387
   0.56815330  0.43649987  0.55871568
   0.65453383  0.47790903  0.35101193
   0.62124800  0.38131510  0.44517366
   0.43674728  0.46246900  0.52837306
   0.55689732  0.51279341  0.44185147
   0.43679074  0.68489074  0.55710112
   0.65085529  0.72901159  0.48618268
   0.57391288  0.70352026  0.73674394
   0.74866123  0.39556097  0.68898840
   0.52392419  0.78823780  0.52578711
   0.65491577  0.60155196  0.54278869
   0.47465095  0.62751720  0.68694059
   0.47393660  0.76856353  0.66073492
   0.71399885  0.50616360  0.61785120
   0.68993449  0.37758419  0.56785961
Direct configuration=     3
   0.61803223  0.43522131  0.68637630
   0.69682112  0.48822007  0.48072249
   0.35578767  0.69033608  0.66637173
   0.60345148  0.57305271  0.67292317
   0.65679240  0.60581935  0.40727636
   0.57627171  0.69415438  0.60321884
   0.54021555  0.65727750  0.46415731
   0.51305946  0.56738468  0.56051446
   0.38207075  0.56187119  0.60921764
   0.48851454  0.48309808  0.66357820
   0.56810736  0.43643863  0.55870207
   0.65448524  0.47791403  0.35094271
   0.62132326  0.38119609  0.44521061
   0.43663119  0.46242430  0.52830211
   0.55677132  0.51286894  0.44183736
   0.43682491  0.68491257  0.55696891
   0.65101529  0.72903880  0.48619459
   0.57392095  0.70359993  0.73682643
   0.74868334  0.39559953  0.68900485
   0.52387836  0.78837808  0.52580398
   0.65498406  0.60157485  0.54285712
   0.47467840  0.62740797  0.68695520
   0.47389938  0.76869565  0.66078294
   0.71406964  0.50630886  0.61776035
   0.68994270  0.37743875  0.56772658
Direct configuration=     4
   0.61770043  0.43521019  0.68660545
   0.69712312  0.48828518  0.48077577
   0.35554462  0.69042289  0.66643006
   0.60323537  0.57312747  0.67275607
   0.65682651  0.60584402  0.40727014
   0.57651463  0.69401088  0.60321539
   0.54003894  0.65700925  0.46426293
   0.51329084  0.56745273  0.56030350
   0.38200299  0.56166927  0.60934678
   0.48863012  0.48298606  0.66384685
   0.56801550  0.43631615  0.55867484
   0.65438806  0.47792402  0.35080429
   0.62147377  0.38095807  0.44528451
   0.43639901  0.46233488  0.52816022
   0.55651931  0.51301999  0.44180914
   0.43689325  0.68495622  0.55670450
   0.65133528  0.72909322  0.48621841
   0.57393711  0.70375928  0.73699141
   0.74872756  0.39567666  0.68903774
   0.52378671  0.78865864  0.52583773
   0.65512062  0.60162061  0.54299399
   0.47473331  0.62718949  0.68698443
   0.47382494  0.76895989  0.66087898
   0.71421122  0.50659938  0.61757867
   0.68995910  0.37714786  0.56746054
Direct configuration=     5
   0.61766784  0.43522045  0.68664108
   0.69719037  0.48828561  0.48074810
   0.35553466  0.69042909  0.66641117
   0.60319368  0.57312144  0.67271525
   0.65682954  0.60584223  0.40729277
   0.57653322  0.69405570  0.60321743
   0.54007216  0.65701542  0.46425825
   0.51327320  0.56735662  0.56034106
   0.38202470  0.56161257  0.60939308
   0.48864709  0.48297559  0.66387680
   0.56798117  0.43626879  0.55866475
   0.65432975  0.47792502  0.35081564
   0.62154765  0.38091683  0.44530304
   0.43635569  0.46234600  0.52814179
   0.55646712  0.51302713  0.44176689
   0.43690085  0.68497864  0.55669495
   0.65138117  0.72906541  0.48622986
   0.57390628  0.70381330  0.73701253
   0.74868024  0.39574657  0.68899633
   0.52378626  0.78869994  0.52588832
   0.65519546  0.60165645  0.54298097
   0.47471381  0.62718109  0.68696953
   0.47381160  0.76898549  0.66087877
   0.71423771  0.50660985  0.61757437
   0.68997109  0.37709710  0.56741957
Direct configuration=     6
   0.61757007  0.43525122  0.68674797
   0.69739210  0.48828689  0.48066511
   0.35550479  0.69044767  0.66635450
   0.60306859  0.57310335  0.67259280
   0.65683862  0.60583688  0.40736067
   0.57658900  0.69419013  0.60322354
   0.54017183  0.65703395  0.46424423
   0.51322026  0.56706826  0.56045372
   0.38208982  0.56144246  0.60953200
   0.48869801  0.48294418  0.66396667
   0.56787820  0.43612671  0.55863448
   0.65415484  0.47792801  0.35084968
   0.62176929  0.38079310  0.44535865
   0.43622573  0.46237933  0.52808652
   0.55631057  0.51304854  0.44164017
   0.43692365  0.68504590  0.55666630
   0.65151882  0.72898198  0.48626422
   0.57381380  0.70397537  0.73707589
   0.74853826  0.39595632  0.68887210
   0.52378490  0.78882385  0.52604010
   0.65542000  0.60176396  0.54294189
   0.47465534  0.62715587  0.68692484
   0.47377157  0.76906230  0.66087814
   0.71431717  0.50664126  0.61756147
   0.69000708  0.37694483  0.56729666
Direct configuration=     7
   0.61737454  0.43531278  0.68696175
   0.69779557  0.48828944  0.48049911
   0.35544503  0.69048483  0.66624116
   0.60281842  0.57306717  0.67234789
   0.65685680  0.60582617  0.40749647
   0.57670054  0.69445901  0.60323576
   0.54037115  0.65707100  0.46421618
   0.51311439  0.56649155  0.56067905
   0.38222007  0.56110224  0.60980983
   0.48879984  0.48288136  0.66414641
   0.56767226  0.43584255  0.55857394
   0.65380500  0.47793401  0.35091778
   0.62221258  0.38054564  0.44546987
   0.43596580  0.46244601  0.52797597
   0.55599746  0.51309136  0.44138672
   0.43696926  0.68518042  0.55660900
   0.65179413  0.72881511  0.48633294
   0.57362883  0.70429951  0.73720262
   0.74825431  0.39637582  0.68862363
   0.52378218  0.78907165  0.52634366
   0.65586906  0.60197898  0.54286375
   0.47453838  0.62710544  0.68683544
   0.47369153  0.76921593  0.66087687
   0.71447611  0.50670408  0.61753566
   0.69007905  0.37664027  0.56705084
Direct configuration=     8
   0.61730787  0.43535029  0.68697758
   0.69790861  0.48830291  0.48046724
   0.35542033  0.69049644  0.66618699
   0.60277094  0.57309512  0.67224418
   0.65688049  0.60579507  0.40750781
   0.57676045  0.69446193  0.60325806
   0.54037479  0.65700367  0.46435843
   0.51319647  0.56655477  0.56058211
   0.38221059  0.56100752  0.60992006
   0.48879825  0.48278153  0.66427395
   0.56763006  0.43568771  0.55852930
   0.65367398  0.47792818  0.35092745
   0.62237571  0.38047698  0.44550548
   0.43584061  0.46239314  0.52790393
   0.55585036  0.51309426  0.44137134
   0.43704610  0.68515050  0.55657897
   0.65190953  0.72880565  0.48635740
   0.57351968  0.70439809  0.73721283
   0.74819849  0.39647648  0.68858483
   0.52378784  0.78918149  0.52642248
   0.65602651  0.60201555  0.54292226
   0.47455205  0.62715332  0.68682243
   0.47365176  0.76926799  0.66088623
   0.71446025  0.50675887  0.61745826
   0.69008060  0.37659486  0.56697273
Direct configuration=     9
   0.61720152  0.43541012  0.68700282
   0.69808889  0.48832438  0.48041641
   0.35538092  0.69051495  0.66610060
   0.60269521  0.57313969  0.67207877
   0.65691828  0.60574545  0.40752590
   0.57685602  0.69446659  0.60329361
   0.54038061  0.65689627  0.46458530
   0.51332739  0.56665561  0.56042750
   0.38219546  0.56085645  0.61009586
   0.48879572  0.48262231  0.66447737
   0.56756275  0.43544075  0.55845810
   0.65346501  0.47791888  0.35094288
   0.62263592  0.38036746  0.44556228
   0.43564093  0.46230883  0.52778903
   0.55561575  0.51309890  0.44134682
   0.43716866  0.68510278  0.55653106
   0.65209358  0.72879057  0.48639641
   0.57334558  0.70455533  0.73722912
   0.74810945  0.39663702  0.68852295
   0.52379685  0.78935667  0.52654819
   0.65627763  0.60207388  0.54301558
   0.47457385  0.62722969  0.68680167
   0.47358832  0.76935103  0.66090116
   0.71443494  0.50684627  0.61733481
   0.69008308  0.37652244  0.56684814
Direct configuration=    10
   0.61720668  0.43543809  0.68693794
   0.69807858  0.48834645  0.48039887
   0.35538700  0.69051150  0.66605196
   0.60270961  0.57315958  0.67205583
   0.65691300  0.60570740  0.40754208
   0.57688363  0.69445382  0.60329339
   0.54043337  0.65692042  0.46464610
   0.51331996  0.56662109  0.56044704
   0.38221707  0.56083638  0.61013364
   0.48877147  0.48260186  0.66443784
   0.56748859  0.43538760  0.55844098
   0.65339653  0.47790605  0.35094920
   0.62269710  0.38036391  0.44554212
   0.43565325  0.46231724  0.52780210
   0.55555123  0.51304900  0.44137683
   0.43720910  0.68506002  0.55655342
   0.65210813  0.72879345  0.48640864
   0.57328322  0.70460425  0.73722910
   0.74811042  0.39664923  0.68853380
   0.52382394  0.78937675  0.52657730
   0.65635959  0.60210589  0.54304009
   0.47458806  0.62726615  0.68678198
   0.47356033  0.76936292  0.66088668
   0.71438946  0.50682561  0.61729458
   0.69009302  0.37656763  0.56687081
Direct configuration=    11
   0.61722214  0.43552197  0.68674330
   0.69804766  0.48841267  0.48034628
   0.35540522  0.69050116  0.66590605
   0.60275281  0.57321927  0.67198700
   0.65689717  0.60559324  0.40759062
   0.57696645  0.69441551  0.60329271
   0.54059165  0.65699285  0.46482851
   0.51329767  0.56651755  0.56050569
   0.38228189  0.56077620  0.61024698
   0.48869870  0.48254052  0.66431926
   0.56726610  0.43522816  0.55838962
   0.65319109  0.47786754  0.35096814
   0.62288064  0.38035328  0.44548165
   0.43569021  0.46234246  0.52784131
   0.55535767  0.51289929  0.44146687
   0.43733042  0.68493176  0.55662052
   0.65215179  0.72880209  0.48644535
   0.57309613  0.70475102  0.73722904
   0.74811336  0.39668586  0.68856635
   0.52390521  0.78943701  0.52666463
   0.65660548  0.60220193  0.54311364
   0.47463069  0.62737554  0.68672290
   0.47347637  0.76939859  0.66084322
   0.71425300  0.50676363  0.61717387
   0.69012281  0.37670321  0.56693881
Direct configuration=    12
   0.61718227  0.43552003  0.68672617
   0.69805206  0.48842903  0.48032236
   0.35536893  0.69050701  0.66588812
   0.60273786  0.57324096  0.67198988
   0.65686594  0.60555880  0.40761216
   0.57697665  0.69443848  0.60331608
   0.54059347  0.65693440  0.46487147
   0.51338668  0.56659186  0.56047288
   0.38225194  0.56075745  0.61028567
   0.48869991  0.48248988  0.66438521
   0.56728694  0.43508503  0.55833814
   0.65312066  0.47787179  0.35094430
   0.62292878  0.38031835  0.44551943
   0.43558910  0.46230250  0.52779280
   0.55529357  0.51288883  0.44145571
   0.43737511  0.68493419  0.55658900
   0.65222627  0.72883526  0.48645085
   0.57307202  0.70483448  0.73725280
   0.74811652  0.39671445  0.68858736
   0.52391413  0.78945583  0.52670692
   0.65670185  0.60226183  0.54311153
   0.47464003  0.62735624  0.68672603
   0.47346622  0.76943675  0.66081652
   0.71429657  0.50675816  0.61716510
   0.69008885  0.37671073  0.56690583
Direct configuration=    13
   0.61715044  0.43551849  0.68671250
   0.69805557  0.48844210  0.48030325
   0.35533996  0.69051169  0.66587381
   0.60272593  0.57325828  0.67199218
   0.65684099  0.60553129  0.40762936
   0.57698480  0.69445682  0.60333474
   0.54059492  0.65688773  0.46490577
   0.51345775  0.56665120  0.56044669
   0.38222802  0.56074248  0.61031657
   0.48870088  0.48244944  0.66443788
   0.56730358  0.43497074  0.55829703
   0.65306441  0.47787518  0.35092526
   0.62296723  0.38029046  0.44554959
   0.43550835  0.46227058  0.52775406
   0.55524237  0.51288047  0.44144679
   0.43741080  0.68493613  0.55656384
   0.65228575  0.72886175  0.48645524
   0.57305277  0.70490112  0.73727177
   0.74811904  0.39673728  0.68860413
   0.52392126  0.78947087  0.52674069
   0.65677881  0.60230966  0.54310984
   0.47464748  0.62734083  0.68672853
   0.47345812  0.76946722  0.66079519
   0.71433137  0.50675379  0.61715811
   0.69006173  0.37671673  0.56687949
