  20  20   0   0
  0.4993073E+03  0.2153439E-08  0.2153439E-08  0.2153439E-08  0.1000000E-15
  1.000000000000000E-004
  CAR 
 unknown system                          
      1.36479777    -10.06104240  301     -3.60544271      1.00000000
    -10.061  0.0000E+00  0.0000E+00  0.0000E+00  0.0000E+00
    -10.023  0.0000E+00  0.0000E+00  0.0000E+00  0.0000E+00
     -9.985  0.0000E+00  0.0000E+00  0.0000E+00  0.0000E+00
     -9.947  0.0000E+00  0.0000E+00  0.0000E+00  0.0000E+00
     -9.909  0.0000E+00  0.0000E+00  0.0000E+00  0.0000E+00
     -9.871  0.0000E+00  0.0000E+00  0.0000E+00  0.0000E+00
     -9.833  0.0000E+00  0.0000E+00  0.0000E+00  0.0000E+00
     -9.794  0.0000E+00  0.0000E+00  0.0000E+00  0.0000E+00
     -9.756  0.0000E+00  0.0000E+00  0.0000E+00  0.0000E+00
     -9.718  0.0000E+00  0.0000E+00  0.0000E+00  0.0000E+00
     -9.680  0.0000E+00  0.0000E+00  0.0000E+00  0.0000E+00
     -9.642  0.0000E+00  0.0000E+00  0.0000E+00  0.0000E+00
     -9.604  0.0000E+00  0.0000E+00  0.0000E+00  0.0000E+00
     -9.566  0.0000E+00  0.0000E+00  0.0000E+00  0.0000E+00
     -9.528  0.0000E+00  0.0000E+00  0.1000E-02  0.0000E+00
     -9.490  0.0000E+00  0.0000E+00  0.1000E-02  0.0000E+00
     -9.452  0.0000E+00  0.0000E+00  0.1000E-02  0.1000E-02
     -9.414  0.0000E+00  0.0000E+00  0.1000E-02  0.1000E-02
     -9.375  0.0000E+00  0.0000E+00  0.1000E-02  0.1000E-02
     -9.337  0.0000E+00  0.0000E+00  0.2000E-02  0.1000E-02
     -9.299  0.0000E+00  0.0000E+00  0.2000E-02  0.2000E-02
     -9.261  0.0000E+00  0.0000E+00  0.2000E-02  0.2000E-02
     -9.223  0.0000E+00  0.0000E+00  0.2000E-02  0.2000E-02
     -9.185  0.0000E+00  0.0000E+00  0.3000E-02  0.2000E-02
     -9.147  0.0000E+00  0.0000E+00  0.3000E-02  0.3000E-02
     -9.109  0.0000E+00  0.0000E+00  0.3000E-02  0.3000E-02
     -9.071  0.0000E+00  0.0000E+00  0.4000E-02  0.3000E-02
     -9.033  0.2609E-01  0.0000E+00  0.5994E-02  0.4000E-02
     -8.995  0.0000E+00  0.0000E+00  0.6000E-02  0.6000E-02
     -8.957  0.0000E+00  0.0000E+00  0.7000E-02  0.6000E-02
     -8.918  0.0000E+00  0.0000E+00  0.8000E-02  0.7000E-02
     -8.880  0.0000E+00  0.0000E+00  0.8000E-02  0.8000E-02
     -8.842  0.0000E+00  0.0000E+00  0.9000E-02  0.9000E-02
     -8.804  0.0000E+00  0.0000E+00  0.1000E-01  0.1000E-01
     -8.766  0.0000E+00  0.0000E+00  0.1100E-01  0.1000E-01
     -8.728  0.0000E+00  0.0000E+00  0.1200E-01  0.1100E-01
     -8.690  0.0000E+00  0.0000E+00  0.1400E-01  0.1200E-01
     -8.652  0.0000E+00  0.0000E+00  0.1500E-01  0.1400E-01
     -8.614  0.0000E+00  0.0000E+00  0.1600E-01  0.1500E-01
     -8.576  0.0000E+00  0.0000E+00  0.1700E-01  0.1600E-01
     -8.538  0.0000E+00  0.0000E+00  0.1800E-01  0.1700E-01
     -8.500  0.0000E+00  0.0000E+00  0.1900E-01  0.1800E-01
     -8.461  0.0000E+00  0.0000E+00  0.2000E-01  0.1900E-01
     -8.423  0.0000E+00  0.0000E+00  0.2000E-01  0.2000E-01
     -8.385  0.0000E+00  0.0000E+00  0.2100E-01  0.2000E-01
     -8.347  0.0000E+00  0.0000E+00  0.2100E-01  0.2100E-01
     -8.309  0.0000E+00  0.0000E+00  0.2300E-01  0.2100E-01
     -8.271  0.0000E+00  0.0000E+00  0.2500E-01  0.2400E-01
     -8.233  0.0000E+00  0.0000E+00  0.2600E-01  0.2500E-01
     -8.195  0.0000E+00  0.0000E+00  0.2600E-01  0.2600E-01
     -8.157  0.0000E+00  0.0000E+00  0.2800E-01  0.2700E-01
     -8.119  0.0000E+00  0.0000E+00  0.2900E-01  0.2800E-01
     -8.081  0.0000E+00  0.0000E+00  0.3100E-01  0.2900E-01
     -8.042  0.0000E+00  0.0000E+00  0.3100E-01  0.3100E-01
     -8.004  0.0000E+00  0.0000E+00  0.3300E-01  0.3100E-01
     -7.966  0.0000E+00  0.0000E+00  0.3400E-01  0.3400E-01
     -7.928  0.0000E+00  0.0000E+00  0.3500E-01  0.3400E-01
     -7.890  0.3450E-06  0.0000E+00  0.3500E-01  0.3500E-01
     -7.852  0.0000E+00  0.0000E+00  0.3700E-01  0.3600E-01
     -7.814  0.0000E+00  0.0000E+00  0.3900E-01  0.3700E-01
     -7.776  0.2626E-01  0.0000E+00  0.4100E-01  0.4000E-01
     -7.738  0.0000E+00  0.0000E+00  0.4200E-01  0.4200E-01
     -7.700  0.0000E+00  0.0000E+00  0.4400E-01  0.4300E-01
     -7.662  0.0000E+00  0.0000E+00  0.4500E-01  0.4400E-01
     -7.624  0.0000E+00  0.0000E+00  0.4500E-01  0.4500E-01
     -7.585  0.0000E+00  0.0000E+00  0.4700E-01  0.4600E-01
     -7.547  0.0000E+00  0.0000E+00  0.4800E-01  0.4700E-01
     -7.509  0.0000E+00  0.0000E+00  0.4900E-01  0.4800E-01
     -7.471  0.0000E+00  0.0000E+00  0.5000E-01  0.4900E-01
     -7.433  0.0000E+00  0.0000E+00  0.5100E-01  0.5000E-01
     -7.395  0.0000E+00  0.0000E+00  0.5200E-01  0.5100E-01
     -7.357  0.0000E+00  0.0000E+00  0.5400E-01  0.5300E-01
     -7.319  0.0000E+00  0.0000E+00  0.5500E-01  0.5400E-01
     -7.281  0.0000E+00  0.0000E+00  0.5800E-01  0.5700E-01
     -7.243  0.0000E+00  0.0000E+00  0.6000E-01  0.5800E-01
     -7.205  0.0000E+00  0.0000E+00  0.6100E-01  0.6000E-01
     -7.166  0.0000E+00  0.0000E+00  0.6300E-01  0.6200E-01
     -7.128  0.0000E+00  0.0000E+00  0.6500E-01  0.6300E-01
     -7.090  0.0000E+00  0.0000E+00  0.6700E-01  0.6500E-01
     -7.052  0.6071E-11  0.2626E-01  0.6800E-01  0.6800E-01
     -7.014  0.0000E+00  0.0000E+00  0.7100E-01  0.6900E-01
     -6.976  0.0000E+00  0.0000E+00  0.7300E-01  0.7200E-01
     -6.938  0.0000E+00  0.0000E+00  0.7500E-01  0.7400E-01
     -6.900  0.0000E+00  0.0000E+00  0.7800E-01  0.7700E-01
     -6.862  0.0000E+00  0.0000E+00  0.7900E-01  0.7800E-01
     -6.824  0.0000E+00  0.0000E+00  0.8200E-01  0.7900E-01
     -6.786  0.0000E+00  0.0000E+00  0.8400E-01  0.8300E-01
     -6.748  0.0000E+00  0.0000E+00  0.8600E-01  0.8500E-01
     -6.709  0.0000E+00  0.0000E+00  0.8800E-01  0.8700E-01
     -6.671  0.0000E+00  0.0000E+00  0.8900E-01  0.8800E-01
     -6.633  0.0000E+00  0.0000E+00  0.9100E-01  0.9000E-01
     -6.595  0.0000E+00  0.2557E-01  0.9300E-01  0.9197E-01
     -6.557  0.0000E+00  0.0000E+00  0.9500E-01  0.9400E-01
     -6.519  0.0000E+00  0.0000E+00  0.9600E-01  0.9500E-01
     -6.481  0.0000E+00  0.0000E+00  0.9700E-01  0.9600E-01
     -6.443  0.0000E+00  0.0000E+00  0.9900E-01  0.9700E-01
     -6.405  0.0000E+00  0.0000E+00  0.1010E+00  0.9900E-01
     -6.367  0.0000E+00  0.0000E+00  0.1010E+00  0.1010E+00
     -6.329  0.0000E+00  0.0000E+00  0.1020E+00  0.1010E+00
     -6.291  0.0000E+00  0.0000E+00  0.1030E+00  0.1020E+00
     -6.252  0.0000E+00  0.0000E+00  0.1030E+00  0.1030E+00
     -6.214  0.0000E+00  0.0000E+00  0.1030E+00  0.1030E+00
     -6.176  0.0000E+00  0.0000E+00  0.1030E+00  0.1030E+00
     -6.138  0.0000E+00  0.0000E+00  0.1030E+00  0.1030E+00
     -6.100  0.0000E+00  0.0000E+00  0.1030E+00  0.1030E+00
     -6.062  0.0000E+00  0.0000E+00  0.1040E+00  0.1030E+00
     -6.024  0.0000E+00  0.0000E+00  0.1040E+00  0.1030E+00
     -5.986  0.0000E+00  0.1632E-01  0.1040E+00  0.1036E+00
     -5.948  0.0000E+00  0.0000E+00  0.1040E+00  0.1040E+00
     -5.910  0.0000E+00  0.0000E+00  0.1040E+00  0.1040E+00
     -5.872  0.0000E+00  0.0000E+00  0.1040E+00  0.1040E+00
     -5.833  0.0000E+00  0.0000E+00  0.1040E+00  0.1040E+00
     -5.795  0.0000E+00  0.0000E+00  0.1040E+00  0.1040E+00
     -5.757  0.0000E+00  0.0000E+00  0.1040E+00  0.1040E+00
     -5.719  0.0000E+00  0.0000E+00  0.1040E+00  0.1040E+00
     -5.681  0.0000E+00  0.0000E+00  0.1040E+00  0.1040E+00
     -5.643  0.0000E+00  0.0000E+00  0.1040E+00  0.1040E+00
     -5.605  0.0000E+00  0.0000E+00  0.1040E+00  0.1040E+00
     -5.567  0.0000E+00  0.0000E+00  0.1040E+00  0.1040E+00
     -5.529  0.0000E+00  0.0000E+00  0.1040E+00  0.1040E+00
     -5.491  0.0000E+00  0.0000E+00  0.1050E+00  0.1040E+00
     -5.453  0.0000E+00  0.0000E+00  0.1050E+00  0.1050E+00
     -5.415  0.0000E+00  0.0000E+00  0.1050E+00  0.1050E+00
     -5.376  0.0000E+00  0.0000E+00  0.1050E+00  0.1050E+00
     -5.338  0.0000E+00  0.0000E+00  0.1050E+00  0.1050E+00
     -5.300  0.0000E+00  0.0000E+00  0.1050E+00  0.1050E+00
     -5.262  0.0000E+00  0.0000E+00  0.1050E+00  0.1050E+00
     -5.224  0.0000E+00  0.0000E+00  0.1050E+00  0.1050E+00
     -5.186  0.0000E+00  0.0000E+00  0.1050E+00  0.1050E+00
     -5.148  0.0000E+00  0.0000E+00  0.1050E+00  0.1050E+00
     -5.110  0.0000E+00  0.0000E+00  0.1050E+00  0.1050E+00
     -5.072  0.0000E+00  0.0000E+00  0.1060E+00  0.1050E+00
     -5.034  0.0000E+00  0.0000E+00  0.1060E+00  0.1050E+00
     -4.996  0.0000E+00  0.0000E+00  0.1060E+00  0.1060E+00
     -4.958  0.0000E+00  0.0000E+00  0.1060E+00  0.1060E+00
     -4.919  0.0000E+00  0.0000E+00  0.1060E+00  0.1060E+00
     -4.881  0.0000E+00  0.0000E+00  0.1060E+00  0.1060E+00
     -4.843  0.0000E+00  0.0000E+00  0.1060E+00  0.1060E+00
     -4.805  0.0000E+00  0.0000E+00  0.1060E+00  0.1060E+00
     -4.767  0.0000E+00  0.0000E+00  0.1060E+00  0.1060E+00
     -4.729  0.0000E+00  0.0000E+00  0.1060E+00  0.1060E+00
     -4.691  0.0000E+00  0.0000E+00  0.1060E+00  0.1060E+00
     -4.653  0.0000E+00  0.0000E+00  0.1070E+00  0.1060E+00
     -4.615  0.0000E+00  0.0000E+00  0.1070E+00  0.1060E+00
     -4.577  0.0000E+00  0.0000E+00  0.1070E+00  0.1070E+00
     -4.539  0.0000E+00  0.0000E+00  0.1070E+00  0.1070E+00
     -4.500  0.0000E+00  0.0000E+00  0.1070E+00  0.1070E+00
     -4.462  0.0000E+00  0.0000E+00  0.1070E+00  0.1070E+00
     -4.424  0.0000E+00  0.0000E+00  0.1080E+00  0.1070E+00
     -4.386  0.0000E+00  0.0000E+00  0.1080E+00  0.1070E+00
     -4.348  0.0000E+00  0.0000E+00  0.1080E+00  0.1070E+00
     -4.310  0.0000E+00  0.0000E+00  0.1090E+00  0.1080E+00
     -4.272  0.0000E+00  0.0000E+00  0.1090E+00  0.1080E+00
     -4.234  0.0000E+00  0.0000E+00  0.1090E+00  0.1090E+00
     -4.196  0.0000E+00  0.0000E+00  0.1090E+00  0.1090E+00
     -4.158  0.0000E+00  0.0000E+00  0.1090E+00  0.1090E+00
     -4.120  0.0000E+00  0.0000E+00  0.1090E+00  0.1090E+00
     -4.082  0.0000E+00  0.0000E+00  0.1090E+00  0.1090E+00
     -4.043  0.0000E+00  0.0000E+00  0.1090E+00  0.1090E+00
     -4.005  0.0000E+00  0.0000E+00  0.1090E+00  0.1090E+00
     -3.967  0.0000E+00  0.0000E+00  0.1090E+00  0.1090E+00
     -3.929  0.0000E+00  0.0000E+00  0.1090E+00  0.1090E+00
     -3.891  0.0000E+00  0.0000E+00  0.1090E+00  0.1090E+00
     -3.853  0.0000E+00  0.0000E+00  0.1090E+00  0.1090E+00
     -3.815  0.0000E+00  0.0000E+00  0.1090E+00  0.1090E+00
     -3.777  0.0000E+00  0.0000E+00  0.1090E+00  0.1090E+00
     -3.739  0.0000E+00  0.0000E+00  0.1090E+00  0.1090E+00
     -3.701  0.0000E+00  0.0000E+00  0.1090E+00  0.1090E+00
     -3.663  0.0000E+00  0.0000E+00  0.1100E+00  0.1090E+00
     -3.624  0.0000E+00  0.0000E+00  0.1100E+00  0.1090E+00
     -3.586  0.0000E+00  0.0000E+00  0.1110E+00  0.1090E+00
     -3.548  0.0000E+00  0.0000E+00  0.1110E+00  0.1090E+00
     -3.510  0.0000E+00  0.0000E+00  0.1110E+00  0.1090E+00
     -3.472  0.0000E+00  0.0000E+00  0.1110E+00  0.1100E+00
     -3.434  0.0000E+00  0.0000E+00  0.1110E+00  0.1110E+00
     -3.396  0.0000E+00  0.0000E+00  0.1110E+00  0.1110E+00
     -3.358  0.0000E+00  0.0000E+00  0.1110E+00  0.1110E+00
     -3.320  0.0000E+00  0.0000E+00  0.1110E+00  0.1110E+00
     -3.282  0.0000E+00  0.0000E+00  0.1110E+00  0.1110E+00
     -3.244  0.0000E+00  0.0000E+00  0.1110E+00  0.1110E+00
     -3.206  0.0000E+00  0.0000E+00  0.1110E+00  0.1110E+00
     -3.167  0.0000E+00  0.0000E+00  0.1110E+00  0.1110E+00
     -3.129  0.0000E+00  0.0000E+00  0.1110E+00  0.1110E+00
     -3.091  0.0000E+00  0.0000E+00  0.1110E+00  0.1110E+00
     -3.053  0.0000E+00  0.0000E+00  0.1110E+00  0.1110E+00
     -3.015  0.0000E+00  0.0000E+00  0.1120E+00  0.1110E+00
     -2.977  0.0000E+00  0.0000E+00  0.1120E+00  0.1120E+00
     -2.939  0.0000E+00  0.0000E+00  0.1120E+00  0.1120E+00
     -2.901  0.0000E+00  0.0000E+00  0.1120E+00  0.1120E+00
     -2.863  0.0000E+00  0.0000E+00  0.1120E+00  0.1120E+00
     -2.825  0.0000E+00  0.0000E+00  0.1120E+00  0.1120E+00
     -2.787  0.0000E+00  0.0000E+00  0.1120E+00  0.1120E+00
     -2.749  0.0000E+00  0.0000E+00  0.1120E+00  0.1120E+00
     -2.710  0.0000E+00  0.0000E+00  0.1120E+00  0.1120E+00
     -2.672  0.0000E+00  0.0000E+00  0.1120E+00  0.1120E+00
     -2.634  0.0000E+00  0.0000E+00  0.1130E+00  0.1120E+00
     -2.596  0.0000E+00  0.0000E+00  0.1130E+00  0.1120E+00
     -2.558  0.0000E+00  0.0000E+00  0.1130E+00  0.1130E+00
     -2.520  0.0000E+00  0.0000E+00  0.1140E+00  0.1130E+00
     -2.482  0.0000E+00  0.0000E+00  0.1140E+00  0.1130E+00
     -2.444  0.0000E+00  0.0000E+00  0.1150E+00  0.1130E+00
     -2.406  0.0000E+00  0.0000E+00  0.1160E+00  0.1140E+00
     -2.368  0.0000E+00  0.0000E+00  0.1160E+00  0.1140E+00
     -2.330  0.0000E+00  0.0000E+00  0.1170E+00  0.1150E+00
     -2.291  0.0000E+00  0.0000E+00  0.1170E+00  0.1160E+00
     -2.253  0.0000E+00  0.0000E+00  0.1170E+00  0.1160E+00
     -2.215  0.0000E+00  0.0000E+00  0.1170E+00  0.1170E+00
     -2.177  0.0000E+00  0.0000E+00  0.1170E+00  0.1170E+00
     -2.139  0.0000E+00  0.0000E+00  0.1170E+00  0.1170E+00
     -2.101  0.0000E+00  0.0000E+00  0.1170E+00  0.1170E+00
     -2.063  0.0000E+00  0.0000E+00  0.1170E+00  0.1170E+00
     -2.025  0.0000E+00  0.0000E+00  0.1170E+00  0.1170E+00
     -1.987  0.0000E+00  0.0000E+00  0.1170E+00  0.1170E+00
     -1.949  0.0000E+00  0.0000E+00  0.1180E+00  0.1170E+00
     -1.911  0.0000E+00  0.0000E+00  0.1180E+00  0.1170E+00
     -1.873  0.0000E+00  0.0000E+00  0.1180E+00  0.1180E+00
     -1.834  0.0000E+00  0.0000E+00  0.1190E+00  0.1180E+00
     -1.796  0.0000E+00  0.0000E+00  0.1190E+00  0.1180E+00
     -1.758  0.0000E+00  0.0000E+00  0.1200E+00  0.1180E+00
     -1.720  0.0000E+00  0.0000E+00  0.1200E+00  0.1190E+00
     -1.682  0.0000E+00  0.0000E+00  0.1200E+00  0.1190E+00
     -1.644  0.0000E+00  0.0000E+00  0.1200E+00  0.1200E+00
     -1.606  0.0000E+00  0.0000E+00  0.1200E+00  0.1200E+00
     -1.568  0.0000E+00  0.0000E+00  0.1200E+00  0.1200E+00
     -1.530  0.0000E+00  0.0000E+00  0.1210E+00  0.1200E+00
     -1.492  0.0000E+00  0.0000E+00  0.1210E+00  0.1200E+00
     -1.454  0.0000E+00  0.0000E+00  0.1210E+00  0.1200E+00
     -1.415  0.0000E+00  0.0000E+00  0.1210E+00  0.1200E+00
     -1.377  0.0000E+00  0.0000E+00  0.1210E+00  0.1210E+00
     -1.339  0.0000E+00  0.0000E+00  0.1210E+00  0.1210E+00
     -1.301  0.0000E+00  0.0000E+00  0.1210E+00  0.1210E+00
     -1.263  0.0000E+00  0.0000E+00  0.1210E+00  0.1210E+00
     -1.225  0.0000E+00  0.0000E+00  0.1220E+00  0.1210E+00
     -1.187  0.0000E+00  0.0000E+00  0.1220E+00  0.1210E+00
     -1.149  0.0000E+00  0.0000E+00  0.1220E+00  0.1210E+00
     -1.111  0.0000E+00  0.0000E+00  0.1220E+00  0.1220E+00
     -1.073  0.0000E+00  0.0000E+00  0.1220E+00  0.1220E+00
     -1.035  0.0000E+00  0.0000E+00  0.1220E+00  0.1220E+00
     -0.997  0.0000E+00  0.0000E+00  0.1220E+00  0.1220E+00
     -0.958  0.0000E+00  0.0000E+00  0.1230E+00  0.1220E+00
     -0.920  0.0000E+00  0.0000E+00  0.1240E+00  0.1220E+00
     -0.882  0.0000E+00  0.0000E+00  0.1240E+00  0.1230E+00
     -0.844  0.0000E+00  0.0000E+00  0.1240E+00  0.1230E+00
     -0.806  0.0000E+00  0.0000E+00  0.1250E+00  0.1240E+00
     -0.768  0.0000E+00  0.0000E+00  0.1260E+00  0.1240E+00
     -0.730  0.0000E+00  0.0000E+00  0.1260E+00  0.1250E+00
     -0.692  0.0000E+00  0.0000E+00  0.1260E+00  0.1250E+00
     -0.654  0.0000E+00  0.0000E+00  0.1260E+00  0.1260E+00
     -0.616  0.0000E+00  0.0000E+00  0.1260E+00  0.1260E+00
     -0.578  0.0000E+00  0.0000E+00  0.1280E+00  0.1260E+00
     -0.540  0.0000E+00  0.0000E+00  0.1280E+00  0.1260E+00
     -0.501  0.0000E+00  0.1847E-04  0.1280E+00  0.1260E+00
     -0.463  0.0000E+00  0.0000E+00  0.1280E+00  0.1280E+00
     -0.425  0.0000E+00  0.0000E+00  0.1290E+00  0.1280E+00
     -0.387  0.0000E+00  0.0000E+00  0.1290E+00  0.1280E+00
     -0.349  0.0000E+00  0.0000E+00  0.1290E+00  0.1280E+00
     -0.311  0.0000E+00  0.0000E+00  0.1290E+00  0.1280E+00
     -0.273  0.0000E+00  0.0000E+00  0.1290E+00  0.1290E+00
     -0.235  0.0000E+00  0.0000E+00  0.1290E+00  0.1290E+00
     -0.197  0.0000E+00  0.0000E+00  0.1300E+00  0.1290E+00
     -0.159  0.0000E+00  0.0000E+00  0.1300E+00  0.1290E+00
     -0.121  0.0000E+00  0.0000E+00  0.1300E+00  0.1300E+00
     -0.082  0.0000E+00  0.0000E+00  0.1310E+00  0.1300E+00
     -0.044  0.0000E+00  0.0000E+00  0.1310E+00  0.1300E+00
     -0.006  0.0000E+00  0.0000E+00  0.1310E+00  0.1300E+00
      0.032  0.0000E+00  0.0000E+00  0.1310E+00  0.1310E+00
      0.070  0.0000E+00  0.0000E+00  0.1310E+00  0.1310E+00
      0.108  0.0000E+00  0.0000E+00  0.1310E+00  0.1310E+00
      0.146  0.0000E+00  0.0000E+00  0.1320E+00  0.1310E+00
      0.184  0.0000E+00  0.0000E+00  0.1330E+00  0.1310E+00
      0.222  0.0000E+00  0.0000E+00  0.1340E+00  0.1310E+00
      0.260  0.0000E+00  0.0000E+00  0.1340E+00  0.1320E+00
      0.298  0.0000E+00  0.0000E+00  0.1340E+00  0.1340E+00
      0.336  0.2491E-01  0.0000E+00  0.1349E+00  0.1340E+00
      0.375  0.0000E+00  0.0000E+00  0.1350E+00  0.1340E+00
      0.413  0.2683E-02  0.0000E+00  0.1351E+00  0.1350E+00
      0.451  0.0000E+00  0.0000E+00  0.1360E+00  0.1350E+00
      0.489  0.0000E+00  0.0000E+00  0.1360E+00  0.1360E+00
      0.527  0.0000E+00  0.0000E+00  0.1380E+00  0.1360E+00
      0.565  0.0000E+00  0.0000E+00  0.1380E+00  0.1360E+00
      0.603  0.0000E+00  0.0000E+00  0.1400E+00  0.1380E+00
      0.641  0.0000E+00  0.0000E+00  0.1410E+00  0.1390E+00
      0.679  0.0000E+00  0.0000E+00  0.1410E+00  0.1400E+00
      0.717  0.0000E+00  0.0000E+00  0.1430E+00  0.1410E+00
      0.755  0.0000E+00  0.0000E+00  0.1430E+00  0.1420E+00
      0.794  0.2626E-01  0.0000E+00  0.1440E+00  0.1430E+00
      0.832  0.0000E+00  0.0000E+00  0.1440E+00  0.1430E+00
      0.870  0.0000E+00  0.0000E+00  0.1440E+00  0.1440E+00
      0.908  0.0000E+00  0.0000E+00  0.1440E+00  0.1440E+00
      0.946  0.0000E+00  0.0000E+00  0.1440E+00  0.1440E+00
      0.984  0.0000E+00  0.0000E+00  0.1440E+00  0.1440E+00
      1.022  0.0000E+00  0.0000E+00  0.1440E+00  0.1440E+00
      1.060  0.0000E+00  0.0000E+00  0.1440E+00  0.1440E+00
      1.098  0.0000E+00  0.0000E+00  0.1440E+00  0.1440E+00
      1.136  0.0000E+00  0.0000E+00  0.1440E+00  0.1440E+00
      1.174  0.0000E+00  0.0000E+00  0.1440E+00  0.1440E+00
      1.212  0.0000E+00  0.0000E+00  0.1440E+00  0.1440E+00
      1.251  0.0000E+00  0.0000E+00  0.1440E+00  0.1440E+00
      1.289  0.0000E+00  0.0000E+00  0.1440E+00  0.1440E+00
      1.327  0.0000E+00  0.0000E+00  0.1440E+00  0.1440E+00
      1.365  0.0000E+00  0.0000E+00  0.1440E+00  0.1440E+00
