       N       E                     dE             d eps       ncg     rms          rms(c)
DAV:   1     0.111582943089E+04    0.11158E+04   -0.21123E+04   352   0.540E+02
DAV:   2     0.371867845220E+03   -0.74396E+03   -0.65313E+03   656   0.106E+02
DAV:   3    -0.725635333972E+01   -0.37912E+03   -0.35569E+03   528   0.877E+01
DAV:   4    -0.501252596598E+02   -0.42869E+02   -0.36908E+02   432   0.305E+01
DAV:   5    -0.526573493098E+02   -0.25321E+01   -0.24257E+01   400   0.780E+00    0.207E+01
DAV:   6    -0.482041250261E+02    0.44532E+01   -0.10620E+01   352   0.924E+00    0.113E+01
DAV:   7    -0.467336412235E+02    0.14705E+01   -0.15001E+01   376   0.214E+01    0.183E+01
DAV:   8    -0.448208071164E+02    0.19128E+01   -0.11001E+01   384   0.167E+01    0.136E+01
DAV:   9    -0.442014240992E+02    0.61938E+00   -0.60831E+00   392   0.117E+01    0.751E+00
DAV:  10    -0.447428950092E+02   -0.54147E+00   -0.22111E+00   376   0.726E+00    0.823E+00
DAV:  11    -0.449245581624E+02   -0.18166E+00   -0.13276E+00   368   0.588E+00    0.413E+00
DAV:  12    -0.452045677358E+02   -0.28001E+00   -0.22998E-01   368   0.311E+00    0.210E+00
DAV:  13    -0.457457521791E+02   -0.54118E+00   -0.26365E-01   360   0.198E+00    0.333E+00
DAV:  14    -0.461964634543E+02   -0.45071E+00   -0.31875E-01   368   0.209E+00    0.190E+00
DAV:  15    -0.466695974765E+02   -0.47313E+00   -0.11505E-01   352   0.147E+00    0.161E+00
DAV:  16    -0.468488848430E+02   -0.17929E+00   -0.42964E-02   368   0.105E+00    0.114E+00
DAV:  17    -0.471480081296E+02   -0.29912E+00   -0.58027E-02   352   0.105E+00    0.135E+00
DAV:  18    -0.475802958657E+02   -0.43229E+00   -0.98095E-02   352   0.971E-01    0.172E+00
DAV:  19    -0.477757566311E+02   -0.19546E+00   -0.54892E-02   352   0.877E-01    0.120E+00
DAV:  20    -0.479008617013E+02   -0.12511E+00   -0.36162E-02   352   0.582E-01    0.167E+00
DAV:  21    -0.479454438340E+02   -0.44582E-01   -0.14662E-02   352   0.464E-01    0.108E+00
DAV:  22    -0.480165225938E+02   -0.71079E-01   -0.14915E-02   352   0.343E-01    0.158E+00
DAV:  23    -0.481996296271E+02   -0.18311E+00   -0.33218E-02   352   0.452E-01    0.123E+00
DAV:  24    -0.483450837391E+02   -0.14545E+00   -0.36660E-02   352   0.544E-01    0.189E+00
DAV:  25    -0.483744300251E+02   -0.29346E-01   -0.78587E-02   352   0.583E-01    0.172E+00
DAV:  26    -0.484083865338E+02   -0.33957E-01   -0.39246E-02   352   0.581E-01    0.196E+00
DAV:  27    -0.484277887189E+02   -0.19402E-01   -0.78255E-02   368   0.574E-01    0.144E+00
DAV:  28    -0.486191730115E+02   -0.19138E+00   -0.62629E-02   352   0.650E-01    0.157E+00
DAV:  29    -0.487140613521E+02   -0.94888E-01   -0.39944E-02   368   0.572E-01    0.141E+00
DAV:  30    -0.488878862044E+02   -0.17382E+00   -0.64090E-02   368   0.616E-01    0.143E+00
DAV:  31    -0.489703540198E+02   -0.82468E-01   -0.53843E-02   376   0.527E-01    0.163E+00
DAV:  32    -0.489744646127E+02   -0.41106E-02   -0.64844E-02   368   0.533E-01    0.148E+00
DAV:  33    -0.490011251379E+02   -0.26661E-01   -0.60570E-02   360   0.522E-01    0.167E+00
DAV:  34    -0.489974638640E+02    0.36613E-02   -0.48626E-02   360   0.512E-01    0.135E+00
DAV:  35    -0.490376823227E+02   -0.40218E-01   -0.52404E-02   368   0.496E-01    0.172E+00
DAV:  36    -0.490333775690E+02    0.43048E-02   -0.50914E-02   368   0.503E-01    0.138E+00
DAV:  37    -0.490652847068E+02   -0.31907E-01   -0.58308E-02   360   0.512E-01    0.177E+00
DAV:  38    -0.490521782370E+02    0.13106E-01   -0.58936E-02   360   0.512E-01    0.139E+00
DAV:  39    -0.490732165598E+02   -0.21038E-01   -0.53213E-02   352   0.511E-01    0.174E+00
DAV:  40    -0.490604584733E+02    0.12758E-01   -0.59754E-02   360   0.507E-01    0.139E+00
DAV:  41    -0.490778955189E+02   -0.17437E-01   -0.47473E-02   352   0.503E-01    0.170E+00
DAV:  42    -0.490644270784E+02    0.13468E-01   -0.60015E-02   360   0.499E-01    0.142E+00
DAV:  43    -0.490783218603E+02   -0.13895E-01   -0.48165E-02   352   0.501E-01    0.167E+00
DAV:  44    -0.490659752992E+02    0.12347E-01   -0.60263E-02   368   0.498E-01    0.143E+00
DAV:  45    -0.490783436463E+02   -0.12368E-01   -0.49206E-02   360   0.500E-01    0.167E+00
DAV:  46    -0.490665551968E+02    0.11788E-01   -0.60743E-02   352   0.499E-01    0.143E+00
DAV:  47    -0.490785161809E+02   -0.11961E-01   -0.49136E-02   360   0.500E-01    0.166E+00
DAV:  48    -0.490671278258E+02    0.11388E-01   -0.60542E-02   352   0.499E-01    0.144E+00
DAV:  49    -0.490784239734E+02   -0.11296E-01   -0.48994E-02   352   0.500E-01    0.165E+00
DAV:  50    -0.490677772270E+02    0.10647E-01   -0.60020E-02   368   0.498E-01    0.145E+00
DAV:  51    -0.490779785334E+02   -0.10201E-01   -0.49225E-02   360   0.501E-01    0.164E+00
DAV:  52    -0.490684843036E+02    0.94942E-02   -0.59452E-02   352   0.499E-01    0.147E+00
DAV:  53    -0.490771522093E+02   -0.86679E-02   -0.49861E-02   352   0.502E-01    0.162E+00
DAV:  54    -0.490692304497E+02    0.79218E-02   -0.58848E-02   352   0.500E-01    0.148E+00
DAV:  55    -0.490762684571E+02   -0.70380E-02   -0.50384E-02   352   0.503E-01    0.161E+00
DAV:  56    -0.490698791347E+02    0.63893E-02   -0.58360E-02   352   0.501E-01    0.149E+00
DAV:  57    -0.490756556389E+02   -0.57765E-02   -0.50227E-02   352   0.503E-01    0.160E+00
DAV:  58    -0.490703399021E+02    0.53157E-02   -0.58199E-02   352   0.502E-01    0.150E+00
DAV:  59    -0.490751669325E+02   -0.48270E-02   -0.49995E-02   352   0.504E-01    0.159E+00
DAV:  60    -0.490708767191E+02    0.42902E-02   -0.58033E-02   352   0.502E-01
   1 F= -.49070877E+02 E0= -.49070877E+02  d E =-.490709E+02  mag=     8.0015
       N       E                     dE             d eps       ncg     rms          rms(c)
DAV:   1    -0.491106778788E+02   -0.35511E-01   -0.25431E+00   368   0.430E+00    0.138E+00
DAV:   2    -0.491843336617E+02   -0.73656E-01   -0.72109E-01   368   0.300E+00    0.503E+00
DAV:   3    -0.490462252675E+02    0.13811E+00   -0.50559E-01   360   0.304E+00    0.163E+00
DAV:   4    -0.491349458424E+02   -0.88721E-01   -0.53261E-02   360   0.113E+00    0.126E+00
DAV:   5    -0.491286796166E+02    0.62662E-02   -0.74179E-02   360   0.610E-01    0.208E+00
DAV:   6    -0.491000833172E+02    0.28596E-01   -0.42973E-02   360   0.716E-01    0.240E+00
DAV:   7    -0.490810326405E+02    0.19051E-01   -0.61292E-02   360   0.546E-01    0.173E+00
DAV:   8    -0.490938289329E+02   -0.12796E-01   -0.11895E-02   352   0.482E-01    0.209E+00
DAV:   9    -0.490616448010E+02    0.32184E-01   -0.21404E-02   368   0.269E-01    0.135E+00
DAV:  10    -0.491064169317E+02   -0.44772E-01   -0.27080E-02   360   0.420E-01    0.210E+00
DAV:  11    -0.490744311898E+02    0.31986E-01   -0.52001E-02   360   0.425E-01    0.114E+00
DAV:  12    -0.491349115353E+02   -0.60480E-01   -0.50730E-02   360   0.521E-01    0.208E+00
DAV:  13    -0.490835007856E+02    0.51411E-01   -0.61335E-02   360   0.510E-01    0.112E+00
DAV:  14    -0.491362908875E+02   -0.52790E-01   -0.45493E-02   360   0.499E-01    0.201E+00
DAV:  15    -0.490857379492E+02    0.50553E-01   -0.48461E-02   360   0.479E-01    0.113E+00
DAV:  16    -0.491350869290E+02   -0.49349E-01   -0.52993E-02   360   0.499E-01    0.203E+00
DAV:  17    -0.490870648289E+02    0.48022E-01   -0.56385E-02   360   0.502E-01    0.115E+00
DAV:  18    -0.491349969496E+02   -0.47932E-01   -0.54167E-02   360   0.507E-01    0.204E+00
DAV:  19    -0.490881630906E+02    0.46834E-01   -0.57515E-02   360   0.504E-01    0.117E+00
DAV:  20    -0.491339294152E+02   -0.45766E-01   -0.52399E-02   352   0.511E-01    0.202E+00
DAV:  21    -0.490890526500E+02    0.44877E-01   -0.59321E-02   352   0.508E-01    0.118E+00
DAV:  22    -0.491333961088E+02   -0.44343E-01   -0.51538E-02   352   0.512E-01    0.200E+00
DAV:  23    -0.490899553695E+02    0.43441E-01   -0.57832E-02   352   0.506E-01    0.121E+00
DAV:  24    -0.491321238760E+02   -0.42169E-01   -0.52798E-02   352   0.514E-01    0.197E+00
DAV:  25    -0.490911339793E+02    0.40990E-01   -0.57099E-02   352   0.508E-01    0.124E+00
DAV:  26    -0.491306293711E+02   -0.39495E-01   -0.54063E-02   352   0.517E-01    0.197E+00
DAV:  27    -0.490916749292E+02    0.38954E-01   -0.58315E-02   352   0.513E-01    0.124E+00
DAV:  28    -0.491303248181E+02   -0.38650E-01   -0.53311E-02   352   0.515E-01    0.197E+00
DAV:  29    -0.490919908570E+02    0.38334E-01   -0.60018E-02   352   0.513E-01    0.125E+00
DAV:  30    -0.491297643291E+02   -0.37773E-01   -0.52452E-02   352   0.517E-01    0.196E+00
DAV:  31    -0.490927250172E+02    0.37039E-01   -0.60686E-02   352   0.513E-01    0.127E+00
DAV:  32    -0.491287507087E+02   -0.36026E-01   -0.51342E-02   352   0.519E-01    0.193E+00
DAV:  33    -0.490939011802E+02    0.34850E-01   -0.60375E-02   352   0.513E-01    0.129E+00
DAV:  34    -0.491274331917E+02   -0.33532E-01   -0.51181E-02   352   0.519E-01    0.191E+00
DAV:  35    -0.490952045612E+02    0.32229E-01   -0.60328E-02   352   0.513E-01    0.132E+00
DAV:  36    -0.491260453909E+02   -0.30841E-01   -0.51481E-02   352   0.519E-01    0.188E+00
DAV:  37    -0.490963551049E+02    0.29690E-01   -0.60647E-02   352   0.515E-01    0.134E+00
DAV:  38    -0.491248887529E+02   -0.28534E-01   -0.51340E-02   352   0.520E-01    0.186E+00
DAV:  39    -0.490974804735E+02    0.27408E-01   -0.61033E-02   352   0.516E-01    0.136E+00
DAV:  40    -0.491236098122E+02   -0.26129E-01   -0.50938E-02   352   0.521E-01    0.184E+00
DAV:  41    -0.490988193068E+02    0.24791E-01   -0.61193E-02   352   0.516E-01    0.139E+00
DAV:  42    -0.491221098683E+02   -0.23291E-01   -0.50781E-02   352   0.521E-01    0.181E+00
DAV:  43    -0.491003337098E+02    0.21776E-01   -0.61194E-02   352   0.517E-01    0.142E+00
DAV:  44    -0.491205376104E+02   -0.20204E-01   -0.50728E-02   352   0.521E-01    0.178E+00
DAV:  45    -0.491019127854E+02    0.18625E-01   -0.61161E-02   352   0.517E-01    0.145E+00
DAV:  46    -0.491189351822E+02   -0.17022E-01   -0.50745E-02   352   0.521E-01    0.174E+00
DAV:  47    -0.491034066184E+02    0.15529E-01   -0.61479E-02   352   0.517E-01    0.147E+00
DAV:  48    -0.491175297992E+02   -0.14123E-01   -0.51228E-02   352   0.521E-01    0.172E+00
DAV:  49    -0.491045294873E+02    0.13000E-01   -0.62602E-02   352   0.519E-01    0.148E+00
DAV:  50    -0.491166114511E+02   -0.12082E-01   -0.51085E-02   352   0.521E-01    0.172E+00
DAV:  51    -0.491047664154E+02    0.11845E-01   -0.63778E-02   352   0.521E-01    0.148E+00
DAV:  52    -0.491168056259E+02   -0.12039E-01   -0.49450E-02   352   0.520E-01    0.170E+00
DAV:  53    -0.491059941096E+02    0.10812E-01   -0.61991E-02   352   0.518E-01    0.153E+00
DAV:  54    -0.491146178372E+02   -0.86237E-02   -0.50204E-02   352   0.524E-01    0.164E+00
DAV:  55    -0.491087668635E+02    0.58510E-02   -0.60303E-02   352   0.518E-01    0.156E+00
DAV:  56    -0.491130056038E+02   -0.42387E-02   -0.51703E-02   352   0.520E-01    0.165E+00
DAV:  57    -0.491085249034E+02    0.44807E-02   -0.63280E-02   352   0.522E-01    0.154E+00
DAV:  58    -0.491135456442E+02   -0.50207E-02   -0.50020E-02   352   0.520E-01    0.164E+00
DAV:  59    -0.491092062756E+02    0.43394E-02   -0.61211E-02   352   0.520E-01    0.159E+00
DAV:  60    -0.491115919176E+02   -0.23856E-02   -0.50902E-02   352   0.523E-01
   2 F= -.49111592E+02 E0= -.49111592E+02  d E =-.407152E-01  mag=     8.0000
       N       E                     dE             d eps       ncg     rms          rms(c)
DAV:   1    -0.491851428517E+02   -0.75937E-01   -0.22744E+01   352   0.128E+01    0.155E+00
DAV:   2    -0.493025670345E+02   -0.11742E+00   -0.90282E-01   368   0.381E+00    0.515E+00
DAV:   3    -0.491698386215E+02    0.13273E+00   -0.65524E-01   360   0.341E+00    0.203E+00
DAV:   4    -0.492264641095E+02   -0.56625E-01   -0.85476E-02   360   0.141E+00    0.124E+00
DAV:   5    -0.492399152919E+02   -0.13451E-01   -0.10549E-01   360   0.967E-01    0.242E+00
DAV:   6    -0.491942144763E+02    0.45701E-01   -0.56327E-02   360   0.759E-01    0.121E+00
DAV:   7    -0.492346330613E+02   -0.40419E-01   -0.47414E-02   360   0.765E-01    0.217E+00
DAV:   8    -0.491921796148E+02    0.42453E-01   -0.57237E-02   360   0.660E-01    0.137E+00
DAV:   9    -0.492265022142E+02   -0.34323E-01   -0.38658E-02   360   0.623E-01    0.232E+00
DAV:  10    -0.491743389604E+02    0.52163E-01   -0.70495E-02   360   0.471E-01    0.121E+00
DAV:  11    -0.492167613367E+02   -0.42422E-01   -0.85977E-03   360   0.583E-01    0.128E+00
DAV:  12    -0.492058307412E+02    0.10931E-01   -0.16828E-02   384   0.313E-01    0.999E-01
DAV:  13    -0.492288793581E+02   -0.23049E-01   -0.11692E-02   360   0.407E-01    0.229E+00
DAV:  14    -0.491741337506E+02    0.54746E-01   -0.90741E-02   352   0.537E-01    0.104E+00
DAV:  15    -0.492312156600E+02   -0.57082E-01   -0.38862E-02   352   0.530E-01    0.228E+00
DAV:  16    -0.491717248107E+02    0.59491E-01   -0.78828E-02   352   0.523E-01    0.114E+00
DAV:  17    -0.492274352150E+02   -0.55710E-01   -0.34621E-02   352   0.530E-01    0.218E+00
DAV:  18    -0.491764569946E+02    0.50978E-01   -0.78340E-02   352   0.522E-01    0.135E+00
DAV:  19    -0.492197015131E+02   -0.43245E-01   -0.42234E-02   352   0.536E-01    0.205E+00
DAV:  20    -0.491831323804E+02    0.36569E-01   -0.74257E-02   352   0.525E-01    0.149E+00
DAV:  21    -0.492141945120E+02   -0.31062E-01   -0.45131E-02   352   0.536E-01    0.197E+00
DAV:  22    -0.491873957881E+02    0.26799E-01   -0.70698E-02   352   0.528E-01    0.162E+00
DAV:  23    -0.492089749114E+02   -0.21579E-01   -0.49529E-02   352   0.536E-01    0.191E+00
DAV:  24    -0.491906480945E+02    0.18327E-01   -0.67972E-02   352   0.530E-01    0.170E+00
DAV:  25    -0.492054643774E+02   -0.14816E-01   -0.52737E-02   352   0.535E-01    0.190E+00
DAV:  26    -0.491907731722E+02    0.14691E-01   -0.67244E-02   352   0.534E-01    0.175E+00
DAV:  27    -0.492029156709E+02   -0.12142E-01   -0.54290E-02   352   0.537E-01    0.193E+00
DAV:  28    -0.491891809594E+02    0.13735E-01   -0.66733E-02   352   0.538E-01    0.179E+00
DAV:  29    -0.492006229542E+02   -0.11442E-01   -0.55316E-02   352   0.539E-01    0.195E+00
DAV:  30    -0.491877439498E+02    0.12879E-01   -0.66399E-02   352   0.539E-01    0.185E+00
DAV:  31    -0.491975936550E+02   -0.98497E-02   -0.57041E-02   352   0.541E-01    0.197E+00
DAV:  32    -0.491861540381E+02    0.11440E-01   -0.66605E-02   352   0.542E-01    0.191E+00
DAV:  33    -0.491945887716E+02   -0.84347E-02   -0.57342E-02   352   0.543E-01    0.199E+00
DAV:  34    -0.491840352581E+02    0.10554E-01   -0.66488E-02   352   0.543E-01    0.197E+00
DAV:  35    -0.491916975790E+02   -0.76623E-02   -0.58308E-02   352   0.544E-01    0.203E+00
DAV:  36    -0.491814441920E+02    0.10253E-01   -0.67204E-02   352   0.544E-01    0.204E+00
DAV:  37    -0.491880381146E+02   -0.65939E-02   -0.59188E-02   352   0.545E-01    0.207E+00
DAV:  38    -0.491785541987E+02    0.94839E-02   -0.67295E-02   352   0.546E-01    0.210E+00
DAV:  39    -0.491840570499E+02   -0.55029E-02   -0.58994E-02   352   0.546E-01    0.212E+00
DAV:  40    -0.491748829201E+02    0.91741E-02   -0.67201E-02   352   0.546E-01    0.217E+00
DAV:  41    -0.491799909376E+02   -0.51080E-02   -0.58546E-02   352   0.546E-01    0.218E+00
DAV:  42    -0.491703476008E+02    0.96433E-02   -0.67137E-02   352   0.546E-01    0.223E+00
DAV:  43    -0.491756795325E+02   -0.53319E-02   -0.58057E-02   352   0.545E-01    0.225E+00
DAV:  44    -0.491651505377E+02    0.10529E-01   -0.66874E-02   352   0.544E-01    0.230E+00
DAV:  45    -0.491710463530E+02   -0.58958E-02   -0.57445E-02   352   0.543E-01    0.233E+00
DAV:  46    -0.491594683273E+02    0.11578E-01   -0.66171E-02   352   0.542E-01    0.237E+00
DAV:  47    -0.491670192853E+02   -0.75510E-02   -0.55587E-02   352   0.539E-01    0.246E+00
DAV:  48    -0.491507835520E+02    0.16236E-01   -0.63088E-02   352   0.534E-01    0.238E+00
DAV:  49    -0.491643660310E+02   -0.13582E-01   -0.56457E-02   352   0.536E-01    0.251E+00
DAV:  50    -0.491469996555E+02    0.17366E-01   -0.61262E-02   352   0.533E-01    0.245E+00
DAV:  51    -0.491591567495E+02   -0.12157E-01   -0.56650E-02   352   0.527E-01    0.255E+00
DAV:  52    -0.491447781502E+02    0.14379E-01   -0.68190E-02   352   0.529E-01    0.246E+00
DAV:  53    -0.491589501384E+02   -0.14172E-01   -0.54521E-02   352   0.535E-01    0.261E+00
DAV:  54    -0.491411177108E+02    0.17832E-01   -0.61025E-02   352   0.525E-01    0.250E+00
DAV:  55    -0.491545210242E+02   -0.13403E-01   -0.48751E-02   352   0.521E-01    0.262E+00
DAV:  56    -0.491392912244E+02    0.15230E-01   -0.62691E-02   352   0.518E-01    0.257E+00
DAV:  57    -0.491498382776E+02   -0.10547E-01   -0.44647E-02   360   0.521E-01    0.240E+00
DAV:  58    -0.491522113243E+02   -0.23730E-02   -0.74307E-02   352   0.542E-01    0.259E+00
DAV:  59    -0.491530289703E+02   -0.81765E-03   -0.44528E-02   352   0.534E-01    0.259E+00
DAV:  60    -0.491412170515E+02    0.11812E-01   -0.68474E-02   352   0.514E-01
   3 F= -.49141217E+02 E0= -.49141217E+02  d E =-.703403E-01  mag=     8.0000
       N       E                     dE             d eps       ncg     rms          rms(c)
DAV:   1    -0.491536661286E+02   -0.63716E-03   -0.91434E+01   352   0.258E+01    0.254E+00
DAV:   2    -0.495208805390E+02   -0.36721E+00   -0.24233E+00   376   0.661E+00    0.814E+00
DAV:   3    -0.492581299120E+02    0.26275E+00   -0.14735E+00   376   0.536E+00    0.319E+00
DAV:   4    -0.493147926571E+02   -0.56663E-01   -0.20627E-01   352   0.275E+00    0.239E+00
DAV:   5    -0.493149171238E+02   -0.12447E-03   -0.16712E-01   352   0.179E+00    0.219E+00
DAV:   6    -0.493089230087E+02    0.59941E-02   -0.13050E-01   352   0.145E+00    0.237E+00
DAV:   7    -0.492985204739E+02    0.10403E-01   -0.12865E-01   368   0.117E+00    0.171E+00
DAV:   8    -0.493196444690E+02   -0.21124E-01   -0.20929E-01   360   0.108E+00    0.184E+00
DAV:   9    -0.493084634421E+02    0.11181E-01   -0.28814E-02   360   0.909E-01    0.193E+00
DAV:  10    -0.492824998434E+02    0.25964E-01   -0.32133E-02   368   0.599E-01    0.119E+00
DAV:  11    -0.493106340895E+02   -0.28134E-01   -0.16827E-02   376   0.559E-01    0.769E-01
DAV:  12    -0.493245886673E+02   -0.13955E-01   -0.39714E-03   360   0.355E-01    0.636E-01
DAV:  13    -0.493244097812E+02    0.17889E-03   -0.17411E-03   376   0.266E-01    0.542E-01
DAV:  14    -0.493256665787E+02   -0.12568E-02   -0.10381E-03   384   0.208E-01    0.486E-01
DAV:  15    -0.493267606907E+02   -0.10941E-02   -0.13473E-03   360   0.203E-01    0.350E-01
DAV:  16    -0.493290603598E+02   -0.22997E-02   -0.64802E-04   296   0.134E-01    0.293E-01
DAV:  17    -0.493295097956E+02   -0.44944E-03   -0.65644E-04   272   0.111E-01    0.346E-01
DAV:  18    -0.493292836243E+02    0.22617E-03   -0.35830E-04   248   0.104E-01    0.190E-01
DAV:  19    -0.493313357031E+02   -0.20521E-02   -0.47660E-04   272   0.931E-02    0.153E-01
DAV:  20    -0.493316406579E+02   -0.30495E-03   -0.30998E-04   256   0.651E-02    0.136E-01
DAV:  21    -0.493319040451E+02   -0.26339E-03   -0.30073E-04   248   0.582E-02    0.166E-01
DAV:  22    -0.493316648974E+02    0.23915E-03   -0.89195E-04   232   0.567E-02    0.391E-01
DAV:  23    -0.493290567187E+02    0.26082E-02   -0.38592E-03   312   0.103E-01    0.693E-01
DAV:  24    -0.493242670379E+02    0.47897E-02   -0.10766E-02   368   0.196E-01    0.946E-01
DAV:  25    -0.493182493958E+02    0.60176E-02   -0.20745E-02   352   0.283E-01    0.110E+00
DAV:  26    -0.493165689138E+02    0.16805E-02   -0.26058E-02   352   0.338E-01    0.110E+00
DAV:  27    -0.493145669727E+02    0.20019E-02   -0.27011E-02   352   0.356E-01    0.109E+00
DAV:  28    -0.493171943113E+02   -0.26273E-02   -0.27268E-02   352   0.355E-01    0.109E+00
DAV:  29    -0.493150883501E+02    0.21060E-02   -0.26323E-02   352   0.352E-01    0.104E+00
DAV:  30    -0.493187475036E+02   -0.36592E-02   -0.26141E-02   352   0.347E-01    0.105E+00
DAV:  31    -0.493160563462E+02    0.26912E-02   -0.23974E-02   352   0.341E-01    0.953E-01
DAV:  32    -0.493210265547E+02   -0.49702E-02   -0.22746E-02   352   0.331E-01    0.989E-01
DAV:  33    -0.493176847939E+02    0.33418E-02   -0.20771E-02   352   0.321E-01    0.860E-01
DAV:  34    -0.493230272412E+02   -0.53424E-02   -0.19836E-02   352   0.309E-01    0.957E-01
DAV:  35    -0.493184005179E+02    0.46267E-02   -0.19311E-02   352   0.304E-01    0.833E-01
DAV:  36    -0.493236407228E+02   -0.52402E-02   -0.19282E-02   352   0.301E-01    0.952E-01
DAV:  37    -0.493185186316E+02    0.51221E-02   -0.18796E-02   352   0.299E-01    0.809E-01
DAV:  38    -0.493242398493E+02   -0.57212E-02   -0.18640E-02   352   0.296E-01    0.944E-01
DAV:  39    -0.493186856813E+02    0.55542E-02   -0.18177E-02   352   0.295E-01    0.785E-01
DAV:  40    -0.493247747903E+02   -0.60891E-02   -0.17928E-02   352   0.291E-01    0.936E-01
DAV:  41    -0.493188346887E+02    0.59401E-02   -0.17666E-02   352   0.290E-01    0.769E-01
DAV:  42    -0.493251121635E+02   -0.62775E-02   -0.17477E-02   352   0.288E-01    0.932E-01
DAV:  43    -0.493189140652E+02    0.61981E-02   -0.17381E-02   352   0.287E-01    0.761E-01
DAV:  44    -0.493252944239E+02   -0.63804E-02   -0.17261E-02   352   0.286E-01    0.930E-01
DAV:  45    -0.493189427950E+02    0.63516E-02   -0.17247E-02   352   0.286E-01    0.757E-01
DAV:  46    -0.493253949590E+02   -0.64522E-02   -0.17164E-02   352   0.285E-01    0.930E-01
DAV:  47    -0.493189607520E+02    0.64342E-02   -0.17157E-02   352   0.285E-01    0.754E-01
DAV:  48    -0.493254540913E+02   -0.64933E-02   -0.17038E-02   352   0.285E-01    0.927E-01
DAV:  49    -0.493190557890E+02    0.63983E-02   -0.17022E-02   352   0.284E-01    0.752E-01
DAV:  50    -0.493254932483E+02   -0.64375E-02   -0.16961E-02   352   0.284E-01    0.926E-01
DAV:  51    -0.493190817003E+02    0.64115E-02   -0.16995E-02   352   0.284E-01    0.751E-01
DAV:  52    -0.493254859236E+02   -0.64042E-02   -0.16882E-02   352   0.284E-01    0.922E-01
DAV:  53    -0.493191477656E+02    0.63382E-02   -0.16727E-02   352   0.283E-01    0.741E-01
DAV:  54    -0.493256500972E+02   -0.65023E-02   -0.16224E-02   352   0.282E-01    0.908E-01
DAV:  55    -0.493195045994E+02    0.61455E-02   -0.15860E-02   352   0.280E-01    0.712E-01
DAV:  56    -0.493261547350E+02   -0.66501E-02   -0.15042E-02   352   0.275E-01    0.894E-01
DAV:  57    -0.493197983858E+02    0.63563E-02   -0.15597E-02   352   0.273E-01    0.722E-01
DAV:  58    -0.493259102649E+02   -0.61119E-02   -0.15411E-02   352   0.274E-01    0.898E-01
DAV:  59    -0.493197878807E+02    0.61224E-02   -0.15923E-02   360   0.275E-01    0.737E-01
DAV:  60    -0.493256478124E+02   -0.58599E-02   -0.16275E-02   352   0.278E-01
   4 F= -.49325648E+02 E0= -.49325648E+02  d E =-.254771E+00  mag=     8.0000
       N       E                     dE             d eps       ncg     rms          rms(c)
DAV:   1    -0.493192126823E+02    0.57520E-03   -0.33837E+00   352   0.493E+00    0.900E-01
DAV:   2    -0.493638968649E+02   -0.44684E-01   -0.38794E-01   368   0.218E+00    0.406E+00
DAV:   3    -0.492544144133E+02    0.10948E+00   -0.31381E-01   360   0.203E+00    0.115E+00
DAV:   4    -0.493324142741E+02   -0.78000E-01   -0.36186E-02   352   0.920E-01    0.855E-01
DAV:   5    -0.493298537817E+02    0.25605E-02   -0.18339E-02   352   0.540E-01    0.808E-01
DAV:   6    -0.493283731456E+02    0.14806E-02   -0.30995E-02   360   0.367E-01    0.127E+00
DAV:   7    -0.493168193639E+02    0.11554E-01   -0.11746E-02   368   0.408E-01    0.424E-01
DAV:   8    -0.493323842900E+02   -0.15565E-01   -0.84244E-03   360   0.239E-01    0.989E-01
DAV:   9    -0.493173903666E+02    0.14994E-01   -0.35787E-03   360   0.215E-01    0.502E-01
DAV:  10    -0.493285123936E+02   -0.11122E-01   -0.89542E-04   368   0.179E-01    0.415E-01
DAV:  11    -0.493308686766E+02   -0.23563E-02   -0.12789E-03   344   0.156E-01    0.163E-01
DAV:  12    -0.493354928186E+02   -0.46241E-02   -0.20335E-03   360   0.143E-01    0.424E-01
DAV:  13    -0.493317154879E+02    0.37773E-02   -0.12402E-03   288   0.123E-01    0.150E-01
DAV:  14    -0.493354655688E+02   -0.37501E-02   -0.17605E-03   272   0.115E-01    0.501E-01
DAV:  15    -0.493297763148E+02    0.56893E-02   -0.29571E-03   296   0.117E-01    0.296E-01
DAV:  16    -0.493351443305E+02   -0.53680E-02   -0.38190E-03   352   0.139E-01    0.570E-01
DAV:  17    -0.493289944958E+02    0.61498E-02   -0.43276E-03   352   0.151E-01    0.336E-01
DAV:  18    -0.493347716910E+02   -0.57772E-02   -0.55489E-03   352   0.159E-01    0.677E-01
DAV:  19    -0.493264130484E+02    0.83586E-02   -0.70119E-03   360   0.178E-01    0.434E-01
DAV:  20    -0.493341795254E+02   -0.77665E-02   -0.82963E-03   352   0.194E-01    0.771E-01
DAV:  21    -0.493240576043E+02    0.10122E-01   -0.86769E-03   352   0.208E-01    0.424E-01
DAV:  22    -0.493345062955E+02   -0.10449E-01   -0.85671E-03   360   0.207E-01    0.756E-01
DAV:  23    -0.493244983076E+02    0.10008E-01   -0.84288E-03   360   0.203E-01    0.410E-01
DAV:  24    -0.493345896965E+02   -0.10091E-01   -0.83495E-03   360   0.202E-01    0.759E-01
DAV:  25    -0.493244860619E+02    0.10104E-01   -0.86289E-03   360   0.202E-01    0.423E-01
DAV:  26    -0.493344607586E+02   -0.99747E-02   -0.86570E-03   360   0.204E-01    0.765E-01
DAV:  27    -0.493244021660E+02    0.10059E-01   -0.88608E-03   360   0.205E-01    0.432E-01
DAV:  28    -0.493343585448E+02   -0.99564E-02   -0.89008E-03   360   0.206E-01    0.767E-01
DAV:  29    -0.493244020732E+02    0.99565E-02   -0.90232E-03   360   0.207E-01    0.436E-01
DAV:  30    -0.493343347483E+02   -0.99327E-02   -0.91017E-03   360   0.207E-01    0.777E-01
DAV:  31    -0.493241866145E+02    0.10148E-01   -0.93478E-03   360   0.209E-01    0.444E-01
DAV:  32    -0.493342689870E+02   -0.10082E-01   -0.93261E-03   360   0.210E-01    0.781E-01
DAV:  33    -0.493240935534E+02    0.10175E-01   -0.93793E-03   360   0.211E-01    0.439E-01
DAV:  34    -0.493342711611E+02   -0.10178E-01   -0.90177E-03   360   0.210E-01    0.762E-01
DAV:  35    -0.493246494382E+02    0.96217E-02   -0.90043E-03   360   0.207E-01    0.437E-01
DAV:  36    -0.493341975532E+02   -0.95481E-02   -0.87509E-03   360   0.207E-01    0.749E-01
DAV:  37    -0.493250312194E+02    0.91663E-02   -0.88413E-03   360   0.205E-01    0.441E-01
DAV:  38    -0.493341027405E+02   -0.90715E-02   -0.87058E-03   352   0.205E-01    0.745E-01
DAV:  39    -0.493251745842E+02    0.89282E-02   -0.88417E-03   352   0.205E-01    0.445E-01
DAV:  40    -0.493340306022E+02   -0.88560E-02   -0.87092E-03   352   0.205E-01    0.741E-01
DAV:  41    -0.493252931282E+02    0.87375E-02   -0.88308E-03   352   0.205E-01    0.447E-01
DAV:  42    -0.493339724568E+02   -0.86793E-02   -0.86787E-03   352   0.205E-01    0.737E-01
DAV:  43    -0.493254417408E+02    0.85307E-02   -0.87852E-03   352   0.204E-01    0.449E-01
DAV:  44    -0.493339175608E+02   -0.84758E-02   -0.86311E-03   352   0.204E-01    0.732E-01
DAV:  45    -0.493255934253E+02    0.83241E-02   -0.87340E-03   352   0.204E-01    0.451E-01
DAV:  46    -0.493338631984E+02   -0.82698E-02   -0.85851E-03   352   0.204E-01    0.727E-01
DAV:  47    -0.493257323695E+02    0.81308E-02   -0.86788E-03   352   0.203E-01    0.452E-01
DAV:  48    -0.493338257650E+02   -0.80934E-02   -0.85236E-03   352   0.203E-01    0.720E-01
DAV:  49    -0.493259663411E+02    0.78594E-02   -0.85211E-03   352   0.202E-01    0.452E-01
DAV:  50    -0.493337925581E+02   -0.78262E-02   -0.83826E-03   352   0.202E-01    0.711E-01
DAV:  51    -0.493262196253E+02    0.75729E-02   -0.83419E-03   352   0.201E-01    0.451E-01
DAV:  52    -0.493337286490E+02   -0.75090E-02   -0.82055E-03   352   0.200E-01    0.700E-01
DAV:  53    -0.493264345210E+02    0.72941E-02   -0.81432E-03   352   0.199E-01    0.447E-01
DAV:  54    -0.493337203382E+02   -0.72858E-02   -0.79888E-03   352   0.199E-01    0.691E-01
DAV:  55    -0.493266013875E+02    0.71190E-02   -0.79511E-03   352   0.198E-01    0.438E-01
DAV:  56    -0.493337888325E+02   -0.71874E-02   -0.77803E-03   352   0.196E-01    0.689E-01
DAV:  57    -0.493266256958E+02    0.71631E-02   -0.81018E-03   352   0.196E-01    0.450E-01
DAV:  58    -0.493336441198E+02   -0.70184E-02   -0.81724E-03   352   0.198E-01    0.702E-01
DAV:  59    -0.493263784170E+02    0.72657E-02   -0.84987E-03   352   0.201E-01    0.471E-01
DAV:  60    -0.493333271486E+02   -0.69487E-02   -0.85460E-03   352   0.204E-01
   5 F= -.49333327E+02 E0= -.49333327E+02  d E =-.262450E+00  mag=     8.0000
       N       E                     dE             d eps       ncg     rms          rms(c)
DAV:   1    -0.493438240037E+02   -0.17446E-01   -0.53659E+00   352   0.626E+00    0.728E-01
DAV:   2    -0.493844739388E+02   -0.40650E-01   -0.30914E-01   360   0.209E+00    0.346E+00
DAV:   3    -0.493060479302E+02    0.78426E-01   -0.22435E-01   352   0.184E+00    0.117E+00
DAV:   4    -0.493515395220E+02   -0.45492E-01   -0.23290E-02   360   0.674E-01    0.493E-01
DAV:   5    -0.493588312572E+02   -0.72917E-02   -0.15465E-02   368   0.485E-01    0.139E+00
DAV:   6    -0.493312049278E+02    0.27626E-01   -0.32059E-02   360   0.342E-01    0.808E-01
DAV:   7    -0.493545454825E+02   -0.23341E-01   -0.13970E-02   352   0.441E-01    0.470E-01
DAV:   8    -0.493569405600E+02   -0.23951E-02   -0.60311E-03   360   0.225E-01    0.509E-01
DAV:   9    -0.493543643440E+02    0.25762E-02   -0.21748E-03   376   0.204E-01    0.253E-01
DAV:  10    -0.493568727350E+02   -0.25084E-02   -0.87962E-04   320   0.163E-01    0.167E-01
DAV:  11    -0.493580404048E+02   -0.11677E-02   -0.60460E-04   256   0.123E-01    0.185E-01
DAV:  12    -0.493581643211E+02   -0.12392E-03   -0.38560E-04   240   0.891E-02    0.105E-01
DAV:  13    -0.493585504014E+02   -0.38608E-03   -0.15567E-04   224   0.651E-02    0.813E-02
DAV:  14    -0.493586247540E+02   -0.74353E-04   -0.75875E-05   240   0.441E-02
   6 F= -.49358625E+02 E0= -.49358625E+02  d E =-.252976E-01  mag=     8.0000
       N       E                     dE             d eps       ncg     rms          rms(c)
DAV:   1    -0.493481841958E+02    0.10366E-01   -0.48414E+01   352   0.188E+01    0.255E+00
DAV:   2    -0.496851393520E+02   -0.33696E+00   -0.25634E+00   360   0.727E+00    0.892E+00
DAV:   3    -0.492641499195E+02    0.42099E+00   -0.82401E-01   360   0.638E+00    0.228E+00
DAV:   4    -0.493822397860E+02   -0.11809E+00   -0.17244E-01   360   0.228E+00    0.251E+00
DAV:   5    -0.493485782437E+02    0.33662E-01   -0.11409E-01   360   0.115E+00    0.191E+00
DAV:   6    -0.493868113440E+02   -0.38233E-01   -0.16191E-01   352   0.138E+00    0.250E+00
DAV:   7    -0.493483958252E+02    0.38416E-01   -0.93851E-02   352   0.862E-01    0.203E+00
DAV:   8    -0.493595303508E+02   -0.11135E-01   -0.28366E-02   352   0.761E-01    0.176E+00
DAV:   9    -0.493560196500E+02    0.35107E-02   -0.82243E-03   376   0.338E-01    0.155E+00
DAV:  10    -0.493674109059E+02   -0.11391E-01   -0.69448E-03   376   0.390E-01    0.142E+00
DAV:  11    -0.493711956541E+02   -0.37847E-02   -0.78152E-03   384   0.417E-01    0.142E+00
DAV:  12    -0.493745988169E+02   -0.34032E-02   -0.65625E-03   384   0.388E-01    0.124E+00
DAV:  13    -0.493736194760E+02    0.97934E-03   -0.20227E-02   392   0.548E-01    0.175E+00
DAV:  14    -0.493731360136E+02    0.48346E-03   -0.17837E-02   360   0.523E-01    0.446E-01
DAV:  15    -0.493942800388E+02   -0.21144E-01   -0.17977E-02   360   0.348E-01    0.192E+00
DAV:  16    -0.493522425075E+02    0.42038E-01   -0.35792E-02   352   0.373E-01    0.631E-01
DAV:  17    -0.493992552326E+02   -0.47013E-01   -0.21654E-02   360   0.385E-01    0.159E+00
DAV:  18    -0.493672972099E+02    0.31958E-01   -0.23127E-02   360   0.348E-01    0.431E-01
DAV:  19    -0.494000198982E+02   -0.32723E-01   -0.13764E-02   360   0.300E-01    0.124E+00
DAV:  20    -0.493754095466E+02    0.24610E-01   -0.15832E-02   360   0.260E-01    0.450E-01
DAV:  21    -0.493997326802E+02   -0.24323E-01   -0.13460E-02   360   0.264E-01    0.122E+00
DAV:  22    -0.493764818715E+02    0.23251E-01   -0.16036E-02   360   0.263E-01    0.479E-01
DAV:  23    -0.493995710302E+02   -0.23089E-01   -0.14293E-02   360   0.268E-01    0.121E+00
DAV:  24    -0.493768341467E+02    0.22737E-01   -0.17013E-02   360   0.270E-01    0.507E-01
DAV:  25    -0.493994900492E+02   -0.22656E-01   -0.15148E-02   360   0.275E-01    0.122E+00
DAV:  26    -0.493765871039E+02    0.22903E-01   -0.17857E-02   360   0.277E-01    0.531E-01
DAV:  27    -0.493993574834E+02   -0.22770E-01   -0.15941E-02   360   0.280E-01    0.122E+00
DAV:  28    -0.493766611328E+02    0.22696E-01   -0.18098E-02   360   0.281E-01    0.530E-01
DAV:  29    -0.493993413936E+02   -0.22680E-01   -0.15745E-02   360   0.281E-01    0.121E+00
DAV:  30    -0.493769013751E+02    0.22440E-01   -0.18292E-02   360   0.281E-01    0.541E-01
DAV:  31    -0.493992273215E+02   -0.22326E-01   -0.15887E-02   360   0.282E-01    0.120E+00
DAV:  32    -0.493772268351E+02    0.22000E-01   -0.18117E-02   360   0.281E-01    0.544E-01
DAV:  33    -0.493991071903E+02   -0.21880E-01   -0.15819E-02   360   0.282E-01    0.119E+00
DAV:  34    -0.493777953758E+02    0.21312E-01   -0.17877E-02   360   0.280E-01    0.550E-01
DAV:  35    -0.493990077163E+02   -0.21212E-01   -0.15871E-02   360   0.280E-01    0.118E+00
DAV:  36    -0.493780359298E+02    0.20972E-01   -0.18001E-02   360   0.280E-01    0.559E-01
DAV:  37    -0.493988605710E+02   -0.20825E-01   -0.15945E-02   360   0.281E-01    0.117E+00
DAV:  38    -0.493784357214E+02    0.20425E-01   -0.17872E-02   360   0.279E-01    0.563E-01
DAV:  39    -0.493987573218E+02   -0.20322E-01   -0.15847E-02   360   0.280E-01    0.116E+00
DAV:  40    -0.493788339957E+02    0.19923E-01   -0.17754E-02   360   0.279E-01    0.568E-01
DAV:  41    -0.493986480577E+02   -0.19814E-01   -0.15831E-02   360   0.279E-01    0.116E+00
DAV:  42    -0.493791046455E+02    0.19543E-01   -0.17768E-02   360   0.278E-01    0.574E-01
DAV:  43    -0.493985327770E+02   -0.19428E-01   -0.15866E-02   360   0.279E-01    0.115E+00
DAV:  44    -0.493793515905E+02    0.19181E-01   -0.17790E-02   360   0.278E-01    0.579E-01
DAV:  45    -0.493984245273E+02   -0.19073E-01   -0.15884E-02   360   0.279E-01    0.115E+00
DAV:  46    -0.493795996427E+02    0.18825E-01   -0.17790E-02   360   0.278E-01    0.585E-01
DAV:  47    -0.493983157005E+02   -0.18716E-01   -0.15903E-02   360   0.279E-01    0.114E+00
DAV:  48    -0.493797876311E+02    0.18528E-01   -0.18143E-02   360   0.278E-01    0.596E-01
DAV:  49    -0.493981682258E+02   -0.18381E-01   -0.16521E-02   360   0.280E-01    0.117E+00
DAV:  50    -0.493793293034E+02    0.18839E-01   -0.19548E-02   360   0.283E-01    0.620E-01
DAV:  51    -0.493979301356E+02   -0.18601E-01   -0.17408E-02   360   0.286E-01    0.118E+00
DAV:  52    -0.493790433445E+02    0.18887E-01   -0.20554E-02   360   0.288E-01    0.638E-01
DAV:  53    -0.493975901842E+02   -0.18547E-01   -0.17998E-02   360   0.291E-01    0.117E+00
DAV:  54    -0.493794533993E+02    0.18137E-01   -0.20603E-02   360   0.289E-01    0.647E-01
DAV:  55    -0.493974058674E+02   -0.17952E-01   -0.18246E-02   360   0.291E-01    0.116E+00
DAV:  56    -0.493797228178E+02    0.17683E-01   -0.20543E-02   360   0.291E-01    0.651E-01
DAV:  57    -0.493973601538E+02   -0.17637E-01   -0.17321E-02   352   0.291E-01    0.111E+00
DAV:  58    -0.493812989729E+02    0.16061E-01   -0.17517E-02   352   0.283E-01    0.610E-01
DAV:  59    -0.493978700352E+02   -0.16571E-01   -0.16511E-02   360   0.278E-01    0.113E+00
DAV:  60    -0.493804818799E+02    0.17388E-01   -0.19206E-02   360   0.280E-01
   7 F= -.49380482E+02 E0= -.49380482E+02  d E =-.471547E-01  mag=     8.0000
       N       E                     dE             d eps       ncg     rms          rms(c)
DAV:   1    -0.493963739081E+02    0.14961E-02   -0.81859E+00   352   0.772E+00    0.257E+00
DAV:   2    -0.496256800405E+02   -0.22931E+00   -0.21051E+00   368   0.650E+00    0.853E+00
DAV:   3    -0.492658553384E+02    0.35982E+00   -0.83772E-01   360   0.618E+00    0.244E+00
DAV:   4    -0.493870634357E+02   -0.12121E+00   -0.18715E-01   368   0.224E+00    0.206E+00
DAV:   5    -0.493715728464E+02    0.15491E-01   -0.10206E-01   360   0.143E+00    0.190E+00
DAV:   6    -0.493826487614E+02   -0.11076E-01   -0.14547E-01   360   0.119E+00    0.241E+00
DAV:   7    -0.493626712743E+02    0.19977E-01   -0.51632E-02   368   0.100E+00    0.180E+00
DAV:   8    -0.493697693615E+02   -0.70981E-02   -0.28664E-02   360   0.680E-01    0.165E+00
DAV:   9    -0.493652053217E+02    0.45640E-02   -0.45718E-03   376   0.348E-01    0.145E+00
DAV:  10    -0.493732186375E+02   -0.80133E-02   -0.63500E-03   392   0.264E-01    0.145E+00
DAV:  11    -0.493677664465E+02    0.54522E-02   -0.28131E-03   368   0.165E-01    0.125E+00
DAV:  12    -0.493769708638E+02   -0.92044E-02   -0.35284E-03   376   0.295E-01    0.155E+00
DAV:  13    -0.493656131895E+02    0.11358E-01   -0.47019E-02   368   0.325E-01    0.107E+00
DAV:  14    -0.493966950445E+02   -0.31082E-01   -0.15586E-02   352   0.436E-01    0.160E+00
DAV:  15    -0.493744612250E+02    0.22234E-01   -0.50063E-02   352   0.405E-01    0.124E+00
DAV:  16    -0.493892654375E+02   -0.14804E-01   -0.27154E-02   352   0.423E-01    0.155E+00
DAV:  17    -0.493773537105E+02    0.11912E-01   -0.56466E-02   352   0.420E-01    0.127E+00
DAV:  18    -0.493875605213E+02   -0.10207E-01   -0.26659E-02   352   0.426E-01    0.128E+00
DAV:  19    -0.493872615993E+02    0.29892E-03   -0.44570E-02   352   0.392E-01    0.149E+00
DAV:  20    -0.493811815160E+02    0.60801E-02   -0.37453E-02   352   0.423E-01    0.122E+00
DAV:  21    -0.493906430071E+02   -0.94615E-02   -0.40611E-02   352   0.406E-01    0.161E+00
DAV:  22    -0.493765379794E+02    0.14105E-01   -0.45628E-02   352   0.428E-01    0.120E+00
DAV:  23    -0.493916113416E+02   -0.15073E-01   -0.37521E-02   360   0.420E-01    0.162E+00
DAV:  24    -0.493748935744E+02    0.16718E-01   -0.48491E-02   352   0.427E-01    0.120E+00
DAV:  25    -0.493919574432E+02   -0.17064E-01   -0.36584E-02   352   0.425E-01    0.163E+00
DAV:  26    -0.493742181996E+02    0.17739E-01   -0.50264E-02   352   0.429E-01    0.120E+00
DAV:  27    -0.493920715767E+02   -0.17853E-01   -0.36204E-02   352   0.429E-01    0.163E+00
DAV:  28    -0.493742907467E+02    0.17781E-01   -0.50576E-02   352   0.428E-01    0.121E+00
DAV:  29    -0.493920756947E+02   -0.17785E-01   -0.35722E-02   360   0.428E-01    0.163E+00
DAV:  30    -0.493743864497E+02    0.17689E-01   -0.50735E-02   352   0.427E-01    0.121E+00
DAV:  31    -0.493919008721E+02   -0.17514E-01   -0.35604E-02   360   0.428E-01    0.162E+00
DAV:  32    -0.493747868764E+02    0.17114E-01   -0.50605E-02   352   0.426E-01    0.121E+00
DAV:  33    -0.493917335575E+02   -0.16947E-01   -0.35386E-02   360   0.427E-01    0.161E+00
DAV:  34    -0.493750594782E+02    0.16674E-01   -0.50732E-02   352   0.426E-01    0.122E+00
DAV:  35    -0.493915305894E+02   -0.16471E-01   -0.35265E-02   352   0.427E-01    0.160E+00
DAV:  36    -0.493753126721E+02    0.16218E-01   -0.50803E-02   352   0.426E-01    0.122E+00
DAV:  37    -0.493912613893E+02   -0.15949E-01   -0.35498E-02   352   0.428E-01    0.159E+00
DAV:  38    -0.493755710574E+02    0.15690E-01   -0.50727E-02   352   0.426E-01    0.123E+00
DAV:  39    -0.493909715398E+02   -0.15400E-01   -0.35814E-02   352   0.428E-01    0.158E+00
DAV:  40    -0.493761317034E+02    0.14840E-01   -0.50309E-02   352   0.425E-01    0.123E+00
DAV:  41    -0.493908423332E+02   -0.14711E-01   -0.35439E-02   352   0.426E-01    0.158E+00
DAV:  42    -0.493764539777E+02    0.14388E-01   -0.50361E-02   352   0.425E-01    0.124E+00
DAV:  43    -0.493907268494E+02   -0.14273E-01   -0.34795E-02   352   0.425E-01    0.158E+00
DAV:  44    -0.493766022494E+02    0.14125E-01   -0.50478E-02   352   0.425E-01    0.124E+00
DAV:  45    -0.493905579287E+02   -0.13956E-01   -0.34591E-02   352   0.426E-01    0.157E+00
DAV:  46    -0.493768436856E+02    0.13714E-01   -0.50506E-02   352   0.424E-01    0.125E+00
DAV:  47    -0.493903360337E+02   -0.13492E-01   -0.34476E-02   352   0.426E-01    0.157E+00
DAV:  48    -0.493771519895E+02    0.13184E-01   -0.50711E-02   352   0.424E-01    0.125E+00
DAV:  49    -0.493901446387E+02   -0.12993E-01   -0.34578E-02   352   0.425E-01    0.156E+00
DAV:  50    -0.493772930799E+02    0.12852E-01   -0.51079E-02   352   0.425E-01    0.125E+00
DAV:  51    -0.493899728659E+02   -0.12680E-01   -0.34522E-02   352   0.425E-01    0.156E+00
DAV:  52    -0.493774123831E+02    0.12560E-01   -0.50877E-02   352   0.424E-01    0.125E+00
DAV:  53    -0.493896778674E+02   -0.12265E-01   -0.33793E-02   352   0.425E-01    0.156E+00
DAV:  54    -0.493773285040E+02    0.12349E-01   -0.50645E-02   352   0.426E-01    0.124E+00
DAV:  55    -0.493895245014E+02   -0.12196E-01   -0.32353E-02   352   0.425E-01    0.156E+00
DAV:  56    -0.493769822419E+02    0.12542E-01   -0.52662E-02   352   0.427E-01    0.125E+00
DAV:  57    -0.493898313091E+02   -0.12849E-01   -0.34165E-02   352   0.428E-01    0.156E+00
DAV:  58    -0.493772017487E+02    0.12630E-01   -0.52433E-02   352   0.428E-01    0.127E+00
DAV:  59    -0.493896049874E+02   -0.12403E-01   -0.34011E-02   352   0.430E-01    0.154E+00
DAV:  60    -0.493781900197E+02    0.11415E-01   -0.49147E-02   352   0.424E-01
   8 F= -.49378190E+02 E0= -.49378190E+02  d E =-.448629E-01  mag=     8.0000
       N       E                     dE             d eps       ncg     rms          rms(c)
DAV:   1    -0.493939282169E+02   -0.43232E-02   -0.15571E+01   352   0.107E+01    0.186E+00
DAV:   2    -0.495418992925E+02   -0.14797E+00   -0.12232E+00   368   0.474E+00    0.646E+00
DAV:   3    -0.493357639889E+02    0.20614E+00   -0.55628E-01   360   0.446E+00    0.210E+00
DAV:   4    -0.494158195717E+02   -0.80056E-01   -0.15818E-01   352   0.177E+00    0.171E+00
DAV:   5    -0.494022356035E+02    0.13584E-01   -0.54633E-02   368   0.104E+00    0.959E-01
DAV:   6    -0.494101686188E+02   -0.79330E-02   -0.35251E-02   352   0.773E-01    0.120E+00
DAV:   7    -0.494040769097E+02    0.60917E-02   -0.38831E-02   368   0.662E-01    0.126E+00
DAV:   8    -0.494059543806E+02   -0.18775E-02   -0.31301E-02   360   0.615E-01    0.876E-01
DAV:   9    -0.494141938378E+02   -0.82395E-02   -0.32756E-02   360   0.534E-01    0.136E+00
DAV:  10    -0.494000545121E+02    0.14139E-01   -0.10507E-02   352   0.324E-01    0.396E-01
DAV:  11    -0.494175577513E+02   -0.17503E-01   -0.37325E-03   360   0.272E-01    0.640E-01
DAV:  12    -0.494127461380E+02    0.48116E-02   -0.19151E-03   352   0.158E-01    0.230E-01
DAV:  13    -0.494187324444E+02   -0.59863E-02   -0.70723E-04   336   0.157E-01    0.133E-01
DAV:  14    -0.494196775925E+02   -0.94515E-03   -0.23682E-04   280   0.981E-02    0.178E-01
DAV:  15    -0.494197334083E+02   -0.55816E-04   -0.11221E-04   240   0.536E-02
   9 F= -.49419733E+02 E0= -.49419733E+02  d E =-.415434E-01  mag=     8.0000
       N       E                     dE             d eps       ncg     rms          rms(c)
DAV:   1    -0.494215661611E+02   -0.18886E-02   -0.13075E-01   360   0.978E-01    0.237E-01
DAV:   2    -0.494357049379E+02   -0.14139E-01   -0.11721E-01   384   0.744E-01    0.303E+00
DAV:   3    -0.493599885812E+02    0.75716E-01   -0.76898E-02   368   0.782E-01    0.567E-01
DAV:   4    -0.494219717128E+02   -0.61983E-01   -0.13385E-02   352   0.410E-01    0.976E-01
DAV:   5    -0.494092708904E+02    0.12701E-01   -0.14577E-02   352   0.256E-01    0.901E-01
DAV:   6    -0.494149934155E+02   -0.57225E-02   -0.24871E-02   352   0.288E-01    0.142E+00
DAV:   7    -0.493997010072E+02    0.15292E-01   -0.18924E-02   352   0.335E-01    0.579E-01
DAV:   8    -0.494215631445E+02   -0.21862E-01   -0.13132E-02   352   0.295E-01    0.102E+00
DAV:   9    -0.494082276001E+02    0.13336E-01   -0.13927E-02   352   0.245E-01    0.514E-01
DAV:  10    -0.494219247122E+02   -0.13697E-01   -0.96325E-03   352   0.237E-01    0.811E-01
DAV:  11    -0.494134929971E+02    0.84317E-02   -0.83945E-03   352   0.203E-01    0.460E-01
DAV:  12    -0.494221888594E+02   -0.86959E-02   -0.80103E-03   360   0.196E-01    0.829E-01
DAV:  13    -0.494132220162E+02    0.89668E-02   -0.93706E-03   360   0.199E-01    0.484E-01
DAV:  14    -0.494220703492E+02   -0.88483E-02   -0.82044E-03   360   0.203E-01    0.814E-01
DAV:  15    -0.494137226731E+02    0.83477E-02   -0.89634E-03   352   0.200E-01    0.499E-01
DAV:  16    -0.494219320070E+02   -0.82093E-02   -0.88467E-03   360   0.202E-01    0.845E-01
DAV:  17    -0.494132514064E+02    0.86806E-02   -0.10108E-02   368   0.207E-01    0.536E-01
DAV:  18    -0.494215627690E+02   -0.83114E-02   -0.96192E-03   360   0.213E-01    0.862E-01
DAV:  19    -0.494130448976E+02    0.85179E-02   -0.10489E-02   352   0.215E-01    0.541E-01
DAV:  20    -0.494215431982E+02   -0.84983E-02   -0.96638E-03   360   0.215E-01    0.858E-01
DAV:  21    -0.494132213020E+02    0.83219E-02   -0.10650E-02   368   0.215E-01    0.554E-01
DAV:  22    -0.494213926788E+02   -0.81714E-02   -0.99813E-03   360   0.217E-01    0.873E-01
DAV:  23    -0.494129969584E+02    0.83957E-02   -0.11204E-02   352   0.219E-01    0.572E-01
DAV:  24    -0.494211643697E+02   -0.81674E-02   -0.10227E-02   360   0.221E-01    0.868E-01
DAV:  25    -0.494131993527E+02    0.79650E-02   -0.11198E-02   360   0.220E-01    0.574E-01
DAV:  26    -0.494210896540E+02   -0.78903E-02   -0.10066E-02   360   0.221E-01    0.854E-01
DAV:  27    -0.494135607146E+02    0.75289E-02   -0.10868E-02   360   0.219E-01    0.572E-01
DAV:  28    -0.494210716768E+02   -0.75110E-02   -0.98078E-03   360   0.218E-01    0.837E-01
DAV:  29    -0.494139541988E+02    0.71175E-02   -0.10475E-02   360   0.216E-01    0.566E-01
DAV:  30    -0.494210854861E+02   -0.71313E-02   -0.95739E-03   360   0.215E-01    0.827E-01
DAV:  31    -0.494141752679E+02    0.69102E-02   -0.10321E-02   360   0.214E-01    0.567E-01
DAV:  32    -0.494210347544E+02   -0.68595E-02   -0.95859E-03   360   0.214E-01    0.830E-01
DAV:  33    -0.494141492999E+02    0.68855E-02   -0.10573E-02   360   0.215E-01    0.578E-01
DAV:  34    -0.494208723871E+02   -0.67231E-02   -0.98075E-03   360   0.216E-01    0.837E-01
DAV:  35    -0.494140763431E+02    0.67960E-02   -0.10877E-02   360   0.217E-01    0.588E-01
DAV:  36    -0.494207189104E+02   -0.66426E-02   -0.99352E-03   360   0.218E-01    0.834E-01
DAV:  37    -0.494141910725E+02    0.65278E-02   -0.10903E-02   360   0.218E-01    0.592E-01
DAV:  38    -0.494206285134E+02   -0.64374E-02   -0.98957E-03   360   0.218E-01    0.827E-01
DAV:  39    -0.494144004412E+02    0.62281E-02   -0.10798E-02   360   0.217E-01    0.594E-01
DAV:  40    -0.494205672903E+02   -0.61668E-02   -0.98289E-03   360   0.217E-01    0.821E-01
DAV:  41    -0.494145514564E+02    0.60158E-02   -0.10788E-02   360   0.217E-01    0.599E-01
DAV:  42    -0.494204652149E+02   -0.59138E-02   -0.98501E-03   360   0.217E-01    0.818E-01
DAV:  43    -0.494146580849E+02    0.58071E-02   -0.10808E-02   360   0.217E-01    0.603E-01
DAV:  44    -0.494203570338E+02   -0.56989E-02   -0.98162E-03   360   0.217E-01    0.811E-01
DAV:  45    -0.494148461869E+02    0.55108E-02   -0.10687E-02   360   0.216E-01    0.603E-01
DAV:  46    -0.494203104815E+02   -0.54643E-02   -0.96833E-03   360   0.216E-01    0.802E-01
DAV:  47    -0.494150452246E+02    0.52653E-02   -0.10490E-02   352   0.215E-01    0.600E-01
DAV:  48    -0.494203324268E+02   -0.52872E-02   -0.93515E-03   352   0.214E-01    0.784E-01
DAV:  49    -0.494154049417E+02    0.49275E-02   -0.10061E-02   352   0.212E-01    0.590E-01
DAV:  50    -0.494204445197E+02   -0.50396E-02   -0.93488E-03   352   0.211E-01    0.798E-01
DAV:  51    -0.494150977760E+02    0.53467E-02   -0.11083E-02   352   0.213E-01    0.640E-01
DAV:  52    -0.494196724201E+02   -0.45746E-02   -0.11470E-02   360   0.221E-01    0.873E-01
DAV:  53    -0.494137531435E+02    0.59193E-02   -0.13024E-02   360   0.231E-01    0.690E-01
DAV:  54    -0.494189935912E+02   -0.52404E-02   -0.12038E-02   352   0.238E-01    0.843E-01
DAV:  55    -0.494146148889E+02    0.43787E-02   -0.11373E-02   352   0.234E-01    0.617E-01
DAV:  56    -0.494200929437E+02   -0.54781E-02   -0.91334E-03   352   0.222E-01    0.751E-01
DAV:  57    -0.494161526878E+02    0.39403E-02   -0.91606E-03   352   0.209E-01    0.561E-01
DAV:  58    -0.494207297068E+02   -0.45770E-02   -0.80144E-03   360   0.201E-01    0.736E-01
DAV:  59    -0.494162527813E+02    0.44769E-02   -0.92089E-03   352   0.200E-01    0.583E-01
DAV:  60    -0.494203739702E+02   -0.41212E-02   -0.89890E-03   352   0.204E-01
  10 F= -.49420374E+02 E0= -.49420374E+02  d E =-.421840E-01  mag=     8.0000
       N       E                     dE             d eps       ncg     rms          rms(c)
DAV:   1    -0.494266354026E+02   -0.10383E-01   -0.86590E+00   352   0.792E+00    0.132E+00
DAV:   2    -0.495377906527E+02   -0.11116E+00   -0.76609E-01   360   0.379E+00    0.520E+00
DAV:   3    -0.493880164251E+02    0.14977E+00   -0.34180E-01   360   0.363E+00    0.155E+00
DAV:   4    -0.494325193421E+02   -0.44503E-01   -0.30285E-02   368   0.866E-01    0.711E-01
DAV:   5    -0.494345361089E+02   -0.20168E-02   -0.98432E-03   360   0.576E-01    0.463E-01
DAV:   6    -0.494398215630E+02   -0.52855E-02   -0.20651E-02   384   0.534E-01    0.801E-01
DAV:   7    -0.494388032130E+02    0.10183E-02   -0.13013E-02   376   0.476E-01    0.582E-01
DAV:   8    -0.494399441795E+02   -0.11410E-02   -0.48257E-03   368   0.302E-01    0.376E-01
DAV:   9    -0.494413456846E+02   -0.14015E-02   -0.46498E-03   384   0.265E-01    0.322E-01
DAV:  10    -0.494419480143E+02   -0.60233E-03   -0.20757E-03   360   0.205E-01    0.124E-01
DAV:  11    -0.494427380677E+02   -0.79005E-03   -0.34495E-04   272   0.130E-01    0.824E-02
DAV:  12    -0.494429390442E+02   -0.20098E-03   -0.19781E-04   256   0.104E-01    0.802E-02
DAV:  13    -0.494430522092E+02   -0.11317E-03   -0.74758E-05   240   0.614E-02    0.583E-02
DAV:  14    -0.494431192509E+02   -0.67042E-04   -0.41883E-05   232   0.416E-02
  11 F= -.49443119E+02 E0= -.49443119E+02  d E =-.227453E-01  mag=     8.0000
       N       E                     dE             d eps       ncg     rms          rms(c)
DAV:   1    -0.494476526233E+02   -0.46004E-02   -0.30470E+00   352   0.469E+00    0.515E-01
DAV:   2    -0.494650211399E+02   -0.17369E-01   -0.14452E-01   368   0.149E+00    0.244E+00
DAV:   3    -0.494287167090E+02    0.36304E-01   -0.11240E-01   360   0.138E+00    0.680E-01
DAV:   4    -0.494494905607E+02   -0.20774E-01   -0.88151E-03   360   0.473E-01    0.307E-01
DAV:   5    -0.494502390897E+02   -0.74853E-03   -0.39185E-03   368   0.318E-01    0.337E-01
DAV:   6    -0.494497834922E+02    0.45560E-03   -0.27879E-03   352   0.192E-01    0.163E-01
DAV:   7    -0.494506241418E+02   -0.84065E-03   -0.11711E-03   296   0.137E-01    0.224E-01
DAV:   8    -0.494503862470E+02    0.23789E-03   -0.85527E-04   232   0.131E-01    0.192E-01
DAV:   9    -0.494504261998E+02   -0.39953E-04   -0.66770E-04   240   0.109E-01
  12 F= -.49450426E+02 E0= -.49450426E+02  d E =-.300522E-01  mag=     8.0000
       N       E                     dE             d eps       ncg     rms          rms(c)
DAV:   1    -0.494441841627E+02    0.62021E-02   -0.12198E+01   352   0.938E+00    0.897E-01
DAV:   2    -0.494883383032E+02   -0.44154E-01   -0.36330E-01   368   0.254E+00    0.343E+00
DAV:   3    -0.494249860237E+02    0.63352E-01   -0.24583E-01   360   0.223E+00    0.897E-01
DAV:   4    -0.494552494413E+02   -0.30263E-01   -0.21693E-02   352   0.827E-01    0.563E-01
DAV:   5    -0.494543057424E+02    0.94370E-03   -0.49754E-03   360   0.507E-01    0.256E-01
DAV:   6    -0.494562084255E+02   -0.19027E-02   -0.30578E-03   376   0.322E-01    0.309E-01
DAV:   7    -0.494564333674E+02   -0.22494E-03   -0.33747E-03   360   0.284E-01    0.332E-01
DAV:   8    -0.494559381160E+02    0.49525E-03   -0.23865E-03   336   0.199E-01    0.175E-01
DAV:   9    -0.494567419682E+02   -0.80385E-03   -0.71956E-04   248   0.121E-01    0.728E-02
DAV:  10    -0.494570631015E+02   -0.32113E-03   -0.10336E-04   248   0.746E-02    0.516E-02
DAV:  11    -0.494571507593E+02   -0.87658E-04   -0.49755E-05   224   0.536E-02
  13 F= -.49457151E+02 E0= -.49457151E+02  d E =-.367768E-01  mag=     8.0000
       N       E                     dE             d eps       ncg     rms          rms(c)
DAV:   1    -0.494579694114E+02   -0.90631E-03   -0.12595E+01   352   0.952E+00    0.931E-01
DAV:   2    -0.495140944679E+02   -0.56125E-01   -0.43782E-01   368   0.273E+00    0.378E+00
DAV:   3    -0.494392266598E+02    0.74868E-01   -0.24950E-01   360   0.242E+00    0.861E-01
DAV:   4    -0.494701551767E+02   -0.30929E-01   -0.23497E-02   360   0.791E-01    0.498E-01
DAV:   5    -0.494714453657E+02   -0.12902E-02   -0.12633E-02   360   0.548E-01    0.562E-01
DAV:   6    -0.494703932370E+02    0.10521E-02   -0.81550E-03   360   0.395E-01    0.306E-01
DAV:   7    -0.494718239640E+02   -0.14307E-02   -0.26680E-03   360   0.297E-01    0.294E-01
DAV:   8    -0.494717289203E+02    0.95044E-04   -0.19433E-03   368   0.257E-01    0.185E-01
DAV:   9    -0.494720252876E+02   -0.29637E-03   -0.18369E-03   280   0.174E-01    0.197E-01
DAV:  10    -0.494719504925E+02    0.74795E-04   -0.66119E-04   240   0.110E-01
  14 F= -.49471950E+02 E0= -.49471950E+02  d E =-.147997E-01  mag=     8.0000
       N       E                     dE             d eps       ncg     rms          rms(c)
DAV:   1    -0.494602031565E+02    0.11822E-01   -0.15450E+01   352   0.106E+01    0.109E+00
DAV:   2    -0.495305136210E+02   -0.70310E-01   -0.53127E-01   368   0.314E+00    0.431E+00
DAV:   3    -0.494366233461E+02    0.93890E-01   -0.35827E-01   368   0.280E+00    0.102E+00
DAV:   4    -0.494742553291E+02   -0.37632E-01   -0.29738E-02   360   0.900E-01    0.562E-01
DAV:   5    -0.494760222827E+02   -0.17670E-02   -0.15853E-02   360   0.651E-01    0.649E-01
DAV:   6    -0.494745487552E+02    0.14735E-02   -0.10542E-02   368   0.457E-01    0.344E-01
DAV:   7    -0.494765805171E+02   -0.20318E-02   -0.35172E-03   368   0.354E-01    0.344E-01
DAV:   8    -0.494763409862E+02    0.23953E-03   -0.22315E-03   368   0.299E-01    0.195E-01
DAV:   9    -0.494768397100E+02   -0.49872E-03   -0.22490E-03   304   0.196E-01    0.240E-01
DAV:  10    -0.494766452685E+02    0.19444E-03   -0.11614E-03   240   0.144E-01    0.683E-02
DAV:  11    -0.494769215576E+02   -0.27629E-03   -0.91193E-05   248   0.652E-02    0.351E-02
DAV:  12    -0.494769562604E+02   -0.34703E-04   -0.35800E-05   224   0.468E-02
  15 F= -.49476956E+02 E0= -.49476956E+02  d E =-.198055E-01  mag=     8.0000
       N       E                     dE             d eps       ncg     rms          rms(c)
DAV:   1    -0.494716634355E+02    0.52581E-02   -0.14601E+01   352   0.103E+01    0.116E+00
DAV:   2    -0.495457387651E+02   -0.74075E-01   -0.54481E-01   368   0.324E+00    0.480E+00
DAV:   3    -0.494334678890E+02    0.11227E+00   -0.54467E-01   368   0.298E+00    0.107E+00
DAV:   4    -0.494837227981E+02   -0.50255E-01   -0.24750E-02   360   0.827E-01    0.482E-01
DAV:   5    -0.494841657117E+02   -0.44291E-03   -0.70988E-03   384   0.501E-01    0.428E-01
DAV:   6    -0.494848596602E+02   -0.69395E-03   -0.73535E-03   376   0.390E-01    0.369E-01
DAV:   7    -0.494858621383E+02   -0.10025E-02   -0.49185E-03   368   0.318E-01    0.282E-01
DAV:   8    -0.494861232666E+02   -0.26113E-03   -0.13256E-03   368   0.252E-01    0.154E-01
DAV:   9    -0.494863592404E+02   -0.23597E-03   -0.71343E-04   264   0.145E-01    0.114E-01
DAV:  10    -0.494864303227E+02   -0.71082E-04   -0.45629E-04   256   0.112E-01
  16 F= -.49486430E+02 E0= -.49486430E+02  d E =-.947406E-02  mag=     8.0000
       N       E                     dE             d eps       ncg     rms          rms(c)
DAV:   1    -0.494612877030E+02    0.25072E-01   -0.27965E+01   352   0.142E+01    0.152E+00
DAV:   2    -0.495756166284E+02   -0.11433E+00   -0.82488E-01   368   0.427E+00    0.583E+00
DAV:   3    -0.494189782637E+02    0.15664E+00   -0.86778E-01   368   0.384E+00    0.136E+00
DAV:   4    -0.494854927363E+02   -0.66514E-01   -0.40931E-02   360   0.113E+00    0.683E-01
DAV:   5    -0.494851759773E+02    0.31676E-03   -0.12755E-02   368   0.672E-01    0.555E-01
DAV:   6    -0.494866988711E+02   -0.15229E-02   -0.12044E-02   368   0.535E-01    0.483E-01
DAV:   7    -0.494881222674E+02   -0.14234E-02   -0.88107E-03   368   0.445E-01    0.342E-01
DAV:   8    -0.494889908200E+02   -0.86855E-03   -0.23021E-03   368   0.336E-01    0.202E-01
DAV:   9    -0.494893530257E+02   -0.36221E-03   -0.12032E-03   360   0.208E-01    0.169E-01
DAV:  10    -0.494894326528E+02   -0.79627E-04   -0.88789E-04   280   0.161E-01
  17 F= -.49489433E+02 E0= -.49489433E+02  d E =-.124764E-01  mag=     8.0000
       N       E                     dE             d eps       ncg     rms          rms(c)
DAV:   1    -0.494761304837E+02    0.13223E-01   -0.18087E+01   352   0.114E+01    0.103E+00
DAV:   2    -0.495046309439E+02   -0.28500E-01   -0.33938E-01   368   0.259E+00    0.236E+00
DAV:   3    -0.494865475898E+02    0.18083E-01   -0.19901E-01   360   0.220E+00    0.101E+00
DAV:   4    -0.494921244065E+02   -0.55768E-02   -0.22239E-02   360   0.860E-01    0.504E-01
DAV:   5    -0.494933106756E+02   -0.11863E-02   -0.39097E-03   360   0.549E-01    0.313E-01
DAV:   6    -0.494949006712E+02   -0.15900E-02   -0.37807E-03   376   0.385E-01    0.310E-01
DAV:   7    -0.494952969571E+02   -0.39629E-03   -0.17275E-03   368   0.308E-01    0.166E-01
DAV:   8    -0.494957046172E+02   -0.40766E-03   -0.17748E-03   336   0.213E-01    0.219E-01
DAV:   9    -0.494955742678E+02    0.13035E-03   -0.11740E-03   280   0.166E-01    0.715E-02
DAV:  10    -0.494957988202E+02   -0.22455E-03   -0.14249E-04   272   0.750E-02    0.520E-02
DAV:  11    -0.494958415438E+02   -0.42724E-04   -0.79893E-05   240   0.586E-02
  18 F= -.49495842E+02 E0= -.49495842E+02  d E =-.640889E-02  mag=     8.0000
       N       E                     dE             d eps       ncg     rms          rms(c)
DAV:   1    -0.494942592013E+02    0.15396E-02   -0.16254E+00   352   0.342E+00    0.285E-01
DAV:   2    -0.494963529434E+02   -0.20937E-02   -0.29105E-02   376   0.715E-01    0.540E-01
DAV:   3    -0.494955700437E+02    0.78290E-03   -0.99534E-03   376   0.581E-01    0.276E-01
DAV:   4    -0.494957401458E+02   -0.17010E-03   -0.18994E-03   368   0.250E-01    0.137E-01
DAV:   5    -0.494959840379E+02   -0.24389E-03   -0.38831E-04   280   0.157E-01    0.853E-02
DAV:   6    -0.494961468099E+02   -0.16277E-03   -0.32489E-04   240   0.113E-01    0.970E-02
DAV:   7    -0.494961547592E+02   -0.79493E-05   -0.30769E-04   232   0.979E-02
  19 F= -.49496155E+02 E0= -.49496155E+02  d E =-.672211E-02  mag=     8.0000
       N       E                     dE             d eps       ncg     rms          rms(c)
DAV:   1    -0.494959104172E+02    0.23639E-03   -0.27800E+00   352   0.452E+00    0.387E-01
DAV:   2    -0.494987248972E+02   -0.28145E-02   -0.44927E-02   368   0.865E-01    0.543E-01
DAV:   3    -0.494986477990E+02    0.77098E-04   -0.98068E-03   368   0.691E-01    0.367E-01
DAV:   4    -0.494983837449E+02    0.26405E-03   -0.38417E-03   368   0.323E-01    0.222E-01
DAV:   5    -0.494987854174E+02   -0.40167E-03   -0.14918E-03   352   0.247E-01    0.147E-01
DAV:   6    -0.494989611450E+02   -0.17573E-03   -0.11737E-03   288   0.164E-01    0.136E-01
DAV:   7    -0.494989827892E+02   -0.21644E-04   -0.48852E-04   248   0.135E-01
  20 F= -.49498983E+02 E0= -.49498983E+02  d E =-.282803E-02  mag=     8.0000
       N       E                     dE             d eps       ncg     rms          rms(c)
DAV:   1    -0.494988809216E+02    0.80223E-04   -0.24356E-01   360   0.134E+00    0.140E-01
DAV:   2    -0.494993768789E+02   -0.49596E-03   -0.52356E-03   368   0.356E-01    0.309E-01
DAV:   3    -0.494988812063E+02    0.49567E-03   -0.25392E-03   368   0.302E-01    0.125E-01
DAV:   4    -0.494991088447E+02   -0.22764E-03   -0.42298E-04   248   0.119E-01    0.657E-02
DAV:   5    -0.494991611330E+02   -0.52288E-04   -0.18542E-04   240   0.790E-02
  21 F= -.49499161E+02 E0= -.49499161E+02  d E =-.300637E-02  mag=     8.0000
       N       E                     dE             d eps       ncg     rms          rms(c)
DAV:   1    -0.494981169952E+02    0.99185E-03   -0.23874E+00   352   0.418E+00    0.346E-01
DAV:   2    -0.495042801905E+02   -0.61632E-02   -0.58076E-02   368   0.107E+00    0.105E+00
DAV:   3    -0.494976754728E+02    0.66047E-02   -0.27352E-02   368   0.876E-01    0.251E-01
DAV:   4    -0.495004794940E+02   -0.28040E-02   -0.31000E-03   360   0.306E-01    0.188E-01
DAV:   5    -0.495004726736E+02    0.68204E-05   -0.56532E-04   312   0.174E-01
  22 F= -.49500473E+02 E0= -.49500473E+02  d E =-.131154E-02  mag=     8.0000
       N       E                     dE             d eps       ncg     rms          rms(c)
DAV:   1    -0.495004427975E+02    0.36697E-04   -0.25477E-01   368   0.138E+00    0.162E-01
DAV:   2    -0.495019521185E+02   -0.15093E-02   -0.97720E-03   368   0.504E-01    0.541E-01
DAV:   3    -0.494997944534E+02    0.21577E-02   -0.54359E-03   360   0.427E-01    0.887E-02
DAV:   4    -0.495007062250E+02   -0.91177E-03   -0.47546E-04   296   0.117E-01    0.854E-02
DAV:   5    -0.495007472700E+02   -0.41045E-04   -0.19059E-04   232   0.859E-02
  23 F= -.49500747E+02 E0= -.49500747E+02  d E =-.158614E-02  mag=     8.0000
       N       E                     dE             d eps       ncg     rms          rms(c)
DAV:   1    -0.494999459587E+02    0.76027E-03   -0.12784E+00   368   0.306E+00    0.232E-01
DAV:   2    -0.495019403771E+02   -0.19944E-02   -0.23212E-02   376   0.690E-01    0.450E-01
DAV:   3    -0.495009926736E+02    0.94770E-03   -0.63092E-03   368   0.500E-01    0.191E-01
DAV:   4    -0.495013418340E+02   -0.34916E-03   -0.18922E-03   368   0.226E-01    0.158E-01
DAV:   5    -0.495012822255E+02    0.59608E-04   -0.40607E-04   232   0.123E-01
  24 F= -.49501282E+02 E0= -.49501282E+02  d E =-.534955E-03  mag=     8.0000
       N       E                     dE             d eps       ncg     rms          rms(c)
DAV:   1    -0.495013911323E+02   -0.49298E-04   -0.22034E-02   368   0.415E-01    0.869E-02
DAV:   2    -0.495016960022E+02   -0.30487E-03   -0.16672E-03   368   0.253E-01    0.238E-01
DAV:   3    -0.495012701423E+02    0.42586E-03   -0.94134E-04   320   0.205E-01    0.538E-02
DAV:   4    -0.495014246992E+02   -0.15456E-03   -0.13154E-04   216   0.613E-02    0.386E-02
DAV:   5    -0.495014554739E+02   -0.30775E-04   -0.49313E-05   232   0.392E-02
  25 F= -.49501455E+02 E0= -.49501455E+02  d E =-.708204E-03  mag=     8.0000
