       N       E                     dE             d eps       ncg     rms          rms(c)
DAV:   1     0.100340529556E+04    0.10034E+04   -0.17630E+04   320   0.525E+02
DAV:   2     0.451189352307E+03   -0.55222E+03   -0.49178E+03   608   0.878E+01
DAV:   3     0.433813439602E+02   -0.40781E+03   -0.37907E+03   496   0.829E+01
DAV:   4    -0.390705448126E+02   -0.82452E+02   -0.72916E+02   432   0.397E+01
DAV:   5    -0.470862770827E+02   -0.80157E+01   -0.72799E+01   400   0.125E+01    0.151E+01
DAV:   6    -0.419494052897E+02    0.51369E+01   -0.13985E+01   320   0.112E+01    0.122E+01
DAV:   7    -0.410046057210E+02    0.94480E+00   -0.13505E+01   344   0.232E+01    0.151E+01
DAV:   8    -0.377844312799E+02    0.32202E+01   -0.60781E+00   344   0.164E+01    0.114E+01
DAV:   9    -0.370370049544E+02    0.74743E+00   -0.30778E+00   336   0.114E+01    0.735E+00
DAV:  10    -0.371816624134E+02   -0.14466E+00   -0.19275E+00   344   0.809E+00    0.606E+00
DAV:  11    -0.377224458992E+02   -0.54078E+00   -0.60033E-01   352   0.533E+00    0.432E+00
DAV:  12    -0.379708344807E+02   -0.24839E+00   -0.38513E-01   352   0.384E+00    0.255E+00
DAV:  13    -0.386648800862E+02   -0.69405E+00   -0.15487E-01   352   0.206E+00    0.180E+00
DAV:  14    -0.394909450041E+02   -0.82606E+00   -0.14866E-01   336   0.222E+00    0.160E+00
DAV:  15    -0.407487840006E+02   -0.12578E+01   -0.24568E-01   336   0.205E+00    0.131E+00
DAV:  16    -0.414832535539E+02   -0.73447E+00   -0.17936E-01   368   0.194E+00    0.131E+00
DAV:  17    -0.419881326424E+02   -0.50488E+00   -0.62996E-02   336   0.111E+00    0.876E-01
DAV:  18    -0.423707867209E+02   -0.38265E+00   -0.34242E-02   368   0.565E-01    0.567E-01
DAV:  19    -0.428915806381E+02   -0.52079E+00   -0.49256E-02   336   0.665E-01    0.423E-01
DAV:  20    -0.433030516971E+02   -0.41147E+00   -0.38291E-02   344   0.596E-01    0.416E-01
DAV:  21    -0.435219627687E+02   -0.21891E+00   -0.10937E-02   368   0.337E-01    0.261E-01
DAV:  22    -0.439123540129E+02   -0.39039E+00   -0.35801E-02   352   0.397E-01    0.174E-01
DAV:  23    -0.440792390293E+02   -0.16689E+00   -0.98040E-03   376   0.292E-01    0.164E-01
DAV:  24    -0.441624869913E+02   -0.83248E-01   -0.27127E-03   360   0.194E-01    0.867E-02
DAV:  25    -0.442532363851E+02   -0.90749E-01   -0.33928E-03   376   0.132E-01    0.599E-02
DAV:  26    -0.442920640844E+02   -0.38828E-01   -0.12495E-03   336   0.797E-02    0.363E-02
DAV:  27    -0.443072169224E+02   -0.15153E-01   -0.38971E-04   296   0.402E-02    0.200E-02
DAV:  28    -0.443154881586E+02   -0.82712E-02   -0.26265E-04   272   0.291E-02    0.174E-02
DAV:  29    -0.443193970344E+02   -0.39089E-02   -0.18077E-04   264   0.245E-02    0.985E-03
DAV:  30    -0.443200786038E+02   -0.68157E-03   -0.65989E-05   232   0.156E-02    0.102E-02
DAV:  31    -0.443203688365E+02   -0.29023E-03   -0.38335E-05   216   0.129E-02    0.555E-03
DAV:  32    -0.443207458931E+02   -0.37706E-03   -0.50530E-05   224   0.116E-02    0.414E-03
DAV:  33    -0.443211518018E+02   -0.40591E-03   -0.31837E-05   232   0.970E-03    0.228E-03
DAV:  34    -0.443214442078E+02   -0.29241E-03   -0.21336E-05   224   0.777E-03    0.182E-03
DAV:  35    -0.443215893740E+02   -0.14517E-03   -0.11037E-05   200   0.608E-03    0.113E-03
DAV:  36    -0.443216510165E+02   -0.61642E-04   -0.59660E-06   216   0.408E-03
   1 F= -.44321651E+02 E0= -.44321651E+02  d E =-.443217E+02  mag=     6.0000
       N       E                     dE             d eps       ncg     rms          rms(c)
DAV:   1    -0.443675251568E+02   -0.45936E-01   -0.30394E+00   328   0.497E+00    0.404E-01
DAV:   2    -0.443708162939E+02   -0.32911E-02   -0.49526E-02   336   0.857E-01    0.492E-01
DAV:   3    -0.443713705184E+02   -0.55422E-03   -0.96614E-03   328   0.737E-01    0.561E-01
DAV:   4    -0.443698152727E+02    0.15552E-02   -0.39643E-03   320   0.426E-01    0.313E-01
DAV:   5    -0.443704306574E+02   -0.61538E-03   -0.11218E-03   344   0.330E-01    0.176E-01
DAV:   6    -0.443709929715E+02   -0.56231E-03   -0.12238E-03   328   0.214E-01    0.248E-01
DAV:   7    -0.443705699340E+02    0.42304E-03   -0.27946E-04   272   0.164E-01    0.149E-01
DAV:   8    -0.443706494045E+02   -0.79470E-04   -0.20921E-04   216   0.805E-02
   2 F= -.44370649E+02 E0= -.44370649E+02  d E =-.489984E-01  mag=     6.0000
       N       E                     dE             d eps       ncg     rms          rms(c)
DAV:   1    -0.444581590152E+02   -0.87589E-01   -0.27381E+01   320   0.149E+01    0.128E+00
DAV:   2    -0.444912653133E+02   -0.33106E-01   -0.44843E-01   336   0.259E+00    0.155E+00
DAV:   3    -0.444958224497E+02   -0.45571E-02   -0.10268E-01   328   0.229E+00    0.179E+00
DAV:   4    -0.444818175403E+02    0.14005E-01   -0.43806E-02   328   0.135E+00    0.954E-01
DAV:   5    -0.444855131676E+02   -0.36956E-02   -0.12625E-02   328   0.108E+00    0.539E-01
DAV:   6    -0.444896769752E+02   -0.41638E-02   -0.12324E-02   344   0.630E-01    0.733E-01
DAV:   7    -0.444864956328E+02    0.31813E-02   -0.23356E-03   336   0.480E-01    0.446E-01
DAV:   8    -0.444870443983E+02   -0.54877E-03   -0.14758E-03   336   0.237E-01    0.322E-01
DAV:   9    -0.444880621257E+02   -0.10177E-02   -0.31081E-03   352   0.331E-01    0.242E-01
DAV:  10    -0.444888596860E+02   -0.79756E-03   -0.32296E-03   360   0.270E-01    0.205E-01
DAV:  11    -0.444890408240E+02   -0.18114E-03   -0.10331E-03   328   0.207E-01    0.113E-01
DAV:  12    -0.444891196256E+02   -0.78802E-04   -0.23330E-04   240   0.125E-01
   3 F= -.44489120E+02 E0= -.44489120E+02  d E =-.167469E+00  mag=     6.0000
       N       E                     dE             d eps       ncg     rms          rms(c)
DAV:   1    -0.444478426970E+02    0.41198E-01   -0.10989E+02   320   0.300E+01    0.270E+00
DAV:   2    -0.445847479379E+02   -0.13691E+00   -0.18144E+00   328   0.504E+00    0.555E+00
DAV:   3    -0.445108810561E+02    0.73867E-01   -0.15153E+00   336   0.393E+00    0.274E+00
DAV:   4    -0.445687968051E+02   -0.57916E-01   -0.22518E-01   328   0.293E+00    0.218E+00
DAV:   5    -0.445606666904E+02    0.81301E-02   -0.78623E-02   328   0.251E+00    0.158E+00
DAV:   6    -0.445675516956E+02   -0.68850E-02   -0.45100E-02   320   0.159E+00    0.142E+00
DAV:   7    -0.445675540749E+02   -0.23792E-05   -0.22186E-02   328   0.125E+00    0.897E-01
DAV:   8    -0.445667141504E+02    0.83992E-03   -0.62458E-03   344   0.647E-01    0.675E-01
DAV:   9    -0.445670726478E+02   -0.35850E-03   -0.89319E-03   352   0.620E-01    0.689E-01
DAV:  10    -0.445690313746E+02   -0.19587E-02   -0.96793E-03   336   0.549E-01    0.441E-01
DAV:  11    -0.445708546952E+02   -0.18233E-02   -0.34165E-03   352   0.438E-01    0.364E-01
DAV:  12    -0.445708814099E+02   -0.26715E-04   -0.10679E-03   344   0.242E-01    0.268E-01
DAV:  13    -0.445710764507E+02   -0.19504E-03   -0.68419E-04   280   0.159E-01    0.187E-01
DAV:  14    -0.445719388911E+02   -0.86244E-03   -0.20398E-04   224   0.840E-02    0.158E-01
DAV:  15    -0.445723491275E+02   -0.41024E-03   -0.20462E-04   208   0.799E-02    0.102E-01
DAV:  16    -0.445725930878E+02   -0.24396E-03   -0.99372E-05   224   0.559E-02    0.670E-02
DAV:  17    -0.445728596988E+02   -0.26661E-03   -0.70659E-05   208   0.365E-02    0.321E-02
DAV:  18    -0.445730108118E+02   -0.15111E-03   -0.32397E-05   224   0.285E-02    0.132E-02
DAV:  19    -0.445731195966E+02   -0.10878E-03   -0.14948E-05   224   0.184E-02    0.999E-03
DAV:  20    -0.445732342891E+02   -0.11469E-03   -0.81011E-06   216   0.966E-03    0.912E-03
DAV:  21    -0.445733101289E+02   -0.75840E-04   -0.42963E-06   232   0.697E-03
   4 F= -.44573310E+02 E0= -.44573310E+02  d E =-.251659E+00  mag=     6.0000
       N       E                     dE             d eps       ncg     rms          rms(c)
DAV:   1    -0.445729117058E+02    0.32258E-03   -0.21267E+00   320   0.417E+00    0.389E-01
DAV:   2    -0.445750659719E+02   -0.21543E-02   -0.34319E-02   328   0.702E-01    0.376E-01
DAV:   3    -0.445761717304E+02   -0.11058E-02   -0.89015E-03   336   0.658E-01    0.558E-01
DAV:   4    -0.445743131568E+02    0.18586E-02   -0.42951E-03   328   0.416E-01    0.277E-01
DAV:   5    -0.445751885852E+02   -0.87543E-03   -0.10955E-03   336   0.314E-01    0.151E-01
DAV:   6    -0.445755226614E+02   -0.33408E-03   -0.10158E-03   296   0.196E-01    0.203E-01
DAV:   7    -0.445752656419E+02    0.25702E-03   -0.25773E-04   248   0.148E-01    0.135E-01
DAV:   8    -0.445752729940E+02   -0.73521E-05   -0.19175E-04   224   0.723E-02
   5 F= -.44575273E+02 E0= -.44575273E+02  d E =-.253622E+00  mag=     6.0000
       N       E                     dE             d eps       ncg     rms          rms(c)
DAV:   1    -0.445831692890E+02   -0.79036E-02   -0.17164E+00   344   0.374E+00    0.351E-01
DAV:   2    -0.445884343782E+02   -0.52651E-02   -0.48946E-02   328   0.103E+00    0.109E+00
DAV:   3    -0.445810426282E+02    0.73917E-02   -0.25125E-02   328   0.928E-01    0.380E-01
DAV:   4    -0.445846472211E+02   -0.36046E-02   -0.31960E-03   328   0.354E-01    0.160E-01
DAV:   5    -0.445847744494E+02   -0.12723E-03   -0.13316E-03   336   0.202E-01    0.122E-01
DAV:   6    -0.445849024603E+02   -0.12801E-03   -0.38248E-04   208   0.143E-01    0.125E-01
DAV:   7    -0.445848672536E+02    0.35207E-04   -0.20620E-04   200   0.107E-01
   6 F= -.44584867E+02 E0= -.44584867E+02  d E =-.959426E-02  mag=     6.0000
       N       E                     dE             d eps       ncg     rms          rms(c)
DAV:   1    -0.445848525485E+02    0.49912E-04   -0.15460E+01   320   0.112E+01    0.958E-01
DAV:   2    -0.446259631820E+02   -0.41111E-01   -0.36060E-01   328   0.276E+00    0.291E+00
DAV:   3    -0.445816726244E+02    0.44291E-01   -0.15193E-01   328   0.241E+00    0.947E-01
DAV:   4    -0.445991941257E+02   -0.17522E-01   -0.21275E-02   320   0.973E-01    0.496E-01
DAV:   5    -0.445987190356E+02    0.47509E-03   -0.11056E-02   336   0.629E-01    0.363E-01
DAV:   6    -0.445998773045E+02   -0.11583E-02   -0.40213E-03   328   0.464E-01    0.380E-01
DAV:   7    -0.445994459842E+02    0.43132E-03   -0.23954E-03   320   0.363E-01    0.287E-01
DAV:   8    -0.445995787715E+02   -0.13279E-03   -0.91534E-04   336   0.234E-01    0.219E-01
DAV:   9    -0.445999328120E+02   -0.35404E-03   -0.10282E-03   320   0.219E-01    0.128E-01
DAV:  10    -0.446003186403E+02   -0.38583E-03   -0.35529E-04   264   0.143E-01    0.757E-02
DAV:  11    -0.446004531931E+02   -0.13455E-03   -0.12120E-04   208   0.852E-02    0.409E-02
DAV:  12    -0.446005650345E+02   -0.11184E-03   -0.45040E-05   208   0.377E-02    0.269E-02
DAV:  13    -0.446006371189E+02   -0.72084E-04   -0.18069E-05   216   0.316E-02
   7 F= -.44600637E+02 E0= -.44600637E+02  d E =-.253641E-01  mag=     6.0000
       N       E                     dE             d eps       ncg     rms          rms(c)
DAV:   1    -0.445997797779E+02    0.78526E-03   -0.20339E+00   320   0.407E+00    0.360E-01
DAV:   2    -0.446055081059E+02   -0.57283E-02   -0.52444E-02   328   0.106E+00    0.111E+00
DAV:   3    -0.445980146825E+02    0.74934E-02   -0.23695E-02   320   0.945E-01    0.349E-01
DAV:   4    -0.446016113114E+02   -0.35966E-02   -0.27789E-03   320   0.364E-01    0.176E-01
DAV:   5    -0.446015555328E+02    0.55779E-04   -0.14411E-03   328   0.219E-01    0.115E-01
DAV:   6    -0.446017662809E+02   -0.21075E-03   -0.50568E-04   240   0.156E-01    0.135E-01
DAV:   7    -0.446017262399E+02    0.40041E-04   -0.32530E-04   200   0.131E-01
   8 F= -.44601726E+02 E0= -.44601726E+02  d E =-.264532E-01  mag=     6.0000
       N       E                     dE             d eps       ncg     rms          rms(c)
DAV:   1    -0.446046547966E+02   -0.28885E-02   -0.22499E+00   320   0.422E+00    0.306E-01
DAV:   2    -0.446101391586E+02   -0.54844E-02   -0.44108E-02   328   0.107E+00    0.843E-01
DAV:   3    -0.446054201044E+02    0.47191E-02   -0.13382E-02   328   0.852E-01    0.231E-01
DAV:   4    -0.446070826042E+02   -0.16625E-02   -0.20557E-03   328   0.317E-01    0.171E-01
DAV:   5    -0.446070383766E+02    0.44228E-04   -0.34288E-04   272   0.162E-01
   9 F= -.44607038E+02 E0= -.44607038E+02  d E =-.531214E-02  mag=     6.0000
       N       E                     dE             d eps       ncg     rms          rms(c)
DAV:   1    -0.445928623032E+02    0.14220E-01   -0.20222E+01   320   0.127E+01    0.920E-01
DAV:   2    -0.446409387464E+02   -0.48076E-01   -0.36958E-01   328   0.313E+00    0.259E+00
DAV:   3    -0.446019741893E+02    0.38965E-01   -0.95383E-02   328   0.247E+00    0.747E-01
DAV:   4    -0.446124865775E+02   -0.10512E-01   -0.16785E-02   328   0.977E-01    0.556E-01
DAV:   5    -0.446122066009E+02    0.27998E-03   -0.59021E-03   328   0.591E-01    0.438E-01
DAV:   6    -0.446120612388E+02    0.14536E-03   -0.39279E-03   344   0.383E-01    0.268E-01
DAV:   7    -0.446126304658E+02   -0.56923E-03   -0.16853E-03   336   0.285E-01    0.189E-01
DAV:   8    -0.446127646859E+02   -0.13422E-03   -0.95944E-04   336   0.250E-01    0.113E-01
DAV:   9    -0.446129624616E+02   -0.19778E-03   -0.37866E-04   272   0.147E-01    0.599E-02
DAV:  10    -0.446131501436E+02   -0.18768E-03   -0.17597E-04   216   0.805E-02    0.391E-02
DAV:  11    -0.446132869223E+02   -0.13678E-03   -0.27025E-05   216   0.357E-02    0.245E-02
DAV:  12    -0.446133549137E+02   -0.67991E-04   -0.15018E-05   216   0.249E-02
  10 F= -.44613355E+02 E0= -.44613355E+02  d E =-.116287E-01  mag=     6.0000
       N       E                     dE             d eps       ncg     rms          rms(c)
DAV:   1    -0.446146696142E+02   -0.13827E-02   -0.39217E+00   320   0.564E+00    0.340E-01
DAV:   2    -0.446209369955E+02   -0.62674E-02   -0.65625E-02   328   0.117E+00    0.751E-01
DAV:   3    -0.446181177952E+02    0.28192E-02   -0.11855E-02   328   0.857E-01    0.324E-01
DAV:   4    -0.446190038328E+02   -0.88604E-03   -0.31978E-03   320   0.354E-01    0.259E-01
DAV:   5    -0.446188392247E+02    0.16461E-03   -0.10876E-03   312   0.207E-01    0.887E-02
DAV:   6    -0.446191922312E+02   -0.35301E-03   -0.26463E-04   232   0.112E-01    0.955E-02
DAV:   7    -0.446193785173E+02   -0.18629E-03   -0.22906E-04   240   0.121E-01    0.924E-02
DAV:   8    -0.446194005234E+02   -0.22006E-04   -0.17165E-04   192   0.104E-01
  11 F= -.44619401E+02 E0= -.44619401E+02  d E =-.604561E-02  mag=     6.0000
       N       E                     dE             d eps       ncg     rms          rms(c)
DAV:   1    -0.445916282299E+02    0.27750E-01   -0.35377E+01   320   0.170E+01    0.101E+00
DAV:   2    -0.446483816889E+02   -0.56753E-01   -0.58199E-01   328   0.347E+00    0.226E+00
DAV:   3    -0.446238295825E+02    0.24552E-01   -0.11984E-01   328   0.252E+00    0.974E-01
DAV:   4    -0.446298179909E+02   -0.59884E-02   -0.25961E-02   320   0.104E+00    0.766E-01
DAV:   5    -0.446279567548E+02    0.18612E-02   -0.10346E-02   320   0.612E-01    0.272E-01
DAV:   6    -0.446301455042E+02   -0.21887E-02   -0.30402E-03   328   0.352E-01    0.285E-01
DAV:   7    -0.446304853457E+02   -0.33984E-03   -0.48877E-03   344   0.403E-01    0.345E-01
DAV:   8    -0.446299810578E+02    0.50429E-03   -0.19316E-03   344   0.311E-01    0.147E-01
DAV:   9    -0.446305107174E+02   -0.52966E-03   -0.38620E-04   288   0.158E-01    0.578E-02
DAV:  10    -0.446307246657E+02   -0.21395E-03   -0.10927E-04   208   0.776E-02    0.308E-02
DAV:  11    -0.446309514940E+02   -0.22683E-03   -0.26992E-05   216   0.336E-02    0.206E-02
DAV:  12    -0.446310895275E+02   -0.13803E-03   -0.18671E-05   216   0.246E-02    0.151E-02
DAV:  13    -0.446312552736E+02   -0.16575E-03   -0.10897E-05   232   0.157E-02    0.102E-02
DAV:  14    -0.446314192526E+02   -0.16398E-03   -0.78299E-06   208   0.119E-02    0.677E-03
DAV:  15    -0.446315836115E+02   -0.16436E-03   -0.61499E-06   232   0.983E-03    0.408E-03
DAV:  16    -0.446317064981E+02   -0.12289E-03   -0.38015E-06   208   0.628E-03    0.364E-03
DAV:  17    -0.446317886315E+02   -0.82133E-04   -0.21997E-06   216   0.395E-03
  12 F= -.44631789E+02 E0= -.44631789E+02  d E =-.184337E-01  mag=     6.0000
       N       E                     dE             d eps       ncg     rms          rms(c)
DAV:   1    -0.444723039039E+02    0.15940E+00   -0.14269E+02   320   0.343E+01    0.198E+00
DAV:   2    -0.447034680971E+02   -0.23116E+00   -0.23404E+00   328   0.679E+00    0.457E+00
DAV:   3    -0.446069059949E+02    0.96562E-01   -0.53055E-01   320   0.486E+00    0.178E+00
DAV:   4    -0.446299961930E+02   -0.23090E-01   -0.96620E-02   320   0.198E+00    0.147E+00
DAV:   5    -0.446221273211E+02    0.78689E-02   -0.46692E-02   320   0.123E+00    0.657E-01
DAV:   6    -0.446281024481E+02   -0.59751E-02   -0.12944E-02   328   0.731E-01    0.669E-01
DAV:   7    -0.446273327685E+02    0.76968E-03   -0.19990E-02   336   0.795E-01    0.703E-01
DAV:   8    -0.446262263169E+02    0.11065E-02   -0.83729E-03   344   0.644E-01    0.346E-01
DAV:   9    -0.446276653242E+02   -0.14390E-02   -0.25560E-03   352   0.371E-01    0.178E-01
DAV:  10    -0.446284516986E+02   -0.78637E-03   -0.11926E-03   336   0.210E-01    0.790E-02
DAV:  11    -0.446291294746E+02   -0.67778E-03   -0.19940E-04   216   0.922E-02    0.601E-02
DAV:  12    -0.446295144285E+02   -0.38495E-03   -0.60213E-05   216   0.694E-02    0.394E-02
DAV:  13    -0.446300932201E+02   -0.57879E-03   -0.51279E-05   224   0.343E-02    0.262E-02
DAV:  14    -0.446305506311E+02   -0.45741E-03   -0.43019E-05   224   0.306E-02    0.164E-02
DAV:  15    -0.446308250737E+02   -0.27444E-03   -0.18685E-05   232   0.198E-02    0.177E-02
DAV:  16    -0.446311179213E+02   -0.29285E-03   -0.11453E-05   200   0.120E-02    0.118E-02
DAV:  17    -0.446313898798E+02   -0.27196E-03   -0.95106E-06   216   0.105E-02    0.558E-03
DAV:  18    -0.446316846344E+02   -0.29475E-03   -0.79611E-06   216   0.787E-03    0.425E-03
DAV:  19    -0.446319822660E+02   -0.29763E-03   -0.72725E-06   208   0.466E-03    0.301E-03
DAV:  20    -0.446323269182E+02   -0.34465E-03   -0.94895E-06   208   0.474E-03    0.199E-03
DAV:  21    -0.446326615666E+02   -0.33465E-03   -0.11998E-05   232   0.505E-03    0.142E-03
DAV:  22    -0.446328631378E+02   -0.20157E-03   -0.96491E-06   232   0.468E-03    0.103E-03
DAV:  23    -0.446329543187E+02   -0.91181E-04   -0.74932E-06   240   0.404E-03
  13 F= -.44632954E+02 E0= -.44632954E+02  d E =-.195994E-01  mag=     6.0000
       N       E                     dE             d eps       ncg     rms          rms(c)
DAV:   1    -0.446191742455E+02    0.13689E-01   -0.23047E+01   320   0.137E+01    0.119E+00
DAV:   2    -0.447096466437E+02   -0.90472E-01   -0.83287E-01   328   0.380E+00    0.608E+00
DAV:   3    -0.445343420143E+02    0.17530E+00   -0.80421E-01   328   0.260E+00    0.189E+00
DAV:   4    -0.446305280336E+02   -0.96186E-01   -0.64697E-02   336   0.198E+00    0.846E-01
DAV:   5    -0.446409048358E+02   -0.10377E-01   -0.21139E-02   336   0.100E+00    0.746E-01
DAV:   6    -0.446396135101E+02    0.12913E-02   -0.14786E-02   328   0.731E-01    0.402E-01
DAV:   7    -0.446409279171E+02   -0.13144E-02   -0.47056E-03   352   0.422E-01    0.270E-01
DAV:   8    -0.446409823305E+02   -0.54413E-04   -0.18609E-03   368   0.314E-01    0.121E-01
DAV:   9    -0.446413147302E+02   -0.33240E-03   -0.97684E-04   336   0.226E-01    0.124E-01
DAV:  10    -0.446413664129E+02   -0.51683E-04   -0.77473E-04   248   0.149E-01
  14 F= -.44641366E+02 E0= -.44641366E+02  d E =-.841209E-02  mag=     6.0000
       N       E                     dE             d eps       ncg     rms          rms(c)
DAV:   1    -0.446409015590E+02    0.41317E-03   -0.16117E+00   320   0.363E+00    0.301E-01
DAV:   2    -0.446453413456E+02   -0.44398E-02   -0.35407E-02   320   0.956E-01    0.900E-01
DAV:   3    -0.446398161535E+02    0.55252E-02   -0.13302E-02   320   0.799E-01    0.258E-01
DAV:   4    -0.446428353091E+02   -0.30192E-02   -0.29574E-03   328   0.301E-01    0.198E-01
DAV:   5    -0.446427711597E+02    0.64149E-04   -0.13065E-03   296   0.203E-01    0.135E-01
DAV:   6    -0.446429347333E+02   -0.16357E-03   -0.27245E-04   232   0.134E-01    0.945E-02
DAV:   7    -0.446431289108E+02   -0.19418E-03   -0.19756E-04   224   0.109E-01    0.658E-02
DAV:   8    -0.446431889246E+02   -0.60014E-04   -0.10775E-04   232   0.844E-02
  15 F= -.44643189E+02 E0= -.44643189E+02  d E =-.102346E-01  mag=     6.0000
       N       E                     dE             d eps       ncg     rms          rms(c)
DAV:   1    -0.446395783056E+02    0.35506E-02   -0.75894E+00   320   0.782E+00    0.638E-01
DAV:   2    -0.446552798367E+02   -0.15702E-01   -0.14938E-01   336   0.196E+00    0.158E+00
DAV:   3    -0.446410797847E+02    0.14200E-01   -0.47843E-02   336   0.163E+00    0.519E-01
DAV:   4    -0.446464689643E+02   -0.53892E-02   -0.89504E-03   328   0.649E-01    0.349E-01
DAV:   5    -0.446464084070E+02    0.60557E-04   -0.34753E-03   352   0.384E-01    0.264E-01
DAV:   6    -0.446464051336E+02    0.32734E-05   -0.20300E-03   352   0.254E-01    0.213E-01
DAV:   7    -0.446466167837E+02   -0.21165E-03   -0.10917E-03   328   0.224E-01    0.162E-01
DAV:   8    -0.446465807547E+02    0.36029E-04   -0.46012E-04   280   0.172E-01
  16 F= -.44646581E+02 E0= -.44646581E+02  d E =-.339183E-02  mag=     6.0000
       N       E                     dE             d eps       ncg     rms          rms(c)
DAV:   1    -0.446466684637E+02   -0.51680E-04   -0.22912E-01   320   0.136E+00    0.140E-01
DAV:   2    -0.446473169936E+02   -0.64853E-03   -0.59207E-03   328   0.427E-01    0.372E-01
DAV:   3    -0.446464375187E+02    0.87947E-03   -0.26319E-03   328   0.367E-01    0.102E-01
DAV:   4    -0.446469456833E+02   -0.50816E-03   -0.47192E-04   272   0.138E-01    0.768E-02
DAV:   5    -0.446469709556E+02   -0.25272E-04   -0.75503E-05   208   0.764E-02
  17 F= -.44646971E+02 E0= -.44646971E+02  d E =-.378203E-02  mag=     6.0000
       N       E                     dE             d eps       ncg     rms          rms(c)
DAV:   1    -0.446438519395E+02    0.30937E-02   -0.59725E+00   320   0.692E+00    0.488E-01
DAV:   2    -0.446518062521E+02   -0.79543E-02   -0.10156E-01   336   0.141E+00    0.906E-01
DAV:   3    -0.446500984349E+02    0.17078E-02   -0.30362E-02   336   0.114E+00    0.713E-01
DAV:   4    -0.446475359196E+02    0.25625E-02   -0.60736E-03   320   0.447E-01    0.242E-01
DAV:   5    -0.446492376511E+02   -0.17017E-02   -0.17834E-03   344   0.287E-01    0.193E-01
DAV:   6    -0.446498936677E+02   -0.65602E-03   -0.30093E-03   352   0.226E-01    0.211E-01
DAV:   7    -0.446501420897E+02   -0.24842E-03   -0.87752E-04   288   0.189E-01    0.985E-02
DAV:   8    -0.446504304764E+02   -0.28839E-03   -0.24596E-04   208   0.119E-01    0.107E-01
DAV:   9    -0.446504637689E+02   -0.33293E-04   -0.11191E-04   224   0.832E-02
  18 F= -.44650464E+02 E0= -.44650464E+02  d E =-.349281E-02  mag=     6.0000
       N       E                     dE             d eps       ncg     rms          rms(c)
DAV:   1    -0.446153402788E+02    0.35090E-01   -0.32421E+01   320   0.162E+01    0.104E+00
DAV:   2    -0.446565914563E+02   -0.41251E-01   -0.52346E-01   336   0.305E+00    0.166E+00
DAV:   3    -0.446460066762E+02    0.10585E-01   -0.80384E-02   336   0.214E+00    0.826E-01
DAV:   4    -0.446483728213E+02   -0.23661E-02   -0.20114E-02   320   0.954E-01    0.764E-01
DAV:   5    -0.446494606750E+02   -0.10879E-02   -0.11740E-02   320   0.832E-01    0.495E-01
DAV:   6    -0.446504054587E+02   -0.94478E-03   -0.16328E-02   344   0.543E-01    0.494E-01
DAV:   7    -0.446503474020E+02    0.58057E-04   -0.43709E-03   344   0.413E-01    0.212E-01
DAV:   8    -0.446514502877E+02   -0.11029E-02   -0.14757E-03   336   0.287E-01    0.278E-01
DAV:   9    -0.446511497841E+02    0.30050E-03   -0.76824E-04   288   0.187E-01    0.103E-01
DAV:  10    -0.446518193255E+02   -0.66954E-03   -0.64624E-04   296   0.152E-01    0.109E-01
DAV:  11    -0.446520121808E+02   -0.19286E-03   -0.27399E-04   232   0.111E-01    0.717E-02
DAV:  12    -0.446521316585E+02   -0.11948E-03   -0.77249E-05   208   0.569E-02    0.421E-02
DAV:  13    -0.446522325386E+02   -0.10088E-03   -0.28589E-05   216   0.351E-02    0.177E-02
DAV:  14    -0.446524000733E+02   -0.16753E-03   -0.14232E-05   208   0.176E-02    0.125E-02
DAV:  15    -0.446525072221E+02   -0.10715E-03   -0.82643E-06   224   0.150E-02    0.795E-03
DAV:  16    -0.446526219156E+02   -0.11469E-03   -0.44366E-06   208   0.843E-03    0.339E-03
DAV:  17    -0.446527460872E+02   -0.12417E-03   -0.33391E-06   240   0.464E-03    0.223E-03
DAV:  18    -0.446528329242E+02   -0.86837E-04   -0.18855E-06   224   0.361E-03
  19 F= -.44652833E+02 E0= -.44652833E+02  d E =-.586197E-02  mag=     6.0000
       N       E                     dE             d eps       ncg     rms          rms(c)
DAV:   1    -0.446503272135E+02    0.24189E-02   -0.95013E+00   320   0.883E+00    0.685E-01
DAV:   2    -0.446637280399E+02   -0.13401E-01   -0.15486E-01   336   0.175E+00    0.127E+00
DAV:   3    -0.446587217277E+02    0.50063E-02   -0.37290E-02   336   0.144E+00    0.746E-01
DAV:   4    -0.446584894648E+02    0.23226E-03   -0.10549E-02   328   0.659E-01    0.343E-01
DAV:   5    -0.446598652804E+02   -0.13758E-02   -0.26933E-03   336   0.471E-01    0.244E-01
DAV:   6    -0.446606697989E+02   -0.80452E-03   -0.52977E-03   352   0.330E-01    0.376E-01
DAV:   7    -0.446598395338E+02    0.83027E-03   -0.14477E-03   336   0.252E-01    0.186E-01
DAV:   8    -0.446602966312E+02   -0.45710E-03   -0.48520E-04   288   0.169E-01    0.135E-01
DAV:   9    -0.446604621432E+02   -0.16551E-03   -0.30721E-04   232   0.129E-01    0.615E-02
DAV:  10    -0.446606388402E+02   -0.17670E-03   -0.21937E-04   216   0.989E-02    0.738E-02
DAV:  11    -0.446606316768E+02    0.71634E-05   -0.91563E-05   216   0.667E-02
  20 F= -.44660632E+02 E0= -.44660632E+02  d E =-.779875E-02  mag=     6.0000
       N       E                     dE             d eps       ncg     rms          rms(c)
DAV:   1    -0.446605987289E+02    0.40111E-04   -0.99547E-02   344   0.905E-01    0.739E-02
DAV:   2    -0.446607390418E+02   -0.14031E-03   -0.16774E-03   328   0.180E-01    0.120E-01
DAV:   3    -0.446607155480E+02    0.23494E-04   -0.34942E-04   256   0.148E-01
  21 F= -.44660716E+02 E0= -.44660716E+02  d E =-.788262E-02  mag=     6.0000
       N       E                     dE             d eps       ncg     rms          rms(c)
DAV:   1    -0.446586635275E+02    0.20755E-02   -0.78834E+00   320   0.800E+00    0.629E-01
DAV:   2    -0.446677840671E+02   -0.91205E-02   -0.13684E-01   336   0.164E+00    0.955E-01
DAV:   3    -0.446661684666E+02    0.16156E-02   -0.40108E-02   320   0.132E+00    0.682E-01
DAV:   4    -0.446649388978E+02    0.12296E-02   -0.76747E-03   320   0.578E-01    0.324E-01
DAV:   5    -0.446664844524E+02   -0.15456E-02   -0.27764E-03   328   0.414E-01    0.236E-01
DAV:   6    -0.446670608361E+02   -0.57638E-03   -0.16264E-03   352   0.294E-01    0.195E-01
DAV:   7    -0.446670655003E+02   -0.46642E-05   -0.49081E-04   320   0.186E-01
  22 F= -.44667066E+02 E0= -.44667066E+02  d E =-.634995E-02  mag=     6.0000
       N       E                     dE             d eps       ncg     rms          rms(c)
DAV:   1    -0.446438533636E+02    0.23207E-01   -0.23603E+01   320   0.139E+01    0.975E-01
DAV:   2    -0.446742940061E+02   -0.30441E-01   -0.38193E-01   328   0.273E+00    0.156E+00
DAV:   3    -0.446660956751E+02    0.81983E-02   -0.79207E-02   320   0.207E+00    0.867E-01
DAV:   4    -0.446678942583E+02   -0.17986E-02   -0.15092E-02   320   0.949E-01    0.583E-01
DAV:   5    -0.446686166497E+02   -0.72239E-03   -0.50780E-03   320   0.637E-01    0.355E-01
DAV:   6    -0.446698021790E+02   -0.11855E-02   -0.35342E-03   344   0.446E-01    0.279E-01
DAV:   7    -0.446698703227E+02   -0.68144E-04   -0.13436E-03   344   0.325E-01    0.191E-01
DAV:   8    -0.446700546860E+02   -0.18436E-03   -0.91683E-04   304   0.247E-01    0.175E-01
DAV:   9    -0.446701551824E+02   -0.10050E-03   -0.10254E-03   240   0.168E-01    0.983E-02
DAV:  10    -0.446703675716E+02   -0.21239E-03   -0.25337E-04   216   0.112E-01    0.676E-02
DAV:  11    -0.446704367479E+02   -0.69176E-04   -0.14632E-04   216   0.802E-02
  23 F= -.44670437E+02 E0= -.44670437E+02  d E =-.972120E-02  mag=     6.0000
       N       E                     dE             d eps       ncg     rms          rms(c)
DAV:   1    -0.446681969858E+02    0.21706E-02   -0.64056E+00   320   0.708E+00    0.409E-01
DAV:   2    -0.446756852393E+02   -0.74883E-02   -0.95603E-02   320   0.122E+00    0.635E-01
DAV:   3    -0.446749476829E+02    0.73756E-03   -0.10553E-02   320   0.837E-01    0.373E-01
DAV:   4    -0.446752925158E+02   -0.34483E-03   -0.22342E-03   320   0.426E-01    0.253E-01
DAV:   5    -0.446752515041E+02    0.41012E-04   -0.13979E-03   320   0.251E-01    0.140E-01
DAV:   6    -0.446755136327E+02   -0.26213E-03   -0.49520E-04   312   0.176E-01    0.109E-01
DAV:   7    -0.446756010497E+02   -0.87417E-04   -0.33099E-04   232   0.148E-01
  24 F= -.44675601E+02 E0= -.44675601E+02  d E =-.516430E-02  mag=     6.0000
       N       E                     dE             d eps       ncg     rms          rms(c)
DAV:   1    -0.446133010190E+02    0.62213E-01   -0.58045E+01   320   0.214E+01    0.114E+00
DAV:   2    -0.446860681890E+02   -0.72767E-01   -0.85846E-01   328   0.364E+00    0.184E+00
DAV:   3    -0.446776280004E+02    0.84402E-02   -0.91085E-02   328   0.240E+00    0.992E-01
DAV:   4    -0.446790142911E+02   -0.13863E-02   -0.17646E-02   320   0.117E+00    0.651E-01
DAV:   5    -0.446780882918E+02    0.92600E-03   -0.69923E-03   320   0.643E-01    0.371E-01
DAV:   6    -0.446796663002E+02   -0.15780E-02   -0.41748E-03   328   0.478E-01    0.350E-01
DAV:   7    -0.446801099936E+02   -0.44369E-03   -0.36263E-03   344   0.458E-01    0.250E-01
DAV:   8    -0.446801952099E+02   -0.85216E-04   -0.13083E-03   352   0.316E-01    0.142E-01
DAV:   9    -0.446804426454E+02   -0.24744E-03   -0.48384E-04   248   0.147E-01    0.658E-02
DAV:  10    -0.446806622721E+02   -0.21963E-03   -0.13483E-04   224   0.981E-02    0.468E-02
DAV:  11    -0.446808424439E+02   -0.18017E-03   -0.60861E-05   200   0.525E-02    0.224E-02
DAV:  12    -0.446809540426E+02   -0.11160E-03   -0.15681E-05   232   0.206E-02    0.130E-02
DAV:  13    -0.446810485363E+02   -0.94494E-04   -0.82573E-06   216   0.155E-02
  25 F= -.44681049E+02 E0= -.44681049E+02  d E =-.106118E-01  mag=     6.0000
       N       E                     dE             d eps       ncg     rms          rms(c)
DAV:   1    -0.446780763704E+02    0.28777E-02   -0.10052E+01   320   0.862E+00    0.432E-01
DAV:   2    -0.446892558248E+02   -0.11179E-01   -0.14581E-01   344   0.138E+00    0.629E-01
DAV:   3    -0.446896422333E+02   -0.38641E-03   -0.14236E-02   336   0.919E-01    0.451E-01
DAV:   4    -0.446890160139E+02    0.62622E-03   -0.27356E-03   328   0.433E-01    0.190E-01
DAV:   5    -0.446894915890E+02   -0.47558E-03   -0.57563E-04   336   0.207E-01    0.123E-01
DAV:   6    -0.446897272448E+02   -0.23566E-03   -0.56453E-04   328   0.159E-01    0.133E-01
DAV:   7    -0.446898262342E+02   -0.98989E-04   -0.56398E-04   328   0.159E-01
  26 F= -.44689826E+02 E0= -.44689826E+02  d E =-.877770E-02  mag=     6.0000
       N       E                     dE             d eps       ncg     rms          rms(c)
DAV:   1    -0.446026544930E+02    0.87073E-01   -0.91959E+01   320   0.262E+01    0.133E+00
DAV:   2    -0.447199520753E+02   -0.11730E+00   -0.13742E+00   352   0.436E+00    0.215E+00
DAV:   3    -0.447114747509E+02    0.84773E-02   -0.15053E-01   336   0.293E+00    0.133E+00
DAV:   4    -0.447074838343E+02    0.39909E-02   -0.24163E-02   320   0.132E+00    0.538E-01
DAV:   5    -0.447100300427E+02   -0.25462E-02   -0.54492E-03   352   0.602E-01    0.367E-01
DAV:   6    -0.447110117391E+02   -0.98170E-03   -0.47767E-03   344   0.444E-01    0.369E-01
DAV:   7    -0.447113971826E+02   -0.38544E-03   -0.50114E-03   344   0.475E-01    0.185E-01
DAV:   8    -0.447121329034E+02   -0.73572E-03   -0.10631E-03   336   0.264E-01    0.146E-01
DAV:   9    -0.447122325333E+02   -0.99630E-04   -0.30309E-04   240   0.157E-01
  27 F= -.44712233E+02 E0= -.44712233E+02  d E =-.311840E-01  mag=     6.0000
       N       E                     dE             d eps       ncg     rms          rms(c)
DAV:   1    -0.442709183665E+02    0.44121E+00   -0.38663E+02   320   0.545E+01    0.285E+00
DAV:   2    -0.448414437436E+02   -0.57053E+00   -0.61003E+00   336   0.958E+00    0.553E+00
DAV:   3    -0.447327307401E+02    0.10871E+00   -0.79314E-01   328   0.666E+00    0.262E+00
DAV:   4    -0.447269879088E+02    0.57428E-02   -0.17015E-01   320   0.286E+00    0.103E+00
DAV:   5    -0.447296580884E+02   -0.26702E-02   -0.23733E-02   344   0.115E+00    0.736E-01
DAV:   6    -0.447306461045E+02   -0.98802E-03   -0.15485E-02   336   0.779E-01    0.613E-01
DAV:   7    -0.447319550170E+02   -0.13089E-02   -0.17954E-02   336   0.871E-01    0.316E-01
DAV:   8    -0.447345140829E+02   -0.25591E-02   -0.28010E-03   344   0.391E-01    0.181E-01
DAV:   9    -0.447351841442E+02   -0.67006E-03   -0.79642E-04   336   0.268E-01    0.149E-01
DAV:  10    -0.447360530991E+02   -0.86895E-03   -0.42681E-04   256   0.155E-01    0.686E-02
DAV:  11    -0.447367992329E+02   -0.74613E-03   -0.16665E-04   248   0.955E-02    0.511E-02
DAV:  12    -0.447376083239E+02   -0.80909E-03   -0.11110E-04   208   0.643E-02    0.301E-02
DAV:  13    -0.447382124375E+02   -0.60411E-03   -0.66177E-05   232   0.475E-02    0.206E-02
DAV:  14    -0.447386455175E+02   -0.43308E-03   -0.28832E-05   208   0.278E-02    0.104E-02
DAV:  15    -0.447390488891E+02   -0.40337E-03   -0.14655E-05   216   0.150E-02    0.742E-03
DAV:  16    -0.447393864029E+02   -0.33751E-03   -0.93767E-06   208   0.105E-02    0.403E-03
DAV:  17    -0.447398190680E+02   -0.43267E-03   -0.10496E-05   208   0.663E-03    0.326E-03
DAV:  18    -0.447401354972E+02   -0.31643E-03   -0.80641E-06   232   0.598E-03    0.301E-03
DAV:  19    -0.447403855680E+02   -0.25007E-03   -0.67935E-06   200   0.582E-03    0.214E-03
DAV:  20    -0.447407075743E+02   -0.32201E-03   -0.10082E-05   224   0.520E-03    0.138E-03
DAV:  21    -0.447408890366E+02   -0.18146E-03   -0.76898E-06   232   0.439E-03    0.792E-04
DAV:  22    -0.447409821667E+02   -0.93130E-04   -0.53651E-06   240   0.355E-03
  28 F= -.44740982E+02 E0= -.44740982E+02  d E =-.599336E-01  mag=     6.0000
       N       E                     dE             d eps       ncg     rms          rms(c)
DAV:   1    -0.447426156563E+02   -0.17266E-02   -0.38018E+00   344   0.520E+00    0.277E-01
DAV:   2    -0.447473733095E+02   -0.47577E-02   -0.56302E-02   336   0.905E-01    0.526E-01
DAV:   3    -0.447463222999E+02    0.10510E-02   -0.65055E-03   320   0.645E-01    0.254E-01
DAV:   4    -0.447467629247E+02   -0.44062E-03   -0.11244E-03   320   0.260E-01    0.115E-01
DAV:   5    -0.447468192630E+02   -0.56338E-04   -0.22782E-04   256   0.131E-01
  29 F= -.44746819E+02 E0= -.44746819E+02  d E =-.583710E-02  mag=     6.0000
       N       E                     dE             d eps       ncg     rms          rms(c)
DAV:   1    -0.447212114462E+02    0.25551E-01   -0.34480E+01   320   0.157E+01    0.837E-01
DAV:   2    -0.447671186618E+02   -0.45907E-01   -0.51124E-01   336   0.273E+00    0.166E+00
DAV:   3    -0.447555849737E+02    0.11534E-01   -0.61697E-02   328   0.193E+00    0.762E-01
DAV:   4    -0.447590522118E+02   -0.34672E-02   -0.13505E-02   320   0.788E-01    0.346E-01
DAV:   5    -0.447594686237E+02   -0.41641E-03   -0.23504E-03   352   0.408E-01    0.240E-01
DAV:   6    -0.447599872196E+02   -0.51860E-03   -0.20770E-03   336   0.306E-01    0.227E-01
DAV:   7    -0.447601988884E+02   -0.21167E-03   -0.17606E-03   344   0.313E-01    0.121E-01
DAV:   8    -0.447603854560E+02   -0.18657E-03   -0.48405E-04   272   0.173E-01    0.808E-02
DAV:   9    -0.447604667949E+02   -0.81339E-04   -0.12807E-04   216   0.893E-02
  30 F= -.44760467E+02 E0= -.44760467E+02  d E =-.194846E-01  mag=     6.0000
       N       E                     dE             d eps       ncg     rms          rms(c)
DAV:   1    -0.445897656080E+02    0.17062E+00   -0.14103E+02   320   0.322E+01    0.178E+00
DAV:   2    -0.447966051715E+02   -0.20684E+00   -0.22173E+00   336   0.583E+00    0.373E+00
DAV:   3    -0.447406034775E+02    0.56002E-01   -0.27785E-01   336   0.408E+00    0.158E+00
DAV:   4    -0.447514539259E+02   -0.10850E-01   -0.58370E-02   320   0.179E+00    0.658E-01
DAV:   5    -0.447519074963E+02   -0.45357E-03   -0.10371E-02   352   0.809E-01    0.451E-01
DAV:   6    -0.447533512817E+02   -0.14438E-02   -0.86057E-03   336   0.600E-01    0.453E-01
DAV:   7    -0.447535615174E+02   -0.21024E-03   -0.68405E-03   352   0.640E-01    0.259E-01
DAV:   8    -0.447542410173E+02   -0.67950E-03   -0.17520E-03   344   0.347E-01    0.160E-01
DAV:   9    -0.447544788890E+02   -0.23787E-03   -0.47510E-04   288   0.183E-01    0.608E-02
DAV:  10    -0.447548468525E+02   -0.36796E-03   -0.12231E-04   232   0.757E-02    0.521E-02
DAV:  11    -0.447550511695E+02   -0.20432E-03   -0.70377E-05   224   0.578E-02    0.285E-02
DAV:  12    -0.447553801019E+02   -0.32893E-03   -0.52853E-05   208   0.294E-02    0.157E-02
DAV:  13    -0.447556169011E+02   -0.23680E-03   -0.28752E-05   224   0.264E-02    0.124E-02
DAV:  14    -0.447557930773E+02   -0.17618E-03   -0.13141E-05   216   0.179E-02    0.478E-03
DAV:  15    -0.447559997621E+02   -0.20668E-03   -0.80043E-06   224   0.806E-03    0.385E-03
DAV:  16    -0.447561130126E+02   -0.11325E-03   -0.38212E-06   224   0.605E-03    0.233E-03
DAV:  17    -0.447562654310E+02   -0.15242E-03   -0.39785E-06   224   0.384E-03    0.156E-03
DAV:  18    -0.447564442389E+02   -0.17881E-03   -0.46870E-06   224   0.361E-03    0.152E-03
DAV:  19    -0.447565627383E+02   -0.11850E-03   -0.36271E-06   232   0.370E-03    0.118E-03
DAV:  20    -0.447566641483E+02   -0.10141E-03   -0.40229E-06   232   0.329E-03    0.785E-04
DAV:  21    -0.447567338382E+02   -0.69690E-04   -0.31532E-06   240   0.286E-03
  31 F= -.44756734E+02 E0= -.44756734E+02  d E =-.157517E-01  mag=     6.0000
       N       E                     dE             d eps       ncg     rms          rms(c)
DAV:   1    -0.447017777620E+02    0.54886E-01   -0.56120E+01   320   0.203E+01    0.107E+00
DAV:   2    -0.447709490968E+02   -0.69171E-01   -0.80170E-01   344   0.330E+00    0.176E+00
DAV:   3    -0.447622513860E+02    0.86977E-02   -0.97784E-02   328   0.231E+00    0.981E-01
DAV:   4    -0.447637799977E+02   -0.15286E-02   -0.17241E-02   328   0.101E+00    0.502E-01
DAV:   5    -0.447639328117E+02   -0.15281E-03   -0.44583E-03   352   0.544E-01    0.305E-01
DAV:   6    -0.447649184454E+02   -0.98563E-03   -0.42263E-03   328   0.380E-01    0.268E-01
DAV:   7    -0.447651324880E+02   -0.21404E-03   -0.21769E-03   344   0.392E-01    0.135E-01
DAV:   8    -0.447655014260E+02   -0.36894E-03   -0.59290E-04   296   0.193E-01    0.102E-01
DAV:   9    -0.447655355954E+02   -0.34169E-04   -0.17262E-04   208   0.122E-01
  32 F= -.44765536E+02 E0= -.44765536E+02  d E =-.245534E-01  mag=     6.0000
       N       E                     dE             d eps       ncg     rms          rms(c)
DAV:   1    -0.447754360959E+02   -0.99347E-02   -0.10654E+00   328   0.295E+00    0.200E-01
DAV:   2    -0.447769964172E+02   -0.15603E-02   -0.18139E-02   344   0.616E-01    0.374E-01
DAV:   3    -0.447763020807E+02    0.69434E-03   -0.33781E-03   328   0.458E-01    0.103E-01
DAV:   4    -0.447766225909E+02   -0.32051E-03   -0.41707E-04   288   0.139E-01    0.101E-01
DAV:   5    -0.447766368702E+02   -0.14279E-04   -0.18371E-04   192   0.113E-01
  33 F= -.44776637E+02 E0= -.44776637E+02  d E =-.111013E-01  mag=     6.0000
       N       E                     dE             d eps       ncg     rms          rms(c)
DAV:   1    -0.447919700495E+02   -0.15347E-01   -0.95911E+00   320   0.885E+00    0.589E-01
DAV:   2    -0.448044942842E+02   -0.12524E-01   -0.15863E-01   336   0.171E+00    0.980E-01
DAV:   3    -0.448002271887E+02    0.42671E-02   -0.26370E-02   336   0.126E+00    0.318E-01
DAV:   4    -0.448018682282E+02   -0.16410E-02   -0.34805E-03   328   0.399E-01    0.271E-01
DAV:   5    -0.448020190530E+02   -0.15082E-03   -0.19520E-03   336   0.338E-01    0.238E-01
DAV:   6    -0.448021517524E+02   -0.13270E-03   -0.97486E-04   320   0.239E-01    0.147E-01
DAV:   7    -0.448023280610E+02   -0.17631E-03   -0.57749E-04   312   0.208E-01    0.882E-02
DAV:   8    -0.448024136113E+02   -0.85550E-04   -0.22093E-04   208   0.119E-01
  34 F= -.44802414E+02 E0= -.44802414E+02  d E =-.368780E-01  mag=     6.0000
       N       E                     dE             d eps       ncg     rms          rms(c)
DAV:   1    -0.447789133998E+02    0.23415E-01   -0.38372E+01   320   0.177E+01    0.121E+00
DAV:   2    -0.448312664871E+02   -0.52353E-01   -0.64792E-01   336   0.354E+00    0.202E+00
DAV:   3    -0.448130543317E+02    0.18212E-01   -0.10445E-01   328   0.261E+00    0.624E-01
DAV:   4    -0.448193899404E+02   -0.63356E-02   -0.14393E-02   320   0.864E-01    0.606E-01
DAV:   5    -0.448187841645E+02    0.60578E-03   -0.71281E-03   320   0.698E-01    0.435E-01
DAV:   6    -0.448198113523E+02   -0.10272E-02   -0.38420E-03   320   0.488E-01    0.285E-01
DAV:   7    -0.448201059036E+02   -0.29455E-03   -0.20734E-03   336   0.388E-01    0.118E-01
DAV:   8    -0.448204364017E+02   -0.33050E-03   -0.57110E-04   336   0.173E-01    0.749E-02
DAV:   9    -0.448205738027E+02   -0.13740E-03   -0.19486E-04   232   0.104E-01    0.435E-02
DAV:  10    -0.448207462942E+02   -0.17249E-03   -0.59983E-05   200   0.565E-02    0.379E-02
DAV:  11    -0.448208240829E+02   -0.77789E-04   -0.31750E-05   232   0.455E-02
  35 F= -.44820824E+02 E0= -.44820824E+02  d E =-.552885E-01  mag=     6.0000
       N       E                     dE             d eps       ncg     rms          rms(c)
DAV:   1    -0.448282634372E+02   -0.75171E-02   -0.60768E+00   320   0.703E+00    0.428E-01
DAV:   2    -0.448358391435E+02   -0.75757E-02   -0.98085E-02   328   0.131E+00    0.769E-01
DAV:   3    -0.448335551470E+02    0.22840E-02   -0.19668E-02   320   0.962E-01    0.308E-01
DAV:   4    -0.448347834915E+02   -0.12283E-02   -0.32628E-03   320   0.363E-01    0.213E-01
DAV:   5    -0.448348932785E+02   -0.10979E-03   -0.76507E-04   320   0.238E-01    0.133E-01
DAV:   6    -0.448351355567E+02   -0.24228E-03   -0.49774E-04   304   0.186E-01    0.147E-01
DAV:   7    -0.448351664693E+02   -0.30913E-04   -0.41443E-04   264   0.175E-01
  36 F= -.44835166E+02 E0= -.44835166E+02  d E =-.143424E-01  mag=     6.0000
       N       E                     dE             d eps       ncg     rms          rms(c)
DAV:   1    -0.448007723611E+02    0.34363E-01   -0.42905E+01   320   0.187E+01    0.115E+00
DAV:   2    -0.448561718431E+02   -0.55399E-01   -0.68402E-01   320   0.345E+00    0.204E+00
DAV:   3    -0.448409836459E+02    0.15188E-01   -0.13923E-01   320   0.257E+00    0.906E-01
DAV:   4    -0.448466343907E+02   -0.56507E-02   -0.28400E-02   320   0.101E+00    0.625E-01
DAV:   5    -0.448467724700E+02   -0.13808E-03   -0.57482E-03   336   0.672E-01    0.369E-01
DAV:   6    -0.448482329481E+02   -0.14605E-02   -0.38503E-03   352   0.515E-01    0.399E-01
DAV:   7    -0.448480673703E+02    0.16558E-03   -0.32736E-03   344   0.454E-01    0.208E-01
DAV:   8    -0.448487168703E+02   -0.64950E-03   -0.10750E-03   328   0.272E-01    0.900E-02
DAV:   9    -0.448489911623E+02   -0.27429E-03   -0.28453E-04   264   0.113E-01    0.445E-02
DAV:  10    -0.448491948383E+02   -0.20368E-03   -0.74576E-05   200   0.641E-02    0.387E-02
DAV:  11    -0.448492704010E+02   -0.75563E-04   -0.40081E-05   208   0.472E-02
  37 F= -.44849270E+02 E0= -.44849270E+02  d E =-.284463E-01  mag=     6.0000
       N       E                     dE             d eps       ncg     rms          rms(c)
DAV:   1    -0.448537005971E+02   -0.45058E-02   -0.31342E+00   320   0.503E+00    0.385E-01
DAV:   2    -0.448608981851E+02   -0.71976E-02   -0.64439E-02   336   0.119E+00    0.108E+00
DAV:   3    -0.448532235589E+02    0.76746E-02   -0.21566E-02   320   0.976E-01    0.247E-01
DAV:   4    -0.448572916020E+02   -0.40680E-02   -0.26528E-03   328   0.327E-01    0.210E-01
DAV:   5    -0.448570002530E+02    0.29135E-03   -0.10190E-03   328   0.234E-01    0.113E-01
DAV:   6    -0.448573476755E+02   -0.34742E-03   -0.36673E-04   280   0.162E-01    0.121E-01
DAV:   7    -0.448573303094E+02    0.17366E-04   -0.32230E-04   248   0.141E-01
  38 F= -.44857330E+02 E0= -.44857330E+02  d E =-.805991E-02  mag=     6.0000
       N       E                     dE             d eps       ncg     rms          rms(c)
DAV:   1    -0.448521949004E+02    0.51528E-02   -0.94343E+00   320   0.873E+00    0.663E-01
DAV:   2    -0.448727597235E+02   -0.20565E-01   -0.19033E-01   352   0.203E+00    0.191E+00
DAV:   3    -0.448514292086E+02    0.21331E-01   -0.66817E-02   336   0.167E+00    0.450E-01
DAV:   4    -0.448619983641E+02   -0.10569E-01   -0.84554E-03   344   0.576E-01    0.367E-01
DAV:   5    -0.448609937262E+02    0.10046E-02   -0.31225E-03   336   0.409E-01    0.196E-01
DAV:   6    -0.448617507817E+02   -0.75706E-03   -0.11684E-03   352   0.278E-01    0.203E-01
DAV:   7    -0.448615841654E+02    0.16662E-03   -0.10255E-03   360   0.234E-01    0.125E-01
DAV:   8    -0.448616522686E+02   -0.68103E-04   -0.32870E-04   216   0.144E-01
  39 F= -.44861652E+02 E0= -.44861652E+02  d E =-.123819E-01  mag=     6.0000
       N       E                     dE             d eps       ncg     rms          rms(c)
DAV:   1    -0.448626799050E+02   -0.10957E-02   -0.40068E+00   320   0.564E+00    0.453E-01
DAV:   2    -0.448712862085E+02   -0.86063E-02   -0.89722E-02   320   0.146E+00    0.128E+00
DAV:   3    -0.448613160103E+02    0.99702E-02   -0.34347E-02   320   0.119E+00    0.324E-01
DAV:   4    -0.448666441637E+02   -0.53282E-02   -0.33585E-03   320   0.413E-01    0.227E-01
DAV:   5    -0.448663151683E+02    0.32900E-03   -0.91467E-04   312   0.257E-01    0.127E-01
DAV:   6    -0.448665577130E+02   -0.24254E-03   -0.43560E-04   288   0.171E-01    0.111E-01
DAV:   7    -0.448666434470E+02   -0.85734E-04   -0.40428E-04   256   0.129E-01
  40 F= -.44866643E+02 E0= -.44866643E+02  d E =-.499118E-02  mag=     6.0000
       N       E                     dE             d eps       ncg     rms          rms(c)
DAV:   1    -0.448613730817E+02    0.51846E-02   -0.68612E+00   320   0.738E+00    0.567E-01
DAV:   2    -0.448740676962E+02   -0.12695E-01   -0.14182E-01   328   0.177E+00    0.149E+00
DAV:   3    -0.448617531407E+02    0.12315E-01   -0.50059E-02   320   0.143E+00    0.416E-01
DAV:   4    -0.448683123612E+02   -0.65592E-02   -0.50108E-03   320   0.516E-01    0.283E-01
DAV:   5    -0.448678751938E+02    0.43717E-03   -0.14845E-03   328   0.333E-01    0.171E-01
DAV:   6    -0.448682661125E+02   -0.39092E-03   -0.89546E-04   320   0.232E-01    0.151E-01
DAV:   7    -0.448683906219E+02   -0.12451E-03   -0.73543E-04   304   0.175E-01    0.113E-01
DAV:   8    -0.448684872883E+02   -0.96666E-04   -0.28408E-04   232   0.117E-01
  41 F= -.44868487E+02 E0= -.44868487E+02  d E =-.683502E-02  mag=     6.0000
       N       E                     dE             d eps       ncg     rms          rms(c)
DAV:   1    -0.448658847322E+02    0.25059E-02   -0.60152E+00   320   0.692E+00    0.393E-01
DAV:   2    -0.448733108908E+02   -0.74262E-02   -0.93007E-02   328   0.120E+00    0.669E-01
DAV:   3    -0.448724969971E+02    0.81389E-03   -0.14071E-02   328   0.826E-01    0.384E-01
DAV:   4    -0.448728056606E+02   -0.30866E-03   -0.24460E-03   320   0.401E-01    0.190E-01
DAV:   5    -0.448730335875E+02   -0.22793E-03   -0.69224E-04   304   0.228E-01    0.120E-01
DAV:   6    -0.448733904323E+02   -0.35684E-03   -0.72699E-04   328   0.175E-01    0.128E-01
DAV:   7    -0.448735204345E+02   -0.13000E-03   -0.43767E-04   280   0.162E-01    0.574E-02
DAV:   8    -0.448736310477E+02   -0.11061E-03   -0.12584E-04   208   0.882E-02    0.389E-02
DAV:   9    -0.448736599749E+02   -0.28927E-04   -0.62598E-05   224   0.440E-02
  42 F= -.44873660E+02 E0= -.44873660E+02  d E =-.517269E-02  mag=     6.0000
       N       E                     dE             d eps       ncg     rms          rms(c)
DAV:   1    -0.448734669301E+02    0.16412E-03   -0.85423E-01   320   0.261E+00    0.154E-01
DAV:   2    -0.448745266777E+02   -0.10597E-02   -0.13558E-02   344   0.465E-01    0.261E-01
DAV:   3    -0.448743999889E+02    0.12669E-03   -0.20768E-03   336   0.328E-01    0.146E-01
DAV:   4    -0.448744877523E+02   -0.87763E-04   -0.36356E-04   232   0.158E-01
  43 F= -.44874488E+02 E0= -.44874488E+02  d E =-.600046E-02  mag=     6.0000
       N       E                     dE             d eps       ncg     rms          rms(c)
DAV:   1    -0.448752420322E+02   -0.84204E-03   -0.26120E+00   320   0.459E+00    0.260E-01
DAV:   2    -0.448785795324E+02   -0.33375E-02   -0.40606E-02   328   0.824E-01    0.412E-01
DAV:   3    -0.448780138036E+02    0.56573E-03   -0.76585E-03   320   0.579E-01    0.234E-01
DAV:   4    -0.448780847974E+02   -0.70994E-04   -0.12959E-03   320   0.258E-01    0.150E-01
DAV:   5    -0.448781182246E+02   -0.33427E-04   -0.34350E-04   256   0.146E-01
  44 F= -.44878118E+02 E0= -.44878118E+02  d E =-.363047E-02  mag=     6.0000
       N       E                     dE             d eps       ncg     rms          rms(c)
DAV:   1    -0.448587442166E+02    0.19341E-01   -0.19468E+01   320   0.125E+01    0.683E-01
DAV:   2    -0.448823741372E+02   -0.23630E-01   -0.29604E-01   336   0.209E+00    0.952E-01
DAV:   3    -0.448807623044E+02    0.16118E-02   -0.54236E-02   336   0.143E+00    0.589E-01
DAV:   4    -0.448801850257E+02    0.57728E-03   -0.86444E-03   320   0.671E-01    0.415E-01
DAV:   5    -0.448800503427E+02    0.13468E-03   -0.26551E-03   320   0.383E-01    0.232E-01
DAV:   6    -0.448806978095E+02   -0.64747E-03   -0.23269E-03   352   0.301E-01    0.206E-01
DAV:   7    -0.448807063837E+02   -0.85741E-05   -0.19341E-03   344   0.277E-01    0.125E-01
DAV:   8    -0.448807731313E+02   -0.66748E-04   -0.59023E-04   288   0.167E-01
  45 F= -.44880773E+02 E0= -.44880773E+02  d E =-.628538E-02  mag=     6.0000
       N       E                     dE             d eps       ncg     rms          rms(c)
DAV:   1    -0.448813286344E+02   -0.62225E-03   -0.45776E-01   344   0.190E+00    0.116E-01
DAV:   2    -0.448820536229E+02   -0.72499E-03   -0.79815E-03   336   0.386E-01    0.196E-01
DAV:   3    -0.448818899443E+02    0.16368E-03   -0.14897E-03   336   0.278E-01    0.679E-02
DAV:   4    -0.448820156299E+02   -0.12569E-03   -0.14831E-04   208   0.887E-02    0.388E-02
DAV:   5    -0.448820424394E+02   -0.26810E-04   -0.30637E-05   200   0.479E-02
  46 F= -.44882042E+02 E0= -.44882042E+02  d E =-.126931E-02  mag=     6.0000
       N       E                     dE             d eps       ncg     rms          rms(c)
DAV:   1    -0.448801877702E+02    0.18279E-02   -0.41369E+00   320   0.570E+00    0.285E-01
DAV:   2    -0.448853409752E+02   -0.51532E-02   -0.63599E-02   336   0.999E-01    0.455E-01
DAV:   3    -0.448845986018E+02    0.74237E-03   -0.10639E-02   328   0.651E-01    0.198E-01
DAV:   4    -0.448848570680E+02   -0.25847E-03   -0.13230E-03   328   0.238E-01    0.147E-01
DAV:   5    -0.448848525256E+02    0.45424E-05   -0.31396E-04   216   0.138E-01
  47 F= -.44884853E+02 E0= -.44884853E+02  d E =-.407939E-02  mag=     6.0000
       N       E                     dE             d eps       ncg     rms          rms(c)
DAV:   1    -0.448703385744E+02    0.14518E-01   -0.16563E+01   320   0.114E+01    0.562E-01
DAV:   2    -0.448906523612E+02   -0.20314E-01   -0.24762E-01   336   0.193E+00    0.884E-01
DAV:   3    -0.448879541576E+02    0.26982E-02   -0.38334E-02   336   0.123E+00    0.367E-01
DAV:   4    -0.448887085645E+02   -0.75441E-03   -0.39598E-03   352   0.387E-01    0.229E-01
DAV:   5    -0.448889563648E+02   -0.24780E-03   -0.13324E-03   336   0.259E-01    0.232E-01
DAV:   6    -0.448893059782E+02   -0.34961E-03   -0.17620E-03   336   0.265E-01    0.202E-01
DAV:   7    -0.448894499335E+02   -0.14396E-03   -0.13754E-03   336   0.231E-01    0.650E-02
DAV:   8    -0.448895998599E+02   -0.14993E-03   -0.16817E-04   224   0.954E-02    0.466E-02
DAV:   9    -0.448896287527E+02   -0.28893E-04   -0.39918E-05   216   0.479E-02
  48 F= -.44889629E+02 E0= -.44889629E+02  d E =-.885562E-02  mag=     6.0000
       N       E                     dE             d eps       ncg     rms          rms(c)
DAV:   1    -0.448136102160E+02    0.75990E-01   -0.66539E+01   320   0.230E+01    0.115E+00
DAV:   2    -0.448973057712E+02   -0.83696E-01   -0.10230E+00   328   0.400E+00    0.173E+00
DAV:   3    -0.448876073712E+02    0.96984E-02   -0.15250E-01   328   0.255E+00    0.699E-01
DAV:   4    -0.448891904899E+02   -0.15831E-02   -0.15855E-02   344   0.803E-01    0.439E-01
DAV:   5    -0.448894494935E+02   -0.25900E-03   -0.38282E-03   344   0.467E-01    0.391E-01
DAV:   6    -0.448901663242E+02   -0.71683E-03   -0.45553E-03   360   0.435E-01    0.361E-01
DAV:   7    -0.448906774538E+02   -0.51113E-03   -0.51532E-03   336   0.404E-01    0.160E-01
DAV:   8    -0.448911207536E+02   -0.44330E-03   -0.91207E-04   360   0.240E-01    0.126E-01
DAV:   9    -0.448911204063E+02    0.34731E-06   -0.32382E-04   208   0.132E-01
  49 F= -.44891120E+02 E0= -.44891120E+02  d E =-.103473E-01  mag=     6.0000
       N       E                     dE             d eps       ncg     rms          rms(c)
DAV:   1    -0.448921148743E+02   -0.99412E-03   -0.33531E+00   320   0.511E+00    0.273E-01
DAV:   2    -0.448960790916E+02   -0.39642E-02   -0.52075E-02   336   0.902E-01    0.408E-01
DAV:   3    -0.448958186028E+02    0.26049E-03   -0.63550E-03   336   0.595E-01    0.199E-01
DAV:   4    -0.448961106746E+02   -0.29207E-03   -0.97987E-04   336   0.228E-01    0.149E-01
DAV:   5    -0.448960898954E+02    0.20779E-04   -0.36470E-04   224   0.141E-01
  50 F= -.44896090E+02 E0= -.44896090E+02  d E =-.496949E-02  mag=     6.0000
       N       E                     dE             d eps       ncg     rms          rms(c)
DAV:   1    -0.448714051080E+02    0.24706E-01   -0.30321E+01   320   0.154E+01    0.761E-01
DAV:   2    -0.449073050054E+02   -0.35900E-01   -0.44839E-01   328   0.260E+00    0.113E+00
DAV:   3    -0.449044886437E+02    0.28164E-02   -0.52645E-02   328   0.163E+00    0.488E-01
DAV:   4    -0.449056265125E+02   -0.11379E-02   -0.52161E-03   328   0.563E-01    0.340E-01
DAV:   5    -0.449056526261E+02   -0.26114E-04   -0.19638E-03   328   0.357E-01    0.257E-01
DAV:   6    -0.449067053685E+02   -0.10527E-02   -0.27737E-03   352   0.340E-01    0.284E-01
DAV:   7    -0.449069285374E+02   -0.22317E-03   -0.28116E-03   336   0.334E-01    0.182E-01
DAV:   8    -0.449070960804E+02   -0.16754E-03   -0.98857E-04   344   0.201E-01    0.691E-02
DAV:   9    -0.449072533916E+02   -0.15731E-03   -0.15145E-04   200   0.725E-02    0.312E-02
DAV:  10    -0.449073389421E+02   -0.85550E-04   -0.35128E-05   224   0.314E-02
  51 F= -.44907339E+02 E0= -.44907339E+02  d E =-.162185E-01  mag=     6.0000
       N       E                     dE             d eps       ncg     rms          rms(c)
DAV:   1    -0.447622273455E+02    0.14503E+00   -0.12252E+02   320   0.312E+01    0.160E+00
DAV:   2    -0.449273314371E+02   -0.16510E+00   -0.19433E+00   336   0.548E+00    0.463E+00
DAV:   3    -0.448442751306E+02    0.83056E-01   -0.87596E-01   352   0.307E+00    0.175E+00
DAV:   4    -0.449024280643E+02   -0.58153E-01   -0.75957E-02   344   0.226E+00    0.119E+00
DAV:   5    -0.449011653106E+02    0.12628E-02   -0.37923E-02   344   0.113E+00    0.755E-01
DAV:   6    -0.449028528498E+02   -0.16875E-02   -0.72700E-03   344   0.615E-01    0.452E-01
DAV:   7    -0.449050249470E+02   -0.21721E-02   -0.81860E-03   344   0.470E-01    0.320E-01
DAV:   8    -0.449059436996E+02   -0.91875E-03   -0.48799E-03   360   0.510E-01    0.186E-01
DAV:   9    -0.449065570444E+02   -0.61334E-03   -0.11183E-03   352   0.257E-01    0.116E-01
DAV:  10    -0.449068135682E+02   -0.25652E-03   -0.31745E-04   248   0.159E-01    0.871E-02
DAV:  11    -0.449070562109E+02   -0.24264E-03   -0.13755E-04   232   0.963E-02    0.463E-02
DAV:  12    -0.449072200390E+02   -0.16383E-03   -0.53895E-05   240   0.577E-02    0.238E-02
DAV:  13    -0.449073784832E+02   -0.15844E-03   -0.26838E-05   208   0.239E-02    0.152E-02
DAV:  14    -0.449075127825E+02   -0.13430E-03   -0.16376E-05   240   0.166E-02    0.121E-02
DAV:  15    -0.449075892136E+02   -0.76431E-04   -0.74253E-06   224   0.144E-02
  52 F= -.44907589E+02 E0= -.44907589E+02  d E =-.164688E-01  mag=     6.0000
       N       E                     dE             d eps       ncg     rms          rms(c)
DAV:   1    -0.449176920520E+02   -0.10179E-01   -0.34939E+00   320   0.535E+00    0.420E-01
DAV:   2    -0.449226101450E+02   -0.49181E-02   -0.71898E-02   344   0.127E+00    0.827E-01
DAV:   3    -0.449195255944E+02    0.30846E-02   -0.21378E-02   336   0.953E-01    0.293E-01
DAV:   4    -0.449211248548E+02   -0.15993E-02   -0.35025E-03   336   0.364E-01    0.233E-01
DAV:   5    -0.449210894478E+02    0.35407E-04   -0.11430E-03   352   0.266E-01    0.126E-01
DAV:   6    -0.449213902809E+02   -0.30083E-03   -0.42526E-04   296   0.166E-01    0.103E-01
DAV:   7    -0.449215029308E+02   -0.11265E-03   -0.31463E-04   240   0.142E-01    0.772E-02
DAV:   8    -0.449214988523E+02    0.40785E-05   -0.13438E-04   224   0.936E-02
  53 F= -.44921499E+02 E0= -.44921499E+02  d E =-.139096E-01  mag=     6.0000
       N       E                     dE             d eps       ncg     rms          rms(c)
DAV:   1    -0.449171514069E+02    0.43515E-02   -0.15341E+01   320   0.112E+01    0.879E-01
DAV:   2    -0.449405591765E+02   -0.23408E-01   -0.31816E-01   336   0.270E+00    0.172E+00
DAV:   3    -0.449266331593E+02    0.13926E-01   -0.91828E-02   336   0.202E+00    0.562E-01
DAV:   4    -0.449321715943E+02   -0.55384E-02   -0.13718E-02   320   0.747E-01    0.506E-01
DAV:   5    -0.449313284764E+02    0.84312E-03   -0.49926E-03   328   0.547E-01    0.260E-01
DAV:   6    -0.449323962595E+02   -0.10678E-02   -0.17954E-03   336   0.332E-01    0.196E-01
DAV:   7    -0.449327630859E+02   -0.36683E-03   -0.12445E-03   336   0.261E-01    0.137E-01
DAV:   8    -0.449327362546E+02    0.26831E-04   -0.48998E-04   256   0.177E-01
  54 F= -.44932736E+02 E0= -.44932736E+02  d E =-.251470E-01  mag=     6.0000
       N       E                     dE             d eps       ncg     rms          rms(c)
DAV:   1    -0.449349114736E+02   -0.21484E-02   -0.22615E+00   328   0.431E+00    0.361E-01
DAV:   2    -0.449377968460E+02   -0.28854E-02   -0.46422E-02   336   0.996E-01    0.630E-01
DAV:   3    -0.449364766438E+02    0.13202E-02   -0.14958E-02   320   0.769E-01    0.263E-01
DAV:   4    -0.449372058423E+02   -0.72920E-03   -0.20736E-03   320   0.312E-01    0.190E-01
DAV:   5    -0.449372131497E+02   -0.73074E-05   -0.79165E-04   312   0.226E-01
  55 F= -.44937213E+02 E0= -.44937213E+02  d E =-.447690E-02  mag=     6.0000
       N       E                     dE             d eps       ncg     rms          rms(c)
DAV:   1    -0.449366166830E+02    0.58916E-03   -0.18379E+00   336   0.390E+00    0.310E-01
DAV:   2    -0.449386150831E+02   -0.19984E-02   -0.32879E-02   328   0.776E-01    0.440E-01
DAV:   3    -0.449381841358E+02    0.43095E-03   -0.88099E-03   320   0.604E-01    0.190E-01
DAV:   4    -0.449385275892E+02   -0.34345E-03   -0.11544E-03   328   0.228E-01    0.132E-01
DAV:   5    -0.449386736799E+02   -0.14609E-03   -0.44218E-04   280   0.192E-01    0.112E-01
DAV:   6    -0.449387887829E+02   -0.11510E-03   -0.41960E-04   232   0.143E-01    0.961E-02
DAV:   7    -0.449387699225E+02    0.18860E-04   -0.18860E-04   216   0.109E-01
  56 F= -.44938770E+02 E0= -.44938770E+02  d E =-.603367E-02  mag=     6.0000
       N       E                     dE             d eps       ncg     rms          rms(c)
DAV:   1    -0.449391734412E+02   -0.38466E-03   -0.78514E-01   320   0.254E+00    0.176E-01
DAV:   2    -0.449403248074E+02   -0.11514E-02   -0.12953E-02   336   0.551E-01    0.342E-01
DAV:   3    -0.449396499304E+02    0.67488E-03   -0.21867E-03   336   0.416E-01    0.895E-02
DAV:   4    -0.449399618704E+02   -0.31194E-03   -0.38294E-04   312   0.139E-01    0.821E-02
DAV:   5    -0.449399338745E+02    0.27996E-04   -0.11595E-04   232   0.905E-02
  57 F= -.44939934E+02 E0= -.44939934E+02  d E =-.116395E-02  mag=     6.0000
       N       E                     dE             d eps       ncg     rms          rms(c)
DAV:   1    -0.449396764918E+02    0.28538E-03   -0.66919E-01   352   0.235E+00    0.178E-01
DAV:   2    -0.449407506006E+02   -0.10741E-02   -0.10510E-02   336   0.544E-01    0.385E-01
DAV:   3    -0.449398676889E+02    0.88291E-03   -0.20942E-03   328   0.440E-01    0.104E-01
DAV:   4    -0.449402552320E+02   -0.38754E-03   -0.42963E-04   304   0.139E-01    0.104E-01
DAV:   5    -0.449401721749E+02    0.83057E-04   -0.17232E-04   224   0.115E-01
  58 F= -.44940172E+02 E0= -.44940172E+02  d E =-.140225E-02  mag=     6.0000
       N       E                     dE             d eps       ncg     rms          rms(c)
DAV:   1    -0.449402337739E+02    0.21458E-04   -0.55491E-01   344   0.212E+00    0.121E-01
DAV:   2    -0.449410998170E+02   -0.86604E-03   -0.85460E-03   336   0.387E-01    0.251E-01
DAV:   3    -0.449407384653E+02    0.36135E-03   -0.12316E-03   328   0.274E-01    0.861E-02
DAV:   4    -0.449409285946E+02   -0.19013E-03   -0.16665E-04   200   0.102E-01    0.541E-02
DAV:   5    -0.449409617780E+02   -0.33183E-04   -0.45478E-05   208   0.638E-02
  59 F= -.44940962E+02 E0= -.44940962E+02  d E =-.789603E-03  mag=     6.0000
       N       E                     dE             d eps       ncg     rms          rms(c)
DAV:   1    -0.449406785162E+02    0.25008E-03   -0.49993E-01   320   0.201E+00    0.120E-01
DAV:   2    -0.449413941004E+02   -0.71558E-03   -0.74054E-03   336   0.368E-01    0.212E-01
DAV:   3    -0.449411340690E+02    0.26003E-03   -0.97868E-04   336   0.262E-01    0.744E-02
DAV:   4    -0.449412856109E+02   -0.15154E-03   -0.13119E-04   200   0.974E-02    0.632E-02
DAV:   5    -0.449413003903E+02   -0.14779E-04   -0.64722E-05   200   0.722E-02
  60 F= -.44941300E+02 E0= -.44941300E+02  d E =-.112822E-02  mag=     6.0000
