10
Energy = -68.25552354 eV
V 10.437880943259197 9.336587741338034 13.481816256299833
V 9.39699355836391 11.421452340042292 13.514467271764614
V 10.456423281792391 12.302592531680249 11.11044653120515
V 9.511934249642612 10.145464759220648 11.636295722460273
V 11.57752992833374 11.183881770734907 12.999927652213511
V 11.779051623729755 9.927985926040938 11.091057333668013
V 12.688304055688205 12.12419716782085 10.642116987820172
V 10.738423420735899 10.973606514998508 9.253450533349433
V 11.763045483554144 12.956907252177697 8.729389670249804
V 12.951470841331663 10.925985400167821 8.77903602507036
