12
Energy = -83.51261151 eV
V 8.10930275582852 9.5154448538943 11.813013931642617
V 9.39510154338782 11.274083225694572 11.917183095319231
V 13.608113573696812 10.682646016901629 10.165268690653685
V 11.170310056913822 13.248387078069372 11.413389903769405
V 12.016346031734832 12.403512520898328 9.204897446139386
V 13.011027955565082 12.976910672297853 11.27177518039356
V 10.235181629737164 11.842770309547094 9.429994294515165
V 9.707933513957718 9.433711957392845 10.057098235608297
V 10.445824169528082 8.669815529338567 11.731670351904935
V 11.54906976657723 10.844561014931344 11.599736607540212
V 12.12579946003155 9.854125186446621 9.4086980536123
V 9.502942617069317 9.587591595120777 13.493180027023705
