13
Energy = -91.68686376 eV
V 10.890226743457346 13.254600779157217 8.475671744322748
V 10.612670463463239 13.483225424014396 10.203802219998728
V 12.401408888012028 11.722603014174641 9.50445022927048
V 10.888609734463898 12.784229410367121 12.92608271068714
V 9.990662835243311 11.11780983406011 8.797499498328271
V 12.549808204833003 12.422576961114457 11.858204140455184
V 10.315842212933088 11.2168936785504 11.205352506655263
V 9.129151099160282 9.365409195300066 10.866899104667912
V 11.378490673424894 9.574794913961224 9.392210726010514
V 12.715606714716172 10.03736070628956 11.151283827720915
V 9.745727383149678 10.611853110703015 13.412593879279742
V 11.756474409977987 10.459611652232935 13.36222984147715
V 10.73677681040123 8.719321787626097 11.820124188876793
