15
Energy = -106.04955874 eV
V 16.169847602845802 11.793965048346394 13.464350481499686
V 15.230952687333195 10.273303294680353 13.290097070555428
V 13.434554781196736 10.594578238377967 11.518823751984717
V 14.790842903457321 11.92906775844209 11.403407738223013
V 12.44386757733484 10.822644702955865 13.877463325634753
V 13.79690919914674 12.151258938647874 14.15358068554181
V 10.910560750365795 11.178185153189139 11.855801258662659
V 12.667273181724402 12.966906588419011 12.204470776604754
V 12.164991766116612 12.101630203573887 9.79029980030771
V 10.828980404352677 12.716990296105813 13.992709352897005
V 11.314951291625453 13.731470815796904 10.242203903126596
V 10.428852913547201 14.025554131520765 12.68273295253053
V 9.660031004251929 11.87544159645034 9.915015538348893
V 9.025192377464386 11.852117142322852 12.455049090485485
V 8.946693068095305 13.510149615315601 10.829990774517311
