4
Energy = -24.09730689 eV
V 6.8546132487305425 6.901487226520361 8.177481446721005
V 7.566357958899694 7.090482908533901 6.600264549644193
V 5.515477054422295 5.876065040092848 6.444751829697152
V 6.138415417230248 6.206894665542821 4.852337970306117
