5
Energy = -31.30283058 eV
V 8.061404158253707 7.917896279113149 9.32758291196613
V 8.827400485171864 7.0149166502663345 7.232378183209223
V 8.592488204110023 9.460152813633098 7.621237323612952
V 7.191704157942144 6.423113784677839 8.182226241155412
V 6.90704892707748 8.764231226959138 7.216763067704918
