5
Energy = -30.42928555 eV
V 6.995825774610299 9.351747896420168 8.091478822641704
V 9.197842700779843 6.5933695984122975 8.364861357302447
V 8.957750920626722 7.926877056480128 7.275930971125721
V 8.026779672919522 8.273656367313702 9.637648554692731
V 8.944251722552071 9.994841387817255 8.744128217082178
