5
Energy = -31.29964877 eV
V 7.91874969632672 5.365797615352547 6.25613847838856
V 6.166634442219191 6.586317806353785 7.733366981243214
V 7.9981416531340335 7.75769081464928 6.362664429551367
V 5.880005797979572 6.707257417140875 5.896502379728375
V 8.718922770809954 6.445242890013809 7.741374040760452
