8
Energy = -52.19686546 eV
V 9.711141931317485 8.830266458819628 7.2180464367644035
V 6.706202528682514 7.5870780011803705 7.2180464367644035
V 8.830266458819628 6.706202528682514 7.2180464367644035
V 7.5870780011803705 9.711141931317485 7.2180464367644035
V 9.711141931317485 7.5870780011803705 9.199298023235594
V 6.706202528682514 8.830266458819628 9.199298023235594
V 7.5870780011803705 6.706202528682514 9.199298023235594
V 8.830266458819628 9.711141931317485 9.199298023235594
