8
Energy = -53.98271078 eV
V 12.009779525299127 8.977528252514546 10.652469835719856
V 11.45796804945491 10.303308647503846 8.633636895957295
V 9.9208213944669 8.82131414679612 9.165675462578443
V 10.504294682986776 8.920542794499859 11.723270978612987
V 8.408259455471704 9.685432799059813 10.731807640794498
V 10.632162472345264 11.129076840695566 10.513858800989624
V 9.031466147552354 10.837781706718943 8.554273169728361
V 8.425944635563361 11.659915407569272 10.410456080096207
