9
Energy = -58.80330382 eV
V 11.214844371201382 9.436828348942717 10.09855363886558
V 10.622067470677228 7.991154703159783 11.06132905972346
V 9.841082616059122 10.426627960689148 8.721214658328545
V 9.687740579276555 7.795154668374765 8.770345714169684
V 8.35645659977643 6.2397636727397865 7.258769041129559
V 8.72715585692467 9.36725445057461 10.541796907257611
V 8.096989881908916 8.639202022421403 8.116585769678114
V 7.729622702309533 11.06113820408119 7.667953375596637
V 7.430743849806611 10.75941614291708 9.452501266388692
