20
Energy = -177.61442144 Dir = /p/work1/plile1/GA_structures/Os/20/all_candidates/5213/
Os 7.972068698455266 9.37208261985073 5.384573099578993
Os 10.103469004405207 8.095492742643192 5.585050376647036
Os 6.78921530709666 7.506291895161039 6.099239916602623
Os 8.920946345882122 6.229559065375053 6.301705358866448
Os 7.016838862485522 10.680770048003437 7.294922971655009
Os 9.249619996850818 9.407955390195266 7.544800864189548
Os 5.85351379331169 8.853764378026966 7.987923138446361
Os 8.049078641287986 7.518055074320966 8.268590285315007
Os 11.431619422047769 8.029525891764948 7.705214076312735
Os 10.270995101617363 6.207525237705463 8.413091917358555
Os 6.1973304770182205 11.980960163993787 9.208520142386439
Os 8.224469110013771 10.84956097896389 9.67090544168847
Os 9.503575023287876 7.51621290524148 10.614442187055483
Os 12.680813231342665 8.110899052705026 9.811352876869805
Os 4.992393942875381 10.084389568244655 9.926085962171415
Os 10.67947574433845 9.379823916676653 9.895718781584549
Os 7.044789436987475 8.98341638983885 10.380750612533518
Os 11.482409700151596 6.216317859267403 10.549070032385211
Os 8.434589874877776 8.804430849173922 12.315992206976263
Os 9.64614429297123 10.716321980151728 11.585405758681603
