25
Energy = -222.65684178 Dir = /p/work1/plile1/GA_structures/Os/25/all_candidates/2721/
Os 7.577945291414593 7.418535266831836 5.2437496098144365
Os 11.73404897589599 8.51694957085842 6.296516027460981
Os 9.355210948889992 8.466397197138033 6.491484116906186
Os 6.729370877362123 8.800596680282847 7.016863621584258
Os 7.721996996987214 5.5816658901566365 6.6780111534334265
Os 8.486883689218361 10.48579611990193 7.9109840621110905
Os 11.178430643216954 10.124233796183235 7.954370138041071
Os 11.920941061050032 6.860777129164532 7.977244939369418
Os 9.442400890904146 6.645106478658162 7.974488972151462
Os 6.037349454050294 11.006943971270726 7.955025148413594
Os 7.787077263736947 12.68704741075313 8.794282473671528
Os 6.870943273882295 6.895364827743371 8.46596009496925
Os 10.708950287713877 6.389382545057627 10.222567488475953
Os 8.380357611674713 7.2826719202616665 10.374092629779245
Os 6.947427135141073 9.407503172094085 9.659262489641291
Os 11.733896762955414 8.61182851905071 9.781087648248278
Os 9.463233295086031 9.63478333846889 10.124236397457762
Os 10.0682612274549 11.992580764965508 9.468548789379938
Os 6.624913162389594 11.658133993945354 10.58181810995421
Os 12.512696200052169 11.334754258853868 9.612149493198926
Os 10.45495403869646 8.277341928922075 12.022978255063805
Os 8.037902420453223 9.041772640982842 12.085621587364846
Os 11.277213974982887 10.611499607424037 11.568139662077511
Os 8.721886619310736 11.494528233691579 11.68811648669988
Os 9.709499044181982 10.257595884040882 13.536191751433263
