25
Energy = -223.56230895 Dir = /p/work1/plile1/GA_structures/Os/25/all_candidates/2277/
Os 6.933891462189438 9.954717270002845 5.112441193309554
Os 9.194941042262897 8.861843237772007 5.430743574330983
Os 8.791193919797337 11.287661179394336 6.241381885822267
Os 11.080406150389093 10.189500695212763 6.515094399140134
Os 11.393061289220212 7.7084165739287425 5.832863879490148
Os 7.157958222066555 8.08701626654579 6.793922738503353
Os 10.604374211274951 12.558695336877356 7.443686376284214
Os 6.764231031136116 10.48883811662174 7.572222440474813
Os 9.440123826729499 7.008988394607346 7.3156365125069795
Os 9.085190080977927 9.397555441401593 7.898732979694557
Os 11.502647756599652 8.282259494297659 8.21474974288887
Os 8.684285460145272 11.649615297958272 8.864107597455732
Os 11.10807163933246 10.755508597199238 9.04243077670784
Os 9.664931975451735 7.489540422887664 9.960595286290756
Os 7.131100072939398 7.461701636133135 9.180002468332363
Os 5.628797806019723 6.685910799083722 10.89571868101694
Os 9.32723122328035 9.817961107653616 10.736124266457809
Os 6.811592622199298 9.663089128033945 9.901987578940085
Os 12.100517724906762 7.7281568905738265 10.533715109520472
Os 5.322228435341731 8.89637169594987 11.632188920174801
Os 11.782493229333157 9.916520129375266 11.256197329504944
Os 10.424463050210454 6.930114467567168 12.2485290817947
Os 7.938652132561047 6.786233588500707 11.656592393373298
Os 7.634090620962969 8.92438744552763 12.374278862136869
Os 10.115182850294952 9.091054622516868 12.967713761470407
