10
Energy = -78.26106171 eV
Os 8.738721492423034 6.983292788032651 7.727702684180858
Os 11.13619583414148 7.40488134405469 7.692142144836337
Os 7.477876666604743 9.163348340486417 8.197477005936408
Os 9.665944021399874 9.300741486031365 6.903264668095538
Os 9.017294173130866 11.093684389439497 8.502130916706799
Os 7.704099096978406 7.47889873125038 10.091999878652624
Os 9.873593947109178 6.233769501572419 9.74754590363099
Os 7.760258621220526 9.924741330592864 10.548536316032719
Os 9.70163721633581 8.712068679462764 9.30732141185052
Os 6.754247141469451 11.524503416870942 9.101809073974076
