13
Energy = -108.04882661 eV
Os 12.71578512416563 10.351280571432545 10.339093920004098
Os 12.685274159407513 8.761348825291307 8.5714548761103
Os 11.390449336436491 10.948025757088317 8.268525610596493
Os 10.169991789955583 10.410540424859974 10.411609986883978
Os 11.360147638534121 8.297877610986768 10.739812230075882
Os 10.226192604685963 8.724680983430186 8.513115474418107
Os 8.802892930722786 10.939546191103643 8.363579935472272
Os 8.626880791707963 7.118878227831741 9.55101229108731
Os 8.999010574259708 8.4846789870932 11.496667745814682
Os 7.742180614920689 10.954618579210175 10.561726986582066
Os 7.71560836975936 8.81833145075356 7.89242453921796
Os 6.2384529544004845 10.696583855856053 8.568289869534281
Os 6.824896619898341 8.792489046362679 10.094115748784288
