15
Energy = -125.9537901 eV
Os 9.349754098004492 7.334683360831608 12.159564552818974
Os 7.936045482829468 7.045051099962959 10.166686929460973
Os 11.05747932068473 8.10070459662324 10.816624266700918
Os 12.164064007570017 7.501072519001083 8.54350762168493
Os 8.651219554809673 9.348459011960788 10.770990897982458
Os 9.678517204649559 7.9816825967276355 8.725405527962163
Os 7.240460727033745 8.860216306680604 8.656598440374847
Os 9.533491509376002 11.334240116070404 9.310375105893193
Os 10.98765364697832 10.63766592674515 11.158169767137785
Os 11.659901738427699 9.802991136621385 9.011394703001836
Os 7.11159232311305 11.416928982845095 8.77752717149184
Os 10.997435854132549 8.737972896319716 6.710280978446344
Os 9.068999455055598 10.022786942742147 7.298739481289195
Os 7.740738987452094 11.532332645592097 11.048709899204908
Os 6.737781621775785 10.335295002127094 6.696775186917833
