4
Energy = -25.90757219 eV
Os 6.386583199868564 7.070696523178707 7.8363897556215045
Os 9.835986075408856 9.217623697394053 8.404676907840571
Os 8.693514575411976 7.049469456691746 8.039839014773191
Os 7.567020441455579 9.131557068310073 8.196489358241513
