9
Energy = -69.3783873 eV
Os 8.50773553897424 7.636576630253413 5.01293767520357
Os 6.464999698949348 8.447010070715296 6.112986187814225
Os 7.731685743050401 6.485383934362628 7.13334404490852
Os 6.191193524280013 6.1936574720753965 5.148118979992313
Os 5.29413720975195 6.54236704807831 7.399085664041438
Os 6.639560051031439 5.832238737529925 9.328067815291238
Os 6.733026387091551 8.225914873617409 8.71250058768732
Os 8.801186819067395 8.676152438433174 7.221274798061074
Os 8.934394726606003 7.258618493736791 9.229603945802385
