18
Energy = -125.86867326 eV
Zr 10.945848803396762 7.163906863142677 10.418000401756347
Zr 8.16445633763681 7.40518229025339 10.518136633525177
Zr 12.797863564782459 8.464912275897635 12.046288325313876
Zr 9.634754095995183 8.750138532910205 8.480464546989763
Zr 9.922393139556362 8.823101880393468 12.59714004935937
Zr 11.95699002561615 10.281408090342742 13.961206148493009
Zr 12.385266316542323 9.462088941146883 9.222982009651805
Zr 11.13921008170385 11.448093990348328 11.102603800440162
Zr 8.307830707265017 10.352728089177239 10.518856240152079
Zr 12.249909564905273 12.86852466449492 13.613100810481457
Zr 9.244923090099665 11.86136516833254 13.172887750339
Zr 10.13059092258336 11.549452010567446 8.21457976694603
Zr 10.41426757449525 14.369123421922403 12.112428858514047
Zr 8.58464494942674 13.03174523354755 10.380659860012212
Zr 13.961928861623962 11.08475524099569 11.722846605299228
Zr 13.07133851458413 12.198277607871365 8.882034840701538
Zr 13.168486350272595 13.884475197442596 11.161625086961468
Zr 10.98701753726067 14.112672300038618 9.258620878844564
