14
Energy = -95.08859183 eV
Zr 9.471093634484948 9.25496361949098 5.818041662484704
Zr 8.031656459547932 6.7894399296085854 6.565061906860858
Zr 8.574685375468066 11.565412236941192 7.249092979508044
Zr 6.740097170204641 9.339089324340174 6.612090891240374
Zr 11.222300978928095 10.641529042892811 7.725054660876231
Zr 9.994230341552564 8.025490885574975 8.396310432276877
Zr 8.370488098207716 5.727727547581172 9.269146303851208
Zr 6.11381036401425 7.32369734998292 8.594797203011925
Zr 11.54509257550807 9.599786125082812 10.39289815565443
Zr 9.78938833273313 11.788762147583169 9.910505753441159
Zr 10.131287748117872 7.158793409481026 11.167200781165809
Zr 7.748979327638566 9.710458859433228 9.34263658597572
Zr 7.307131631038861 7.514507884548271 11.227737954918714
Zr 9.13849956702261 9.739083241925577 11.908166333200846
