16
Energy = -111.21548719 eV
Zr 10.543300935769917 7.047035327449705 10.507588490305523
Zr 9.384156492253712 8.65714969663686 8.371000757338635
Zr 12.3363821211316 8.804527772771772 8.950660366683035
Zr 12.578750971236854 8.601894300167784 11.949120465344885
Zr 10.79924828164654 11.052616034311589 7.8034318763846215
Zr 10.35140234854006 10.063988084859803 10.750585311399616
Zr 7.92754196960502 8.434643069234479 10.877814199411546
Zr 9.907403944972346 8.206338312448219 13.108218622054254
Zr 8.302462154005234 10.61731076667328 12.765341761417137
Zr 8.112168917410289 11.292365369742225 9.656486908903045
Zr 12.492248133853048 11.523037880276462 10.617911804038341
Zr 12.9537611502089 13.167443048569819 8.379095782411502
Zr 11.226297951113327 10.82617646329497 13.470255788478852
Zr 10.300512846390916 13.372370796275138 9.256227497596281
Zr 12.327663390580303 14.309770841275547 10.962806502883744
Zr 9.775222176028297 12.907540904227922 11.949831377459313
