10
Energy = -65.131849 eV
Zr 12.167098559155178 9.094768202010867 10.452089127758002
Zr 11.698234871233598 11.06349902047064 8.353012850596267
Zr 10.954223058826692 8.374313555983761 8.018536833832657
Zr 9.923842304864438 10.786365478680201 10.513453403634886
Zr 9.456370521672227 7.863857923020463 10.51919735232997
Zr 7.348458705153366 9.9284301159543 10.283661208500853
Zr 8.846712445898959 10.438226623200098 7.783304453404195
Zr 8.378507799449341 7.515983410947742 7.7885867035472724
Zr 6.134995046571558 9.20788124048517 7.850479873798251
Zr 6.6036573426984395 7.238774429246754 9.949778192597655
