14
Energy = -94.33680245 eV
Zr 8.024978700089138 9.867533646148805 6.933875940715533
Zr 7.5974688213543615 9.94731559930052 9.695400169297884
Zr 7.953854281022764 7.449574083045423 8.745173670686428
Zr 10.37106989966586 9.168155506682464 8.139464620869047
Zr 13.717950828236344 12.34827340066229 10.589028048182199
Zr 7.986612393060574 8.095330738693715 11.934959176200628
Zr 10.230519801802142 7.756223325692774 10.501191949324749
Zr 9.304586842975075 11.967297113129174 8.887385595340795
Zr 9.326829354673798 10.928991294708188 11.747548283784674
Zr 11.117216553759983 13.112243903860035 10.667638948838656
Zr 10.773057021387473 8.862594534659852 13.03807902153466
Zr 12.093092882526443 11.836132187326818 8.176648544867394
Zr 12.024944779535458 11.524954010658512 12.871393169071602
Zr 12.04431514665868 10.04872925425172 10.408426541590329
