19
Energy = -133.06473489 eV
Zr 11.145383044971355 8.793325307267036 13.997430361267028
Zr 12.69489529210656 7.766603793119828 11.904410010165964
Zr 13.58476329865097 10.259254144279396 13.24776988052347
Zr 12.006590572007834 8.433514726617135 9.131054742654033
Zr 11.32665544763347 11.826923321526344 13.883076687313286
Zr 9.560269141885877 8.104581933675382 11.438330115961133
Zr 14.180129488865207 9.82692647079993 10.556728864858993
Zr 8.942504775773324 10.37418098704219 13.477924220753494
Zr 11.2425385897239 10.312889567261449 11.322101578839096
Zr 7.496854458302912 10.55587646119195 11.228969997169765
Zr 12.731563320662884 12.634632410441071 11.301727599920284
Zr 9.552424175075767 12.817401789416355 11.727964575392633
Zr 9.527538633099821 10.265452810509407 8.99801834406517
Zr 6.829246997721503 10.132382525983878 8.332800685841097
Zr 12.900220517754425 11.242333385472827 8.59915467645316
Zr 7.708466371979743 12.663412145005013 9.419463523343774
Zr 10.699779726521424 13.069950537311822 8.870078922568073
Zr 11.015857324141656 10.995463769374448 6.631440901970354
Zr 8.528698612488697 12.062249375238183 6.875239870979271
