15
Energy = -102.3290714 eV
Zr 13.626887369802056 11.07313938184851 11.06709863878737
Zr 12.083592984012828 10.844830189015491 13.536493883122986
Zr 12.384895395514562 8.546754953493895 11.881845559204073
Zr 11.966889366651118 13.435081162439984 11.517403875151995
Zr 11.964800300392744 9.293598981523546 8.878851839089915
Zr 9.773510847275412 9.041795876189523 13.12795090361135
Zr 12.2081818831136 12.405090700397793 8.873885941841445
Zr 10.769823628136107 10.84589456705849 10.940901007749323
Zr 9.576049308688164 13.344288364282288 9.777436864059949
Zr 9.95581662862685 7.679992614031188 10.656567280515844
Zr 9.792998217066181 11.295384078864613 7.838514155684844
Zr 9.067432486641048 8.636573406162434 8.204120741749799
Zr 8.175885509783104 10.520742165344666 10.665057567010725
Zr 7.027273908187665 8.131383445516928 10.099479177295837
Zr 6.923843222816885 10.483047614456506 8.256381522533603
