14
Energy = -94.3114865 eV
Zr 13.942255002712546 8.646448904658707 10.246463085803205
Zr 13.573221269156194 10.183110074524135 12.417509061316483
Zr 11.94838839675145 8.493093169950344 8.373252836906236
Zr 12.352732646789729 10.99593312823136 9.706870991484463
Zr 11.128482966269425 10.206838099815739 14.02225018777067
Zr 11.30870808699701 8.608329989803881 11.40792605071203
Zr 10.336333891292227 10.99053580524046 7.380799354684864
Zr 9.413936990689862 9.401269982938137 9.321874347511029
Zr 9.415637301733826 12.275109548826793 14.144758867461034
Zr 11.564730740037326 12.503374391730775 12.24550275553837
Zr 9.087664532305107 10.680991300071504 11.760795398442623
Zr 10.368122368923096 12.929846245410157 9.606877787882249
Zr 7.916789488900005 11.943064999326772 9.207765966254456
Zr 8.661133394560878 13.513104424023354 11.817735503139177
