17
Energy = -116.90495189 eV
Zr 11.709878750503686 10.491870869021914 8.19541236196226
Zr 12.020085459999294 7.771634208750994 9.25942044686483
Zr 8.587745332661765 10.870709931541136 7.829659696058171
Zr 10.17865592919944 8.287551089755238 7.121844457834544
Zr 7.4515664855940145 7.926598709872825 7.857096715748214
Zr 10.143875330403121 12.748974955001351 9.402518283970483
Zr 10.894841911407314 10.467012196584795 11.551784682398319
Zr 6.3665082277640135 9.795227014934643 9.772738035004846
Zr 9.491870852231349 6.182620935521045 8.972557571241158
Zr 7.097508059424899 7.150323694561178 10.598492850522268
Zr 13.612000333723953 9.856856275094488 10.412242645695642
Zr 7.622983208679363 9.476389329250795 12.357415381023165
Zr 10.725555696330193 13.109143648380801 12.271314586377077
Zr 12.748191413119052 12.574365114181836 10.155976864248425
Zr 8.036087740498859 11.845326407285784 10.870914412609528
Zr 13.239078445704346 11.63202837091253 12.70646942218667
Zr 9.273994849095931 9.01379527568958 9.86456961259534
