19
Energy = -131.26371013 eV
Zr 12.939285138792767 12.428412499727314 12.401175822690455
Zr 7.637824762106344 13.433591332175162 11.460301722596629
Zr 12.135719267254071 14.098998094734004 10.230625072335986
Zr 10.979975021758598 10.640074574170274 13.65628879898132
Zr 9.40635331444489 14.306799886789923 9.687175842849939
Zr 8.28285342037155 11.158785128944112 12.911557980467151
Zr 9.001922809043528 8.55510660698645 14.279930462033322
Zr 11.32819203415962 7.595630853213407 13.348772746929583
Zr 11.633506647012767 7.04517369548114 10.458154754602521
Zr 8.191304792718249 11.54280298257746 9.375460271977332
Zr 10.948399048117016 9.439600811243729 8.843692978441435
Zr 9.50402738918708 8.873263606666557 11.450224781186906
Zr 10.251710544800895 13.760860732370661 12.73223216072675
Zr 12.787940839679377 9.455702930893878 11.581276085798972
Zr 10.53566819202921 11.676235720548279 10.862822581306343
Zr 13.683636973798258 8.514024971661767 8.868020308763047
Zr 12.872732538409727 10.280852985832677 6.918320880941117
Zr 10.985835353632323 12.424841091743376 8.011223383834599
Zr 13.379436533411589 11.43375283923227 9.569980285309512
