28
Energy = -202.53205216 eV
Zr 11.32071567682618 8.106712352478654 13.33182068963159
Zr 13.799207533729506 9.831022987617947 13.567750275716033
Zr 9.689162857780609 7.708034355076316 10.957413237610917
Zr 11.222044862318802 10.676055728976827 15.00619567902455
Zr 12.772800491891298 8.386582497027108 10.679544829662953
Zr 13.731921525956166 12.224196259268599 15.42797425912785
Zr 8.737293199550923 9.676016002554354 13.179618488405856
Zr 15.501076530184815 12.365663228807128 13.35143429983443
Zr 8.296773785558072 8.50060974546015 8.293743334895296
Zr 14.550683745963333 10.920364852152527 10.958899322870202
Zr 11.251611561848515 10.576412785255224 11.984390058326127
Zr 7.368501686030153 9.647160944545616 10.5991290694835
Zr 12.520915594828105 12.768155534967523 12.644073932995623
Zr 11.121196647426343 7.778482780492228 8.321518518076832
Zr 12.788501433455098 10.134846879975191 7.954964275919354
Zr 13.763231923985112 14.952218014850516 13.849442529009627
Zr 10.211293198151091 10.432559621948116 9.531400290041525
Zr 12.839777345308962 12.57845108505477 9.544209715958754
Zr 11.386191384511285 13.707031412090094 15.336023110099031
Zr 10.080390283450805 9.940086519431395 6.665542304523155
Zr 8.077947221305072 12.168012657377682 11.401779282985698
Zr 14.97086042724447 13.963721690231019 11.175139942750855
Zr 7.99765287173898 11.595748329175969 8.338321545427643
Zr 10.702983274716669 15.235682384730302 13.023290079623441
Zr 10.943079754337136 12.495838597812401 7.472037017641968
Zr 9.371367383096269 12.607104638389838 13.801421584023997
Zr 12.5862872922349 15.324576672042602 10.973089169082629
Zr 10.242161199728004 13.575008653318164 10.368492954995613
