23
Energy = -161.86433589 eV
Zr 12.60771921527621 12.998374900496643 17.553385425744455
Zr 9.900492973202377 12.194048389576352 16.721140521838038
Zr 13.8856774783534 15.150872740458707 9.332964039466725
Zr 11.149018506454743 15.768325883919175 13.777532693854198
Zr 11.30931151560869 15.759489718724014 10.584608270363033
Zr 13.451124378939895 14.941604497888973 12.227972049039055
Zr 10.158642010747496 10.912012214201166 13.972046455086671
Zr 12.747791224916952 11.960963666308261 11.69354427759851
Zr 11.775148224465829 13.229586177555877 9.322872783633631
Zr 12.050248318288945 10.388835629807103 16.350492866453184
Zr 12.095810666147711 12.888848493097184 14.529657423944736
Zr 14.608209906119288 11.769454686261101 15.965180754524148
Zr 10.89952392996992 14.929807649700248 16.484532290202345
Zr 14.732532360545864 12.349158161260819 9.409327936084884
Zr 9.117606172941537 13.75635764446509 14.493560034936833
Zr 14.711478447235267 9.877132169751423 11.199534583734277
Zr 15.239371612627984 12.803352314659195 13.36425159056108
Zr 10.246561451526878 13.434628642744821 11.975546849527657
Zr 16.19409990916881 10.144688147077764 13.648412443262812
Zr 16.10919413243078 14.383995033596387 10.954455226059084
Zr 13.249568830603858 10.04142858423384 13.825746487168601
Zr 13.784144295843861 14.891086381492197 15.483175736750887
Zr 16.93104296228617 11.658068836901318 11.233391559042682
