29
Energy = -206.6803841 eV
Zr 13.667744666211961 15.516030365916617 8.169471169767638
Zr 12.985168383044359 12.895667989463384 8.368529839033068
Zr 10.604801247541015 14.571021285199725 8.734897035403813
Zr 12.341001769107317 10.118573296353262 8.20001272378519
Zr 15.207945506112457 14.164862068324275 10.086150065807567
Zr 12.404163868587409 14.941708121885371 10.709187395071622
Zr 14.197644575895504 10.819264549338174 10.163033964406749
Zr 10.02497002820009 11.731703467380944 7.5163342148597305
Zr 10.86665223232396 11.93304553875935 10.354959498020413
Zr 12.460113670770134 8.531936694555995 10.694255369839649
Zr 8.230260072373913 13.348180875580955 9.370617723576613
Zr 16.16244070468943 11.739942038319564 12.008370344515074
Zr 13.693485601478748 12.963167874571496 12.267484471605453
Zr 9.857725260989563 9.074408731043208 9.163991643956013
Zr 7.604252643154353 10.775187374184359 8.969290789498203
Zr 9.443050499223443 14.287612740351772 11.7475093952033
Zr 11.619330545322521 10.771300270619252 13.041317838516571
Zr 11.54086493699652 14.323049418490893 13.555529018886931
Zr 10.00097224314968 7.746263554070522 11.723741926382226
Zr 14.440416041783541 9.354922879660219 12.797624910700035
Zr 7.620806129130049 8.879802629008937 11.107404673444861
Zr 12.18279381386323 12.474157085245741 15.550319615663293
Zr 11.637850507361065 7.981441749352368 13.912346767254709
Zr 7.937739864361162 11.60740508221483 11.798686618471557
Zr 9.417985903345489 12.420465067415519 14.28550180089197
Zr 14.908342603994166 11.75306180517502 14.56893964501846
Zr 13.35871267710815 9.708194554453986 15.441090464598984
Zr 8.818183348970662 9.454839293861754 13.783010983592304
Zr 10.607915597236145 10.121533584947956 15.842566213481195
