27
Energy = -193.5456605 eV
Zr 12.835021061433178 11.864149669910352 7.778667639325296
Zr 13.015187755951954 9.099269106260188 8.26158057168274
Zr 10.372315078302904 10.177904368486082 7.492412195093927
Zr 14.4499629046662 11.066986840969182 9.992621412409
Zr 8.265959131163015 11.584507991205868 8.748476794164281
Zr 10.532789831356627 13.431123602713523 8.41322175741013
Zr 10.902089218443216 7.7292849561361825 9.674367299546496
Zr 11.285890790702835 10.635234069570938 10.161696839192594
Zr 13.707213436071317 8.146238731137899 10.846052356433393
Zr 13.001135589288406 13.833792522300866 10.004609364500624
Zr 8.477672222685522 9.084919181716351 9.81036239078294
Zr 7.651495140688464 11.467673785551845 11.645715696889692
Zr 15.24915935563796 9.814965395260808 12.551541741530544
Zr 8.13005653598015 13.911769267143661 9.961912950181755
Zr 9.473048912469693 9.371617762817095 12.44619540217177
Zr 11.473200395415676 7.209778882722509 12.494144910356155
Zr 14.07561413203977 12.494233682123516 12.5529946932133
Zr 10.41763423343482 15.49021899467142 10.846941136065952
Zr 12.69138815000523 14.970503157152868 12.697081202454484
Zr 13.776414984228413 7.757728102287415 13.78111179988547
Zr 10.610725213761008 12.81408684760691 11.830300945929848
Zr 9.27891781758805 11.94861897115559 14.252458807115692
Zr 8.025462777653807 14.201602329825036 12.660050430881068
Zr 12.033113536718599 10.13665530813087 13.248884965341215
Zr 14.20679845953853 10.503420475776641 14.964109334461057
Zr 12.124218601154519 12.850860693466421 14.647131179990344
Zr 10.223177690787006 14.884110163301232 13.978328200992518
