27
Energy = -187.85379978 eV
Zr 10.283477356828392 7.029307238364909 10.483236356985156
Zr 10.789075067723582 9.683442548829895 9.164417108345953
Zr 8.728220457052027 11.990456310816949 10.138894144052642
Zr 9.518945394029815 9.341943330224444 11.8075807894747
Zr 9.852609205653971 14.753405358426829 9.902078191001094
Zr 11.045229505098193 12.612435200305717 8.370243185123055
Zr 13.970616724408899 13.294686364909978 8.012608366793026
Zr 12.449253837288273 8.659076584117114 11.205154896019813
Zr 12.08654411245874 15.272550332277845 8.071546600400612
Zr 13.722888698527381 10.941212014246064 9.684852932729695
Zr 7.599510630642166 14.253572529742431 11.960035975063281
Zr 8.385328086263858 11.66473263433706 12.955408586943701
Zr 16.338461028136436 11.937081450504467 8.884898539470983
Zr 11.467852369053382 11.7297447322912 11.425328730832023
Zr 16.378809355687046 10.483943029716123 11.155925346237598
Zr 8.323134005157826 13.630224262690472 14.791710702392466
Zr 13.998703495291826 10.534553774129535 12.837910994079744
Zr 11.47817311066629 9.39011076624073 14.097928278697927
Zr 8.952017915216475 10.319227094243946 15.420207032261683
Zr 15.169903514906794 13.198853726720463 11.18765137437853
Zr 13.483419829344514 13.482684424433698 13.564532528068703
Zr 12.7206151330396 14.62140901546694 10.707401449164093
Zr 10.306922410691842 14.366254638961909 12.724051572458327
Zr 16.064291411780143 12.09862072702861 13.739942097785276
Zr 11.064460533002052 12.28395259875124 14.58257972377672
Zr 13.656054194492668 11.193670875116192 15.662535483860035
Zr 11.220945981121094 10.458732408147759 16.819863789232752
