21
Energy = -150.09746206 eV
Zr 10.477199215132421 8.392065877775776 6.956711710747026
Zr 8.049240375439542 12.468540759618588 7.114292244573744
Zr 10.123780206492045 10.874973959099863 6.03279555189746
Zr 12.193215003379201 7.641480649095759 8.810328929156428
Zr 12.42878577802577 10.525845905547147 8.178680182512371
Zr 7.661115837104994 9.28273488342999 7.566450574026397
Zr 9.140436315041534 7.0057144279663905 9.195645890062655
Zr 10.915636189524648 13.075096776941331 7.742850298052514
Zr 8.869218535330235 13.6086156941346 9.688107803970064
Zr 9.56267534316966 10.781124227820909 8.92693405227818
Zr 11.534283838331573 12.282693918197825 10.619982196538723
Zr 6.776556474015337 11.5658452072138 9.509462874500446
Zr 11.601116728967884 6.477672215812394 11.14483175392989
Zr 10.266579788932203 9.096922432191878 10.938172559407274
Zr 13.0054458651321 9.447529533727222 11.0961386717644
Zr 11.117632121543801 10.918424140009488 13.124031503051645
Zr 7.266579784561444 8.997183066903021 10.765914084802695
Zr 8.514210803092102 11.718206743350402 11.879560057382735
Zr 8.908969386028135 6.82223002750555 12.169239222518348
Zr 11.317159468260092 8.084822704242974 13.457090114788775
Zr 8.684707139448454 9.34682104636834 13.497323920991812
