26
Energy = -185.74705238 eV
Zr 11.501404913359714 7.695825251261051 9.827994612913985
Zr 9.907978574370805 8.269549563159599 12.21872739180015
Zr 10.252945259229513 9.863026351131069 14.447281934249407
Zr 12.638779873960473 8.766699837114498 12.600268386151566
Zr 12.997991464268575 10.660825509146104 15.016167428121877
Zr 14.152832805421998 9.56205225124296 10.17888520202513
Zr 14.606953272778204 10.857030976824184 12.779307706370306
Zr 11.166646149314996 12.645493518762779 15.792946492412012
Zr 12.715130180479607 9.405995705653899 7.656885778475412
Zr 9.9100002235044 9.198041252318353 7.6457259771522725
Zr 8.584214357619741 8.790858035334502 9.909677550969647
Zr 8.347402681176977 10.766256674223415 11.983640982892235
Zr 15.9262927968622 11.781475027849496 10.3593466431184
Zr 11.194599251648812 10.57548898574466 10.076269329632483
Zr 8.68681891382677 12.377272086188343 14.241402193617336
Zr 11.369294843582116 11.990050018667795 12.77210796820935
Zr 13.573085634566068 12.042100208567351 8.280847777264407
Zr 13.62661468677645 13.111638799056156 10.863032768353847
Zr 13.66369968776903 13.482052831253357 13.930979423669848
Zr 12.423339104353841 15.45978617944128 15.068674741931872
Zr 8.673177545134854 11.703052230436462 9.059341594415233
Zr 10.943987427757722 11.711291036139588 7.150188888052126
Zr 9.197023997231938 13.663408903197146 11.412765442558934
Zr 10.058449849121446 14.71004333173894 14.024703454086225
Zr 11.158754283658055 13.639578445916067 9.244255545426892
Zr 11.853894258469438 15.130559849696194 11.936871187019456
