23
Energy = -164.84565311 eV
Zr 11.64977311287084 7.681125546690738 9.558405673161408
Zr 8.72394808428911 7.168099617219342 10.366076161892675
Zr 10.649463415805235 7.008740122365601 12.304144760311267
Zr 9.383941456468772 9.181627476693555 8.177542484181501
Zr 12.234568230568579 9.556969959794532 7.186830521944975
Zr 14.101563748171895 9.362043163137473 9.179720441092028
Zr 9.900678020238464 9.779990816249471 11.403393422039128
Zr 13.005715226032445 8.823610052948233 11.915597269956862
Zr 7.123661945916875 9.418271215325774 10.1741099586827
Zr 8.051293502037428 8.629561511187825 13.026482939299468
Zr 10.550276508716532 11.746075087467803 7.064878186859165
Zr 11.639878198864134 10.98097603408767 9.8126054330925
Zr 13.395584367968087 12.257714761544692 8.174577173795678
Zr 8.345112923870778 11.793982365100458 8.980883865502877
Zr 10.911807728929812 9.003874581236284 14.161358369753167
Zr 14.419777589680644 11.399799484615825 10.973976584859916
Zr 7.4048258176078665 11.643572425147765 11.941804296410504
Zr 10.652586188736088 13.863138407139994 8.983331638693217
Zr 12.192004277950856 11.537005338400258 13.037761242089104
Zr 9.337622204243226 11.276643314095397 14.011601820494123
Zr 12.758839636458347 13.608243020436774 10.895082961763057
Zr 8.010049656684933 14.13171172071158 10.378190509327865
Zr 10.067249701109686 13.246651449442524 11.972589141859505
