36
Energy = -263.60974289 eV
Zr 6.894210385025275 12.525565294090445 11.513155674262949
Zr 7.9162946071663045 12.554943389646233 14.269564532118446
Zr 7.304321488543956 9.957543443653671 12.917078300847777
Zr 9.588769761407926 15.045519288764272 14.842125629625082
Zr 9.054336254907055 14.527805462736659 11.902626681275594
Zr 7.508151316811687 10.156768471470793 10.11350128681264
Zr 9.972690525746376 12.642575627598513 16.43313207515925
Zr 9.639571049479366 10.16385812909327 14.809063743849258
Zr 9.626568425079038 11.269317778483813 11.882902402360008
Zr 8.922945615157829 12.888722026138185 9.332975458061219
Zr 9.961477237803592 8.45737148647288 11.522904629507904
Zr 10.996129026922308 12.740023686850684 13.795485761815401
Zr 11.668228891038005 15.683212321272444 12.789474350776329
Zr 12.445797362902242 14.214702029475744 15.868261645543809
Zr 11.162918521100986 15.252911256267039 9.646378065633026
Zr 9.734182189982537 10.085798890902693 8.507281115501055
Zr 12.07262816178377 13.030176129671382 10.852613234686938
Zr 12.708440292515744 11.279945655731675 15.900895244347014
Zr 11.485217316089013 12.432634779684747 7.815530889973408
Zr 14.157776846932489 15.435955464377853 14.016915840028693
Zr 11.361683709074597 7.5826390944378 9.038796032678079
Zr 12.2126764399779 9.772228762017663 13.328404836876764
Zr 14.189891082586017 15.336413863744152 11.062747916289105
Zr 13.902524127336587 12.41386649915296 13.090632577510068
Zr 15.391457952349496 13.007229938029438 15.44176109353287
Zr 13.718773346512744 14.05850834112133 8.563778017755338
Zr 12.33321542866759 9.610809584938426 7.2475556625793764
Zr 12.274475387180363 10.158571070990469 10.26238629854248
Zr 12.90178215531149 7.55415730476627 11.524405281022723
Zr 14.992499968640754 10.034443303611164 14.590212709801149
Zr 16.348278007724968 14.32041016448524 12.85727319701065
Zr 14.21760401617538 8.29189124205791 9.017289581603345
Zr 15.646482473946506 12.738222060022975 10.454852797766758
Zr 16.794267816143996 11.593860754740023 13.067038970664301
Zr 14.335383508935967 11.28425174311539 8.216962152602997
Zr 14.95663114878909 9.859508259651822 11.574348833826521
