38
Energy = -279.36875376 eV
Zr 7.068300308738719 11.157200909959634 12.850956544296341
Zr 7.23063517646396 9.526192594156157 10.242304066135736
Zr 7.600305347044952 8.16865083570489 12.513488982469612
Zr 7.516574546088657 12.407407249247626 10.174253022077115
Zr 9.883708542090867 12.06602973901221 14.546307308974217
Zr 8.785455288551306 13.97350260620687 12.629641139802304
Zr 8.508688773194164 9.54717654038382 14.746481965642975
Zr 9.739577557531902 7.801707704072748 10.413195982142856
Zr 8.660381470639118 15.075699125630798 9.932654003282
Zr 9.707617924207193 10.309432155628095 11.920513933066728
Zr 9.19125342787143 13.210759374942954 7.824536793653232
Zr 9.431025738053766 10.379503146246426 8.657105029664516
Zr 10.248347292751383 7.434672813107914 13.41121011085865
Zr 12.490540094256882 12.103390028786295 15.585777005671314
Zr 11.088826445647847 15.013201380938197 14.636306631734321
Zr 12.28587587076507 13.321186751851094 12.80964893654537
Zr 10.563380267881413 12.7699439862057 10.37602018790825
Zr 10.868517065965804 15.893055414987309 11.587414185959869
Zr 11.131172640231862 9.322426743670006 15.707321964699258
Zr 11.35945279314449 15.073785944296253 8.57255079575924
Zr 13.33795716171312 16.19488656580024 13.157965308490486
Zr 12.88800464117106 7.353035916219609 14.457147183898876
Zr 12.487903218330544 10.1027912743479 13.056079609448176
Zr 11.944936475104942 12.185771811353217 7.587109958259153
Zr 14.147058003779952 14.261651384041476 14.98586857988387
Zr 12.099174820215746 9.942433931424153 9.62727857342042
Zr 14.08086795565761 9.66449026043172 15.630043437560452
Zr 12.658240200783615 7.53888775770688 11.522143583054554
Zr 13.975627687407059 14.182455285696715 7.6858527502793175
Zr 13.652328630981941 12.587736763973394 10.372909908711742
Zr 13.702516362118043 15.75022265245384 10.366726674123722
Zr 15.135809506947433 8.554767981732942 13.201769775087467
Zr 14.649352178969444 9.67522101862589 10.703291080521149
Zr 14.982721681995724 11.664795699127966 13.510647998680486
Zr 15.118145341709566 11.557284309361814 8.258268973265816
Zr 15.541087459435168 14.369505040940199 12.331010472433745
Zr 16.063644412936377 14.187809116304063 9.427436489805764
Zr 16.553527223228873 11.849921905357844 10.942558009501473
