35
Energy = -255.69268127 eV
Zr 14.881349969863527 13.973620953207423 9.890548834962614
Zr 14.671625973043811 10.577637951992624 8.992069936598124
Zr 13.745566976526318 7.77274425394998 9.538400102410213
Zr 16.246644717278357 14.192005915887117 12.456319906220468
Zr 15.297095843219319 11.706009467878568 11.844868483807447
Zr 15.613123086760105 8.912874441015298 11.229456426716174
Zr 12.399714212335681 15.667943154750795 10.016776074740338
Zr 12.37944863582705 12.576797374903832 9.264438757494906
Zr 13.30892997743551 7.433779140727434 12.530581507050892
Zr 11.806040122686797 9.715652467117291 8.455904327569572
Zr 14.792539143387176 16.4262717448134 11.424703315977535
Zr 13.142402747776686 13.967432982107423 12.593192621126597
Zr 12.779560720900488 10.111814724721945 11.196295167614197
Zr 10.179976844644173 14.686774547805681 8.689455470937613
Zr 9.16152972756781 12.068291471969635 8.743433280464803
Zr 11.119353729434668 7.656851122405655 10.536568628628151
Zr 14.970357362427167 15.952391782586943 14.193492594154135
Zr 12.276339425883114 16.792357329047604 12.928031915647198
Zr 15.091604663665757 9.590675313078519 14.038168979439098
Zr 14.803850851915739 12.926046970997806 14.965870775346163
Zr 12.75263236813311 15.271547572600635 15.45881238176981
Zr 10.498648311516117 8.568213304563951 13.325391769655742
Zr 7.710015565803557 14.366430401851071 9.997217314543436
Zr 7.879961150682282 14.14592910018306 12.830412868216733
Zr 9.764294965272997 10.09687557857899 10.724466622175534
Zr 10.295848826343988 13.155480944449202 11.346609939614398
Zr 9.734554536933576 16.084118070821606 11.422607721132312
Zr 12.366257414855257 11.109473032710003 13.785295009047227
Zr 10.283853327692889 14.754226692842453 14.144115882674047
Zr 7.5745022590813855 11.792380508361939 11.254940693075783
Zr 12.757128870452494 8.292303092963866 15.178540636631068
Zr 13.602215457505817 10.624253359763092 16.4512259559346
Zr 11.821039984674098 12.797433633003529 16.142219137941495
Zr 10.683312152818717 10.068143210135872 15.950139890569307
Zr 9.378526463228217 11.61172930113251 13.7629129329063
