31
Energy = -224.65787609 eV
Zr 14.237940466491715 14.963312006482083 12.41149903425446
Zr 15.643937080532664 13.267391670315229 10.705001450852256
Zr 14.308631250403517 13.979683052296913 15.177444901029238
Zr 11.30588066501441 15.395162449977088 11.15088151033584
Zr 12.99341525860244 13.554564882242412 9.745934999684236
Zr 15.922034541732778 12.390795129102166 13.505072318309992
Zr 11.772891633151763 15.167083318583218 14.14959336694968
Zr 10.128779372016576 13.132664187962234 9.157418114358796
Zr 11.959919158509877 11.425343988473445 7.613687084910888
Zr 14.746592946224352 11.654726529631047 8.41255337673657
Zr 8.442791758962587 14.741908081107887 10.599610686828862
Zr 13.090512743058337 12.271290309019502 12.919551419684733
Zr 15.438966448371506 10.463558771925344 10.96336982770998
Zr 9.21801972559799 15.68378923048155 13.14714860532198
Zr 11.86106219302392 12.95522125683659 15.99953410900254
Zr 12.279069949997137 10.637696523599928 10.417822914554385
Zr 11.4399059848592 8.618361324923114 7.846108548775439
Zr 14.046201826111782 8.893518222936297 8.739867789723379
Zr 10.148436551481014 12.754487772037727 12.29656891933563
Zr 13.81649624372408 10.992841927522853 15.508841133013377
Zr 7.221842361853432 13.723149851766937 12.960246349596554
Zr 9.261449398168075 13.487577184303438 15.126751981769521
Zr 15.175987970663185 9.51918008303728 13.632657152237767
Zr 12.352257355576043 9.160950271442852 13.187240832929398
Zr 9.583015096346225 10.21260836403832 9.111229167424197
Zr 14.215734349547294 7.903079398132711 11.40686609173628
Zr 7.749179177093769 11.799450437251808 10.807626149350297
Zr 11.416130747342631 7.837513440569685 10.533951658134953
Zr 10.557004460337035 10.713782346650675 14.873248973778725
Zr 9.589682798236394 9.580009958676172 12.112169885339403
Zr 7.959452453040726 11.154072206811986 13.748869566587572
