34
Energy = -248.94664879 eV
Zr 8.783373603097374 13.779864204968082 8.639878581668585
Zr 9.601029127249271 11.989457805811092 10.788175583236592
Zr 8.619792392993114 14.738381636323231 11.397521350350882
Zr 7.950673450294767 10.957370955227384 8.52858348880268
Zr 8.410134298781397 13.003792601537317 13.647949653381161
Zr 11.294096509834986 14.162926529643777 7.32695646810418
Zr 10.37097691357779 9.363524899553637 9.437528687941521
Zr 12.580399016309597 9.662386886616172 7.819410668017796
Zr 10.810118999402338 12.532485358242587 15.145203640651687
Zr 10.437638675679269 11.51067300797472 7.303294980053881
Zr 6.973907257483315 10.733930169996018 13.257870108633314
Zr 15.43835719376463 11.816307707459687 11.921916759852362
Zr 13.684101248818887 12.306526425238152 7.072784471370207
Zr 13.61158433454451 14.909135569967695 8.58268120531301
Zr 13.059298717480784 8.040117638652978 10.135367825186272
Zr 14.909474170626618 10.27481485609064 9.180300082705326
Zr 7.794943478993218 9.314506600512447 10.867762903723056
Zr 10.292460715964506 7.573588179064613 11.7417170254861
Zr 12.790812768826543 10.54700418655336 11.843101041448788
Zr 15.245499844125547 8.857429327289337 11.662063001594555
Zr 12.391571407515947 12.345593739548278 9.545861587096057
Zr 15.406888714366849 13.06391923911286 9.375730267707047
Zr 11.204917033326064 13.779598761193304 12.659975760986292
Zr 10.116754578591324 10.312960203539776 13.079591868865785
Zr 11.12110567905871 15.174819439712529 10.070518155890348
Zr 14.71142904591853 9.998512274111837 14.132701283228077
Zr 6.878992890434587 12.378400949985261 10.89081593869436
Zr 13.815133380496203 14.295722474352436 11.479887571598244
Zr 12.884926971861727 7.882288049497082 13.202212091713356
Zr 8.007349573961298 8.216631097833371 13.56302635917854
Zr 10.435162127478117 7.81116510713344 14.674057162247859
Zr 13.492815796436945 12.489830640750737 14.188150739158939
Zr 12.142201431733605 10.052586742605662 15.393083941450966
Zr 8.938004496541133 10.264122786134063 15.560222759240741
