39
Energy = -283.65654543 eV
Zr 14.131832761334522 13.7467923951504 17.233844580704634
Zr 15.833311729472047 13.217286608824812 14.748846467131687
Zr 14.290506031553415 8.40660437890632 15.001396363220216
Zr 14.343345441724747 11.007044491841386 16.067212592352266
Zr 14.487278556319165 7.82566165387192 12.186689479614278
Zr 16.105485325828862 10.15951589950064 10.63782752135694
Zr 16.678018184993466 12.612248145962175 9.111071944729101
Zr 16.89014594138658 12.848643963639043 11.99470106863687
Zr 15.814086464558958 10.435510312200186 13.522467610944169
Zr 12.981731740073648 15.603535766799082 15.512137988913102
Zr 11.72651983455767 12.399756815976591 16.95765961325418
Zr 11.607109269916704 9.596048691354111 15.62994208575919
Zr 12.086505856811906 7.218486189888165 13.975676844867877
Zr 11.603945775773996 7.553292854671932 11.326004178406462
Zr 14.80915542734641 15.083991795872647 12.773795656040479
Zr 13.004998924028754 12.889197221215273 14.156373635730569
Zr 13.348132306986324 9.228297629077566 9.797695403949314
Zr 12.66601996497224 10.082195870171455 12.814992990551461
Zr 15.763888458880015 14.993233582280503 10.23164350849124
Zr 10.198885870530459 11.876430734673983 14.062541636762068
Zr 10.383085822112232 10.033514043951163 10.51303067471602
Zr 11.663095086165868 15.391288067075246 13.146744186345327
Zr 14.682803871490014 11.001952955244688 8.161679222750248
Zr 10.811040281077288 13.129751184290285 11.283882311084021
Zr 11.556285495025769 15.306679394584831 17.892627804019963
Zr 12.835877671609943 15.408302696431054 10.270997430527082
Zr 14.086466555480197 12.453215375949071 10.972640396896434
Zr 9.845456127912255 8.95548930676323 13.252255337220438
Zr 9.938766165858974 14.143423363771234 15.82091991093942
Zr 8.893684501092608 12.153420349045234 8.935634385406525
Zr 14.146180280304293 13.843585221760568 8.145661038595765
Zr 10.271741584171009 16.78814868589779 15.492094857854779
Zr 11.963414230706038 11.801974940023728 8.623835786876414
Zr 8.237649939079372 11.65972916995774 11.818337166216633
Zr 8.840267412692024 14.641710844015456 13.151186811532877
Zr 10.844621096976175 14.453325119917054 8.382096765772916
Zr 7.676536393640154 14.161596361063056 10.618538832850984
Zr 8.236962771161735 15.071341894992633 8.236356280083578
Zr 9.909735531270545 16.102645270242984 10.791961620068994
