40
Energy = -293.88981193 eV
Zr 7.825566065887805 10.170213911094537 12.926933479836945
Zr 9.736527808738298 8.213372305137657 14.444085290269935
Zr 8.806974696673551 8.031510791658052 11.508915847118157
Zr 8.969220594695079 10.682807043261212 10.102826972616109
Zr 9.330847732305596 11.270582682081194 15.0479187529349
Zr 9.318719820635273 14.188381692714614 14.38477128197562
Zr 8.942924808924985 12.792073167543325 12.04626191708561
Zr 9.777643522747256 14.023875775516805 9.436432913708751
Zr 13.090454789966541 8.181751376806707 14.040015967244614
Zr 9.154281751678344 16.05939956415176 12.070920989459017
Zr 11.228621566233262 6.948628610102732 12.16870512788464
Zr 10.879383152081882 9.952408159538267 12.519870903631485
Zr 11.048511218691678 8.707873358234066 9.622021493758407
Zr 11.553567945871652 11.492795089638388 7.825796487256055
Zr 11.401366547363091 13.883612220135777 16.30048614091076
Zr 11.022386495878628 16.70640581530645 9.724584729781315
Zr 11.061302518186693 16.465699947345453 14.657563747574692
Zr 11.948163869713543 12.312336992513966 13.89007029027351
Zr 11.677438283722323 10.138164041394065 15.883708408788953
Zr 11.788945237879936 11.9314310885881 10.390087764716007
Zr 12.639357910859014 14.42754540920002 8.839758672008864
Zr 13.490568532122268 9.431344935220311 8.5725727649788
Zr 14.001612515637714 10.880816639775713 11.80922934088456
Zr 11.53774152503153 14.640429387453237 11.757501922527112
Zr 13.713672485459899 7.847953995666366 11.078811152165102
Zr 14.314589184070124 10.562253466196681 15.053168570964345
Zr 11.589766290446418 17.774652380236834 12.220402408972085
Zr 14.251851337100128 13.157002771727123 16.468804506073845
Zr 13.358140490737672 16.0186013230914 16.450427651979226
Zr 13.572224666140432 14.541777384293637 13.859014723131972
Zr 14.698954480509464 11.925215585444187 8.715634337882951
Zr 14.634147185462332 13.737734353229204 10.95671491734205
Zr 15.89892141139081 9.419681383501038 9.917324955995726
Zr 14.050735384984725 17.37450219304951 13.82435875003535
Zr 13.853037409959585 16.655898395578827 10.810320573971424
Zr 15.89048351299173 9.176193823035794 12.896555082379937
Zr 15.912119308800632 15.362653716138484 15.3387247906219
Zr 15.907715137659705 12.620701866183513 13.784304124108198
Zr 16.14457134812915 15.444767425818416 12.54351335538478
Zr 16.77286032372415 11.761454690534848 11.102086807381339
