47
Energy = -348.16436811 eV
Zr 17.20289031296893 13.230378458237332 12.826857368397306
Zr 15.102410174902849 15.670087065297048 12.022046129092123
Zr 18.41202587140828 10.637620022080695 12.118044779037254
Zr 16.82683218233086 12.14939112596451 10.161420077443344
Zr 14.225659450989323 13.93529406460685 8.686715582992296
Zr 15.022737544499485 16.675788542341145 14.663162995228525
Zr 15.052152749694628 13.493782179448608 14.704791333823756
Zr 11.524680680362769 14.646382031093474 7.730940774396176
Zr 17.175613080702146 10.860220686631731 14.93402640789345
Zr 12.889542154789458 17.770788670850905 12.67523706426369
Zr 12.469261860300293 11.929950821193167 7.261029141148597
Zr 16.451434112355983 8.926495422718908 10.378971196438712
Zr 12.540402629451814 15.600192265620702 10.482312700697884
Zr 14.197373503225283 13.091504605354663 11.65514904028427
Zr 13.635581129594023 15.272658650654034 16.778170365804833
Zr 15.564320574133477 10.697775179320244 12.480853754202826
Zr 17.207432069605442 8.353043537999806 13.198838922683409
Zr 14.948198476895362 11.29295305854565 16.79646075081806
Zr 12.678752674121553 15.027681121790472 13.933461018321657
Zr 14.375991320299399 11.020253008204369 9.192029938404449
Zr 12.467668516632468 17.61310726789466 15.536333188134428
Zr 11.698150034128792 12.73147316594203 10.111711681666149
Zr 9.718492220840194 12.351428472127814 7.952025480900709
Zr 13.663261597732825 8.165877009585238 9.470391274106083
Zr 12.777454382141098 10.100745919022845 11.579375896084933
Zr 10.56429134770526 15.505881753052435 16.181500942207805
Zr 14.492209566698815 7.534140051119217 12.344988057551314
Zr 10.424650496562618 17.509530228470844 10.937083506615204
Zr 15.092863020660241 8.588677413049602 15.20214603238971
Zr 13.330776777970547 10.9330958398233 14.335488697271028
Zr 12.244286986349477 12.697309808252298 16.411399305965798
Zr 10.073344485662322 14.91225211000532 12.41315690240376
Zr 10.967209840640013 12.4896911949382 13.466851146197365
Zr 9.270977717678305 14.827914194830559 9.691010595926565
Zr 11.083472023687923 9.89035754006541 9.258470568569933
Zr 10.01678651737824 17.534245745585743 13.923596260291067
Zr 11.625349558224126 7.511694453506066 11.242989602488263
Zr 8.931788737340883 11.94725368238509 10.845803844122203
Zr 12.768267768874075 9.560766751490842 16.822092067884146
Zr 9.919394221342044 9.739609387904098 12.45139851736472
Zr 12.174231141690644 8.054809060184137 14.18223533153777
Zr 9.295663342626813 12.961769843451945 16.089100003755174
Zr 7.899753533893007 16.718934722928516 11.915577635582308
Zr 10.372776859744501 10.35800507207798 15.284979485645577
Zr 7.155229090830399 14.008388381287668 11.825062890402943
Zr 7.970317351017348 12.090865539990782 13.76714270059929
Zr 7.986848260183609 15.145051106422667 14.511661356289938
