41
Energy = -301.58530242 eV
Zr 10.140178256796249 15.855268830835557 12.860199189899792
Zr 9.121795067839686 10.020462239207516 11.547792081305454
Zr 13.291182196149329 11.95643633128132 13.77072345300701
Zr 7.3084520430258895 11.628332696874228 13.435129176689708
Zr 13.424791301715675 15.975174184387091 10.360243694656177
Zr 10.146545810138035 9.096711980453025 16.320632050029015
Zr 11.893947634225304 8.070572708164372 10.665729206269805
Zr 16.05304602186442 11.570454170128638 13.687567351559991
Zr 15.081314116650953 14.369070383648255 12.25766705790019
Zr 8.311823251248553 11.542830893708098 16.322871895493233
Zr 13.912991262490733 10.7249825561524 7.088944976651336
Zr 17.333022114969832 12.71519660337951 11.197802554873993
Zr 9.147963108856676 13.262268268849109 11.889775219349286
Zr 14.639560118810774 11.587513748408657 11.11653063641359
Zr 14.081912542016084 8.972022181427365 12.577282760910867
Zr 10.913294610780255 14.992669739653168 9.175689610433718
Zr 11.319975591441924 11.60922246832324 17.313156082144
Zr 14.866180120251748 14.221573731774997 15.173719326282306
Zr 16.81773007800982 9.839192699347207 11.181890733846439
Zr 12.840893543843695 16.04716033539867 14.163456566860107
Zr 14.416616279721984 9.1036061022133 9.469464844198635
Zr 13.16282511289862 12.988583386569298 9.190371762867722
Zr 9.992623588568415 12.318953769322652 9.17701031745606
Zr 15.89333050265745 14.475755036306873 9.231309936888728
Zr 11.042452026110443 8.408017568486246 13.428733158240485
Zr 10.257724979567726 16.250098355300235 15.745768029158656
Zr 11.846737153867755 12.98968455414298 6.747801059404245
Zr 12.849248794849107 9.578985404465964 15.548748759138306
Zr 10.19211115665957 11.12751476959836 14.120469661346217
Zr 8.12028309913072 9.119022433343765 14.354201488179944
Zr 11.56484712274055 10.178335193093034 8.502195509092775
Zr 16.393271754599425 11.48924676808708 8.610143461789384
Zr 14.122559765653635 12.02926804952195 16.609059086465873
Zr 14.907121176130575 13.285073280316615 6.717076235461047
Zr 12.0551772548878 13.922336291242013 11.844337490127748
Zr 11.775134277064877 10.841435811131223 11.46897392430388
Zr 8.14942981912621 14.227119399547604 14.71595959120146
Zr 13.43298464925321 15.4990783024632 7.580763980334021
Zr 12.529016464383584 14.665746636252173 17.065153736689208
Zr 11.11831993729095 13.686489869841674 14.772792623898132
Zr 9.612221803818482 13.986150851273964 17.336623457839824
