5
Energy = -27.29231041 eV
Zr 8.853047854402133 5.861238370263524 5.294510519466901
Zr 6.090586178847165 9.234392352544823 8.324146799162978
Zr 5.429349725788803 6.796192642357387 7.958252254599317
Zr 6.82921355102363 5.189583682891044 6.682025337254613
Zr 7.764274441629168 7.883104311337236 6.705069832744033
