53
Energy = -391.27118426 eV
Zr 16.46695052738861 10.072485368309247 10.894734866649065
Zr 15.361416182901769 12.101616943098632 9.196738068904097
Zr 13.222793923235933 12.821526336038339 7.053183913219235
Zr 17.56220651525129 10.278913279344744 13.550095980565592
Zr 17.357418508261272 12.75037714415401 11.776562263771197
Zr 12.16693782934527 11.202472480532796 9.224442543043239
Zr 15.209983943440333 14.781199726581375 7.688225559304098
Zr 14.84934829177868 8.844785542454508 13.085867077802801
Zr 13.722988920429843 9.103620547120757 10.536450229612903
Zr 17.874281564312497 15.802770861151945 12.761522020316528
Zr 13.18096477601711 7.641420379519404 15.50521908465301
Zr 15.968266731097126 8.834729158859554 15.635921068256136
Zr 16.112514768420656 15.139631436819885 10.386105668154208
Zr 10.883447825078175 8.628588423982018 10.184520478496333
Zr 14.275197566315265 11.977659920361297 11.98058668724981
Zr 11.98944174984619 7.6985318335500645 12.746596761862156
Zr 17.992858692135723 13.176832046174857 14.55724373706679
Zr 17.66100088282294 11.010613632761881 16.452097119680328
Zr 10.542503214970617 13.549918967454662 8.26357083713558
Zr 12.477764935882458 15.563079283523207 7.172500484964194
Zr 13.20504713989764 14.05712700046208 9.7909532143759
Zr 15.25792154406097 11.867760710377436 14.90541852090035
Zr 15.552899114479732 14.66176145588254 13.400074361309994
Zr 11.514432783712865 10.67063619640785 12.306171556477892
Zr 15.139499163415323 17.33928216437001 12.014450514839602
Zr 13.939271197099202 17.04289009817917 9.188357672420912
Zr 16.34660163692541 13.628859171471905 17.016994928751533
Zr 9.360920664086242 11.020465672782427 9.987247953953428
Zr 12.930375289917857 10.39266727286779 15.246932086323683
Zr 15.910532147100035 16.752685766922333 15.660906156406348
Zr 9.13981975482653 9.022776519719995 12.49043359687301
Zr 10.845323200393379 16.25218703567085 9.538387881855813
Zr 12.695946024312033 15.437547821171156 12.445113900731595
Zr 12.256754924951933 18.14304500395895 11.321365281417558
Zr 10.712135074358121 13.469366303513375 11.392550171912466
Zr 15.053391558078175 10.463798832080732 17.682851924397177
Zr 10.513106614552996 8.668318119578144 15.108779016857197
Zr 13.792802514255705 14.94061203653242 15.591588903194088
Zr 8.387126770309175 14.644517795996544 10.549532285340556
Zr 11.870257626012744 13.180194711723852 14.719211581751832
Zr 13.622231641521848 12.780062703414968 17.753405115362497
Zr 14.598899742873462 15.567730553539214 18.33017800109546
Zr 8.000429761645995 11.963438150054802 12.126859450531263
Zr 9.833407294795066 16.765091576126867 12.189886450147457
Zr 13.309974892514044 17.7519959034514 14.14415733589882
Zr 10.890118317332051 16.27435746411518 15.109061756373194
Zr 9.583983205241001 11.436817526494455 14.638149088183345
Zr 13.092577640874325 17.508736994187707 16.908155936507235
Zr 11.031627771177583 11.661893662583383 17.280148755400692
Zr 8.885503731026018 14.384667955706362 13.639824730122927
Zr 11.702832141780124 15.00823818720341 17.756116504508057
Zr 9.323907714153558 13.879763078123593 16.396891056982863
Zr 6.984004093984819 12.53573733859954 14.90701216721763
