54
Energy = -400.45270059 eV
Zr 18.855537670358004 16.762677707062082 11.760283369896491
Zr 17.372152070943205 16.054327212508515 9.416902988089896
Zr 13.324964178056332 18.27621218963857 11.03347945708386
Zr 15.50412318492159 17.89433684983069 16.46834655697672
Zr 11.312674993588184 16.240111116543734 10.508836921604184
Zr 16.20662092772591 17.999620021444294 11.313614088042062
Zr 14.525563379319712 18.614256013684702 13.724563858315358
Zr 17.264254255018354 17.239184647390584 14.211983797884816
Zr 18.888610541174174 14.03613274429325 10.75311494177492
Zr 18.90309805775207 14.632725131226774 13.756996428465575
Zr 14.526957134134866 16.2413656231238 9.423680400216766
Zr 12.400567736297264 18.061802148268242 16.03211090910047
Zr 16.414410204872254 15.063706119474432 12.160223161170963
Zr 9.535219947886189 15.443227788566377 12.92134695173441
Zr 11.26313003766739 13.023976564195392 12.349632023097309
Zr 9.500084429699166 13.737751806870264 10.12146366230551
Zr 16.06969019363484 13.345412939106977 9.690539380600017
Zr 11.624213883911624 17.617815220705722 13.223871320210401
Zr 12.68634673677437 13.82056474476971 9.697081715676712
Zr 14.299247974021318 15.833391239377999 14.975861216224354
Zr 13.460820800878018 15.399536485416197 12.216714344826597
Zr 9.583551907079622 17.488047063583604 15.132720040714167
Zr 15.498115854859476 13.16450621455894 14.476997776185051
Zr 17.49732490828732 12.035321925042563 12.275228322738231
Zr 10.16264932536666 16.581643255588258 17.84053908936627
Zr 14.076584169802981 11.432416095499493 8.650606513610533
Zr 14.294839709930667 12.159234697090238 11.710879113318315
Zr 18.24776497840948 12.177010975593555 15.076618489639838
Zr 16.94237501018725 14.940491427020623 16.260992691898362
Zr 11.477416556310974 11.136786819129936 9.863284056372068
Zr 16.106661273459473 10.259541560279699 10.226391283703704
Zr 15.803013694498212 10.304572774296835 14.188431100279198
Zr 14.105666850569804 13.527746165150706 17.29638324352942
Zr 13.368943910880192 16.275817025687093 17.873066293678846
Zr 11.430618078265969 14.934070668431508 15.727530061391636
Zr 12.722133601338982 9.817386858653613 12.694772165048315
Zr 8.293581612655496 15.166443177433615 15.713678047741151
Zr 8.73485647537655 10.990618638953991 10.65428039285678
Zr 13.524670798318793 8.81846093918786 9.860716869940507
Zr 8.184352617379126 12.908850723889648 12.668419186785083
Zr 12.69925218639485 12.09237809691704 14.801558848778582
Zr 16.493895565072485 11.80859742884066 16.995008597079558
Zr 11.6788365619374 14.398805064195308 19.011806832979207
Zr 9.573222717107845 10.169862534185503 13.255261462487379
Zr 10.62510734840233 8.494509659012541 10.93948016107587
Zr 9.702078995031082 12.45016320912811 15.092711882359728
Zr 15.38540090460811 8.268912400851724 12.20547398616795
Zr 13.705130931746304 7.952158142727467 14.741264312405084
Zr 9.286783906292396 13.672796900062703 17.747628720769868
Zr 11.639477036137231 11.937770639984759 17.559672972728464
Zr 12.967887920864461 6.8725165918542706 12.02569907618564
Zr 10.887374115993852 7.606681695391074 13.702935222706769
Zr 14.01231370842017 10.317286091083789 16.697589445544132
Zr 11.226550707667231 9.540496028439744 15.765467980002194
