54
Energy = -401.42531523 eV
Zr 15.256402786851199 10.664662134095355 16.6387367011276
Zr 10.941405864213394 10.110109069415595 17.401641489882785
Zr 12.76172523663748 9.665388988320103 15.05049401092819
Zr 12.9046587851175 12.460350291876344 16.849065227443365
Zr 15.554679283142272 9.01497672371518 14.174771574449247
Zr 12.971795705252529 7.310082450937124 13.10535133076827
Zr 15.719083477248077 13.613810333857279 16.540573413171483
Zr 9.907164581525068 12.753322669157209 17.8431240838763
Zr 17.468776393886298 11.575114882925847 14.702267966047575
Zr 13.424187716180018 15.340263293357287 17.3319414748255
Zr 10.88186706758861 9.703075593165389 12.543962274389239
Zr 15.609422850318973 7.653515545895677 11.529072768679196
Zr 14.714576101128943 11.926491225722124 14.011188304975965
Zr 17.544106253412483 14.54185523329387 14.622468518088988
Zr 8.201189719459787 10.803070894970414 16.481161987006438
Zr 16.63081604955982 10.538801136215229 11.822052110602757
Zr 10.643125629201963 15.03029150231842 16.074212521680934
Zr 10.580454898960102 11.920445711270714 15.034293261148454
Zr 12.274665851677229 12.474290080076802 12.521966221543886
Zr 13.016164880642094 14.647350826879853 14.485787988335233
Zr 15.455864878111887 16.462667689087993 15.251168284794003
Zr 13.120636387558411 7.342212073212448 10.100834933084114
Zr 10.379238584702518 7.635845907350486 10.374126542801939
Zr 9.711885513839817 8.907448092995766 14.96642460868275
Zr 17.795834791829897 13.343995587194316 12.166763674660446
Zr 14.759458704970152 9.370329734847912 9.019231334842356
Zr 12.602491491224251 17.36066482734698 15.493210682203806
Zr 8.117353903438982 13.550288203324593 15.579551848017948
Zr 8.159749371171797 8.99001657386153 11.638733065573636
Zr 13.809205183717667 9.837685875306205 11.896014076545608
Zr 16.97787459959102 16.386742405562014 12.333512229843631
Zr 8.08666371537172 11.389691171440031 13.37803750618995
Zr 10.944701383023412 16.742377990903016 13.191003678659557
Zr 12.62196560297267 14.991507856361405 10.981191444127168
Zr 11.964656216846908 10.465599754448291 9.681889730560277
Zr 13.960435268784014 17.534573670105182 12.860742620646066
Zr 11.733310696054541 8.573768760004464 7.669505141753523
Zr 14.471028028446584 12.326854147598416 10.133617236968703
Zr 9.76016764202105 14.186149194563557 13.122021878143169
Zr 9.753661791764765 12.065075096882659 10.904923568838495
Zr 16.59519438775807 14.598034523344902 9.897871350540116
Zr 15.053671178302315 14.509352724253294 12.523113841305793
Zr 8.897634321321561 9.642401697331064 8.790812546349823
Zr 6.900832120434578 11.189320446704574 10.37870509783001
Zr 11.896527419359717 17.85580367063709 10.765830810453654
Zr 13.373928420189921 11.325515183381265 7.2566780725887945
Zr 7.416191734365158 13.744838848058796 11.40212732693355
Zr 14.769880260801154 17.013736677551915 10.064205341731471
Zr 11.679701622140557 13.460388941443389 8.473152464369056
Zr 9.769343385859845 15.335221036522375 10.266021082734266
Zr 10.515458262600838 11.211258173288101 7.055179113635894
Zr 14.317570471220513 14.667650605823885 8.278689101706764
Zr 8.464450539567112 12.8610944669158 8.514682347298365
Zr 12.1149531836874 16.403985250871543 8.450963537757119
