53
Energy = -392.75551458 eV
Zr 16.717505618494712 13.730232091367064 16.87804170191728
Zr 16.52394533460835 16.065559493498192 14.553949546854671
Zr 15.070427486045407 16.290015142901435 17.38137152211327
Zr 13.728604399648052 13.289939592090741 18.189636599355786
Zr 16.891263364925376 13.035552325705963 13.877466543406108
Zr 17.45098190547448 14.484701552807797 11.473827058622213
Zr 16.637798762852213 10.246931257571692 13.815302100678352
Zr 15.452978476830785 18.716930779184178 15.469353924200302
Zr 14.763233571569097 11.090028685638025 16.152212106825488
Zr 14.57489069687581 14.876853323729318 12.403046997218587
Zr 18.265902283965097 11.387617944211817 11.498224339120846
Zr 12.958281497497454 18.424399250947523 17.082260231945178
Zr 14.44424808475972 14.024522814859685 15.403989414253193
Zr 11.996425178902603 15.477207477115538 17.135744426112943
Zr 12.218694693437772 10.699452745327548 18.053707498562286
Zr 10.645741727105472 13.062533044904912 18.206069990545117
Zr 14.158368569957544 8.714835433475672 13.571199423367496
Zr 12.042103272655243 12.483400324858222 15.715950793716573
Zr 17.47313636000693 13.010562138383074 8.997771151058714
Zr 15.59512166276271 12.046290585258967 11.075424767376784
Zr 16.115774331184497 8.876262707539711 11.276654450943536
Zr 13.860711449939778 11.751824040846914 13.413447867725822
Zr 12.850454279838095 19.499541838395263 14.349623024466183
Zr 13.527394086215324 16.721569307070784 14.818370115283882
Zr 11.506989748305326 17.73840286448866 12.503676336901709
Zr 16.980463042045635 10.296374580522857 8.961701774538092
Zr 15.23647784560771 14.863394028504464 9.409137162457402
Zr 12.047389637642839 9.112356375802975 15.682569725744981
Zr 13.689791791631814 7.349378121981258 10.972134339682558
Zr 14.757062349125249 17.921320862358478 12.483837831266046
Zr 14.765505251348328 12.131476031750166 8.022954473979048
Zr 10.633215306517974 17.542057589726348 15.3179731528228
Zr 12.72459622840572 13.125082603578278 10.463136743701329
Zr 11.027400230114818 10.63450923089644 13.301071301936235
Zr 11.624460135608969 15.030785799713122 13.76425731147854
Zr 14.332510013893097 9.167541625754312 8.723785695420059
Zr 9.672845722248402 10.87428549135161 16.36992503665405
Zr 9.485346111073794 13.831884869782098 15.355911323094542
Zr 11.436572635718578 7.546397306301187 12.814350823554204
Zr 12.946054200817041 10.23444618501635 10.995472949563016
Zr 12.48541817525036 15.993710891075901 10.274189395404532
Zr 12.769857365989825 14.247580200608574 7.765216713672769
Zr 10.315701141858638 13.373325269648157 12.179794580042834
Zr 9.269985066760693 8.667048487250437 14.531986455727756
Zr 11.18077184243288 8.357823354894434 9.822860950841807
Zr 11.890989256087725 11.313245506567057 8.242451921858866
Zr 8.760126831128904 15.867287578326664 13.319621453340407
Zr 8.266925173669932 11.391323834286405 13.340414591832362
Zr 9.586866135816546 16.07711321495276 10.745625321295824
Zr 9.033931783002116 8.863747468544522 11.74541986425094
Zr 10.115577233496547 13.885146031456545 8.968437205285444
Zr 9.748175684749224 11.237264126662287 10.342981861952032
Zr 7.847101751770326 13.718169518820654 11.029039847793742
