54
Energy = -402.01995776 eV
Zr 9.751709423663057 10.749649690236476 17.508169330056013
Zr 10.835764874822676 10.140380278175959 14.937158009813125
Zr 12.64838375354185 9.257470765759429 17.111246042090347
Zr 8.186630857611368 10.762030191191963 14.0573809234518
Zr 10.352203323206224 12.290866071543286 12.536384597428759
Zr 11.973096314879394 11.221983012873432 19.31936961161347
Zr 12.865280352452494 10.811273146705792 12.4522593461445
Zr 10.249985620957068 13.453927275744457 18.40672361367712
Zr 13.305335709588704 10.234550233010898 8.25214789137384
Zr 12.177014247303095 12.262411826370768 16.523890183518084
Zr 7.797496563340853 13.423616989121788 12.575825867238677
Zr 14.324290607273086 10.822700691931711 14.920913105589564
Zr 14.78149754266499 16.661200994815943 16.05106993424046
Zr 14.643631525226978 11.139672998045377 18.001015033537524
Zr 15.947428724239156 13.11391283877447 13.743336250960528
Zr 11.852745377456698 15.230324939195368 16.468527571148027
Zr 9.00716670030594 12.737836943515974 9.613315627646143
Zr 15.368932861379717 12.684677036626526 8.679747221325162
Zr 13.125259734792992 13.80576831611595 18.895957192306078
Zr 18.798560219529833 12.822559455278705 13.830196924069245
Zr 12.466979047072485 12.421281792643281 9.796921147596724
Zr 8.091712420332522 10.702939512742091 11.26304438967651
Zr 17.10317522468332 11.669014880175789 16.002249459945084
Zr 9.003805347104892 15.620591186243995 10.604120709092324
Zr 10.25265344889927 8.976707645292233 12.462141001435292
Zr 12.345716933040206 17.01914637047827 14.13304007789319
Zr 9.427967616953614 13.0302785580662 15.419027540510127
Zr 15.57832238681032 8.651149599556174 15.756736230978813
Zr 10.63053212557511 17.702327735539182 11.952207832484442
Zr 12.690112572394893 13.844809506543852 14.03137431574812
Zr 12.88562208038385 8.122300361805536 14.156964212803205
Zr 11.771461141171681 14.99983816000147 11.392710765635105
Zr 10.727779929340642 11.66242786007241 7.479734055384006
Zr 10.52237613116621 9.933684649949143 9.736616146591347
Zr 9.713364483462355 15.524539706148932 13.728613728554885
Zr 11.347834811300102 17.128939796067982 9.32845107864795
Zr 14.703667393389493 18.666763417743365 13.751493551589077
Zr 14.557957584761786 13.484857612968131 11.335822895422638
Zr 17.103431691959496 10.385684044642046 13.364432626470242
Zr 17.497911940436616 14.957537220413661 15.540109489182276
Zr 15.18623810121071 15.803606127871404 13.237781138219288
Zr 10.797056615635038 14.597714692029042 8.185330078808821
Zr 13.666227839393311 17.396986483281218 11.162865021642142
Zr 14.875334900438448 13.737183425694328 16.526883128215896
Zr 12.911351487851112 8.470362872026886 10.817967783886257
Zr 17.267946906810444 17.61494670674384 14.530464518137507
Zr 15.16715857967974 8.428311553717547 12.750760559562464
Zr 13.083734887765857 13.03829463567326 6.955890594511453
Zr 15.40999519172099 10.513288361293327 10.7194256197485
Zr 13.66309216783911 15.295043430221506 8.748658559976338
Zr 16.399183739808624 15.515961240599012 10.131730823908434
Zr 17.555668485752665 12.838470946221237 11.081530359097393
Zr 16.662893724025164 17.91465331185639 11.744614320656302
Zr 18.17807771759566 15.456000040655551 12.603333879971716
