5
Energy = -25.17009473 eV
Zr 10.187545899358678 7.417004697939721 8.52457844
Zr 10.187545899358678 9.632152182060278 8.52457844
Zr 7.634839271222957 10.726257182604844 8.52457844
Zr 6.9781218574364585 8.52457844 8.52457844
Zr 7.634839271222957 6.322899697395158 8.52457844
