8
Energy = -49.97501518 eV
Zr 14.182093871928823 11.394326909970017 9.465154954107224
Zr 12.815323840638031 12.988644915535497 11.185656268755343
Zr 11.828624244640503 11.805140826913703 13.736917725106675
Zr 13.160518547166316 10.20002547764715 11.799747843970824
Zr 11.387837974252486 11.09184971655874 9.56058001667246
Zr 9.200745085432576 12.300536804654415 13.748399014651412
Zr 10.198949981335213 10.121322878966655 12.108056434751363
Zr 9.827736706871457 12.804890027935981 11.201747614048788
