18
Energy = -71.63971676 eV
Pd 10.797293593173702 7.033392529217706 9.851246920064344
Pd 11.567382964521128 9.767096758721209 13.210002623732585
Pd 12.101144991592367 9.170440546179254 10.673655046359713
Pd 9.800544802270371 8.26181191014717 12.008826841704057
Pd 7.992992180892668 7.503573228416264 9.961101862077934
Pd 12.558668694034417 11.587348118237234 11.65063728490476
Pd 11.499988069811891 8.922901664634972 7.9901318355193425
Pd 9.365176328382672 7.25296747751703 7.65615181765318
Pd 6.807658516795335 8.06880496766145 7.652695804101348
Pd 11.560196257219502 11.420554974958856 9.263800089686342
Pd 9.570710423187364 9.544039068027804 9.588673407204833
Pd 7.012633957867608 10.262589356735898 9.044815343883439
Pd 9.916469815526225 11.153438232033182 11.667328833052718
Pd 7.65008076757096 9.717060730807736 11.547800160976303
Pd 8.799134955263222 9.71721004619137 7.028887682378393
Pd 10.945054391458699 11.196240185385928 6.739463909161864
Pd 9.132729023715882 11.977383369726706 8.54368017557543
Pd 7.703856832626339 12.2408731223221 10.687108899909273
