17
Energy = -67.09957985 eV
Pd 7.778833938906191 6.89692086495478 10.381602292515229
Pd 10.329441971163144 7.5226703269891155 10.567376244388823
Pd 9.269221629663937 7.3147361389778265 8.15818329672221
Pd 8.425467489863543 9.085059675763004 11.716603235978035
Pd 11.193695379355201 9.472396757368692 12.22214736714214
Pd 12.90942815711852 8.135938133389416 10.721084083975537
Pd 11.708231877787064 8.612601408063158 8.412317713978581
Pd 7.672111999786803 9.238292802229767 9.10001221320854
Pd 10.056278318917125 10.045001904402397 9.813805310700031
Pd 6.968857655451705 11.206277582254934 12.02157738589247
Pd 9.479956859924261 9.79439921657569 7.250313148869922
Pd 12.532094086192245 10.695693007859424 10.221366192281494
Pd 9.545627721030751 11.554349090470694 12.05156352500779
Pd 11.700174751389689 11.258415312738892 7.729776089322162
Pd 7.970207207878675 11.74920359087425 9.715369556676107
Pd 10.653852323317139 12.639238898987514 9.832524297598406
Pd 9.259378015977228 12.351664291336537 7.563012277518679
