18
Energy = -70.19465828 eV
Pd 9.578722394228315 6.928569719995767 12.676848609184189
Pd 11.157357640614823 10.060813102770675 11.463796903934075
Pd 10.846400468609623 11.276426893798352 13.83130775461704
Pd 11.353977552245818 13.340523343441454 12.302765294104603
Pd 7.285231917724528 7.8686041945033045 12.102207928118002
Pd 9.166120589257279 11.880298166514793 11.758937009079744
Pd 11.432897644714739 13.042898092548835 7.9007265254499135
Pd 9.872060329349488 11.275321118995693 9.169969142751208
Pd 9.369974304775196 8.914727671577594 8.07673547682256
Pd 8.445139677373735 9.579384926830159 10.51989080622758
Pd 9.132310406068285 9.455351079862691 13.098591911829903
Pd 11.899788372570237 9.311127489801837 9.058884838240115
Pd 13.381060965408778 11.214327476711816 8.01172737711164
Pd 10.241445350769315 7.774666745412162 10.36212999212291
Pd 10.027757905062067 13.769745755970126 10.057435677296027
Pd 11.104009123148225 10.575183975951864 6.867721454460271
Pd 12.313772192770719 12.106066332722476 10.190226048461493
Pd 13.172786890878045 11.400558017121483 12.55549265092274
