10
Energy = -36.59751117 eV
Pd 6.771457700956797 10.605470566527751 8.563710555866017
Pd 7.411097279213112 8.37233810425722 7.313591154706023
Pd 8.166145255166823 6.298541021518249 8.661396578348157
Pd 9.323807096496681 10.11481051777732 8.200371421314411
Pd 7.099764125049044 8.389319344749637 9.977637611247895
Pd 9.943809523972714 7.619393502212811 7.184889755326139
Pd 8.370357487624084 10.603976890369468 10.664596944171794
Pd 9.72579556070659 8.046533361941632 9.86549933134766
Pd 10.919996495597356 10.25918627488111 10.596510150925315
Pd 11.72908892714328 9.126231523929189 8.424087300259202
