28
Energy = -116.34696593 eV
Pd 9.848834561121395 9.768834379408144 6.079527091322909
Pd 12.001204438357256 9.679858665807462 7.545640187007276
Pd 10.71458558423393 12.122609933280451 7.378295696453948
Pd 12.919359171065327 11.773442735736415 9.11595758132026
Pd 14.14821754111898 9.229206653634769 9.030351095610698
Pd 9.903720416723829 7.900330244316982 8.085113728174205
Pd 7.933931344474857 11.535297304583906 6.676976466789343
Pd 12.357697103808528 7.300634095476252 8.877869395152908
Pd 7.560565590907941 8.977252710313534 7.3297842666310515
Pd 14.137578116254382 10.618151627547293 11.299200078418883
Pd 9.404922849798973 10.411082508861973 8.800489399741393
Pd 8.468854157076317 13.139137919308606 8.66203321238686
Pd 10.518325368043705 12.53763614180023 10.11649953060988
Pd 11.624088387620402 9.82079555708512 10.138949304455814
Pd 12.524097394319226 12.677567312473473 11.732247710023078
Pd 13.151278623439255 8.055114718045814 11.364156074473565
Pd 6.851972004575989 10.939422910327469 9.139515916885708
Pd 7.931497780053765 12.48320327506002 11.14608116068104
Pd 11.90896934296521 10.287897966840973 12.705143331034645
Pd 10.419355585215577 7.5729531975071165 10.690108500438425
Pd 9.362249928233528 10.2563568581047 11.454037030550136
Pd 10.11027562644475 12.415720092650233 12.841082482110778
Pd 7.955312600258025 8.418577145097892 9.921605566779526
Pd 11.140578130676275 7.822094097900398 13.199172977625466
Pd 6.763427656101321 10.006525277652473 11.696525532125296
Pd 9.653208539431068 9.91439200087649 14.069977574630563
Pd 7.682812828792942 11.615703041394417 13.614681059397485
Pd 8.503261429149276 8.010530358100262 12.541547122862472
