29
Energy = -120.69577239 eV
Pd 11.219591246237416 6.949740122407134 8.729672728465252
Pd 13.629879633954138 8.11861529078067 8.874508794661185
Pd 14.407368946740336 9.012281674595036 11.188797800091988
Pd 11.626710221736197 9.169513118998912 7.3028349207336465
Pd 12.107447632606352 7.592942265908305 11.165855831361448
Pd 9.12585219708903 8.30563743674661 7.644208532473163
Pd 14.094132450761448 10.113234747072248 7.214318247333897
Pd 9.6247824905743 8.442167104452338 10.238291602639523
Pd 11.852195390298181 9.869607303960331 9.842732714923091
Pd 9.720226266589716 10.808644496477134 8.362079320368181
Pd 14.105271893538317 11.160299231758867 9.626090283356456
Pd 12.161387464870705 11.806809649746935 7.821402701510747
Pd 13.002683251564028 8.728705490162588 13.448886442753492
Pd 10.518760105270479 9.281656376696768 12.559294788216967
Pd 12.87021528292502 11.01473615807071 12.030900360674279
Pd 7.979223354456059 9.896448548875153 11.84192115485768
Pd 11.720582290653589 10.83587742258046 14.441532530749253
Pd 7.457694994665397 9.690220728104952 9.177520026578545
Pd 12.025057007591192 12.865939639605966 10.300158931187921
Pd 10.10536562126563 13.42133840947328 8.464919974676995
Pd 9.941159472061498 11.402263873045984 11.031353040141715
Pd 7.866126894271082 12.40269324389307 9.490674760463806
Pd 9.198983529353512 11.377808589387069 13.705497765412014
Pd 11.315265694915611 13.02630188988823 12.864204206067122
Pd 5.903963854931148 11.153441757311057 10.709711272339177
Pd 9.624773336576107 14.043096667938844 10.976042589514902
Pd 10.530092776892536 12.936314045373624 15.413503290305039
Pd 7.4856556771871565 12.630574351013095 12.144116416367229
Pd 8.996850381939376 14.15142502100014 13.56497094281347
