39
Energy = -166.59099987 eV
Pd 12.169883989039638 14.030115411405209 10.332146631983585
Pd 10.576317888849628 12.737956809907821 13.678429132358414
Pd 14.669744484291899 14.388816804428158 11.051741245216677
Pd 10.015543232916945 14.736998468082561 11.907813649985773
Pd 13.063582967130284 12.394178295048105 14.709342936189982
Pd 13.511616455965262 12.140630502954766 12.125546170173877
Pd 14.087422360932718 14.049165919122023 8.44069261498822
Pd 7.848309557290033 14.19969937925753 10.323945102176062
Pd 8.585450742978864 11.306581871935178 14.687059039305574
Pd 10.02307683053943 12.315904493824542 10.926860469831292
Pd 14.846236962751592 11.937441854451452 9.766136319684877
Pd 11.44548485630061 10.487410393545373 12.447732377985066
Pd 7.263213916726216 10.286831281592299 12.571404731557953
Pd 13.553921616330204 9.812189773758906 13.984779297377166
Pd 8.084439080262904 12.845803208221657 12.59833326088555
Pd 11.77640376085833 7.933691494619178 14.062053408189652
Pd 11.151495508698986 10.47863511658654 15.086674516903633
Pd 10.067522828141652 14.99468225036147 9.134727525200255
Pd 9.421697640780062 9.057660712419422 13.63019227305831
Pd 7.806551171253713 7.654460584079811 12.105216364269172
Pd 12.46645723762051 14.451525413847776 12.938992158192097
Pd 15.585524238871196 11.383996022688857 14.106737803742439
Pd 10.472750357548245 7.416109611401399 11.778543188158146
Pd 9.30740623776397 9.794081802902596 10.979358428443351
Pd 7.311703923072577 11.625609862309876 10.213156252604742
Pd 12.917736920790192 8.469104303486773 11.670826698000472
Pd 12.175126898568138 11.293751681704062 9.959647208543243
Pd 6.657214448004445 9.075481941660232 10.161056482296127
Pd 15.025958799183638 13.9646568489649 13.65968574561808
Pd 11.6331328214205 13.218501124492334 7.883276261886426
Pd 9.14422089497232 12.543655978279476 8.501100981367722
Pd 15.073629575025633 10.081355657092258 11.714154167195064
Pd 8.856953251559425 7.486417541611931 9.587542851543875
Pd 10.97345514461881 10.63086084733802 7.737886555185544
Pd 13.538384040789149 11.411087733169225 7.514894923133013
Pd 11.243503999819978 8.732717321910101 9.52982222022924
Pd 16.394707623231007 12.478549982371646 11.834775610811858
Pd 8.564986822786446 9.925393228202251 8.46142192078139
Pd 13.863636565131122 9.40269412378024 9.370699127762395
