3
Energy = -8.29923012 eV
Pd 7.879562159307131 7.002862520411161 8.692888718818551
Pd 8.069078461773602 6.990403021007339 6.2236979622574005
Pd 6.382863060446767 8.43169409618076 7.319259457381994
