39
Energy = -165.96087072 eV
Pd 10.907099621074233 10.99481613609394 7.383214738041656
Pd 8.449726212168414 14.382745697249728 9.37199970101851
Pd 12.766694053363736 10.071956068990552 5.724340350143656
Pd 9.02451101057966 11.816303389408828 9.023589894663333
Pd 8.73666682075778 13.742894549104308 12.000831173816673
Pd 12.552268777970681 12.721003470988943 6.234103942407066
Pd 5.388362651625062 10.668883048197465 11.559329712143041
Pd 7.6822756096863 9.941216827604855 10.423352281473669
Pd 10.03623582062944 9.382749011365199 9.357736403070263
Pd 10.512002006039205 13.617834453699272 7.71136867674283
Pd 12.21558257298885 8.70998651644713 7.950225923706818
Pd 10.844231238926056 13.744075781454056 10.339640973201107
Pd 6.892084897652175 12.551635573880025 10.490977803165014
Pd 11.879771122576686 11.246756513160602 9.882401162018924
Pd 13.783328114771896 11.014305699576173 7.962808564380607
Pd 9.693455163578225 11.290903139301898 11.56478517327362
Pd 7.422036198383027 11.57006542051607 12.99672873623763
Pd 6.992522602638778 8.909219086940404 12.756145273498976
Pd 13.021591118057758 13.489638590186257 8.741759697239115
Pd 13.318158769891042 14.271506959640492 11.23997578706072
Pd 13.787629209833824 9.318677804359794 10.002406557834629
Pd 11.68798199417656 7.4772774351078874 10.281308825195369
Pd 11.67667294070082 9.482664525174782 11.993299324265633
Pd 9.270325773673655 9.751010764925853 13.784016693266524
Pd 11.089131706957861 14.520294954688215 12.918546056241857
Pd 9.752338558060314 12.45624830361217 14.102559379492293
Pd 14.450430793047056 11.935442969835314 10.429021511084198
Pd 9.334533560251806 8.179302732521235 11.649659333521162
Pd 13.753244139066274 7.546115654290174 12.001860231640556
Pd 12.20313941486503 12.149221781884469 12.43931268803866
Pd 11.310172127807292 7.100229674012074 13.048216189237607
Pd 13.565605105354324 15.087210724547726 13.758406709494956
Pd 11.563625126103824 10.557823569220934 14.520767216849096
Pd 14.237767724067519 10.205908205492316 12.457026502712049
Pd 12.27858156648409 13.088751480982834 14.939446499434855
Pd 13.203111272053196 8.581436550158028 14.375738287798542
Pd 14.737330236785514 12.783880524363443 13.00531201862003
Pd 14.119619214357968 11.038874966654742 15.002487824063051
Pd 14.817888696991101 13.537163080610675 15.547487004654638
