32
Energy = -133.77430158 eV
Pd 15.653007525132105 11.650671878276258 14.94992899536024
Pd 9.870090726953926 9.780801743735584 13.055839784675335
Pd 6.592922458450167 13.021584241761586 8.629416116574788
Pd 9.3071654722015 14.832893416270357 11.795738871962497
Pd 12.379471073271013 6.836305464301019 9.837412548480243
Pd 9.40351235946793 12.373930652473875 12.818354910490479
Pd 11.297802506475703 13.676893227764356 10.448359605454325
Pd 13.633953521742937 13.045340501462363 14.264417720515654
Pd 11.510879909745803 13.914484684679062 13.049648718125356
Pd 9.682197865866625 11.53912812998617 10.279891503529393
Pd 11.49178610728779 11.489132937934926 14.370118905198634
Pd 12.823444160432434 11.813760539718995 9.355267506113803
Pd 8.787122193315177 11.761968081163218 7.809050580838131
Pd 9.714547743660741 6.832398688476308 9.558785979945688
Pd 11.233627806088272 7.877616980188509 7.651774654225813
Pd 13.320021928010776 9.207174640707827 8.85247406168859
Pd 13.317383110485133 8.606831056058011 11.562038725841198
Pd 10.81895298294859 7.486156588032006 11.986657744670675
Pd 12.17249635528422 8.92771870052428 13.90023193761371
Pd 7.440667595189067 10.636726599414015 12.422689706425377
Pd 8.910003309112946 9.099945462904651 8.319043950231464
Pd 11.164586610649778 10.531666435594428 7.747900036119839
Pd 7.242218810770409 10.699832214890684 9.74708838436676
Pd 13.68782333642235 13.00127003300358 11.619285459442432
Pd 11.014893474241497 9.280056030596834 10.094345331027267
Pd 14.70016571694839 10.67205757272522 10.734486649930775
Pd 11.085196930605063 13.145763149799999 7.859972738026446
Pd 8.959843751292334 14.041133612971867 9.246999080380538
Pd 14.109335703143438 10.56475580929103 13.28172375782467
Pd 11.900480433698453 11.13878264480898 11.837535603532345
Pd 8.565429947529621 8.743067010365564 11.005124658516062
Pd 7.440609584682044 13.001792281224523 11.140036783978355
