46
Energy = -198.68925844 eV
Pd 8.509419822888296 9.119338674435173 5.804244781554086
Pd 10.603727117666857 10.629605066443936 6.63113242908292
Pd 10.859983757984352 7.855224843662552 6.24782183923967
Pd 8.169685707917738 11.864652488867375 6.6457695745975975
Pd 12.966230877573592 9.479547531674516 6.8113072656633955
Pd 6.227423031018759 7.61059146683516 6.651860425726014
Pd 6.033128423488826 10.316363836571572 6.11527176943829
Pd 8.54347862966592 6.770974748195005 7.54108925523872
Pd 10.040793918198123 8.699365370189811 8.530565403535457
Pd 9.126734873198169 11.235365103539264 8.992204750784646
Pd 12.898652289654322 12.044948969201787 7.54133689563276
Pd 11.671253361119836 10.655695712302654 9.334191790537455
Pd 7.498552596758356 9.369056040797888 8.14659391569464
Pd 12.623177274959067 7.953066447609675 8.900577712332414
Pd 8.157252664151304 13.636874727051284 9.105597548426784
Pd 10.938379570109662 6.016572834724113 8.379765479057546
Pd 6.166429351058512 11.592864136068004 8.597093192704225
Pd 6.590091287102193 7.30339128385518 9.516893307564851
Pd 13.417800967924832 12.570782123801413 10.422833771303049
Pd 12.590365897503935 14.395790239027377 8.607832542084877
Pd 10.39735049125516 13.174649151644099 7.473136480072887
Pd 4.799654228709666 9.195455981183327 8.320600229605404
Pd 14.215335309334113 10.156980133497878 9.101123688246357
Pd 10.79388613602702 13.236395584790907 10.077413572588782
Pd 9.12513770362438 6.60555201732429 10.243779509077154
Pd 12.542283007206022 10.464883565078852 11.820810035214263
Pd 5.802525880687506 9.64121643352885 10.748031743073163
Pd 12.001155973978513 6.263312944905819 10.929595813199574
Pd 13.904516169125294 8.306914516483811 11.205773028936667
Pd 15.263531107813606 10.656490636239788 11.461125127929842
Pd 7.3182599472631225 11.883897299254928 10.960805529800647
Pd 10.889862783675325 8.597989194891253 11.040422685666037
Pd 7.394388105739721 7.523727157551181 12.281596221470565
Pd 13.960172218345445 12.170416611149793 13.27827820864075
Pd 9.924000304984226 11.12148374184131 11.55938471084053
Pd 8.365183609671213 9.226463507049612 10.642011185689302
Pd 8.994475508861324 13.673198375596227 11.953379568577805
Pd 6.97492661783393 12.729344551640684 13.427185872343316
Pd 14.274219894465979 9.46919677095377 13.695894864773857
Pd 12.133253883645322 7.93459628999554 13.290217120751139
Pd 9.915522781583553 6.537440080607807 12.750488675984215
Pd 7.2200964588060605 10.153852441490923 12.9996211875167
Pd 9.367823326778463 11.716541205669767 14.023613487914998
Pd 11.778384785739684 10.578359769042883 14.272472312970844
Pd 11.540648684547355 12.933909591027945 12.651655024762979
Pd 9.629197670206166 9.086014812556225 13.425954474002703
