43
Energy = -184.79727961 eV
Pd 14.340984745007642 14.556113156009786 8.263025496083948
Pd 15.163828595238636 13.541096941677782 10.465326719720721
Pd 12.960697939390876 15.14417315347922 10.633213531323637
Pd 11.850490744429727 15.398034443671271 8.149669607418026
Pd 14.494852040909784 11.86525671926218 8.608671842721098
Pd 12.266063375905429 12.764233283074114 9.85000530642857
Pd 12.532897009845405 13.018980223863656 7.068371216928732
Pd 13.728334798554178 13.62752416648194 12.658215290231237
Pd 10.34924701051449 14.961994901693618 10.24179947555571
Pd 16.222439124426934 12.09447013976266 12.25319978348726
Pd 10.133227036647643 13.402081868731525 8.002056755653756
Pd 13.322146311387527 10.562757052805011 6.6479662857735375
Pd 9.892125603814552 12.326382336194445 10.933992552905236
Pd 13.301469085362314 9.517460780378698 9.045067065008547
Pd 8.021100590112255 14.128267490710886 9.350964974004368
Pd 15.715389812079803 10.112519307051263 10.213875704602733
Pd 11.11262730370779 14.133386349680695 12.65851006406393
Pd 11.146751664934737 10.90681586972401 8.183787740767999
Pd 12.425044466721962 13.313038942993819 14.939272314770387
Pd 13.208994707425536 9.41573469538385 13.790202195081578
Pd 13.750616154762595 8.4123996287532 11.388120719622385
Pd 7.040562521897309 8.362618669548077 12.950226663526504
Pd 9.206250307614535 7.462928120265247 14.051974664037843
Pd 8.217596391543484 10.035505275734328 14.901405270145563
Pd 6.438123653001008 10.927529031169387 13.077672360326124
Pd 9.127428033500111 7.587111503908711 11.342380296930754
Pd 9.398743512689965 9.968135444877388 12.518985204193495
Pd 7.487478420236219 9.835379695461324 10.763814783047426
Pd 10.801616818912457 9.402697811420428 14.763172337696243
Pd 10.222326349008652 11.892953293691962 15.455221188157134
Pd 11.427658939464532 7.9039320324813875 12.61943149060094
Pd 7.2244547421832 12.433732642326076 11.150973998434653
Pd 9.579962363373687 9.100324275668706 9.237784668128489
Pd 8.494689451549359 14.622815435957575 12.042675541671873
Pd 11.418428153507742 10.103952220038378 10.849614182033074
Pd 8.719121643679323 12.388306492908795 13.428214102028281
Pd 11.622446414709657 7.568213436031715 9.956416538009977
Pd 11.654619254548358 11.557929709052667 13.123399815842122
Pd 8.54525562614627 11.47313902184391 8.875484785559474
Pd 12.656850889802193 10.83681742785454 15.998393573456404
Pd 14.489101209295264 11.668129866615999 14.266684828938661
Pd 15.659219720824408 9.596535350250003 12.893914878122894
Pd 13.759628981555723 11.199483311731433 11.517735707181124
