40
Energy = -171.2643723 eV
Pd 13.629692287987435 10.479237194356363 8.241010738127887
Pd 11.448661452686304 9.304714768104034 7.146450836838068
Pd 12.322975323855104 11.732969872170724 6.228982439820959
Pd 13.129838358078102 7.783826053843198 8.602273805881168
Pd 14.088399266034425 9.151835812466711 10.63192106480845
Pd 13.231362381445917 13.328963471236584 8.275485237162938
Pd 10.493683342991947 7.356074672944908 8.963031576081484
Pd 9.665364573428509 11.19036755279041 6.325725553346156
Pd 9.783080663878236 6.147158399598113 11.331351780301214
Pd 13.4586283594144 11.819321696079866 10.46846129895029
Pd 11.100475009378638 11.775620724724982 8.650247782774011
Pd 14.958676730393087 10.508817321338054 12.67240016458004
Pd 9.141742819844316 9.646362641660923 8.353079909435447
Pd 13.2976357779592 8.448795604667533 13.280975574628942
Pd 10.435051230726335 13.666334168609827 6.840378794044493
Pd 12.141885903604953 7.327312943369271 11.163045850507364
Pd 11.520663440487768 9.606538656731994 9.956439561488658
Pd 6.904678931505747 10.260659445477156 9.47585857535046
Pd 8.269746355966479 8.084069836886135 10.311488079649584
Pd 12.111291659565483 10.558551027999762 12.35935841216993
Pd 9.364111901706503 11.097551614050081 10.60648553509285
Pd 8.46831010612761 12.499825401695528 8.51286320715203
Pd 10.94363196910385 14.359851645159372 9.245828132143215
Pd 13.177508799045924 14.498630187923641 10.821851263615967
Pd 7.305221499785191 9.865690833368745 12.11923807431323
Pd 10.941205237501304 7.1943075037321345 13.636172832032273
Pd 9.954489229286176 9.015626200748855 12.077564065558175
Pd 11.17004125081571 12.907883884577092 11.609321810845513
Pd 8.169076770360004 7.411307981176768 13.069841385718123
Pd 13.300250245326772 10.72981695916653 14.791705136710165
Pd 10.777837699115777 15.785046648959318 11.432911456439527
Pd 13.675758509442774 12.783310853568006 12.929261531161421
Pd 6.974966609232101 12.321486337595998 11.118708006441658
Pd 8.885738870713894 13.986129075120667 10.876010637693092
Pd 12.228386043795348 14.866926272324381 13.452485696070184
Pd 8.310861519418312 9.609570662399761 14.536041141053728
Pd 10.853651668870139 9.763244191615053 14.54149837283705
Pd 8.978468343305455 11.793477089497037 13.10819920762094
Pd 11.268406550484878 12.440961906150005 14.341857932217474
Pd 9.603974484370694 14.351383073483431 13.442928959176806
