51
Energy = -221.79955454 eV
Pd 14.53852591672373 14.36339936815723 8.28319247094974
Pd 13.803571368123084 12.93035899016921 6.107563599307205
Pd 11.3887220420981 13.967640951312891 6.117091340747001
Pd 12.090746104536064 15.616541900394719 8.202275457798123
Pd 14.499166159315905 11.55159783537647 8.321569299714549
Pd 13.44697812604259 15.134943936424095 10.545444141376564
Pd 15.228572579753534 13.011427412738579 10.471672007681937
Pd 12.24179015675219 13.023883157355751 8.473770081346707
Pd 14.5657852259805 14.283259625584511 12.817957726935955
Pd 12.66065025678035 10.613413794221925 6.703171065974808
Pd 9.640316247801438 14.32100819773692 8.078775451098176
Pd 10.247511748932784 11.706108807461671 7.076227298221869
Pd 10.805326962648385 14.759262202767795 10.493968688236263
Pd 11.98683195888803 14.934675787358803 12.789887339733747
Pd 12.678674731048181 12.521210008640942 11.008016368252042
Pd 14.688789011503612 10.231479383949186 10.542140770906427
Pd 15.071948014058117 11.67695960992698 12.743092470743202
Pd 15.057294191150895 12.897607859619871 15.125812212404302
Pd 13.158214175122001 14.754545903329987 15.193520376091413
Pd 11.034268873659173 8.719692643154369 7.385065721624537
Pd 9.241962553240832 14.852997409347585 12.838947498009615
Pd 9.127814691092226 9.945863399012476 8.718592241920245
Pd 13.594340469381722 8.694876083660153 8.606115345780106
Pd 12.631458260611172 12.466744153488449 13.631756572116538
Pd 11.914954600205693 10.466316671247505 9.408708364888762
Pd 8.226895792733446 14.144081085276742 10.39540915780537
Pd 9.984334085578332 12.244548981674589 9.711551580694694
Pd 12.635244753685047 10.166531998337081 12.274966597909204
Pd 15.169860659740515 8.995623042483595 12.914243553115769
Pd 13.946043523918103 10.464792166529246 14.82649427383009
Pd 12.637493186757773 12.320372271171337 16.298319744423775
Pd 7.49863133641174 11.50585105702722 10.268631494888
Pd 10.705810110397449 13.72189417837278 14.841327613552068
Pd 10.067265532487037 12.506051932112683 12.303019309796444
Pd 7.818615437199592 10.715470715192117 12.68984989421555
Pd 13.413002778717926 7.8575758238764095 11.245080403827817
Pd 10.054591743678257 10.009606703379037 11.338595607105741
Pd 8.893255498236663 7.363909695171483 8.592480480862983
Pd 11.860300477877626 9.775881991076224 16.309910406386784
Pd 8.337973052586893 12.65310569846685 14.48669508665119
Pd 10.688342196795848 10.531725745793377 14.043607499114598
Pd 11.136305285475991 7.879031571680874 9.901768518192048
Pd 12.891798119662262 8.186642015698707 14.208775353400112
Pd 7.644374599691791 8.831805862815987 10.632050929863293
Pd 9.978078919746459 11.652242810668925 16.391351050445543
Pd 6.799002712262144 13.142475584022964 12.39376816571527
Pd 8.31519561734429 10.013268095772233 15.173449862701355
Pd 10.99292493519141 7.8164436118895795 12.525303740251559
Pd 9.088694381299872 6.6017251174628955 11.119697076689098
Pd 8.466409939365311 8.240084982663438 13.139118635606987
Pd 10.255817251630488 8.075147727573636 15.097892705018113
