55
Energy = -240.23064636 eV
Pd 9.573739952979986 9.328008878468628 7.537671773878516
Pd 13.683755735827413 8.251849207664867 10.844215424380645
Pd 11.180382517375476 7.864327091320394 11.588054481162159
Pd 10.683410127019796 11.40998725458836 9.407131928149232
Pd 9.160204476333147 13.61909979201906 8.817390204335025
Pd 11.422844891260189 13.285570018444728 7.4377368519879345
Pd 9.377579434260086 11.831934768756277 6.795164737223797
Pd 8.148394115304376 12.510906286671815 13.526252459882452
Pd 13.034969666774462 10.56489380505926 13.376983700699022
Pd 12.455484076383394 13.4358475646268 10.31977365863055
Pd 14.449747334050704 12.41691012432348 11.944213284180563
Pd 13.09971020004703 7.9625348764535255 13.468816067460978
Pd 8.088649202612904 11.118622592232143 9.083004874885836
Pd 9.869813246940163 9.75961982183441 16.4015993868096
Pd 8.267187420557322 9.923965484610092 14.209341540450087
Pd 16.97370308270906 12.359727310079371 11.143375242746496
Pd 14.250527088994435 15.055052291816123 12.387787326232665
Pd 16.14198549884283 11.61131204496804 8.697881583282884
Pd 10.004197580969253 12.936468251609055 11.546486908894723
Pd 7.432447810830028 14.91624361217852 12.862243731270938
Pd 9.242501776239763 8.883078190832629 10.063544143319891
Pd 12.417873519443344 15.937186780497193 14.155158089592904
Pd 11.882014404008723 10.618104435169085 7.113323415676205
Pd 16.06520374663968 10.786691007928786 13.209177227099532
Pd 15.132862040971643 13.902571548690533 9.717152748944677
Pd 16.72079193256978 14.997315905604864 11.481438861463259
Pd 11.168373283866801 15.395779053117547 9.073776219784268
Pd 12.157729973189992 13.147691334504275 13.062446131330564
Pd 10.472442059889714 11.601788798245233 14.472322086741245
Pd 15.397882762088837 11.839602566612921 15.560364279319462
Pd 15.63742352857235 8.217333196340268 12.662478140026808
Pd 7.966517221167957 10.590944837589726 11.683768644215446
Pd 10.363209630807233 12.229395925789111 17.15505296776508
Pd 8.794728882785925 14.01200888805814 15.644132357955115
Pd 10.647686564457185 10.452264256622218 11.973440420110174
Pd 14.18346975539085 9.6148507054592 8.477079952417132
Pd 7.471209003746454 13.090073432865251 10.854039663971692
Pd 13.660268045054591 12.1881493309288 8.267781014684314
Pd 16.305522215058087 13.456773561627331 13.590784558315315
Pd 8.651186485901615 8.038249501856317 12.46695279150981
Pd 14.850678152450616 9.307866177020392 15.024653532068132
Pd 10.645000448931754 8.699558488682657 14.082786152887694
Pd 12.405700642981357 9.173034083159337 15.909250379434289
Pd 13.686836669106523 16.117450247090165 10.051669221170458
Pd 11.664292846915812 15.628802122893774 11.674150597976015
Pd 9.139257734736038 15.348409658886675 10.876015940126527
Pd 12.784817283037794 11.710689249728077 15.892210504558838
Pd 9.977661934039542 14.891143750263142 13.514803962579572
Pd 13.51277765012277 14.801801297724136 7.778353592822419
Pd 11.445097776915246 14.017740760944626 15.629206926092822
Pd 11.725193169783015 8.81157059959946 9.131912214181042
Pd 15.65762207239531 10.03462506196954 10.71865222567032
Pd 12.942004209330516 10.771199497977921 10.626305189969589
Pd 13.9909616550509 13.911670809947108 14.83611811812216
Pd 7.916462517322264 11.59369891309169 16.156567616595495
