5
Energy = -16.45526081 eV
Pd 7.253942607535541 9.828874971895898 8.159954312734948
Pd 9.806016219803135 9.857978831123285 8.112109474953716
Pd 9.859759145940192 7.306064865020823 8.16250907206343
Pd 7.310331343473852 7.279100964968901 8.172434408658544
Pd 8.585219928091949 8.598973994277848 10.087398209263801
