6
Energy = -18.14256497 eV
Pd 10.983898030569884 8.843384213014062 10.441910270210062
Pd 14.293626924570358 14.578101152501178 10.945603776854437
Pd 12.647292325765298 12.994770394528803 11.593197940085501
Pd 9.515798090615867 9.229852062736837 12.506715235924329
Pd 11.117417979338212 11.15072582784167 11.646954299326364
Pd 8.985210172014344 10.45501815759969 10.323960410914527
