6
Energy = -19.51942182 eV
Pd 7.827313535857552 6.019661238264625 8.961870106982344
Pd 9.069695662068215 7.6590854718574874 10.407831502362601
Pd 9.825744770107057 9.533550012090531 7.101364926508063
Pd 9.9887693858966 9.90569058155469 9.634110314409554
Pd 8.16137171164162 11.085465860375926 8.265278926773933
Pd 7.821046376062342 8.46427229329014 8.304298582208178
