14
Energy = -84.50480409 eV
Ti 5.960902760009991 5.96818103728765 10.560911761571145
Ti 7.384180137880812 8.152353565270197 10.143873774185595
Ti 10.355594479993337 10.051675250882807 7.419230152485409
Ti 8.273418023421437 8.342803458820375 6.95033244118454
Ti 8.404337932256915 5.726149997328498 9.695168148051211
Ti 9.319371263141235 5.8383719121552184 7.301572127746411
Ti 8.081979163425448 10.84136588825033 6.385351240380239
Ti 4.763421870600717 7.790195584596079 9.71216342146518
Ti 6.116877937485996 9.432283645515433 8.117609810527709
Ti 8.41810549222264 10.282793558651672 8.922766462135112
Ti 9.869366017557802 7.830940795470389 9.041118043437283
Ti 6.508448949145409 6.612000477350215 8.119354665436738
Ti 10.87392589233226 7.6850080590376715 6.5941023509253105
Ti 9.698240229426572 9.474046918283323 5.064615749368685
