16
Energy = -96.75920885 eV
Ti 10.06705869726569 7.598841447731774 9.863875689604725
Ti 12.67112851323374 9.992143041593671 13.10754404126467
Ti 11.047809054124317 9.367189924293577 8.365309230735228
Ti 12.162671458941603 9.303121338813536 10.74041724115929
Ti 10.68450140344026 8.290868237844046 12.492354987694489
Ti 12.8669491114945 13.316410077275886 9.95247832976351
Ti 8.25164368788538 12.786436124658211 12.882825213248806
Ti 8.235025582256618 11.966998905184711 10.45295270965922
Ti 8.610896769137721 9.63017856411783 8.631466525261244
Ti 10.076087533386161 13.569709146843278 11.101516758249224
Ti 12.181101064039558 12.238642954772935 11.980683040006205
Ti 10.509789101906238 11.726055559576123 9.399009294018311
Ti 8.978959322781128 9.50176265238823 11.004012555046149
Ti 12.987905999842969 11.044306347089353 8.96818667691365
Ti 14.248006920197685 11.205032643320243 11.152947379541917
Ti 10.128241051824523 11.075308558167771 12.42513925394299
