12
Energy = -70.7835484 eV
Ti 7.956354385216417 9.422245984425548 8.224813586920323
Ti 6.65950129032769 10.32936544516441 9.83582012870255
Ti 9.039755970134852 11.46361569659181 9.527250058334197
Ti 10.522856141980427 9.385411255648034 8.494287928507937
Ti 7.535002655850681 11.226984084185045 11.715084817357875
Ti 8.854984212770754 9.159181586837015 10.704311811909463
Ti 11.756662164791104 11.43483175205568 9.87536050934187
Ti 11.540173406710812 9.141962240664402 11.067844044894889
Ti 13.061954781035126 9.32933961551614 8.90765562648439
Ti 10.076993788438713 11.26913569058683 12.070407931840675
Ti 12.631451641013777 11.183019567648389 12.370820224643621
Ti 13.929516716848937 10.222186555541454 10.793047403515596
