10
Energy = -55.65354705 eV
Ti 9.422248529085767 12.58181693040917 10.34393832916554
Ti 8.841037988880531 10.918871271117373 11.542749921613844
Ti 9.210603531716448 10.798090106041016 8.493329399028912
Ti 8.558078988862247 8.946032843200197 12.294227135524672
Ti 8.643415168544395 8.426689240481759 9.770173438618933
Ti 8.231787522836022 8.881594430735753 7.461145242377765
Ti 11.368733874674207 10.977253026580595 9.809719747981354
Ti 10.806283661048504 8.598089330454878 11.082230669957632
Ti 10.915253562399652 8.74947114173221 8.421353086692669
Ti 12.967947245781291 9.280274377511102 10.334437157524103
