17
Energy = -102.54233266 eV
Ti 13.641295997431149 9.261146821986287 8.315503159282603
Ti 8.213885063747814 10.887251315003363 9.427323774973361
Ti 11.294685892407006 8.125653469663426 7.408809708714795
Ti 5.5945344664099155 10.810622113998033 8.680750699409069
Ti 11.17433166529235 10.208388246053744 8.336153437871245
Ti 14.071645044601377 7.93931194957711 10.807134862031665
Ti 12.67884039226835 11.738784769740322 9.081787764864728
Ti 6.442285269255565 12.940146969225234 9.714626901833856
Ti 9.609133110514536 8.54024731870474 9.766513091337357
Ti 12.067165004088572 7.5096861483517285 9.603409480144155
Ti 6.103210014680697 10.878565997609973 11.174401100211693
Ti 8.136975166156128 12.366235554975566 11.605362589296695
Ti 6.716821912057468 8.77203146516001 9.85826876762689
Ti 13.059108648388053 10.08797905526487 10.798817308195371
Ti 10.530372178790882 10.900541933735665 10.878046444463177
Ti 11.404567659016264 8.469537757551729 11.87582938988912
Ti 8.380386233781339 9.683112832285307 11.786505238741492
