26
Energy = -168.20819485 eV
Ti 8.78085841727086 9.060530551654569 14.8086831682651
Ti 12.56274213596805 13.264129126105876 10.865843837938696
Ti 10.26612058532741 11.220847302454455 14.708053477732923
Ti 14.216295907271014 14.844858154787705 9.305095189304685
Ti 11.930479509093995 13.607488344878853 8.355806563519286
Ti 14.360260145657161 10.797525708789413 10.845148264978484
Ti 9.534618623973856 10.385371435207333 12.234046977219391
Ti 11.74346754519618 9.62808020540875 10.753351703309177
Ti 12.06197871716013 11.494841471594007 12.83017442192466
Ti 14.654707691490602 11.509754782456142 13.530920548548682
Ti 13.61782367908471 9.206458556114773 12.62747344217992
Ti 11.083895423918714 8.849768280620994 13.372844539930192
Ti 10.213773203473579 11.743392723303053 10.049862920542576
Ti 12.931794006227332 9.845500870098308 14.949683085876302
Ti 12.493613077096269 11.077622904781757 8.922867289017287
Ti 10.005236136352663 14.258643521622886 10.247996393894969
Ti 11.142438889362648 13.718944590921625 14.448620064649951
Ti 11.952097449520311 15.767136103463578 9.956012565676392
Ti 14.443740141218663 12.512435893597706 8.968627125383943
Ti 15.196683895896301 13.318828501308952 11.45289937890519
Ti 10.614351239214031 8.974029657777214 16.074854465264657
Ti 11.332659329652246 15.184357170491522 12.478248932400371
Ti 12.774782082006034 12.155936660642293 15.443178205640738
Ti 9.6001189821621 13.023010323317123 12.42284718920745
Ti 13.839214443576727 15.59283794694504 11.703625543026472
Ti 13.589037051955438 14.04164955889923 13.679759704119649
