27
Energy = -171.66449371 eV
Ti 8.393591877661347 8.007763026208892 9.773025437775772
Ti 10.096450970209455 9.099950067303652 8.12071809292889
Ti 8.261081558056022 10.688949128570115 9.14380350766947
Ti 9.822133965943308 8.924241628617374 11.412186065458489
Ti 8.901488602445093 13.181221843756235 9.068040222653902
Ti 10.391653952512923 11.570508485412294 7.46734467085117
Ti 12.845245421663169 12.541726531668724 7.933908061096012
Ti 11.684065420616445 8.083437044428218 9.783845284367526
Ti 10.819746932979433 14.155491053118128 7.492814249287659
Ti 12.695605652587792 9.937427386276939 8.041028316406049
Ti 6.807355440272162 12.507950503377263 10.945233369053081
Ti 7.540968885670056 10.206689458141932 11.676697987752009
Ti 15.281966615878384 10.947829991756954 9.005049759678565
Ti 11.071463244296226 10.933449105185652 10.030037382665528
Ti 14.085261924630215 9.140398287625615 10.128958386048957
Ti 7.812338017638286 11.820376532416326 13.640338222323106
Ti 12.530508826917648 9.588060008939285 12.04901066306659
Ti 10.902221497021863 8.580643988675094 14.08810247473248
Ti 8.433466414791964 9.241828840036398 13.90753276372256
Ti 13.5761878177236 12.105345824509284 10.281576605869327
Ti 12.467770329907797 12.317648111287006 12.414336560472556
Ti 11.39720334193844 13.712891623004992 9.864723919649471
Ti 9.227373170225869 12.578230662751169 11.455337447054132
Ti 14.833833148411156 10.859583459474829 12.004287889831929
Ti 10.316776571500816 10.941867391536835 13.027353207046865
Ti 12.537935719415174 10.511119466497924 14.488805527023185
Ti 9.988971796792798 10.551976677451787 15.50335898531987
