21
Energy = -133.63891947 eV
Ti 12.79674412730825 11.41997308542989 8.813741337084123
Ti 12.113295340074334 9.061696094361277 8.363721035766655
Ti 10.47865867347083 11.014151175715572 7.398431643783709
Ti 12.716962691577995 9.480995089130115 10.836640517899422
Ti 10.902977314759134 13.20863580134886 8.90685207963475
Ti 12.2958289591191 12.522162314365353 11.222884684818618
Ti 10.085749122214967 8.204117300901467 7.280669008628632
Ti 12.388344555301552 10.247654275951364 12.914811713254641
Ti 11.13542893420941 7.116291342128631 9.696326072372823
Ti 10.587357551070198 11.019592387973525 10.186566522297293
Ti 10.324827058946642 11.478336228274003 12.856304328482242
Ti 9.260010370034825 6.630669464015913 11.044640113990727
Ti 8.384226913844287 11.999969859947447 8.969948402433069
Ti 9.360883444066761 9.062638940238399 9.764851296718366
Ti 7.82999102715595 7.4198441792727134 8.77796103698373
Ti 9.605628896313831 13.209941635178483 11.151840995498079
Ti 9.969359704383074 8.846027303008729 12.406039958038498
Ti 8.13463177509728 9.761108222693622 7.442413194802691
Ti 7.471058162612139 8.25518587090588 11.421232290309925
Ti 8.08247161750748 10.887633719957105 11.682571751201403
Ti 6.790979784750404 9.84386348912646 9.561041067325109
