27
Energy = -174.79850501 eV
Ti 13.264189402969313 15.648218793900027 11.193193673518323
Ti 14.930362525348402 14.11397669643944 10.012915038688167
Ti 15.232535767115477 14.807101402599985 12.728696223638446
Ti 12.19356330813556 13.76836651360849 9.584652466105386
Ti 12.908647660761234 15.842075584486771 13.730997324234977
Ti 15.984496047356076 12.445035600083465 11.791641989302274
Ti 10.960069147521535 14.829852888008627 12.083046627140689
Ti 14.725130782420424 14.689196195427634 15.217337852166121
Ti 13.565850723754892 12.556858368439674 7.840709948544667
Ti 13.274233769474337 12.994383136536694 11.946362279418194
Ti 15.294284493036898 12.296606320783036 14.190239262614663
Ti 14.743324285855952 11.504130674558425 9.875139416856689
Ti 12.385165091729245 13.106998721492884 14.534093353909725
Ti 13.033363196987581 10.077374626862042 7.903287077695429
Ti 11.166270328934088 11.671186619201235 8.0896891600061
Ti 14.236134433241924 10.493218483605606 12.431591618761441
Ti 10.571304730518381 15.233104844887217 14.54850196736148
Ti 10.606969793871421 12.383453403155082 11.072857814095004
Ti 12.373203506167112 10.887448156019856 10.29076139952908
Ti 9.783822213149751 12.868248904838827 13.51532007491284
Ti 13.31450188802666 10.622449517915621 15.088531374673993
Ti 14.264450780247254 12.714892158561414 16.532956476940264
Ti 12.414463907210703 14.740532002143217 16.565332394278823
Ti 11.53362477078596 10.657833688256565 12.92991349218636
Ti 10.128154778893352 13.355725610372238 16.081477828651078
Ti 10.686743678247261 10.99249394237947 15.204815232642094
Ti 12.032833753684814 12.058030387820526 17.08790678451517
