36
Energy = -238.2016269 eV
Ti 9.358387767767653 7.381890161838932 11.293938891343625
Ti 7.486601818773737 9.105539373916464 11.708014225737397
Ti 8.652607833792233 7.987302723387116 13.714616968639456
Ti 11.711727293279607 8.077324069643511 10.49950791367948
Ti 11.30729455953226 7.714440201304425 13.270993971091414
Ti 9.2603452825568 9.52316174536861 9.64283182490271
Ti 8.073818146718878 11.73859497764546 11.417102760523438
Ti 8.00163452618389 10.563451524053981 13.849711392357143
Ti 11.224170464880537 8.366300647188865 8.074763425857444
Ti 10.071134827969681 9.825262176443738 12.267441703742168
Ti 10.129599063560887 9.5712012366187 15.02875780936951
Ti 12.750445601339672 9.668358160795684 11.621698760200251
Ti 9.908422573080106 10.354982829705959 7.175823288673991
Ti 12.427298689460835 10.17839810000785 6.7282262870386536
Ti 8.923156965043509 12.20425943107662 8.758685211867132
Ti 8.980692129622287 13.920649854169522 12.838294155071498
Ti 12.611876562075764 9.956857942544792 14.294173597334435
Ti 8.449672532260989 14.195820380665541 10.488682814403669
Ti 13.806668679517935 9.380859221093326 8.971868326468858
Ti 11.64992899057808 10.8216599779471 9.262287230360526
Ti 10.264745498047795 14.49741529062718 8.831987927169465
Ti 14.661737086040084 11.692964837942686 14.70641646765143
Ti 13.78711508765736 11.879654833573275 7.866048209015074
Ti 12.316185644625639 12.448518881524963 15.38102896755997
Ti 10.309059445260878 11.980198459930923 13.917112986693738
Ti 11.278031857532246 12.602132091058433 7.235454486746178
Ti 14.918777266574347 10.315522295783971 12.512024006476945
Ti 12.855222891433087 12.178167241965365 12.678054084450094
Ti 10.664049291934989 12.734509017860658 11.061979247793715
Ti 14.180149304489687 11.840693215483201 10.358825082400372
Ti 12.643097377069203 13.821995730503007 9.28453451346177
Ti 14.053696414535969 14.129992140433783 14.197481174169045
Ti 11.503118430787882 14.471758545732692 13.605645852048504
Ti 15.49175251873136 12.859277720402039 12.479443628801254
Ti 10.784482421479941 15.368336189413531 11.22428767892823
Ti 13.49150035369942 14.61976207202473 11.731215259238398
