38
Energy = -251.15343811 eV
Ti 10.128298398280844 9.533046758811153 15.6976661257753
Ti 11.515291589602368 11.684009692940004 14.83160246098854
Ti 12.380660056513143 9.319170893092105 14.404898322921632
Ti 11.28410874984283 14.011416554067754 13.761308270242319
Ti 8.666291546614957 11.716787210864785 14.844039545425245
Ti 10.194608339541954 7.581956583955471 13.837317724178943
Ti 7.96451579111946 9.043384357826021 14.473628884222531
Ti 13.541865814932546 12.922134847408987 13.098786973169366
Ti 12.309041907147014 10.886262682171601 12.244483041025218
Ti 9.956376257646161 10.100043919084039 13.137080440967885
Ti 9.297707768407275 12.594518301915143 12.329181076924325
Ti 12.647012343280574 15.144504738592765 11.64726596461766
Ti 13.149589532069568 7.9510944704597035 12.216352919711259
Ti 14.849403802498982 10.108630479684635 11.866815850307438
Ti 7.298659889282594 13.76576708011778 12.78610603272747
Ti 11.363913983040348 13.123967114588078 11.0470573526798
Ti 9.981374001518763 15.392365513413944 12.292007072971693
Ti 7.265434542234989 10.914152988652926 12.72607666739557
Ti 8.278882465715636 8.352806832564204 11.97319914771379
Ti 8.308618081195913 14.644435699000034 10.5321064163472
Ti 10.754959013288076 8.258393968608601 11.183813787097023
Ti 13.985357770175694 12.356731015411095 10.443066390584251
Ti 14.951921015056316 7.9910044281887895 10.11561936715736
Ti 12.935287129533986 9.558746983029648 10.137110614287378
Ti 7.385295796962591 12.30535365959976 10.429126647525718
Ti 9.385586212284002 10.38438693710417 10.330940444154926
Ti 15.331703793987051 10.32591068489246 9.213358578834013
Ti 10.67367316047256 15.454151770275281 9.796494202590214
Ti 12.596058768923465 6.984634071797207 9.728104690471193
Ti 11.511534536941896 11.231051688437827 8.931685111897366
Ti 9.607857175447993 13.070745976661753 8.864028555333832
Ti 12.420796791511032 13.77659342473521 8.741289142972297
Ti 10.704283403853752 8.450375445208062 8.451634605530902
Ti 13.590277216932945 8.694100299384486 7.772050420107596
Ti 13.705774604790225 11.469955855371543 7.466133007900045
Ti 9.355213924992352 10.66451540842958 7.573093622215292
Ti 11.206498130502053 12.44728005942091 6.693775550275577
Ti 11.678780337777765 9.948125248151856 6.54420861467294
