37
Energy = -245.78341545 eV
Ti 11.24725020135661 6.762570821469667 12.603306817046658
Ti 13.200292119754168 8.546005649009127 11.995406762574465
Ti 11.102905489624202 9.27372519696386 13.60226860000732
Ti 12.045859905307667 6.684619148192344 10.077229645354631
Ti 8.774514009172856 7.98737538243809 12.789413606199805
Ti 9.497646878702 6.272316967979092 10.828313861264633
Ti 13.27924329943562 10.832090262493208 14.008144073845372
Ti 14.928918894336462 10.740839626390335 11.926960448460974
Ti 10.642884398326448 8.675898453084377 10.863850180650031
Ti 12.068517041708693 9.08564838860622 8.5618678248364
Ti 12.47745405560856 10.981373454534673 11.178099758590957
Ti 8.79315359697026 10.656830866208105 14.082957315597831
Ti 9.998528176200612 7.44896914701817 8.57847886408715
Ti 7.8741555483794 8.421094626335725 10.219609371859406
Ti 10.974591250585497 11.194575442286206 15.391981152652466
Ti 13.740600155475983 13.088676724597684 12.565588972117311
Ti 12.42016383017781 13.164379937817552 14.89564006154835
Ti 14.297272180968584 9.65284064005753 9.703586879782046
Ti 9.345166208279792 10.651440857249902 11.30771587617429
Ti 9.263566917175936 10.036408976408197 8.549382132695367
Ti 6.988492214525841 9.912405779852556 12.263431320938276
Ti 11.013024338639275 10.525835303214766 6.612251197080656
Ti 9.688151420222582 13.478078766345417 14.664041049997401
Ti 10.886922494894478 12.257393989752744 12.860563380177819
Ti 14.46277101952254 12.33740875884347 9.919276990026987
Ti 13.522453673721252 11.257991051546128 7.597776535210494
Ti 11.631431985063282 14.842187044953494 13.277575215332067
Ti 11.314484220966863 11.89099650993663 8.921352530049614
Ti 7.227301016791261 11.157478486973039 9.988842380526393
Ti 7.82783063693512 12.46725395853353 12.463240948034777
Ti 9.276911342354962 12.429815657250378 7.272387753379265
Ti 11.83242213645108 13.949317989727215 10.76800131140407
Ti 9.073405206217277 13.044562119235163 10.03287204382158
Ti 9.509532600954765 14.590834980198558 12.111158410976575
Ti 11.727483598464836 13.014124246180387 6.466866620377641
Ti 13.10773261543908 13.89275012336462 8.348918067465194
Ti 10.59573786805333 14.452657211715735 8.360414586619775
