34
Energy = -222.06633521 eV
Ti 15.43726960820849 12.700327301326299 19.459709786743236
Ti 12.802087219446397 12.167034700182285 10.99036649530057
Ti 13.94685893382499 14.624375498123404 10.245997731456166
Ti 14.670472477493833 10.333100007919011 13.63381318990147
Ti 9.616694643210202 14.893691787532983 10.692951842514907
Ti 11.39566338114938 17.348945904077816 13.622308360301242
Ti 10.49109390019318 17.126523548485938 11.478759474147576
Ti 12.522946124923164 11.004382109019412 15.43031367877727
Ti 11.79463608318505 16.03289942345347 9.613546436951331
Ti 18.1756716936985 12.82970749656283 15.036426948361736
Ti 11.991196265356631 10.983123648843181 13.093735772750112
Ti 15.624513907841703 12.581221942971574 14.81876574324597
Ti 16.65102688480808 15.205182116633726 14.866992622434282
Ti 16.317778446541524 13.998533359827194 17.226807166243564
Ti 12.988912881683436 13.335622721436636 14.07300991539808
Ti 14.128428148178243 14.906361671735931 16.08648071996353
Ti 14.978348209526924 12.576867151261567 12.041661307926562
Ti 10.309363401178098 12.717996196009347 11.947994844139354
Ti 9.629622408910318 15.200808456611473 13.299922037991449
Ti 16.866301669520276 11.581290886242455 17.17225756526765
Ti 14.885737895839457 15.074566895719913 12.831348108249731
Ti 13.550392802848926 16.54643377371193 14.214633034978295
Ti 10.446055050274245 12.796834390089856 14.586386867650125
Ti 17.231751551173065 13.871853230114157 12.765372159675874
Ti 11.397076127908988 15.34544672499868 15.36810660935722
Ti 17.12696884904645 11.399527850628463 12.840263557691548
Ti 17.14452143329481 10.293813910037352 14.957761589066502
Ti 11.54104788145961 13.544950759879914 9.678339899967677
Ti 11.932446523661229 13.277911836785796 16.703723688806015
Ti 14.09194362469651 14.376273864004114 18.72613405724533
Ti 12.002151451629764 14.965827630768791 12.120519202728811
Ti 14.185394226447954 12.268638805993092 17.155784746479455
Ti 15.006035117947164 9.970808630390563 16.269694639451256
Ti 13.261802037764296 17.177735392138224 11.570129047451802
