43
Energy = -285.51234641 eV
Ti 8.874807713032812 8.464868269579547 15.423809693954135
Ti 10.787473025395856 9.694539039634522 14.406655034010997
Ti 11.2472408865121 7.363289378852361 15.458296440581012
Ti 8.347788535447954 11.233847429314169 14.202520597621652
Ti 9.866185496969694 7.297297308603555 13.298037372049595
Ti 8.198182015258146 9.159291886020583 12.983089385384723
Ti 13.163472827062238 11.788541755161523 15.115530137657768
Ti 10.826008489374816 12.70759480049606 14.330892430784212
Ti 12.458305893373112 7.632024107614486 13.090705454762496
Ti 13.58933461568161 9.002147354320737 14.746540963152308
Ti 15.158898670036745 13.710236306477164 13.847155331296241
Ti 10.072455922296587 11.1545130628695 12.185477651286192
Ti 12.831233308282075 14.376691402959827 14.901985136045452
Ti 8.759457437045818 13.447508822060566 12.69755016912015
Ti 15.145807545079146 10.97572259452927 13.870907637185258
Ti 13.378885797404685 8.041868945973265 10.424270181615693
Ti 7.501144885674601 11.332105184645565 11.381191321189583
Ti 12.642056528538943 10.38420137684954 12.772732794458749
Ti 8.497560773100938 9.1635864358042 10.354832339178389
Ti 10.904208639980313 8.62599733970799 10.975934742489384
Ti 14.912154431795098 9.050181085726226 12.05939092690065
Ti 8.144725717613731 10.95868341624117 8.451763305586518
Ti 13.141218469339561 13.027948179814416 12.557398303833256
Ti 15.48735204593733 11.764211631377261 11.552381445006258
Ti 10.830694029110225 15.324507333245212 13.51562583384014
Ti 9.810484120888447 8.830785232649385 8.269795025564381
Ti 12.998153255674575 10.856095268749325 10.368647409062069
Ti 11.089207227768341 13.820579266638234 11.105807644448511
Ti 13.439751639533265 15.751489457824656 12.729806447852448
Ti 9.10079048724517 15.639446860286105 11.387691562351135
Ti 10.47125055763053 11.104286191401284 9.578355577143798
Ti 15.28160353896263 14.513549154105062 11.386446273498022
Ti 12.455432733529005 9.127735364027863 8.288661908280893
Ti 8.64606895830737 13.395551626698168 10.012468419084898
Ti 14.990984692298568 9.915406300903228 9.29785422237949
Ti 11.403546951277116 16.616977403201926 11.345297301330634
Ti 14.274855168222885 12.97085824019663 9.575886218672654
Ti 13.141403807081899 15.369243915300027 9.937463350750136
Ti 9.491022334993344 13.111257654248027 7.7799987858789885
Ti 13.36409017284607 11.320505170654643 7.629305756536457
Ti 10.760921499037796 10.976842898427757 7.03233441094079
Ti 10.461191604871493 15.530203797348861 9.152090865427997
Ti 11.9397707058582 13.370396114991388 8.399359622962978
