48
Energy = -321.71616199 eV
Ti 15.340295520418112 10.771457753291047 9.217788569288969
Ti 16.263461140151104 10.125094488532149 11.642708837591616
Ti 13.310665329404149 9.324505173731776 8.258010912071185
Ti 14.57770164314543 8.335273593151138 10.300019750227046
Ti 16.200780251528084 12.881230200453345 10.811833752220148
Ti 15.059599288781005 15.415637577502222 10.901426232502148
Ti 15.354389699968904 10.219328986231865 14.348643226032076
Ti 14.714011017038105 13.609324466423955 8.693101197387776
Ti 16.09123149688454 14.390143666084994 13.033074427868579
Ti 11.73024996485534 8.488806579846857 10.181902751735697
Ti 13.216086689699337 8.342318778458036 14.528973563475265
Ti 13.621038959055946 9.874349528859696 12.2462957363804
Ti 15.280223033056117 7.974444986058132 12.824861001126585
Ti 10.256507483390482 12.601499515199402 9.77513544337083
Ti 11.041832318043454 10.690892473562606 8.058231813571592
Ti 14.941160436171273 13.089068770289456 15.04346677311036
Ti 12.703140227236295 11.217935277344868 10.063265837098784
Ti 12.642130082530755 16.48397418315669 11.366262776993844
Ti 12.905242335635172 13.895006260635164 10.690445974213578
Ti 12.64118119474056 7.303585824170017 12.20263041680574
Ti 13.49395501921083 11.688261091111006 7.499409592075486
Ti 16.745181066549268 12.04725937926708 13.280818907725244
Ti 14.102373205988986 12.530771452458787 12.74382072818614
Ti 13.210806539587061 15.824380842908187 8.961067752744235
Ti 13.731334394552249 15.264827754343841 13.43324641662201
Ti 10.804361905096705 7.134793112966024 14.322797631859201
Ti 12.798797492385388 11.157287307878256 14.766521399945583
Ti 10.049935955485891 10.31034680793597 10.628511554979571
Ti 9.555705141662697 7.660828972926023 12.05066924194447
Ti 11.073034690441979 9.435480488760971 13.044763349506269
Ti 10.71689833574898 15.218742018794956 9.984085655770429
Ti 10.96890654083301 9.325259748944298 15.76691674083538
Ti 11.92766982479367 13.645929910809683 8.049423051034106
Ti 8.19060298300649 10.123728123997566 12.420951177813885
Ti 12.162629069591041 13.530384959996235 14.784160135056387
Ti 11.380875395695032 12.17614766578282 12.448589871456903
Ti 8.834700418044802 8.851606907381672 14.460350608815812
Ti 8.3088423573083 14.11745421285214 9.1895268364825
Ti 7.618673155602703 11.548624608698656 9.776879865865439
Ti 8.589668674585049 12.815478395074251 11.934944196010543
Ti 9.892149069000759 11.528989159751315 14.525458351165373
Ti 11.066553575447966 14.854536931501094 12.706799840013076
Ti 8.43374899015828 15.450335158737804 11.702726401485114
Ti 7.414278319449213 11.96359848813087 14.315548955884543
Ti 6.112286427434179 11.768549421709327 12.100266872218024
Ti 9.046092443314333 14.156986977197127 14.227692646597218
Ti 6.416789916994041 13.831971995667653 10.656336202829996
Ti 6.62457025671734 14.165909297853378 13.191986298424922
