4
Energy = -19.97428435 eV
Ti 6.2617005724676 7.324788093958211 7.983292111476523
Ti 7.884616899245732 8.99686272712351 8.461053890978166
Ti 8.675878156275047 6.62912177881141 8.138123321300535
Ti 7.980880432526936 7.852303400107085 6.220606676244885
