55
Energy = -369.96610205 eV
Ti 9.066277019677024 8.86798939527705 7.021669403429457
Ti 13.030544054254987 7.788830287593902 10.147230578525026
Ti 10.539709824904797 7.515770559311713 11.186109136075972
Ti 9.68649180895779 10.94478254392694 8.804257530698159
Ti 8.009682333909314 12.88532685692749 8.04989850755649
Ti 10.762523995837583 12.84098619247693 7.030035853666657
Ti 8.72849218796325 11.203238909676424 6.30814054878522
Ti 6.741187579886049 11.205395834905975 12.769478928515625
Ti 13.57142537435212 10.900909536238707 12.894220379665555
Ti 12.40223600808371 11.815864747158969 8.837737685418576
Ti 14.27061106305194 12.519401024368074 10.528959359867885
Ti 11.837025776311043 8.833474498618514 13.173279399465793
Ti 7.1175518667325335 10.216323107154354 8.225197237681668
Ti 8.543732439427322 8.894719163949356 16.074114469226103
Ti 7.029652459822801 8.72905319201307 13.790540281350397
Ti 16.67776985326987 11.895781870103216 10.216053225133907
Ti 14.222961260032331 15.143450141266582 12.459820956535046
Ti 15.33232708306424 10.942944881453624 8.136424522110445
Ti 9.403836338562694 12.250443000040276 11.331069775233564
Ti 7.15578514924477 13.661074741049974 12.170558886803912
Ti 8.314515621956538 7.99904803376607 9.368806995022002
Ti 11.825035054594624 15.087920933233157 13.831417287828296
Ti 11.286283351720508 10.296205505398351 6.603926513937243
Ti 16.0828436190123 10.05896152492614 12.76523720770129
Ti 15.3548819715789 13.468527079381037 8.224521453572788
Ti 16.098897426226397 14.429122531789533 10.585444970616427
Ti 10.848244791525522 13.990116394799575 9.555748904170677
Ti 12.207449983978501 13.413106707497098 11.820925219553699
Ti 9.449147288716746 10.14457537060693 13.895521761340852
Ti 15.280743826511557 11.28811014464637 14.93056155941773
Ti 14.28634160692 8.13882389672022 12.33404583189428
Ti 6.409407210584153 9.205429506781938 10.940385205320341
Ti 9.786995840693278 11.283530028114972 16.235548418506912
Ti 8.567175852278643 12.858091556749418 14.222504425019842
Ti 8.898656778092832 9.662764314042855 11.323904262248794
Ti 13.398056969626827 9.33215411605243 8.027083544318034
Ti 6.80991119194027 12.024710508107777 10.170892470021446
Ti 13.518462362239708 12.083382483767128 6.53454337438466
Ti 15.849682471822096 12.833820946023636 12.8005045209495
Ti 7.960453386679061 7.270212696190774 11.882516534294254
Ti 14.217332137894184 8.997965958338972 14.654907771907084
Ti 9.511274783486561 7.464098210103485 14.02177493786871
Ti 11.059079116793885 8.885131372867678 15.73263395994716
Ti 13.748885052543704 15.188320894506617 9.802965932682994
Ti 11.82629759765781 15.976517740396739 11.350788077523765
Ti 8.230275185091438 14.39461043756501 10.077208183468398
Ti 12.605948254855727 10.968177062291781 15.448910679387978
Ti 9.777820597602389 14.55627276016469 12.291601130438366
Ti 12.823376911251426 14.327779421481125 7.6673018095601915
Ti 11.075465199248153 12.313910669093495 13.732788500491797
Ti 10.949234094180527 8.49450846586718 8.77140067228703
Ti 14.775052456403998 9.742321124089885 10.32600914546616
Ti 11.752984135277496 10.181251530988195 10.895292550631206
Ti 13.682758318012965 13.332270128101221 14.350397807993897
Ti 7.274931075655954 10.926214462037692 15.340906714479939
