5
Energy = -26.57161422 eV
Ti 7.5497030954925375 8.288879867223393 10.097818894157754
Ti 9.428733111142744 8.831297774888046 8.431245081903752
Ti 7.971454012136306 6.778366556341305 8.30154724661039
Ti 7.073753991983132 9.0432558308655 7.673508124236067
Ti 8.714769208047295 7.796613389483991 6.234294071894056
