54
Energy = -363.57940576 eV
Ti 11.677073529656704 13.204140070535304 16.13425422181234
Ti 9.717049242090427 10.744798861029679 15.997128786993194
Ti 12.449902262342428 10.647376986839136 15.484158798793807
Ti 14.329216073314234 12.509308155786346 14.967157000658954
Ti 11.292885434808554 8.468492104521898 15.965971603102242
Ti 13.189407414854506 14.883549041687756 14.429168900354098
Ti 15.692768720245772 14.292186827431149 13.626622162618823
Ti 8.654358584417587 12.696319111218793 14.72444133740622
Ti 7.396792284915123 10.230736366436624 14.321964615049563
Ti 8.767961118085376 8.286177004951659 15.438622322371764
Ti 14.844218657237358 9.943120438609633 14.334852331908921
Ti 10.519738764649583 15.220560466342421 14.382354732639651
Ti 11.196478215316562 12.64010567322576 13.81709010158181
Ti 10.423341567699811 9.51673198057012 13.684342991762374
Ti 14.454593959329602 16.013679188883216 12.085700307318453
Ti 16.113561721567123 11.82326989921801 12.860183026185089
Ti 6.7303150319657545 12.419371644460323 12.925708213817915
Ti 12.787522527375002 8.400111656126166 13.433919375677544
Ti 14.097918466202405 13.282613338359035 11.714206783331196
Ti 12.20246289185953 16.924300600673394 13.190082669722655
Ti 16.3221928201741 14.098086148939508 10.988026252257365
Ti 8.209155791311392 8.029228595885176 12.884894746259208
Ti 10.462782896353525 6.884348607108483 14.154818867756655
Ti 8.944624714900554 11.227984038540237 12.331741010150091
Ti 6.841815155996896 10.153059292598096 11.431693394570964
Ti 8.88419826541427 14.063537015314179 12.434237642135635
Ti 12.984543379583616 11.082896628263741 12.95142185869334
Ti 10.852490335491725 7.3312653387541555 11.754059680016441
Ti 11.790324277186187 14.65936197250936 11.852157936648126
Ti 9.927572937309613 16.543379638080932 12.104746120056692
Ti 14.56011687412926 9.782151774895826 11.518232853874538
Ti 14.247615561496625 15.269876368322006 9.702692236821077
Ti 11.607778838272615 9.738455498969293 11.176011999067352
Ti 12.985493961817879 11.776872944281765 9.899836889210324
Ti 15.929688695708073 11.465824975892422 10.266602594370017
Ti 13.13921663584814 7.934362792817637 9.988559562575938
Ti 7.709289214524832 12.790063316790798 10.503365595084967
Ti 9.832279847195348 15.028403872113063 9.981223411253195
Ti 9.109757220649342 8.786050978369529 10.508676524228964
Ti 12.02394101075237 16.753604247592556 10.45572008215336
Ti 10.621461699859806 12.371878140773932 10.73339266488411
Ti 10.699300957963736 7.149713000844792 8.847323359112758
Ti 12.064171265895826 14.279172953356856 9.021483570182863
Ti 14.111886191106718 10.054324633137952 8.380938911134335
Ti 14.977543113284703 12.978554222541012 8.713740297152428
Ti 11.264626058599978 9.847427419751893 8.42849310496801
Ti 8.721172106788169 10.909742709337989 9.231681934905142
Ti 12.931987313184381 7.740386664339517 7.541037882983852
Ti 10.125595842218592 12.752243106262105 8.123387581703163
Ti 8.808768557666594 8.721223818133373 7.81646304701099
Ti 12.440648487349936 12.074835946067191 7.204417089731045
Ti 10.75314977739366 8.143101928866637 6.33093955441646
Ti 12.64394575787375 9.853748149609524 6.05795027678072
Ti 10.05658064429305 10.701166519558791 6.2853838602711365
