52
Energy = -349.54209119 eV
Ti 13.029893129997369 9.893530718379374 16.430204856423913
Ti 13.456005756020065 8.000286368720202 14.622295505166848
Ti 11.007349515453429 8.449928657671943 15.708107153557375
Ti 14.84615476907119 10.350731487552547 14.331060343620404
Ti 16.090698429636124 8.932886580161666 12.153092412819344
Ti 10.76138326456868 11.377648423540448 15.914496396900082
Ti 13.095926633691944 12.552494335864223 15.592509825644662
Ti 11.128703447183842 7.340916150145755 13.173285169536262
Ti 17.082565298257613 11.258248832915891 12.821139549001256
Ti 12.126222668765498 10.078947869824999 13.995000704778995
Ti 13.363898429094458 8.877200625532597 12.079835796464003
Ti 15.116340951111217 13.061967415747437 13.685810499330183
Ti 9.062996232177838 9.97533658026385 14.77349232210499
Ti 8.354064793761479 7.957029239120923 13.285632856850919
Ti 10.784294747082848 14.087630195070735 15.184464656994782
Ti 14.801155862454182 8.92586568412652 9.818350705113302
Ti 9.376912708032272 7.325493889022505 11.077562177204525
Ti 16.991136449016533 10.608767247273061 10.123466934022236
Ti 11.783862831146177 8.013587557466654 10.445838066867076
Ti 12.57767914621638 12.361431696209015 12.914852642496026
Ti 9.869294070995663 12.320597027544473 13.303307517545962
Ti 14.786484991127274 11.188298502000825 11.89753088883057
Ti 16.49955093301539 13.216621017896447 10.87545479801915
Ti 8.362538124013678 12.77452938486666 15.183380153259991
Ti 10.141766983448955 9.620867869214143 12.143455173422158
Ti 12.974743009223364 14.837323795537849 13.886447023036272
Ti 7.699158491375602 9.389076645165801 10.846286777212145
Ti 14.481296139481792 11.857676633252938 9.606834803774934
Ti 15.45807190047325 10.240818564751194 7.798981537223595
Ti 13.84828818429326 14.201819342709618 11.336084970638861
Ti 11.9005049629689 10.889821742793696 10.61157602890866
Ti 10.805267687706786 16.2710413029234 13.69540980857442
Ti 16.57736073480454 12.529351533162346 8.228574668363903
Ti 10.987647720530102 14.37152673781313 11.67944491001613
Ti 12.752461058021671 10.21500614853275 8.275781536263853
Ti 12.508836196115736 16.65336061189938 11.89744501472224
Ti 7.534499835960114 10.74109950754633 13.005019915414254
Ti 9.953850941229295 9.449484334750764 9.313880575772234
Ti 8.654571731924248 15.062584861299252 13.429510906482752
Ti 14.833197652560887 14.371787355422724 8.888344113346944
Ti 9.273662756973184 12.038544328539116 10.639902334593046
Ti 12.220023803900194 13.259199807493271 9.208880819197764
Ti 7.107864603582032 13.194395348930827 12.868615564536999
Ti 14.077973565614549 12.47112755933348 7.1861282337696455
Ti 7.920616421458238 10.848052750030208 8.624317203343251
Ti 12.120348953673554 15.768398514397623 9.667782796121546
Ti 9.863244422753288 16.594892927382006 11.171917212356796
Ti 10.298697021349051 11.987442999518375 8.087069424820577
Ti 6.597593491715481 12.09565356214917 10.599822382474711
Ti 9.866715143287662 14.79302765172447 9.020778163410203
Ti 7.879082113015542 14.637990091944737 10.86419599384554
Ti 7.924972599385606 13.296083293581505 8.644771484522066
