6
Energy = -32.75045395 eV
Ti 9.274902139863075 9.874110823885657 9.238947153708496
Ti 10.208566354622413 8.025885250325858 8.170842634054786
Ti 8.493113989713343 6.416945683669168 7.302886994163467
Ti 7.905598188513662 8.860771942442666 7.254240228185233
Ti 7.966269787677344 7.623248754981964 9.452964631216057
Ti 6.949213770601257 9.99670177568554 9.377782589662692
