9
Energy = -51.86068938 eV
Ti 9.522996923018708 8.779130172187944 10.950294860765277
Ti 11.158641258454583 10.260106055149972 9.40985364810913
Ti 11.615800631050764 7.8254517234943375 9.897030310737387
Ti 8.726500571802978 10.820522722442462 10.020047514974323
Ti 6.650936106788719 11.135195225003013 8.595945659089903
Ti 9.35015189335403 6.640201349819168 9.712527613467232
Ti 7.523244007053739 8.70376033982058 9.005928018308067
Ti 9.934832472205715 8.460840046903424 8.131722801720453
Ti 8.711960926175376 10.569857155083847 7.471714362732996
