       N       E                     dE             d eps       ncg     rms          rms(c)
DAV:   1     0.713566359874E+03    0.71357E+03   -0.20264E+04   288   0.634E+02
DAV:   2     0.106316836618E+03   -0.60725E+03   -0.55800E+03   288   0.235E+02
DAV:   3    -0.765318167769E+01   -0.11397E+03   -0.10588E+03   344   0.113E+02
DAV:   4    -0.231294333298E+02   -0.15476E+02   -0.14452E+02   336   0.719E+01
DAV:   5    -0.236217719321E+02   -0.49234E+00   -0.49096E+00   336   0.982E+00    0.234E+01
DAV:   6    -0.110768597785E+02    0.12545E+02   -0.82186E+01   312   0.790E+01    0.986E+00
DAV:   7    -0.548163250612E+01    0.55952E+01   -0.20861E+01   344   0.571E+01    0.430E+00
DAV:   8    -0.542061334944E+01    0.61019E-01   -0.37830E+00   360   0.383E+01    0.337E+00
DAV:   9    -0.720952423784E+01   -0.17889E+01   -0.11147E+00   416   0.242E+01    0.232E+00
DAV:  10    -0.118285203110E+02   -0.46190E+01   -0.26565E+00   368   0.122E+01    0.142E+00
DAV:  11    -0.153938432399E+02   -0.35653E+01   -0.17886E+00   360   0.110E+01    0.106E+00
DAV:  12    -0.172408062723E+02   -0.18470E+01   -0.71855E-01   384   0.700E+00    0.760E-01
DAV:  13    -0.187087535404E+02   -0.14679E+01   -0.37635E-01   392   0.434E+00    0.575E-01
DAV:  14    -0.197933227310E+02   -0.10846E+01   -0.25753E-01   368   0.358E+00    0.351E-01
DAV:  15    -0.205011238359E+02   -0.70780E+00   -0.98627E-02   320   0.188E+00    0.230E+00
DAV:  16    -0.205091437726E+02   -0.80199E-02   -0.66416E-03   432   0.902E-01    0.227E+00
DAV:  17    -0.205229557593E+02   -0.13812E-01   -0.81161E-04   320   0.274E-01    0.226E+00
DAV:  18    -0.205234894566E+02   -0.53370E-03   -0.12056E-04   248   0.104E-01    0.225E+00
DAV:  19    -0.205439082576E+02   -0.20419E-01   -0.39899E-03   424   0.111E+00    0.212E+00
DAV:  20    -0.205689510968E+02   -0.25043E-01   -0.34841E-03   416   0.618E-01    0.200E+00
DAV:  21    -0.206064567406E+02   -0.37506E-01   -0.39458E-03   440   0.744E-01    0.183E+00
DAV:  22    -0.207120791917E+02   -0.10562E+00   -0.23368E-02   408   0.152E+00    0.139E+00
DAV:  23    -0.208613187209E+02   -0.14924E+00   -0.40968E-02   400   0.148E+00    0.927E-01
DAV:  24    -0.209280084837E+02   -0.66690E-01   -0.23234E-02   368   0.125E+00    0.649E-01
DAV:  25    -0.209632689305E+02   -0.35260E-01   -0.75001E-03   336   0.882E-01    0.504E-01
DAV:  26    -0.210048975080E+02   -0.41629E-01   -0.90858E-03   448   0.832E-01    0.308E-01
DAV:  27    -0.210246012571E+02   -0.19704E-01   -0.90825E-03   360   0.522E-01    0.177E-01
DAV:  28    -0.210257671480E+02   -0.11659E-02   -0.14506E-03   336   0.339E-01    0.169E-01
DAV:  29    -0.210241762095E+02    0.15909E-02   -0.38571E-04   200   0.232E-01    0.184E-01
DAV:  30    -0.210228346492E+02    0.13416E-02   -0.89667E-04   272   0.106E-01    0.188E-01
DAV:  31    -0.210247977702E+02   -0.19631E-02   -0.59199E-03   344   0.227E-01    0.193E-01
DAV:  32    -0.210332655441E+02   -0.84678E-02   -0.75841E-03   408   0.478E-01    0.121E-01
DAV:  33    -0.210412680679E+02   -0.80025E-02   -0.31814E-03   360   0.320E-01    0.649E-02
DAV:  34    -0.210438515535E+02   -0.25835E-02   -0.90090E-04   288   0.334E-01    0.769E-02
DAV:  35    -0.210447658479E+02   -0.91429E-03   -0.28020E-03   280   0.262E-01    0.548E-02
DAV:  36    -0.210470657193E+02   -0.22999E-02   -0.62989E-04   264   0.166E-01    0.428E-02
DAV:  37    -0.210474416436E+02   -0.37592E-03   -0.11223E-03   256   0.140E-01    0.437E-02
DAV:  38    -0.210474925394E+02   -0.50896E-04   -0.33685E-04   240   0.923E-02
   1 F= -.21047493E+02 E0= -.21047493E+02  d E =-.210475E+02  mag=     0.0133
       N       E                     dE             d eps       ncg     rms          rms(c)
DAV:   1    -0.211936863835E+02   -0.14624E+00   -0.98993E+00   336   0.120E+01    0.241E-01
DAV:   2    -0.212095115465E+02   -0.15825E-01   -0.17202E-01   448   0.306E+00    0.308E-01
DAV:   3    -0.212084707823E+02    0.10408E-02   -0.10367E-02   336   0.195E+00    0.166E-01
DAV:   4    -0.212084117240E+02    0.59058E-04   -0.14994E-03   376   0.527E-01    0.136E-01
DAV:   5    -0.212083100624E+02    0.10166E-03   -0.90946E-04   376   0.443E-01    0.781E-02
DAV:   6    -0.212082622112E+02    0.47851E-04   -0.11431E-03   328   0.586E-01    0.371E-02
DAV:   7    -0.212082771508E+02   -0.14940E-04   -0.31435E-04   240   0.287E-01
   2 F= -.21208277E+02 E0= -.21208277E+02  d E =-.160785E+00  mag=     0.0035
       N       E                     dE             d eps       ncg     rms          rms(c)
DAV:   1    -0.213937070269E+02   -0.18544E+00   -0.90572E+01   304   0.381E+01    0.710E-01
DAV:   2    -0.215547628567E+02   -0.16106E+00   -0.17392E+00   424   0.940E+00    0.971E-01
DAV:   3    -0.215430036630E+02    0.11759E-01   -0.75980E-02   320   0.585E+00    0.538E-01
DAV:   4    -0.215417701262E+02    0.12335E-02   -0.13683E-02   368   0.147E+00    0.452E-01
DAV:   5    -0.215401476911E+02    0.16224E-02   -0.57405E-03   416   0.123E+00    0.295E-01
DAV:   6    -0.215396821124E+02    0.46558E-03   -0.81522E-03   488   0.175E+00    0.116E-01
DAV:   7    -0.215395823438E+02    0.99769E-04   -0.16861E-03   376   0.115E+00    0.486E-02
DAV:   8    -0.215396606888E+02   -0.78345E-04   -0.69068E-04   320   0.318E-01
   3 F= -.21539661E+02 E0= -.21539661E+02  d E =-.492168E+00  mag=     0.0007
       N       E                     dE             d eps       ncg     rms          rms(c)
DAV:   1    -0.212172722622E+02    0.32231E+00   -0.38666E+02   368   0.900E+01    0.122E+00
DAV:   2    -0.216838124127E+02   -0.46654E+00   -0.49727E+00   408   0.199E+01    0.173E+00
DAV:   3    -0.216560386708E+02    0.27774E-01   -0.31360E-01   336   0.124E+01    0.879E-01
DAV:   4    -0.216545782619E+02    0.14604E-02   -0.60274E-02   352   0.221E+00    0.703E-01
DAV:   5    -0.216533267712E+02    0.12515E-02   -0.25990E-02   328   0.356E+00    0.588E-01
DAV:   6    -0.216513223305E+02    0.20044E-02   -0.26602E-02   440   0.384E+00    0.300E-01
DAV:   7    -0.216503354434E+02    0.98689E-03   -0.71443E-03   480   0.144E+00    0.169E-01
DAV:   8    -0.216501602887E+02    0.17515E-03   -0.41190E-03   352   0.816E-01    0.825E-02
DAV:   9    -0.216502737167E+02   -0.11343E-03   -0.10553E-03   328   0.630E-01    0.649E-02
DAV:  10    -0.216503294229E+02   -0.55706E-04   -0.32232E-04   248   0.237E-01
   4 F= -.21650329E+02 E0= -.21650329E+02  d E =-.602837E+00  mag=     0.0001
       N       E                     dE             d eps       ncg     rms          rms(c)
DAV:   1    -0.216364790641E+02    0.13795E-01   -0.32116E+01   320   0.218E+01    0.553E-01
DAV:   2    -0.216892732265E+02   -0.52794E-01   -0.60227E-01   432   0.692E+00    0.609E-01
DAV:   3    -0.216839174674E+02    0.53558E-02   -0.36775E-02   336   0.440E+00    0.301E-01
DAV:   4    -0.216838184881E+02    0.98979E-04   -0.85058E-03   384   0.123E+00    0.237E-01
DAV:   5    -0.216837378339E+02    0.80654E-04   -0.15037E-03   336   0.479E-01    0.176E-01
DAV:   6    -0.216842515965E+02   -0.51376E-03   -0.25228E-03   456   0.106E+00    0.102E-01
DAV:   7    -0.216841629823E+02    0.88614E-04   -0.99958E-04   352   0.854E-01
   5 F= -.21684163E+02 E0= -.21684163E+02  d E =-.636670E+00  mag=     0.0000
       N       E                     dE             d eps       ncg     rms          rms(c)
DAV:   1    -0.217132199340E+02   -0.28968E-01   -0.57059E+00   304   0.890E+00    0.191E-01
DAV:   2    -0.217215526534E+02   -0.83327E-02   -0.94696E-02   424   0.299E+00    0.274E-01
DAV:   3    -0.217205805191E+02    0.97213E-03   -0.65062E-03   336   0.173E+00    0.133E-01
DAV:   4    -0.217205660675E+02    0.14452E-04   -0.12501E-03   344   0.391E-01    0.101E-01
DAV:   5    -0.217205663833E+02   -0.31582E-06   -0.29241E-04   240   0.299E-01
   6 F= -.21720566E+02 E0= -.21720566E+02  d E =-.364034E-01  mag=     0.0000
       N       E                     dE             d eps       ncg     rms          rms(c)
DAV:   1    -0.217299814989E+02   -0.94154E-02   -0.51946E+01   304   0.278E+01    0.593E-01
DAV:   2    -0.218266462709E+02   -0.96665E-01   -0.10606E+00   440   0.918E+00    0.777E-01
DAV:   3    -0.218172338910E+02    0.94124E-02   -0.41298E-02   328   0.529E+00    0.385E-01
DAV:   4    -0.218169892073E+02    0.24468E-03   -0.11693E-02   376   0.108E+00    0.292E-01
DAV:   5    -0.218167765219E+02    0.21269E-03   -0.24488E-03   312   0.829E-01    0.220E-01
DAV:   6    -0.218169642020E+02   -0.18768E-03   -0.34647E-03   448   0.116E+00    0.110E-01
DAV:   7    -0.218168385850E+02    0.12562E-03   -0.11383E-03   368   0.647E-01    0.423E-02
DAV:   8    -0.218168803633E+02   -0.41778E-04   -0.50807E-04   336   0.329E-01
   7 F= -.21816880E+02 E0= -.21816880E+02  d E =-.132717E+00  mag=     0.0000
       N       E                     dE             d eps       ncg     rms          rms(c)
DAV:   1    -0.215357664603E+02    0.28107E+00   -0.21857E+02   304   0.629E+01    0.129E+00
DAV:   2    -0.219986564331E+02   -0.46289E+00   -0.50420E+00   432   0.224E+01    0.172E+00
DAV:   3    -0.219517575876E+02    0.46899E-01   -0.22360E-01   336   0.130E+01    0.757E-01
DAV:   4    -0.219527584277E+02   -0.10008E-02   -0.69088E-02   368   0.244E+00    0.554E-01
DAV:   5    -0.219521954502E+02    0.56298E-03   -0.11678E-02   336   0.198E+00    0.487E-01
DAV:   6    -0.219523738370E+02   -0.17839E-03   -0.16411E-02   416   0.231E+00    0.345E-01
DAV:   7    -0.219509037652E+02    0.14701E-02   -0.51571E-03   368   0.155E+00    0.188E-01
DAV:   8    -0.219505468769E+02    0.35689E-03   -0.51951E-03   400   0.119E+00    0.676E-02
DAV:   9    -0.219506936660E+02   -0.14679E-03   -0.13495E-03   336   0.546E-01    0.483E-02
DAV:  10    -0.219507791208E+02   -0.85455E-04   -0.25857E-04   224   0.225E-01
   8 F= -.21950779E+02 E0= -.21950779E+02  d E =-.266616E+00  mag=     0.0000
       N       E                     dE             d eps       ncg     rms          rms(c)
DAV:   1    -0.207107309635E+02    0.12400E+01   -0.10909E+03   400   0.183E+02    0.216E+00
DAV:   2    -0.220432338264E+02   -0.13325E+01   -0.14550E+01   416   0.436E+01    0.294E+00
DAV:   3    -0.219560119325E+02    0.87222E-01   -0.11305E+00   336   0.256E+01    0.104E+00
DAV:   4    -0.219611169539E+02   -0.51050E-02   -0.22845E-01   448   0.591E+00    0.604E-01
DAV:   5    -0.219637440458E+02   -0.26271E-02   -0.65433E-02   336   0.571E+00    0.431E-01
DAV:   6    -0.219638877322E+02   -0.14369E-03   -0.20666E-02   384   0.370E+00    0.181E-01
DAV:   7    -0.219642206663E+02   -0.33293E-03   -0.75242E-03   416   0.184E+00    0.699E-02
DAV:   8    -0.219645215491E+02   -0.30088E-03   -0.19104E-03   416   0.730E-01    0.658E-02
DAV:   9    -0.219648600866E+02   -0.33854E-03   -0.56463E-04   288   0.379E-01    0.439E-02
DAV:  10    -0.219651165627E+02   -0.25648E-03   -0.25940E-04   256   0.404E-01    0.202E-02
DAV:  11    -0.219652738289E+02   -0.15727E-03   -0.74097E-05   240   0.221E-01    0.109E-02
DAV:  12    -0.219655213270E+02   -0.24750E-03   -0.91856E-05   208   0.111E-01    0.101E-02
DAV:  13    -0.219657077954E+02   -0.18647E-03   -0.54893E-05   224   0.115E-01    0.882E-03
DAV:  14    -0.219659834720E+02   -0.27568E-03   -0.77667E-05   208   0.879E-02    0.126E-02
DAV:  15    -0.219660814425E+02   -0.97971E-04   -0.43907E-05   240   0.778E-02
   9 F= -.21966081E+02 E0= -.21966081E+02  d E =-.281918E+00  mag=    -0.0000
       N       E                     dE             d eps       ncg     rms          rms(c)
DAV:   1    -0.217580419452E+02    0.20794E+00   -0.19157E+02   336   0.577E+01    0.980E-01
DAV:   2    -0.220239325313E+02   -0.26589E+00   -0.28681E+00   432   0.160E+01    0.121E+00
DAV:   3    -0.220032781994E+02    0.20654E-01   -0.12968E-01   336   0.968E+00    0.543E-01
DAV:   4    -0.220039926339E+02   -0.71443E-03   -0.36353E-02   368   0.182E+00    0.433E-01
DAV:   5    -0.220032144401E+02    0.77819E-03   -0.53864E-03   352   0.133E+00    0.320E-01
DAV:   6    -0.220037613295E+02   -0.54689E-03   -0.10425E-02   448   0.171E+00    0.201E-01
DAV:   7    -0.220031478786E+02    0.61345E-03   -0.20599E-03   400   0.115E+00    0.102E-01
DAV:   8    -0.220030912484E+02    0.56630E-04   -0.20931E-03   384   0.563E-01    0.485E-02
DAV:   9    -0.220031191491E+02   -0.27901E-04   -0.28913E-04   240   0.306E-01
  10 F= -.22003119E+02 E0= -.22003119E+02  d E =-.318956E+00  mag=    -0.0000
       N       E                     dE             d eps       ncg     rms          rms(c)
DAV:   1    -0.220245852714E+02   -0.21494E-01   -0.27780E+00   304   0.614E+00    0.134E-01
DAV:   2    -0.220285858548E+02   -0.40006E-02   -0.44537E-02   448   0.229E+00    0.191E-01
DAV:   3    -0.220281132760E+02    0.47258E-03   -0.34851E-03   336   0.135E+00    0.913E-02
DAV:   4    -0.220281160357E+02   -0.27597E-05   -0.56907E-04   288   0.218E-01
  11 F= -.22028116E+02 E0= -.22028116E+02  d E =-.249969E-01  mag=    -0.0000
       N       E                     dE             d eps       ncg     rms          rms(c)
DAV:   1    -0.220633151022E+02   -0.35202E-01   -0.25147E+01   304   0.188E+01    0.419E-01
DAV:   2    -0.221077447788E+02   -0.44430E-01   -0.48870E-01   432   0.683E+00    0.559E-01
DAV:   3    -0.221030184076E+02    0.47264E-02   -0.22576E-02   336   0.392E+00    0.285E-01
DAV:   4    -0.221028453039E+02    0.17310E-03   -0.50894E-03   368   0.629E-01    0.224E-01
DAV:   5    -0.221026929100E+02    0.15239E-03   -0.82732E-04   320   0.361E-01    0.171E-01
DAV:   6    -0.221027509933E+02   -0.58083E-04   -0.18311E-03   416   0.731E-01    0.699E-02
DAV:   7    -0.221027000216E+02    0.50972E-04   -0.51087E-04   304   0.520E-01
  12 F= -.22102700E+02 E0= -.22102700E+02  d E =-.995809E-01  mag=    -0.0000
       N       E                     dE             d eps       ncg     rms          rms(c)
DAV:   1    -0.220641587203E+02    0.38592E-01   -0.10366E+02   304   0.404E+01    0.916E-01
DAV:   2    -0.222680489592E+02   -0.20389E+00   -0.22366E+00   448   0.154E+01    0.110E+00
DAV:   3    -0.222480042391E+02    0.20045E-01   -0.95536E-02   320   0.870E+00    0.493E-01
DAV:   4    -0.222482093121E+02   -0.20507E-03   -0.26399E-02   368   0.142E+00    0.374E-01
DAV:   5    -0.222478318268E+02    0.37749E-03   -0.34921E-03   336   0.910E-01    0.326E-01
DAV:   6    -0.222476572482E+02    0.17458E-03   -0.60856E-03   464   0.157E+00    0.208E-01
DAV:   7    -0.222471257826E+02    0.53147E-03   -0.23236E-03   384   0.996E-01    0.969E-02
DAV:   8    -0.222470744001E+02    0.51383E-04   -0.17205E-03   400   0.719E-01    0.423E-02
DAV:   9    -0.222471314724E+02   -0.57072E-04   -0.47913E-04   288   0.317E-01
  13 F= -.22247131E+02 E0= -.22247131E+02  d E =-.244012E+00  mag=    -0.0000
       N       E                     dE             d eps       ncg     rms          rms(c)
DAV:   1    -0.220125106944E+02    0.23456E+00   -0.47770E+02   384   0.103E+02    0.162E+00
DAV:   2    -0.225437407326E+02   -0.53123E+00   -0.60232E+00   448   0.321E+01    0.206E+00
DAV:   3    -0.224872476029E+02    0.56493E-01   -0.50192E-01   320   0.180E+01    0.747E-01
DAV:   4    -0.224891849243E+02   -0.19373E-02   -0.11009E-01   400   0.398E+00    0.444E-01
DAV:   5    -0.224905733497E+02   -0.13884E-02   -0.33504E-02   320   0.390E+00    0.338E-01
DAV:   6    -0.224907002122E+02   -0.12686E-03   -0.12368E-02   448   0.271E+00    0.215E-01
DAV:   7    -0.224900446978E+02    0.65551E-03   -0.44814E-03   352   0.182E+00    0.562E-02
DAV:   8    -0.224904009747E+02   -0.35628E-03   -0.26128E-03   448   0.721E-01    0.693E-02
DAV:   9    -0.224904877928E+02   -0.86818E-04   -0.47798E-04   304   0.363E-01
  14 F= -.22490488E+02 E0= -.22490488E+02  d E =-.487369E+00  mag=    -0.0000
       N       E                     dE             d eps       ncg     rms          rms(c)
DAV:   1    -0.106251249621E+02    0.11865E+02   -0.29285E+03   368   0.379E+02    0.720E+00
DAV:   2    -0.234458639795E+02   -0.12821E+02   -0.14384E+02   320   0.156E+02    0.127E+01
DAV:   3    -0.226482396269E+02    0.79762E+00   -0.24452E+01   320   0.666E+01    0.436E+00
DAV:   4    -0.226759134714E+02   -0.27674E-01   -0.23218E+00   368   0.178E+01    0.288E+00
DAV:   5    -0.226194144203E+02    0.56499E-01   -0.34444E-01   336   0.903E+00    0.203E+00
DAV:   6    -0.225817578375E+02    0.37657E-01   -0.91170E-02   448   0.752E+00    0.135E+00
DAV:   7    -0.225602844151E+02    0.21473E-01   -0.15787E-01   496   0.679E+00    0.355E-01
DAV:   8    -0.225624370918E+02   -0.21527E-02   -0.37868E-02   352   0.355E+00    0.159E-01
DAV:   9    -0.225635217154E+02   -0.10846E-02   -0.79381E-03   352   0.119E+00    0.142E-01
DAV:  10    -0.225635879807E+02   -0.66265E-04   -0.17073E-03   320   0.903E-01    0.812E-02
DAV:  11    -0.225637868730E+02   -0.19889E-03   -0.81823E-04   336   0.516E-01    0.352E-02
DAV:  12    -0.225640086560E+02   -0.22178E-03   -0.11505E-04   208   0.292E-01    0.144E-02
DAV:  13    -0.225642279832E+02   -0.21933E-03   -0.90811E-05   240   0.158E-01    0.120E-02
DAV:  14    -0.225644847334E+02   -0.25675E-03   -0.89087E-05   208   0.136E-01    0.973E-03
DAV:  15    -0.225647756336E+02   -0.29090E-03   -0.62426E-05   224   0.137E-01    0.911E-03
DAV:  16    -0.225649337566E+02   -0.15812E-03   -0.48556E-05   240   0.957E-02    0.806E-03
DAV:  17    -0.225651167249E+02   -0.18297E-03   -0.50443E-05   224   0.653E-02    0.999E-03
DAV:  18    -0.225651756725E+02   -0.58948E-04   -0.30504E-05   224   0.954E-02
  15 F= -.22565176E+02 E0= -.22565176E+02  d E =-.562057E+00  mag=    -0.0000
       N       E                     dE             d eps       ncg     rms          rms(c)
DAV:   1    -0.219892186733E+02    0.57590E+00   -0.36369E+02   336   0.875E+01    0.145E+00
DAV:   2    -0.226796146818E+02   -0.69040E+00   -0.73400E+00   432   0.303E+01    0.208E+00
DAV:   3    -0.226274653992E+02    0.52149E-01   -0.40985E-01   336   0.163E+01    0.903E-01
DAV:   4    -0.226286963655E+02   -0.12310E-02   -0.92199E-02   336   0.262E+00    0.680E-01
DAV:   5    -0.226282636389E+02    0.43273E-03   -0.21569E-02   352   0.313E+00    0.649E-01
DAV:   6    -0.226245525686E+02    0.37111E-02   -0.17696E-02   432   0.254E+00    0.405E-01
DAV:   7    -0.226221862530E+02    0.23663E-02   -0.70004E-03   416   0.222E+00    0.197E-01
DAV:   8    -0.226219404612E+02    0.24579E-03   -0.65556E-03   464   0.159E+00    0.647E-02
DAV:   9    -0.226221216233E+02   -0.18116E-03   -0.16136E-03   384   0.497E-01    0.511E-02
DAV:  10    -0.226221578319E+02   -0.36209E-04   -0.16202E-04   208   0.257E-01
  16 F= -.22622158E+02 E0= -.22622158E+02  d E =-.619039E+00  mag=    -0.0000
       N       E                     dE             d eps       ncg     rms          rms(c)
DAV:   1    -0.227609681816E+02   -0.13885E+00   -0.36327E+01   304   0.233E+01    0.575E-01
DAV:   2    -0.228253046652E+02   -0.64336E-01   -0.73423E-01   432   0.779E+00    0.646E-01
DAV:   3    -0.228195622180E+02    0.57424E-02   -0.39503E-02   336   0.475E+00    0.321E-01
DAV:   4    -0.228193783835E+02    0.18383E-03   -0.87220E-03   400   0.118E+00    0.247E-01
DAV:   5    -0.228192112276E+02    0.16716E-03   -0.16958E-03   336   0.539E-01    0.183E-01
DAV:   6    -0.228194886723E+02   -0.27744E-03   -0.22384E-03   432   0.709E-01    0.103E-01
DAV:   7    -0.228193220604E+02    0.16661E-03   -0.55605E-04   320   0.685E-01    0.484E-02
DAV:   8    -0.228193464674E+02   -0.24407E-04   -0.86679E-04   352   0.400E-01
  17 F= -.22819346E+02 E0= -.22819346E+02  d E =-.197189E+00  mag=     0.0000
       N       E                     dE             d eps       ncg     rms          rms(c)
DAV:   1    -0.227466727420E+02    0.72649E-01   -0.35597E+02   368   0.852E+01    0.161E+00
DAV:   2    -0.232450703927E+02   -0.49840E+00   -0.56571E+00   448   0.293E+01    0.198E+00
DAV:   3    -0.231880107879E+02    0.57060E-01   -0.37813E-01   336   0.172E+01    0.771E-01
DAV:   4    -0.231918308985E+02   -0.38201E-02   -0.10598E-01   384   0.265E+00    0.555E-01
DAV:   5    -0.231902877108E+02    0.15432E-02   -0.11314E-02   416   0.124E+00    0.369E-01
DAV:   6    -0.231902187949E+02    0.68916E-04   -0.72985E-03   512   0.185E+00    0.192E-01
DAV:   7    -0.231896510254E+02    0.56777E-03   -0.29031E-03   336   0.171E+00    0.750E-02
DAV:   8    -0.231897609935E+02   -0.10997E-03   -0.21464E-03   496   0.842E-01    0.540E-02
DAV:   9    -0.231897990571E+02   -0.38064E-04   -0.37088E-04   288   0.332E-01
  18 F= -.23189799E+02 E0= -.23189799E+02  d E =-.567641E+00  mag=     0.0000
       N       E                     dE             d eps       ncg     rms          rms(c)
DAV:   1    -0.198478711368E+02    0.33419E+01   -0.18701E+03   400   0.275E+02    0.474E+00
DAV:   2    -0.235171623175E+02   -0.36693E+01   -0.42758E+01   352   0.108E+02    0.767E+00
DAV:   3    -0.228768742978E+02    0.64029E+00   -0.65061E+00   336   0.523E+01    0.236E+00
DAV:   4    -0.229168200537E+02   -0.39946E-01   -0.13956E+00   448   0.167E+01    0.115E+00
DAV:   5    -0.229274902105E+02   -0.10670E-01   -0.29297E-01   336   0.102E+01    0.758E-01
DAV:   6    -0.229293676540E+02   -0.18774E-02   -0.55452E-02   384   0.559E+00    0.596E-01
DAV:   7    -0.229267162670E+02    0.26514E-02   -0.34395E-02   336   0.434E+00    0.251E-01
DAV:   8    -0.229266609010E+02    0.55366E-04   -0.14518E-02   400   0.255E+00    0.872E-02
DAV:   9    -0.229269656370E+02   -0.30474E-03   -0.33676E-03   480   0.718E-01    0.986E-02
DAV:  10    -0.229270979335E+02   -0.13230E-03   -0.95432E-04   320   0.577E-01    0.482E-02
DAV:  11    -0.229272763859E+02   -0.17845E-03   -0.28529E-04   240   0.422E-01    0.236E-02
DAV:  12    -0.229274097040E+02   -0.13332E-03   -0.10328E-04   224   0.182E-01    0.112E-02
DAV:  13    -0.229275418282E+02   -0.13212E-03   -0.74745E-05   208   0.126E-01    0.935E-03
DAV:  14    -0.229276298583E+02   -0.88030E-04   -0.43209E-05   224   0.876E-02
  19 F= -.22927630E+02 E0= -.22927630E+02  d E =-.305472E+00  mag=     0.0000
       N       E                     dE             d eps       ncg     rms          rms(c)
DAV:   1    -0.223041536744E+02    0.62339E+00   -0.80718E+02   384   0.150E+02    0.210E+00
DAV:   2    -0.233757085897E+02   -0.10716E+01   -0.11737E+01   416   0.422E+01    0.313E+00
DAV:   3    -0.232650414351E+02    0.11067E+00   -0.98817E-01   336   0.242E+01    0.123E+00
DAV:   4    -0.232626467605E+02    0.23947E-02   -0.19871E-01   416   0.516E+00    0.726E-01
DAV:   5    -0.232655883728E+02   -0.29416E-02   -0.82038E-02   336   0.718E+00    0.651E-01
DAV:   6    -0.232617626483E+02    0.38257E-02   -0.25268E-02   416   0.449E+00    0.390E-01
DAV:   7    -0.232594338936E+02    0.23288E-02   -0.15588E-02   416   0.363E+00    0.889E-02
DAV:   8    -0.232601503807E+02   -0.71649E-03   -0.76272E-03   432   0.102E+00    0.117E-01
DAV:   9    -0.232601598958E+02   -0.95151E-05   -0.95224E-04   352   0.490E-01
  20 F= -.23260160E+02 E0= -.23260160E+02  d E =-.638002E+00  mag=     0.0000
       N       E                     dE             d eps       ncg     rms          rms(c)
DAV:   1    -0.233223184211E+02   -0.62168E-01   -0.66891E+01   304   0.323E+01    0.782E-01
DAV:   2    -0.234443417261E+02   -0.12202E+00   -0.13697E+00   432   0.124E+01    0.884E-01
DAV:   3    -0.234330966822E+02    0.11245E-01   -0.71479E-02   320   0.746E+00    0.430E-01
DAV:   4    -0.234331258863E+02   -0.29204E-04   -0.17641E-02   352   0.130E+00    0.351E-01
DAV:   5    -0.234324012952E+02    0.72459E-03   -0.25321E-03   304   0.659E-01    0.256E-01
DAV:   6    -0.234321159030E+02    0.28539E-03   -0.49090E-03   480   0.106E+00    0.101E-01
DAV:   7    -0.234319727428E+02    0.14316E-03   -0.98016E-04   336   0.928E-01    0.423E-02
DAV:   8    -0.234319969353E+02   -0.24192E-04   -0.59744E-04   368   0.411E-01
  21 F= -.23431997E+02 E0= -.23431997E+02  d E =-.171837E+00  mag=     0.0000
       N       E                     dE             d eps       ncg     rms          rms(c)
DAV:   1    -0.231355942538E+02    0.29638E+00   -0.72591E+02   416   0.138E+02    0.248E+00
DAV:   2    -0.237269050344E+02   -0.59131E+00   -0.74004E+00   432   0.437E+01    0.277E+00
DAV:   3    -0.236060445262E+02    0.12086E+00   -0.88383E-01   320   0.257E+01    0.883E-01
DAV:   4    -0.236212154499E+02   -0.15171E-01   -0.30973E-01   384   0.673E+00    0.690E-01
DAV:   5    -0.236217993170E+02   -0.58387E-03   -0.89211E-02   320   0.562E+00    0.204E-01
DAV:   6    -0.236221597705E+02   -0.36045E-03   -0.13029E-02   384   0.301E+00    0.137E-01
DAV:   7    -0.236221143784E+02    0.45392E-04   -0.36862E-03   336   0.134E+00    0.590E-02
DAV:   8    -0.236222638084E+02   -0.14943E-03   -0.11972E-03   352   0.634E-01    0.426E-02
DAV:   9    -0.236223214153E+02   -0.57607E-04   -0.31666E-04   288   0.379E-01
  22 F= -.23622321E+02 E0= -.23622321E+02  d E =-.362162E+00  mag=    -0.0000
       N       E                     dE             d eps       ncg     rms          rms(c)
DAV:   1    -0.235868524075E+02    0.35411E-01   -0.28278E+01   304   0.206E+01    0.378E-01
DAV:   2    -0.236363543025E+02   -0.49502E-01   -0.52210E-01   432   0.522E+00    0.493E-01
DAV:   3    -0.236336649257E+02    0.26894E-02   -0.17067E-02   320   0.292E+00    0.298E-01
DAV:   4    -0.236332954280E+02    0.36950E-03   -0.39399E-03   400   0.976E-01    0.246E-01
DAV:   5    -0.236328673161E+02    0.42811E-03   -0.14791E-03   416   0.681E-01    0.147E-01
DAV:   6    -0.236328385313E+02    0.28785E-04   -0.17927E-03   416   0.386E-01    0.364E-02
DAV:   7    -0.236328340994E+02    0.44319E-05   -0.18043E-04   224   0.335E-01
  23 F= -.23632834E+02 E0= -.23632834E+02  d E =-.372674E+00  mag=    -0.0000
       N       E                     dE             d eps       ncg     rms          rms(c)
DAV:   1    -0.236278917597E+02    0.49468E-02   -0.77186E+01   304   0.352E+01    0.664E-01
DAV:   2    -0.237677013954E+02   -0.13981E+00   -0.14809E+00   432   0.109E+01    0.802E-01
DAV:   3    -0.237601098410E+02    0.75916E-02   -0.64765E-02   320   0.613E+00    0.436E-01
DAV:   4    -0.237595881953E+02    0.52165E-03   -0.14082E-02   320   0.152E+00    0.369E-01
DAV:   5    -0.237586516578E+02    0.93654E-03   -0.44153E-03   320   0.117E+00    0.249E-01
DAV:   6    -0.237583750280E+02    0.27663E-03   -0.62248E-03   448   0.156E+00    0.919E-02
DAV:   7    -0.237583175958E+02    0.57432E-04   -0.11200E-03   384   0.762E-01    0.355E-02
DAV:   8    -0.237583526784E+02   -0.35083E-04   -0.46183E-04   288   0.251E-01
  24 F= -.23758353E+02 E0= -.23758353E+02  d E =-.125519E+00  mag=     0.0000
       N       E                     dE             d eps       ncg     rms          rms(c)
DAV:   1    -0.235143907865E+02    0.24393E+00   -0.25058E+02   336   0.693E+01    0.108E+00
DAV:   2    -0.238659777222E+02   -0.35159E+00   -0.37649E+00   432   0.208E+01    0.140E+00
DAV:   3    -0.238475460611E+02    0.18432E-01   -0.24064E-01   320   0.117E+01    0.652E-01
DAV:   4    -0.238473941958E+02    0.15187E-03   -0.46411E-02   336   0.226E+00    0.526E-01
DAV:   5    -0.238461104623E+02    0.12837E-02   -0.18868E-02   304   0.300E+00    0.399E-01
DAV:   6    -0.238448919411E+02    0.12185E-02   -0.15389E-02   448   0.269E+00    0.178E-01
DAV:   7    -0.238446107994E+02    0.28114E-03   -0.34903E-03   448   0.784E-01    0.875E-02
DAV:   8    -0.238445758979E+02    0.34901E-04   -0.11581E-03   368   0.461E-01    0.450E-02
DAV:   9    -0.238446071408E+02   -0.31243E-04   -0.31725E-04   224   0.362E-01
  25 F= -.23844607E+02 E0= -.23844607E+02  d E =-.211773E+00  mag=    -0.0000
       N       E                     dE             d eps       ncg     rms          rms(c)
DAV:   1    -0.237835912849E+02    0.60985E-01   -0.85735E+01   304   0.371E+01    0.716E-01
DAV:   2    -0.239362868284E+02   -0.15270E+00   -0.16372E+00   432   0.105E+01    0.844E-01
DAV:   3    -0.239278658156E+02    0.84210E-02   -0.68870E-02   320   0.588E+00    0.474E-01
DAV:   4    -0.239270269055E+02    0.83891E-03   -0.14914E-02   400   0.180E+00    0.389E-01
DAV:   5    -0.239260294835E+02    0.99742E-03   -0.40450E-03   320   0.100E+00    0.258E-01
DAV:   6    -0.239259656682E+02    0.63815E-04   -0.56297E-03   480   0.122E+00    0.103E-01
DAV:   7    -0.239258587295E+02    0.10694E-03   -0.10026E-03   336   0.865E-01    0.403E-02
DAV:   8    -0.239259637641E+02   -0.10503E-03   -0.98583E-04   352   0.350E-01    0.581E-02
DAV:   9    -0.239259357943E+02    0.27970E-04   -0.18002E-04   192   0.210E-01
  26 F= -.23925936E+02 E0= -.23925936E+02  d E =-.813287E-01  mag=    -0.0000
       N       E                     dE             d eps       ncg     rms          rms(c)
DAV:   1    -0.238831526901E+02    0.42811E-01   -0.36385E+01   304   0.235E+01    0.465E-01
DAV:   2    -0.239456713185E+02   -0.62519E-01   -0.67241E-01   416   0.659E+00    0.560E-01
DAV:   3    -0.239420484885E+02    0.36228E-02   -0.30281E-02   320   0.362E+00    0.321E-01
DAV:   4    -0.239415704968E+02    0.47799E-03   -0.60748E-03   400   0.125E+00    0.258E-01
DAV:   5    -0.239411939067E+02    0.37659E-03   -0.18035E-03   320   0.620E-01    0.170E-01
DAV:   6    -0.239412281446E+02   -0.34238E-04   -0.23480E-03   464   0.765E-01    0.678E-02
DAV:   7    -0.239411892711E+02    0.38873E-04   -0.47107E-04   320   0.588E-01
  27 F= -.23941189E+02 E0= -.23941189E+02  d E =-.965821E-01  mag=    -0.0000
       N       E                     dE             d eps       ncg     rms          rms(c)
DAV:   1    -0.239134283823E+02    0.27800E-01   -0.39903E+01   304   0.245E+01    0.502E-01
DAV:   2    -0.239856859127E+02   -0.72258E-01   -0.77181E-01   432   0.703E+00    0.606E-01
DAV:   3    -0.239808051348E+02    0.48808E-02   -0.27940E-02   320   0.431E+00    0.320E-01
DAV:   4    -0.239804135832E+02    0.39155E-03   -0.68472E-03   400   0.109E+00    0.263E-01
DAV:   5    -0.239799558531E+02    0.45773E-03   -0.15087E-03   304   0.572E-01    0.184E-01
DAV:   6    -0.239797948098E+02    0.16104E-03   -0.27463E-03   432   0.574E-01    0.687E-02
DAV:   7    -0.239797348425E+02    0.59967E-04   -0.37301E-04   288   0.555E-01
  28 F= -.23979735E+02 E0= -.23979735E+02  d E =-.385456E-01  mag=    -0.0000
       N       E                     dE             d eps       ncg     rms          rms(c)
DAV:   1    -0.239286471502E+02    0.51148E-01   -0.37973E+01   304   0.238E+01    0.491E-01
DAV:   2    -0.239971562728E+02   -0.68509E-01   -0.73308E-01   432   0.701E+00    0.594E-01
DAV:   3    -0.239925451081E+02    0.46112E-02   -0.27657E-02   320   0.430E+00    0.311E-01
DAV:   4    -0.239921885800E+02    0.35653E-03   -0.66117E-03   400   0.107E+00    0.256E-01
DAV:   5    -0.239917478039E+02    0.44078E-03   -0.15223E-03   304   0.574E-01    0.176E-01
DAV:   6    -0.239915978115E+02    0.14999E-03   -0.25878E-03   432   0.604E-01    0.655E-02
DAV:   7    -0.239915431502E+02    0.54661E-04   -0.35663E-04   288   0.554E-01
  29 F= -.23991543E+02 E0= -.23991543E+02  d E =-.503539E-01  mag=    -0.0000
       N       E                     dE             d eps       ncg     rms          rms(c)
DAV:   1    -0.239783779440E+02    0.13220E-01   -0.28049E+01   304   0.203E+01    0.451E-01
DAV:   2    -0.240267182583E+02   -0.48340E-01   -0.52764E-01   432   0.702E+00    0.563E-01
DAV:   3    -0.240222598844E+02    0.44584E-02   -0.26358E-02   320   0.419E+00    0.291E-01
DAV:   4    -0.240220106606E+02    0.24922E-03   -0.58645E-03   368   0.817E-01    0.239E-01
DAV:   5    -0.240216234499E+02    0.38721E-03   -0.10317E-03   288   0.460E-01    0.174E-01
DAV:   6    -0.240214618022E+02    0.16165E-03   -0.23504E-03   448   0.700E-01    0.699E-02
DAV:   7    -0.240214056403E+02    0.56162E-04   -0.49055E-04   336   0.654E-01
  30 F= -.24021406E+02 E0= -.24021406E+02  d E =-.298625E-01  mag=    -0.0000
       N       E                     dE             d eps       ncg     rms          rms(c)
DAV:   1    -0.236570762698E+02    0.36439E+00   -0.27213E+02   336   0.724E+01    0.139E+00
DAV:   2    -0.241110448418E+02   -0.45397E+00   -0.49644E+00   448   0.278E+01    0.188E+00
DAV:   3    -0.240598849634E+02    0.51160E-01   -0.30456E-01   320   0.159E+01    0.775E-01
DAV:   4    -0.240617999274E+02   -0.19150E-02   -0.81657E-02   336   0.247E+00    0.602E-01
DAV:   5    -0.240600175125E+02    0.17824E-02   -0.11397E-02   352   0.213E+00    0.518E-01
DAV:   6    -0.240579442730E+02    0.20732E-02   -0.15095E-02   432   0.227E+00    0.314E-01
DAV:   7    -0.240565260871E+02    0.14182E-02   -0.52549E-03   352   0.190E+00    0.164E-01
DAV:   8    -0.240562475464E+02    0.27854E-03   -0.42794E-03   528   0.118E+00    0.672E-02
DAV:   9    -0.240563461023E+02   -0.98556E-04   -0.12322E-03   352   0.433E-01    0.439E-02
DAV:  10    -0.240563678685E+02   -0.21766E-04   -0.17842E-04   192   0.229E-01
  31 F= -.24056368E+02 E0= -.24056368E+02  d E =-.648247E-01  mag=    -0.0000
       N       E                     dE             d eps       ncg     rms          rms(c)
DAV:   1    -0.240337655165E+02    0.22581E-01   -0.16693E+01   304   0.156E+01    0.300E-01
DAV:   2    -0.240612794366E+02   -0.27514E-01   -0.29179E-01   432   0.449E+00    0.402E-01
DAV:   3    -0.240591163198E+02    0.21631E-02   -0.11523E-02   320   0.254E+00    0.229E-01
DAV:   4    -0.240588820885E+02    0.23423E-03   -0.25845E-03   400   0.644E-01    0.188E-01
DAV:   5    -0.240586500410E+02    0.23205E-03   -0.64067E-04   288   0.420E-01    0.130E-01
DAV:   6    -0.240586053437E+02    0.44697E-04   -0.15152E-03   416   0.426E-01    0.421E-02
DAV:   7    -0.240585902849E+02    0.15059E-04   -0.18453E-04   192   0.354E-01
  32 F= -.24058590E+02 E0= -.24058590E+02  d E =-.670471E-01  mag=    -0.0000
       N       E                     dE             d eps       ncg     rms          rms(c)
DAV:   1    -0.240453984403E+02    0.13207E-01   -0.21626E+01   304   0.179E+01    0.383E-01
DAV:   2    -0.240828500401E+02   -0.37452E-01   -0.41023E-01   416   0.594E+00    0.479E-01
DAV:   3    -0.240799280959E+02    0.29219E-02   -0.20287E-02   304   0.357E+00    0.251E-01
DAV:   4    -0.240798025889E+02    0.12551E-03   -0.46463E-03   384   0.806E-01    0.205E-01
DAV:   5    -0.240795927019E+02    0.20989E-03   -0.99085E-04   288   0.498E-01    0.136E-01
DAV:   6    -0.240795755133E+02    0.17189E-04   -0.15132E-03   432   0.562E-01    0.502E-02
DAV:   7    -0.240795411703E+02    0.34343E-04   -0.22932E-04   192   0.469E-01
  33 F= -.24079541E+02 E0= -.24079541E+02  d E =-.209509E-01  mag=    -0.0000
       N       E                     dE             d eps       ncg     rms          rms(c)
DAV:   1    -0.240790107643E+02    0.56475E-03   -0.77230E-01   304   0.333E+00    0.611E-02
DAV:   2    -0.240800313233E+02   -0.10206E-02   -0.10888E-02   416   0.917E-01    0.561E-02
DAV:   3    -0.240800229788E+02    0.83445E-05   -0.63717E-04   304   0.561E-01
  34 F= -.24080023E+02 E0= -.24080023E+02  d E =-.214327E-01  mag=    -0.0000
       N       E                     dE             d eps       ncg     rms          rms(c)
DAV:   1    -0.240798528369E+02    0.17849E-03   -0.40040E+00   304   0.762E+00    0.137E-01
DAV:   2    -0.240855426799E+02   -0.56898E-02   -0.60559E-02   416   0.196E+00    0.173E-01
DAV:   3    -0.240851439956E+02    0.39868E-03   -0.22367E-03   336   0.907E-01    0.106E-01
DAV:   4    -0.240850978906E+02    0.46105E-04   -0.46353E-04   288   0.329E-01
  35 F= -.24085098E+02 E0= -.24085098E+02  d E =-.507491E-02  mag=    -0.0000
       N       E                     dE             d eps       ncg     rms          rms(c)
DAV:   1    -0.240572734059E+02    0.27871E-01   -0.21091E+01   304   0.177E+01    0.331E-01
DAV:   2    -0.240911037288E+02   -0.33830E-01   -0.35999E-01   432   0.452E+00    0.433E-01
DAV:   3    -0.240886621423E+02    0.24416E-02   -0.12626E-02   320   0.206E+00    0.271E-01
DAV:   4    -0.240882946368E+02    0.36751E-03   -0.25050E-03   384   0.782E-01    0.225E-01
DAV:   5    -0.240879267996E+02    0.36784E-03   -0.10161E-03   336   0.551E-01    0.146E-01
DAV:   6    -0.240879393860E+02   -0.12586E-04   -0.22937E-03   432   0.463E-01    0.409E-02
DAV:   7    -0.240879333277E+02    0.60583E-05   -0.23329E-04   224   0.371E-01
  36 F= -.24087933E+02 E0= -.24087933E+02  d E =-.791035E-02  mag=    -0.0000
       N       E                     dE             d eps       ncg     rms          rms(c)
DAV:   1    -0.240815530011E+02    0.63864E-02   -0.69106E+00   304   0.100E+01    0.201E-01
DAV:   2    -0.240919728346E+02   -0.10420E-01   -0.11334E-01   432   0.294E+00    0.261E-01
DAV:   3    -0.240911201651E+02    0.85267E-03   -0.61910E-03   304   0.168E+00    0.143E-01
DAV:   4    -0.240910430491E+02    0.77116E-04   -0.11413E-03   320   0.441E-01    0.115E-01
DAV:   5    -0.240909580648E+02    0.84984E-04   -0.25431E-04   160   0.269E-01
  37 F= -.24090958E+02 E0= -.24090958E+02  d E =-.302474E-02  mag=    -0.0000
       N       E                     dE             d eps       ncg     rms          rms(c)
DAV:   1    -0.240878956819E+02    0.31474E-02   -0.25409E+00   304   0.606E+00    0.979E-02
DAV:   2    -0.240912765015E+02   -0.33808E-02   -0.34904E-02   416   0.156E+00    0.121E-01
DAV:   3    -0.240911280515E+02    0.14845E-03   -0.16029E-03   304   0.890E-01    0.686E-02
DAV:   4    -0.240911117216E+02    0.16330E-04   -0.22568E-04   176   0.248E-01
  38 F= -.24091112E+02 E0= -.24091112E+02  d E =-.317839E-02  mag=    -0.0000
       N       E                     dE             d eps       ncg     rms          rms(c)
DAV:   1    -0.240900460423E+02    0.10820E-02   -0.24269E+00   304   0.592E+00    0.122E-01
DAV:   2    -0.240933773343E+02   -0.33313E-02   -0.36426E-02   416   0.210E+00    0.150E-01
DAV:   3    -0.240931839128E+02    0.19342E-03   -0.30185E-03   304   0.126E+00    0.710E-02
DAV:   4    -0.240931972243E+02   -0.13311E-04   -0.53628E-04   288   0.246E-01
  39 F= -.24093197E+02 E0= -.24093197E+02  d E =-.208550E-02  mag=    -0.0000
       N       E                     dE             d eps       ncg     rms          rms(c)
DAV:   1    -0.240931301720E+02    0.53741E-04   -0.10350E-01   288   0.123E+00    0.413E-02
DAV:   2    -0.240932785740E+02   -0.14840E-03   -0.16785E-03   432   0.340E-01    0.422E-02
DAV:   3    -0.240932620999E+02    0.16474E-04   -0.74717E-05   176   0.241E-01
  40 F= -.24093262E+02 E0= -.24093262E+02  d E =-.215038E-02  mag=    -0.0000
       N       E                     dE             d eps       ncg     rms          rms(c)
DAV:   1    -0.240923489825E+02    0.92959E-03   -0.12080E+00   288   0.417E+00    0.734E-02
DAV:   2    -0.240939883812E+02   -0.16394E-02   -0.17372E-02   432   0.118E+00    0.870E-02
DAV:   3    -0.240939338985E+02    0.54483E-04   -0.95212E-04   288   0.673E-01
  41 F= -.24093934E+02 E0= -.24093934E+02  d E =-.671799E-03  mag=    -0.0000
       N       E                     dE             d eps       ncg     rms          rms(c)
DAV:   1    -0.240937481825E+02    0.24020E-03   -0.84673E-02   304   0.111E+00    0.455E-02
DAV:   2    -0.240938808846E+02   -0.13270E-03   -0.13849E-03   384   0.308E-01    0.230E-02
DAV:   3    -0.240938859640E+02   -0.50794E-05   -0.11177E-04   176   0.339E-01
  42 F= -.24093886E+02 E0= -.24093886E+02  d E =-.623864E-03  mag=    -0.0000
