    5    5 1000    2
  0.1112753E+04  0.1771969E-08  0.1771969E-08  0.1771969E-08  0.1000000E-15
  1.000000000000000E-004
  CAR 
 unknown system                          
     55      1     36
 
  0.0000000E+00  0.0000000E+00  0.0000000E+00  0.1000000E+01
    1       -9.009824     -8.946095
    2       -8.934566     -8.902304
    3       -8.542043     -8.498625
    4       -8.398271     -8.360294
    5       -8.386701     -8.324292
    6       -8.192264     -8.157763
    7       -7.945201     -7.898774
    8       -7.858090     -7.811624
    9       -7.663986     -7.624425
   10       -7.441546     -7.405407
   11       -7.413483     -7.385123
   12       -7.387569     -7.349388
   13       -7.328560     -7.274577
   14       -7.299668     -7.249889
   15       -7.279777     -7.229858
   16       -7.184788     -7.120695
   17       -7.176874     -7.116511
   18       -7.055186     -7.027791
   19       -7.011377     -6.994394
   20       -6.928133     -6.868090
   21       -6.807189     -6.742207
   22       -6.804112     -6.740131
   23       -6.604741     -6.544434
   24       -6.554872     -6.509853
   25       -6.455726     -6.392580
   26       -6.331083     -6.272937
   27       -4.945319     -4.790316
   28       -3.899921     -3.587534
   29       -3.553060     -3.442688
   30       -2.020686     -1.788055
   31       -1.840516     -1.728548
   32       -1.261985     -1.083230
   33       -1.030960     -0.875923
   34       -0.686501     -0.518840
   35       -0.586103     -0.332187
   36       -0.137746      0.067009
