 vasp.5.3.5 31Mar14 (build Feb 01 2018 12:10:03) gamma-only                     
  
 executed on             LinuxIFC date 2019.03.21  20:33:52
 running on   32 total cores
 distrk:  each k-point on   32 cores,    1 groups
 distr:  one band on NCORES_PER_BAND=   8 cores,    4 groups


--------------------------------------------------------------------------------------------------------


 INCAR:
 POTCAR:    PAW_PBE Ag 02Apr2005                  
 POTCAR:    PAW_PBE Ag 02Apr2005                  
   VRHFIN =Ag : s1 d10                                                          
   LEXCH  = PE                                                                  
   EATOM  =  1037.2675 eV,   76.2370 Ry                                         
                                                                                
   TITEL  = PAW_PBE Ag 02Apr2005                                                
   LULTRA =        F    use ultrasoft PP ?                                      
   IUNSCR =        1    unscreen: 0-lin 1-nonlin 2-no                           
   RPACOR =    2.000    partial core radius                                     
   POMASS =  107.868; ZVAL   =   11.000    mass and valenz                      
   RCORE  =    2.500    outmost cutoff radius                                   
   RWIGS  =    2.840; RWIGS  =    1.503    wigner-seitz radius (au A)           
   ENMAX  =  249.844; ENMIN  =  187.383 eV                                      
   ICORE  =        3    local potential                                         
   LCOR   =        T    correct aug charges                                     
   LPAW   =        T    paw PP                                                  
   EAUG   =  412.496                                                            
   DEXC   =    0.000                                                            
   RMAX   =    2.560    core radius for proj-oper                               
   RAUG   =    1.300    factor for augmentation sphere                          
   RDEP   =    2.576    radius for radial grids                                 
   RDEPT  =    2.072    core radius for aug-charge                              
                                                                                
   Atomic configuration                                                         
   12 entries                                                                   
     n  l   j            E        occ.                                          
     1  0  0.50    -25324.9161   2.0000                                         
     2  0  0.50     -3728.5341   2.0000                                         
     2  1  1.50     -3344.0404   6.0000                                         
     3  0  0.50      -683.5581   2.0000                                         
     3  1  1.50      -557.3225   6.0000                                         
     3  2  2.50      -358.3853  10.0000                                         
     4  0  0.50       -95.0341   2.0000                                         
     4  1  1.50       -58.5511   6.0000                                         
     4  2  2.50        -7.4440  10.0000                                         
     5  0  0.50        -4.4045   1.0000                                         
     5  1  0.50        -1.3606   0.0000                                         
     4  3  2.50        -1.3606   0.0000                                         
   Description                                                                  
     l       E           TYP  RCUT    TYP  RCUT                                 
     2     -7.4439781     23  2.400                                             
     2     -8.8045607     23  2.400                                             
     0     -4.4044681     23  2.400                                             
     0      1.9520038     23  2.400                                             
     1     -1.3605826     23  2.500                                             
     1     27.2116520     23  2.500                                             
     3     -4.0817478     23  2.400                                             
  local pseudopotential read in
  partial core-charges read in
  partial kinetic energy density read in
  atomic valenz-charges read in
  non local Contribution for L=           2  read in
    real space projection operators read in
  non local Contribution for L=           2  read in
    real space projection operators read in
  non local Contribution for L=           0  read in
    real space projection operators read in
  non local Contribution for L=           0  read in
    real space projection operators read in
  non local Contribution for L=           1  read in
    real space projection operators read in
  non local Contribution for L=           1  read in
    real space projection operators read in
    PAW grid and wavefunctions read in
 
   number of l-projection  operators is LMAX  =           6
   number of lm-projection operators is LMMAX =          18
 

 ----------------------------------------------------------------------------- 
|                                                                             |
|  ADVICE TO THIS USER RUNNING 'VASP/VAMP'   (HEAR YOUR MASTER'S VOICE ...):  |
|                                                                             |
|      You have a (more or less) 'large supercell' and for larger cells       |
|      it might be more efficient to use real space projection opertators     |
|      So try LREAL= Auto  in the INCAR   file.                               |
|      Mind: At the moment your POTCAR file does not contain real space       |
|       projectors, and has to be modified,  BUT if you                       |
|      want to do an extremely  accurate calculation you might also keep the  |
|      reciprocal projection scheme          (i.e. LREAL=.FALSE.)             |
|                                                                             |
 ----------------------------------------------------------------------------- 

  PAW_PBE Ag 02Apr2005                  :
 energy of atom  1       EATOM=-1037.2675
 kinetic energy error for atom=    0.0689 (will be added to EATOM!!)
 
 
 POSCAR: Al18, -52.96195356 <s> Ag </s>          
  positions in direct lattice
  No initial velocities read in
 exchange correlation table for  LEXCH =        8
   RHO(1)=    0.500       N(1)  =     2000
   RHO(2)=  100.500       N(2)  =     4000
 


--------------------------------------------------------------------------------------------------------


 ion  position               nearest neighbor table
   1  0.557  0.483  0.283-   2 2.77   6 2.79   4 2.80
   2  0.491  0.554  0.367-   1 2.77   8 2.83   3 2.87   5 2.88   6 2.90   7 2.93   4 2.95
   3  0.411  0.481  0.443-   8 2.73   9 2.75   2 2.87   4 2.88   5 2.89  12 2.92
   4  0.518  0.422  0.390-   1 2.80   8 2.83  12 2.85  10 2.86   3 2.88   2 2.95   6 2.98
   5  0.442  0.606  0.479-   8 2.72   9 2.80   7 2.82   2 2.88   3 2.89  18 2.94
   6  0.618  0.518  0.391-   1 2.79  14 2.80  10 2.84   8 2.85   7 2.90   2 2.90   4 2.98
   7  0.568  0.627  0.452-   8 2.74  14 2.79  18 2.79   5 2.82   6 2.90   2 2.93
   8  0.526  0.512  0.485-  12 2.68  18 2.72   5 2.72   3 2.73   7 2.74  17 2.74  14 2.76  10 2.76
                             9 2.76   2 2.83   4 2.83   6 2.85
   9  0.427  0.511  0.566-   3 2.75   8 2.76   5 2.80  13 2.82  11 2.83  15 2.91  12 2.98  18 3.10
                            16 3.10  17 3.46
  10  0.616  0.421  0.480-  17 2.76   8 2.76   6 2.84   4 2.86  14 2.87  12 2.90
  11  0.418  0.611  0.650-  16 2.73  15 2.74   9 2.83  18 3.09
  12  0.489  0.398  0.517-   8 2.68   4 2.85  13 2.89  10 2.90   3 2.92  17 2.98   9 2.98
  13  0.468  0.417  0.647-  15 2.71  16 2.73   9 2.82  12 2.89  17 2.91
  14  0.646  0.546  0.515-  17 2.75   8 2.76   7 2.79   6 2.80  10 2.87  18 2.89
  15  0.381  0.497  0.692-  13 2.71  11 2.74   9 2.91  16 2.93
  16  0.512  0.531  0.680-  11 2.73  17 2.73  13 2.73  18 2.78  15 2.93   9 3.10
  17  0.579  0.470  0.592-  16 2.73   8 2.74  14 2.75  10 2.76  13 2.91  18 2.97  12 2.98   9 3.46

  18  0.539  0.600  0.575-   8 2.72  16 2.78   7 2.79  14 2.89   5 2.94  17 2.97  11 3.09   9 3.10

 
  LATTYP: Found a simple cubic cell.
 ALAT       =    21.6121213537
  
  Lattice vectors:
  
 A1 = (  21.6121213537,   0.0000000000,   0.0000000000)
 A2 = (   0.0000000000,  21.6121213537,   0.0000000000)
 A3 = (   0.0000000000,   0.0000000000,  21.6121213537)


Analysis of symmetry for initial positions (statically):
=====================================================================
 Subroutine PRICEL returns:
 Original cell was already a primitive cell.
 

 Routine SETGRP: Setting up the symmetry group for a 
 simple cubic supercell.


 Subroutine GETGRP returns: Found  1 space group operations
 (whereof  1 operations were pure point group operations)
 out of a pool of 48 trial point group operations.


The static configuration has the point symmetry C_1 .


Analysis of symmetry for dynamics (positions and initial velocities):
=====================================================================
 Subroutine PRICEL returns:
 Original cell was already a primitive cell.
 

 Routine SETGRP: Setting up the symmetry group for a 
 simple cubic supercell.


 Subroutine GETGRP returns: Found  1 space group operations
 (whereof  1 operations were pure point group operations)
 out of a pool of 48 trial point group operations.


The dynamic configuration has the point symmetry C_1 .


Analysis of magnetic symmetry:
=====================================================================
 Subroutine PRICEL returns:
 Original cell was already a primitive cell.
 

 Subroutine MAGSYM returns: Found  1 space group operations
 (whereof  1 operations were pure point group operations)
 out of a pool of  1 trial space group operations
 (whereof  1 operations were pure point group operations)
 and found also     1 'primitive' translations


The magnetic configuration has the point symmetry C_1 .
 
 
 KPOINTS: Gamma-point only                        
  k-points in reciprocal lattice
Space group operators:
 irot       det(A)        alpha          n_x          n_y          n_z        tau_x        tau_y        tau_z
    1     1.000000     0.000000     1.000000     0.000000     0.000000     0.000000     0.000000     0.000000


--------------------------------------------------------------------------------------------------------




 Dimension of arrays:
   k-points           NKPTS =      1   k-points in BZ     NKDIM =      1   number of bands    NBANDS=    128
   number of dos      NEDOS =    301   number of ions     NIONS =     18
   non local maximal  LDIM  =      6   non local SUM 2l+1 LMDIM =     18
   total plane-waves  NPLWV = 592704
   max r-space proj   IRMAX =      1   max aug-charges    IRDMAX=   3086
   dimension x,y,z NGX =    84 NGY =   84 NGZ =   84
   dimension x,y,z NGXF=   168 NGYF=  168 NGZF=  168
   support grid    NGXF=   168 NGYF=  168 NGZF=  168
   ions per type =              18
 NGX,Y,Z   is equivalent  to a cutoff of   6.46,  6.46,  6.46 a.u.
 NGXF,Y,Z  is equivalent  to a cutoff of  12.92, 12.92, 12.92 a.u.


 I would recommend the setting:
   dimension x,y,z NGX =    84 NGY =   84 NGZ =   84
 SYSTEM =  unknown system                          
 POSCAR =  Al18, -52.96195356 <s> Ag </s>          

 Startparameter for this run:
   NWRITE =      2    write-flag & timer
   PREC   = normal    normal or accurate (medium, high low for compatibility)
   ISTART =      0    job   : 0-new  1-cont  2-samecut
   ICHARG =      2    charge: 1-file 2-atom 10-const
   ISPIN  =      2    spin polarized calculation?
   LNONCOLLINEAR =      F non collinear calculations
   LSORBIT =      F    spin-orbit coupling
   INIWAV =      1    electr: 0-lowe 1-rand  2-diag
   LASPH  =      F    aspherical Exc in radial PAW
   METAGGA=      F    non-selfconsistent MetaGGA calc.

 Electronic Relaxation 1
   ENCUT  =  249.8 eV  18.36 Ry    4.29 a.u.  27.85 27.85 27.85*2*pi/ulx,y,z
   ENINI  =  249.8     initial cutoff
   ENAUG  =  412.5 eV  augmentation charge cutoff
   NELM   =     60;   NELMIN=  2; NELMDL= -5     # of ELM steps 
   EDIFF  = 0.1E-03   stopping-criterion for ELM
   LREAL  =      F    real-space projection
   NLSPLINE    = F    spline interpolate recip. space projectors
   LCOMPAT=      F    compatible to vasp.4.4
   GGA_COMPAT  = T    GGA compatible to vasp.4.4-vasp.4.6
   LMAXPAW     = -100 max onsite density
   LMAXMIX     =    2 max onsite mixed and CHGCAR
   VOSKOWN=      0    Vosko Wilk Nusair interpolation
   ROPT   =    0.00000
 Ionic relaxation
   EDIFFG = 0.1E-02   stopping-criterion for IOM
   NSW    =   1000    number of steps for IOM
   NBLOCK =      1;   KBLOCK =   1000    inner block; outer block 
   IBRION =      2    ionic relax: 0-MD 1-quasi-New 2-CG
   NFREE  =      1    steps in history (QN), initial steepest desc. (CG)
   ISIF   =      2    stress and relaxation
   IWAVPR =     11    prediction:  0-non 1-charg 2-wave 3-comb
   ISYM   =      2    0-nonsym 1-usesym 2-fastsym
   LCORR  =      T    Harris-Foulkes like correction to forces

   POTIM  = 0.1000    time-step for ionic-motion
   TEIN   =    0.0    initial temperature
   TEBEG  =    0.0;   TEEND  =   0.0 temperature during run
   SMASS  =  -3.00    Nose mass-parameter (am)
   estimated Nose-frequenzy (Omega)   =  0.10E-29 period in steps =****** mass=  -0.107E-25a.u.
   SCALEE = 1.0000    scale energy and forces
   NPACO  =    256;   APACO  = 16.0  distance and # of slots for P.C.
   PSTRESS=    0.0 pullay stress

  Mass of Ions in am
   POMASS = 107.87
  Ionic Valenz
   ZVAL   =  11.00
  Atomic Wigner-Seitz radii
   RWIGS  =  -1.00
  virtual crystal weights 
   VCA    =   1.00
   NELECT =     198.0000    total number of electrons
   NUPDOWN=      -1.0000    fix difference up-down

 DOS related values:
   EMIN   =  10.00;   EMAX   =-10.00  energy-range for DOS
   EFERMI =   0.00
   ISMEAR =     0;   SIGMA  =   0.00  broadening in eV -4-tet -1-fermi 0-gaus

 Electronic relaxation 2 (details)
   IALGO  =     38    algorithm
   LDIAG  =      T    sub-space diagonalisation (order eigenvalues)
   LSUBROT=      F    optimize rotation matrix (better conditioning)
   TURBO    =      0    0=normal 1=particle mesh
   IRESTART =      0    0=no restart 2=restart with 2 vectors
   NREBOOT  =      0    no. of reboots
   NMIN     =      0    reboot dimension
   EREF     =   0.00    reference energy to select bands
   IMIX   =      4    mixing-type and parameters
     AMIX     =   0.40;   BMIX     =  1.00
     AMIX_MAG =   1.60;   BMIX_MAG =  1.00
     AMIN     =   0.10
     WC   =   100.;   INIMIX=   1;  MIXPRE=   1;  MAXMIX= -45

 Intra band minimization:
   WEIMIN = 0.0010     energy-eigenvalue tresh-hold
   EBREAK =  0.20E-06  absolut break condition
   DEPER  =   0.30     relativ break condition  

   TIME   =   0.40     timestep for ELM

  volume/ion in A,a.u.               =     560.82      3784.57
  Fermi-wavevector in a.u.,A,eV,Ry     =   0.441502  0.834317  2.652100  0.194924
  Thomas-Fermi vector in A             =   1.416838
 
 Write flags
   LWAVE  =      F    write WAVECAR
   LCHARG =      F    write CHGCAR
   LVTOT  =      F    write LOCPOT, total local potential
   LVHAR  =      F    write LOCPOT, Hartree potential only
   LELF   =      F    write electronic localiz. function (ELF)
   LORBIT =      0    0 simple, 1 ext, 2 COOP (PROOUT)


 Dipole corrections
   LMONO  =      F    monopole corrections only (constant potential shift)
   LDIPOL =      F    correct potential (dipole corrections)
   IDIPOL =      0    1-x, 2-y, 3-z, 4-all directions 
   EPSILON=  1.0000000 bulk dielectric constant

 Exchange correlation treatment:
   GGA     =    PE    GGA type
   LEXCH   =     8    internal setting for exchange type
   VOSKOWN=      0    Vosko Wilk Nusair interpolation
   LHFCALC =     F    Hartree Fock is set to
   LHFONE  =     F    Hartree Fock one center treatment
   AEXX    =    0.0000 exact exchange contribution

 Linear response parameters
   LEPSILON=     F    determine dielectric tensor
   LRPA    =     F    only Hartree local field effects (RPA)
   LNABLA  =     F    use nabla operator in PAW spheres
   LVEL    =     F    velocity operator in full k-point grid
   LINTERFAST=   F  fast interpolation
   KINTER  =     0    interpolate to denser k-point grid
   CSHIFT  =0.1000    complex shift for real part using Kramers Kronig
   OMEGAMAX=  -1.0    maximum frequency
   DEG_THRESHOLD= 0.2000000E-02 threshold for treating states as degnerate
   RTIME   =    0.100 relaxation time in fs

 Orbital magnetization related:
   ORBITALMAG=     F  switch on orbital magnetization
   LCHIMAG   =     F  perturbation theory with respect to B field
   DQ        =  0.001000  dq finite difference perturbation B field



--------------------------------------------------------------------------------------------------------


 conjugate gradient relaxation of ions
 charge density and potential will be updated during run
 spin polarized calculation
 Variant of blocked Davidson
 Davidson routine will perform the subspace rotation
 perform sub-space diagonalisation
    after iterative eigenvector-optimisation
 modified Broyden-mixing scheme, WC =      100.0
 initial mixing is a Kerker type mixing with AMIX =  0.4000 and BMIX =      1.0000
 Hartree-type preconditioning will be used
 using additional bands           29
 reciprocal scheme for non local part
 use partial core corrections
 calculate Harris-corrections to forces 
   (improved forces if not selfconsistent)
 use gradient corrections 
 use of overlap-Matrix (Vanderbilt PP)
 Gauss-broadening in eV      SIGMA  =   0.00


--------------------------------------------------------------------------------------------------------


  energy-cutoff  :      249.84
  volume of cell :    10094.67
      direct lattice vectors                 reciprocal lattice vectors
    21.612121354  0.000000000  0.000000000     0.046270331  0.000000000  0.000000000
     0.000000000 21.612121354  0.000000000     0.000000000  0.046270331  0.000000000
     0.000000000  0.000000000 21.612121354     0.000000000  0.000000000  0.046270331

  length of vectors
    21.612121354 21.612121354 21.612121354     0.046270331  0.046270331  0.046270331


 
 k-points in units of 2pi/SCALE and weight: Gamma-point only                        
   0.00000000  0.00000000  0.00000000       1.000
 
 k-points in reciprocal lattice and weights: Gamma-point only                        
   0.00000000  0.00000000  0.00000000       1.000
 
 position of ions in fractional coordinates (direct lattice) 
   0.55740840  0.48308108  0.28291746
   0.49088095  0.55420805  0.36655710
   0.41109926  0.48055747  0.44340411
   0.51836489  0.42248969  0.39029350
   0.44197313  0.60577440  0.47941432
   0.61789223  0.51816215  0.39120849
   0.56774696  0.62683650  0.45157714
   0.52606836  0.51212132  0.48539044
   0.42677748  0.51082762  0.56602742
   0.61574673  0.42115286  0.48016162
   0.41808705  0.61058412  0.65044593
   0.48896784  0.39786539  0.51665728
   0.46783051  0.41742802  0.64739711
   0.64577522  0.54574379  0.51481129
   0.38120725  0.49669838  0.69192860
   0.51170444  0.53143144  0.67993383
   0.57909128  0.46986970  0.59249899
   0.53900398  0.59983788  0.57451721
 
 position of ions in cartesian coordinates  (Angst):
  12.04677806 10.44040684  6.11444654
  10.60897875 11.97761166  7.92207659
   8.88472699 10.38586636  9.58290344
  11.20296487  9.13089851  8.43507059
   9.55197693 13.09206982 10.36116043
  13.35396196 11.19858333  8.45484547
  12.27021614 13.54726642  9.75953994
  11.36945329 11.06802801 10.49031706
   9.22356678 11.04006854 12.23305320
  13.30759307  9.10200671 10.37731123
   9.03574814 13.19601808 14.05751643
  10.56763223  8.59871502 11.16605981
  10.11080967  9.02150513 13.99162493
  13.95657241 11.79468092 11.12616415
   8.23869741 10.73470567 14.95404491
  11.05901842 11.48536083 14.69481237
  12.51539110 10.15488092 12.80516015
  11.64901938 12.96376913 12.41653560
 


--------------------------------------------------------------------------------------------------------


 use parallel FFT for wavefunctions z direction half grid
 k-point  1 :   0.0000 0.0000 0.0000  plane waves:   45224

 maximum and minimum number of plane-waves per node :      5658     5650

 maximum number of plane-waves:     45224
 maximum index in each direction: 
   IXMAX=   27   IYMAX=   27   IZMAX=   27
   IXMIN=  -27   IYMIN=  -27   IZMIN=    0

 WARNING: aliasing errors must be expected set NGX to 110 to avoid them
 WARNING: aliasing errors must be expected set NGY to 110 to avoid them
 WARNING: aliasing errors must be expected set NGZ to 110 to avoid them
 aliasing errors are usually negligible using standard VASP settings
 and one can safely disregard these warnings

 parallel 3D FFT for wavefunctions:
    minimum data exchange during FFTs selected (reduces bandwidth)
 parallel 3D FFT for charge:
    minimum data exchange during FFTs selected (reduces bandwidth)


 total amount of memory used by VASP on root node    64097. kBytes
========================================================================

   base      :      30000. kBytes
   nonl-proj :       2441. kBytes
   fftplans  :       7250. kBytes
   grid      :      18544. kBytes
   one-center:         46. kBytes
   wavefun   :       5816. kBytes
 
     INWAV:  cpu time    0.00: real time    0.00
 Broyden mixing: mesh for mixing (old mesh)
   NGX = 55   NGY = 55   NGZ = 55
  (NGX  =168   NGY  =168   NGZ  =168)
  gives a total of 166375 points

 initial charge density was supplied:
 charge density of overlapping atoms calculated
 number of electron     198.0000000 magnetization      18.0000000
 keeping initial charge density in first step


--------------------------------------------------------------------------------------------------------


 Maximum index for augmentation-charges          242 (set IRDMAX)


--------------------------------------------------------------------------------------------------------


 First call to EWALD:  gamma=   0.082
 Maximum number of real-space cells 3x 3x 3
 Maximum number of reciprocal cells 3x 3x 3

 FEWALD executed in parallel
    FEWALD:  cpu time    0.00: real time    0.00


----------------------------------------- Iteration    1(   1)  ---------------------------------------


    POTLOK:  cpu time    0.29: real time    0.29
    SETDIJ:  cpu time    0.00: real time    0.01
     EDDAV:  cpu time    1.86: real time    1.86
       DOS:  cpu time    0.00: real time    0.00
    --------------------------------------------
      LOOP:  cpu time    2.16: real time    2.18

 eigenvalue-minimisations  :   528
 total energy-change (2. order) : 0.1763740E+04  (-0.3157561E+04)
 number of electron     198.0000000 magnetization      18.0000000
 augmentation part      198.0000000 magnetization      18.0000000

 Free energy of the ion-electron system (eV)
  ---------------------------------------------------
  alpha Z        PSCENC =        27.30027354
  Ewald energy   TEWEN  =     31148.12393290
  -Hartree energ DENC   =    -48995.35061875
  -exchange      EXHF   =         0.00000000
  -V(xc)+E(xc)   XCENC  =      -198.57854265
  PAW double counting   =     18060.69920525   -17230.76295982
  entropy T*S    EENTRO =         0.00000000
  eigenvalues    EBANDS =       282.73369481
  atomic energy  EATOM  =     18669.57534155
  ---------------------------------------------------
  free energy    TOTEN  =      1763.74032684 eV

  energy without entropy =     1763.74032684  energy(sigma->0) =     1763.74032684


--------------------------------------------------------------------------------------------------------




----------------------------------------- Iteration    1(   2)  ---------------------------------------


     EDDAV:  cpu time    3.00: real time    3.00
       DOS:  cpu time    0.00: real time    0.00
    --------------------------------------------
      LOOP:  cpu time    3.00: real time    3.01

 eigenvalue-minimisations  :   936
 total energy-change (2. order) :-0.1155349E+04  (-0.1015211E+04)
 number of electron     198.0000000 magnetization      18.0000000
 augmentation part      198.0000000 magnetization      18.0000000

 Free energy of the ion-electron system (eV)
  ---------------------------------------------------
  alpha Z        PSCENC =        27.30027354
  Ewald energy   TEWEN  =     31148.12393290
  -Hartree energ DENC   =    -48995.35061875
  -exchange      EXHF   =         0.00000000
  -V(xc)+E(xc)   XCENC  =      -198.57854265
  PAW double counting   =     18060.69920525   -17230.76295982
  entropy T*S    EENTRO =         0.00000000
  eigenvalues    EBANDS =      -872.61507759
  atomic energy  EATOM  =     18669.57534155
  ---------------------------------------------------
  free energy    TOTEN  =       608.39155444 eV

  energy without entropy =      608.39155444  energy(sigma->0) =      608.39155444


--------------------------------------------------------------------------------------------------------




----------------------------------------- Iteration    1(   3)  ---------------------------------------


     EDDAV:  cpu time    2.44: real time    2.44
       DOS:  cpu time    0.00: real time    0.00
    --------------------------------------------
      LOOP:  cpu time    2.44: real time    2.45

 eigenvalue-minimisations  :   728
 total energy-change (2. order) :-0.5804242E+03  (-0.5452219E+03)
 number of electron     198.0000000 magnetization      18.0000000
 augmentation part      198.0000000 magnetization      18.0000000

 Free energy of the ion-electron system (eV)
  ---------------------------------------------------
  alpha Z        PSCENC =        27.30027354
  Ewald energy   TEWEN  =     31148.12393290
  -Hartree energ DENC   =    -48995.35061875
  -exchange      EXHF   =         0.00000000
  -V(xc)+E(xc)   XCENC  =      -198.57854265
  PAW double counting   =     18060.69920525   -17230.76295982
  entropy T*S    EENTRO =        -0.00000000
  eigenvalues    EBANDS =     -1453.03929265
  atomic energy  EATOM  =     18669.57534155
  ---------------------------------------------------
  free energy    TOTEN  =        27.96733938 eV

  energy without entropy =       27.96733938  energy(sigma->0) =       27.96733938


--------------------------------------------------------------------------------------------------------




----------------------------------------- Iteration    1(   4)  ---------------------------------------


     EDDAV:  cpu time    2.13: real time    2.13
       DOS:  cpu time    0.00: real time    0.00
    --------------------------------------------
      LOOP:  cpu time    2.14: real time    2.14

 eigenvalue-minimisations  :   616
 total energy-change (2. order) :-0.6095603E+02  (-0.5667320E+02)
 number of electron     198.0000000 magnetization      18.0000000
 augmentation part      198.0000000 magnetization      18.0000000

 Free energy of the ion-electron system (eV)
  ---------------------------------------------------
  alpha Z        PSCENC =        27.30027354
  Ewald energy   TEWEN  =     31148.12393290
  -Hartree energ DENC   =    -48995.35061875
  -exchange      EXHF   =         0.00000000
  -V(xc)+E(xc)   XCENC  =      -198.57854265
  PAW double counting   =     18060.69920525   -17230.76295982
  entropy T*S    EENTRO =         0.00000000
  eigenvalues    EBANDS =     -1513.99531804
  atomic energy  EATOM  =     18669.57534155
  ---------------------------------------------------
  free energy    TOTEN  =       -32.98868601 eV

  energy without entropy =      -32.98868601  energy(sigma->0) =      -32.98868601


--------------------------------------------------------------------------------------------------------




----------------------------------------- Iteration    1(   5)  ---------------------------------------


     EDDAV:  cpu time    2.05: real time    2.05
       DOS:  cpu time    0.00: real time    0.00
    CHARGE:  cpu time    0.10: real time    0.10
    MIXING:  cpu time    0.01: real time    0.01
    --------------------------------------------
      LOOP:  cpu time    2.15: real time    2.16

 eigenvalue-minimisations  :   584
 total energy-change (2. order) :-0.1708985E+01  (-0.1701427E+01)
 number of electron     198.0000431 magnetization      16.0048897
 augmentation part       93.3165782 magnetization      14.4559812

 Broyden mixing:
  rms(total) = 0.24465E+01    rms(broyden)= 0.24460E+01
  rms(prec ) = 0.24871E+01
  weight for this iteration     100.00

 Free energy of the ion-electron system (eV)
  ---------------------------------------------------
  alpha Z        PSCENC =        27.30027354
  Ewald energy   TEWEN  =     31148.12393290
  -Hartree energ DENC   =    -48995.35061875
  -exchange      EXHF   =         0.00000000
  -V(xc)+E(xc)   XCENC  =      -198.57854265
  PAW double counting   =     18060.69920525   -17230.76295982
  entropy T*S    EENTRO =         0.00000000
  eigenvalues    EBANDS =     -1515.70430271
  atomic energy  EATOM  =     18669.57534155
  ---------------------------------------------------
  free energy    TOTEN  =       -34.69767069 eV

  energy without entropy =      -34.69767069  energy(sigma->0) =      -34.69767069


--------------------------------------------------------------------------------------------------------




----------------------------------------- Iteration    1(   6)  ---------------------------------------


    POTLOK:  cpu time    0.28: real time    0.29
    SETDIJ:  cpu time    0.01: real time    0.01
     EDDAV:  cpu time    1.88: real time    1.88
       DOS:  cpu time    0.00: real time    0.00
    CHARGE:  cpu time    0.09: real time    0.10
    MIXING:  cpu time    0.01: real time    0.01
    --------------------------------------------
      LOOP:  cpu time    2.28: real time    2.28

 eigenvalue-minimisations  :   520
 total energy-change (2. order) : 0.2270004E+02  (-0.7012674E+01)
 number of electron     198.0000443 magnetization      14.5867405
 augmentation part       95.3660944 magnetization       9.2632864

 Broyden mixing:
  rms(total) = 0.12794E+01    rms(broyden)= 0.12793E+01
  rms(prec ) = 0.12969E+01
  weight for this iteration     100.00

 eigenvalues of (default mixing * dielectric matrix)
  average eigenvalue GAMMA=   0.8559
  0.8559

 Free energy of the ion-electron system (eV)
  ---------------------------------------------------
  alpha Z        PSCENC =        27.30027354
  Ewald energy   TEWEN  =     31148.12393290
  -Hartree energ DENC   =    -48929.38402498
  -exchange      EXHF   =         0.00000000
  -V(xc)+E(xc)   XCENC  =      -187.61365836
  PAW double counting   =     18642.23688967   -17824.69429085
  entropy T*S    EENTRO =         0.00000000
  eigenvalues    EBANDS =     -1557.54209245
  atomic energy  EATOM  =     18669.57534155
  ---------------------------------------------------
  free energy    TOTEN  =       -11.99762898 eV

  energy without entropy =      -11.99762898  energy(sigma->0) =      -11.99762898


--------------------------------------------------------------------------------------------------------




----------------------------------------- Iteration    1(   7)  ---------------------------------------


    POTLOK:  cpu time    0.29: real time    0.29
    SETDIJ:  cpu time    0.01: real time    0.01
     EDDAV:  cpu time    1.94: real time    1.94
       DOS:  cpu time    0.00: real time    0.00
    CHARGE:  cpu time    0.10: real time    0.10
    MIXING:  cpu time    0.01: real time    0.01
    --------------------------------------------
      LOOP:  cpu time    2.35: real time    2.42

 eigenvalue-minimisations  :   544
 total energy-change (2. order) : 0.6091229E+01  (-0.4276296E+00)
 number of electron     198.0000443 magnetization      12.5324608
 augmentation part       95.3153814 magnetization       7.3960184

 Broyden mixing:
  rms(total) = 0.72853E+00    rms(broyden)= 0.72851E+00
  rms(prec ) = 0.73867E+00
  weight for this iteration     100.00

 eigenvalues of (default mixing * dielectric matrix)
  average eigenvalue GAMMA=   0.9934
  0.7471  1.2396

 Free energy of the ion-electron system (eV)
  ---------------------------------------------------
  alpha Z        PSCENC =        27.30027354
  Ewald energy   TEWEN  =     31148.12393290
  -Hartree energ DENC   =    -48972.56541951
  -exchange      EXHF   =         0.00000000
  -V(xc)+E(xc)   XCENC  =      -182.15470363
  PAW double counting   =     19013.74388853   -18204.29451955
  entropy T*S    EENTRO =         0.00000000
  eigenvalues    EBANDS =     -1505.63519427
  atomic energy  EATOM  =     18669.57534155
  ---------------------------------------------------
  free energy    TOTEN  =        -5.90640043 eV

  energy without entropy =       -5.90640043  energy(sigma->0) =       -5.90640043


--------------------------------------------------------------------------------------------------------




----------------------------------------- Iteration    1(   8)  ---------------------------------------


    POTLOK:  cpu time    0.28: real time    0.29
    SETDIJ:  cpu time    0.01: real time    0.01
     EDDAV:  cpu time    2.03: real time    2.03
       DOS:  cpu time    0.00: real time    0.00
    CHARGE:  cpu time    0.09: real time    0.09
    MIXING:  cpu time    0.01: real time    0.01
    --------------------------------------------
      LOOP:  cpu time    2.43: real time    3.03

 eigenvalue-minimisations  :   576
 total energy-change (2. order) :-0.2134624E+01  (-0.1708205E+00)
 number of electron     198.0000442 magnetization      11.1241348
 augmentation part       95.1596428 magnetization       6.1437609

 Broyden mixing:
  rms(total) = 0.36809E+00    rms(broyden)= 0.36808E+00
  rms(prec ) = 0.37139E+00
  weight for this iteration     100.00

 eigenvalues of (default mixing * dielectric matrix)
  average eigenvalue GAMMA=   1.2176
  2.1189  0.9144  0.6196

 Free energy of the ion-electron system (eV)
  ---------------------------------------------------
  alpha Z        PSCENC =        27.30027354
  Ewald energy   TEWEN  =     31148.12393290
  -Hartree energ DENC   =    -49019.45551747
  -exchange      EXHF   =         0.00000000
  -V(xc)+E(xc)   XCENC  =      -183.36295594
  PAW double counting   =     19412.09026890   -18610.46834944
  entropy T*S    EENTRO =         0.00000000
  eigenvalues    EBANDS =     -1451.84401827
  atomic energy  EATOM  =     18669.57534155
  ---------------------------------------------------
  free energy    TOTEN  =        -8.04102423 eV

  energy without entropy =       -8.04102423  energy(sigma->0) =       -8.04102423


--------------------------------------------------------------------------------------------------------




----------------------------------------- Iteration    1(   9)  ---------------------------------------


    POTLOK:  cpu time    0.29: real time    0.29
    SETDIJ:  cpu time    0.01: real time    0.01
     EDDAV:  cpu time    2.05: real time    2.06
       DOS:  cpu time    0.00: real time    0.00
    CHARGE:  cpu time    0.09: real time    0.09
    MIXING:  cpu time    0.01: real time    0.01
    --------------------------------------------
      LOOP:  cpu time    2.45: real time    2.46

 eigenvalue-minimisations  :   584
 total energy-change (2. order) :-0.3695415E+01  (-0.9062456E-01)
 number of electron     198.0000443 magnetization       9.5936691
 augmentation part       95.1235940 magnetization       4.7536393

 Broyden mixing:
  rms(total) = 0.21655E+00    rms(broyden)= 0.21654E+00
  rms(prec ) = 0.22021E+00
  weight for this iteration     100.00

 eigenvalues of (default mixing * dielectric matrix)
  average eigenvalue GAMMA=   1.2050
  2.1122  0.6163  0.8043  1.2872

 Free energy of the ion-electron system (eV)
  ---------------------------------------------------
  alpha Z        PSCENC =        27.30027354
  Ewald energy   TEWEN  =     31148.12393290
  -Hartree energ DENC   =    -49032.77387681
  -exchange      EXHF   =         0.00000000
  -V(xc)+E(xc)   XCENC  =      -186.09233176
  PAW double counting   =     19553.42686124   -18754.48714817
  entropy T*S    EENTRO =         0.00000000
  eigenvalues    EBANDS =     -1436.80949191
  atomic energy  EATOM  =     18669.57534155
  ---------------------------------------------------
  free energy    TOTEN  =       -11.73643940 eV

  energy without entropy =      -11.73643940  energy(sigma->0) =      -11.73643940


--------------------------------------------------------------------------------------------------------




----------------------------------------- Iteration    1(  10)  ---------------------------------------


    POTLOK:  cpu time    0.29: real time    0.29
    SETDIJ:  cpu time    0.01: real time    0.01
     EDDAV:  cpu time    1.97: real time    1.97
       DOS:  cpu time    0.00: real time    0.00
    CHARGE:  cpu time    0.09: real time    0.09
    MIXING:  cpu time    0.01: real time    0.01
    --------------------------------------------
      LOOP:  cpu time    2.37: real time    2.37

 eigenvalue-minimisations  :   552
 total energy-change (2. order) :-0.7039121E+01  (-0.2350524E+00)
 number of electron     198.0000443 magnetization       7.6411636
 augmentation part       95.1254002 magnetization       3.0504219

 Broyden mixing:
  rms(total) = 0.15189E+00    rms(broyden)= 0.15188E+00
  rms(prec ) = 0.15405E+00
  weight for this iteration     100.00

 eigenvalues of (default mixing * dielectric matrix)
  average eigenvalue GAMMA=   1.4431
  2.7929  1.9421  0.9247  0.9247  0.6309

 Free energy of the ion-electron system (eV)
  ---------------------------------------------------
  alpha Z        PSCENC =        27.30027354
  Ewald energy   TEWEN  =     31148.12393290
  -Hartree energ DENC   =    -49029.44662102
  -exchange      EXHF   =         0.00000000
  -V(xc)+E(xc)   XCENC  =      -191.64993306
  PAW double counting   =     19556.02329475   -18757.29675362
  entropy T*S    EENTRO =         0.00000000
  eigenvalues    EBANDS =     -1441.40509497
  atomic energy  EATOM  =     18669.57534155
  ---------------------------------------------------
  free energy    TOTEN  =       -18.77555993 eV

  energy without entropy =      -18.77555993  energy(sigma->0) =      -18.77555993


--------------------------------------------------------------------------------------------------------




----------------------------------------- Iteration    1(  11)  ---------------------------------------


    POTLOK:  cpu time    0.29: real time    0.29
    SETDIJ:  cpu time    0.01: real time    0.01
     EDDAV:  cpu time    1.86: real time    1.86
       DOS:  cpu time    0.00: real time    0.00
    CHARGE:  cpu time    0.10: real time    0.09
    MIXING:  cpu time    0.01: real time    0.01
    --------------------------------------------
      LOOP:  cpu time    2.26: real time    2.26

 eigenvalue-minimisations  :   512
 total energy-change (2. order) :-0.7512168E+01  (-0.3604776E+00)
 number of electron     198.0000443 magnetization       6.2950165
 augmentation part       95.1152273 magnetization       1.9535917

 Broyden mixing:
  rms(total) = 0.99576E-01    rms(broyden)= 0.99551E-01
  rms(prec ) = 0.10316E+00
  weight for this iteration     100.00

 eigenvalues of (default mixing * dielectric matrix)
  average eigenvalue GAMMA=   1.5156
  3.2734  1.9822  1.4592  0.9614  0.7842  0.6332

 Free energy of the ion-electron system (eV)
  ---------------------------------------------------
  alpha Z        PSCENC =        27.30027354
  Ewald energy   TEWEN  =     31148.12393290
  -Hartree energ DENC   =    -49024.20933652
  -exchange      EXHF   =         0.00000000
  -V(xc)+E(xc)   XCENC  =      -197.65894541
  PAW double counting   =     19540.52653032   -18742.01071651
  entropy T*S    EENTRO =         0.00000000
  eigenvalues    EBANDS =     -1447.93480786
  atomic energy  EATOM  =     18669.57534155
  ---------------------------------------------------
  free energy    TOTEN  =       -26.28772799 eV

  energy without entropy =      -26.28772799  energy(sigma->0) =      -26.28772799


--------------------------------------------------------------------------------------------------------




----------------------------------------- Iteration    1(  12)  ---------------------------------------


    POTLOK:  cpu time    0.28: real time    0.29
    SETDIJ:  cpu time    0.01: real time    0.01
     EDDAV:  cpu time    1.84: real time    1.84
       DOS:  cpu time    0.00: real time    0.00
    CHARGE:  cpu time    0.09: real time    0.09
    MIXING:  cpu time    0.01: real time    0.01
    --------------------------------------------
      LOOP:  cpu time    2.23: real time    3.37

 eigenvalue-minimisations  :   528
 total energy-change (2. order) :-0.4207015E+01  (-0.1468957E+00)
 number of electron     198.0000441 magnetization       6.1010711
 augmentation part       95.1246882 magnetization       3.8278171

 Broyden mixing:
  rms(total) = 0.17440E+00    rms(broyden)= 0.17419E+00
  rms(prec ) = 0.18843E+00
  weight for this iteration     100.00

 eigenvalues of (default mixing * dielectric matrix)
  average eigenvalue GAMMA=   1.3318
  3.4171  1.9728  1.4341  0.6337  0.7947  0.9661  0.1042

 Free energy of the ion-electron system (eV)
  ---------------------------------------------------
  alpha Z        PSCENC =        27.30027354
  Ewald energy   TEWEN  =     31148.12393290
  -Hartree energ DENC   =    -49010.79538850
  -exchange      EXHF   =         0.00000000
  -V(xc)+E(xc)   XCENC  =      -201.26697738
  PAW double counting   =     19481.76934709   -18682.86379388
  entropy T*S    EENTRO =         0.00000000
  eigenvalues    EBANDS =     -1462.33747805
  atomic energy  EATOM  =     18669.57534155
  ---------------------------------------------------
  free energy    TOTEN  =       -30.49474272 eV

  energy without entropy =      -30.49474272  energy(sigma->0) =      -30.49474272


--------------------------------------------------------------------------------------------------------




----------------------------------------- Iteration    1(  13)  ---------------------------------------


    POTLOK:  cpu time    0.28: real time    0.28
    SETDIJ:  cpu time    0.01: real time    0.01
     EDDAV:  cpu time    2.22: real time    2.22
       DOS:  cpu time    0.00: real time    0.00
    CHARGE:  cpu time    0.10: real time    0.09
    MIXING:  cpu time    0.01: real time    0.01
    --------------------------------------------
      LOOP:  cpu time    2.62: real time    2.62

 eigenvalue-minimisations  :   648
 total energy-change (2. order) :-0.1521289E+00  (-0.3071875E-02)
 number of electron     198.0000441 magnetization       5.3919267
 augmentation part       95.1198161 magnetization       3.1433588

 Broyden mixing:
  rms(total) = 0.16020E+00    rms(broyden)= 0.16019E+00
  rms(prec ) = 0.17381E+00
  weight for this iteration     100.00

 eigenvalues of (default mixing * dielectric matrix)
  average eigenvalue GAMMA=   1.3480
  3.8859  2.0682  1.5486  0.9382  0.6329  0.7864  0.4617  0.4617

 Free energy of the ion-electron system (eV)
  ---------------------------------------------------
  alpha Z        PSCENC =        27.30027354
  Ewald energy   TEWEN  =     31148.12393290
  -Hartree energ DENC   =    -49010.00187150
  -exchange      EXHF   =         0.00000000
  -V(xc)+E(xc)   XCENC  =      -201.41376420
  PAW double counting   =     19480.14268894   -18681.26584492
  entropy T*S    EENTRO =         0.00000000
  eigenvalues    EBANDS =     -1463.10762790
  atomic energy  EATOM  =     18669.57534155
  ---------------------------------------------------
  free energy    TOTEN  =       -30.64687159 eV

  energy without entropy =      -30.64687159  energy(sigma->0) =      -30.64687159


--------------------------------------------------------------------------------------------------------




----------------------------------------- Iteration    1(  14)  ---------------------------------------


    POTLOK:  cpu time    0.29: real time    0.29
    SETDIJ:  cpu time    0.00: real time    0.07
     EDDAV:  cpu time    1.90: real time    1.90
       DOS:  cpu time    0.00: real time    0.00
    CHARGE:  cpu time    0.09: real time    0.09
    MIXING:  cpu time    0.01: real time    0.01
    --------------------------------------------
      LOOP:  cpu time    2.30: real time    2.37

 eigenvalue-minimisations  :   528
 total energy-change (2. order) :-0.8174354E+00  (-0.1260750E-01)
 number of electron     198.0000441 magnetization       4.6388114
 augmentation part       95.1403907 magnetization       2.4357351

 Broyden mixing:
  rms(total) = 0.13576E+00    rms(broyden)= 0.13575E+00
  rms(prec ) = 0.14555E+00
  weight for this iteration     100.00

 eigenvalues of (default mixing * dielectric matrix)
  average eigenvalue GAMMA=   1.4002
  4.5701  1.8332  1.8332  0.8079  0.8079  0.9264  0.7887  0.6316  0.4029

 Free energy of the ion-electron system (eV)
  ---------------------------------------------------
  alpha Z        PSCENC =        27.30027354
  Ewald energy   TEWEN  =     31148.12393290
  -Hartree energ DENC   =    -49005.27258729
  -exchange      EXHF   =         0.00000000
  -V(xc)+E(xc)   XCENC  =      -202.19827468
  PAW double counting   =     19459.58168172   -18660.64966478
  entropy T*S    EENTRO =         0.00000000
  eigenvalues    EBANDS =     -1467.92500994
  atomic energy  EATOM  =     18669.57534155
  ---------------------------------------------------
  free energy    TOTEN  =       -31.46430696 eV

  energy without entropy =      -31.46430696  energy(sigma->0) =      -31.46430696


--------------------------------------------------------------------------------------------------------




----------------------------------------- Iteration    1(  15)  ---------------------------------------


    POTLOK:  cpu time    0.29: real time    0.29
    SETDIJ:  cpu time    0.01: real time    0.01
     EDDAV:  cpu time    1.94: real time    1.95
       DOS:  cpu time    0.00: real time    0.00
    CHARGE:  cpu time    0.10: real time    0.09
    MIXING:  cpu time    0.01: real time    0.01
    --------------------------------------------
      LOOP:  cpu time    2.35: real time    2.37

 eigenvalue-minimisations  :   544
 total energy-change (2. order) :-0.5902888E+00  (-0.1193781E-01)
 number of electron     198.0000440 magnetization       4.1067675
 augmentation part       95.1311287 magnetization       1.9464247

 Broyden mixing:
  rms(total) = 0.93889E-01    rms(broyden)= 0.93856E-01
  rms(prec ) = 0.98778E-01
  weight for this iteration     100.00

 eigenvalues of (default mixing * dielectric matrix)
  average eigenvalue GAMMA=   1.3867
  4.9388  1.8144  1.8144  1.0008  1.0008  0.9326  0.7928  0.6335  0.4694  0.4694

 Free energy of the ion-electron system (eV)
  ---------------------------------------------------
  alpha Z        PSCENC =        27.30027354
  Ewald energy   TEWEN  =     31148.12393290
  -Hartree energ DENC   =    -49003.05090382
  -exchange      EXHF   =         0.00000000
  -V(xc)+E(xc)   XCENC  =      -202.74174615
  PAW double counting   =     19453.52678187   -18654.72085403
  entropy T*S    EENTRO =         0.00000000
  eigenvalues    EBANDS =     -1470.06742166
  atomic energy  EATOM  =     18669.57534155
  ---------------------------------------------------
  free energy    TOTEN  =       -32.05459579 eV

  energy without entropy =      -32.05459579  energy(sigma->0) =      -32.05459579


--------------------------------------------------------------------------------------------------------




----------------------------------------- Iteration    1(  16)  ---------------------------------------


    POTLOK:  cpu time    0.29: real time    0.29
    SETDIJ:  cpu time    0.01: real time    0.01
     EDDAV:  cpu time    1.90: real time    1.91
       DOS:  cpu time    0.00: real time    0.00
    CHARGE:  cpu time    0.09: real time    0.09
    MIXING:  cpu time    0.01: real time    0.01
    --------------------------------------------
      LOOP:  cpu time    2.30: real time    2.33

 eigenvalue-minimisations  :   528
 total energy-change (2. order) :-0.3808643E+00  (-0.4467218E-02)
 number of electron     198.0000440 magnetization       3.2927988
 augmentation part       95.1359709 magnetization       1.1606730

 Broyden mixing:
  rms(total) = 0.70820E-01    rms(broyden)= 0.70804E-01
  rms(prec ) = 0.74304E-01
  weight for this iteration     100.00

 eigenvalues of (default mixing * dielectric matrix)
  average eigenvalue GAMMA=   1.5192
  6.1986  1.9205  1.9205  1.2215  1.2215  0.8394  0.8394  0.6950  0.6950  0.6247
  0.5349

 Free energy of the ion-electron system (eV)
  ---------------------------------------------------
  alpha Z        PSCENC =        27.30027354
  Ewald energy   TEWEN  =     31148.12393290
  -Hartree energ DENC   =    -49000.53746205
  -exchange      EXHF   =         0.00000000
  -V(xc)+E(xc)   XCENC  =      -203.12915133
  PAW double counting   =     19447.93807335   -18649.11411976
  entropy T*S    EENTRO =         0.00000000
  eigenvalues    EBANDS =     -1472.59234831
  atomic energy  EATOM  =     18669.57534155
  ---------------------------------------------------
  free energy    TOTEN  =       -32.43546009 eV

  energy without entropy =      -32.43546009  energy(sigma->0) =      -32.43546009


--------------------------------------------------------------------------------------------------------




----------------------------------------- Iteration    1(  17)  ---------------------------------------


    POTLOK:  cpu time    0.29: real time    0.29
    SETDIJ:  cpu time    0.01: real time    0.01
     EDDAV:  cpu time    1.88: real time    1.88
       DOS:  cpu time    0.00: real time    0.00
    CHARGE:  cpu time    0.09: real time    0.09
    MIXING:  cpu time    0.01: real time    0.01
    --------------------------------------------
      LOOP:  cpu time    2.28: real time    2.30

 eigenvalue-minimisations  :   520
 total energy-change (2. order) :-0.5872822E+00  (-0.8494934E-02)
 number of electron     198.0000440 magnetization       2.6723037
 augmentation part       95.1317975 magnetization       0.5749267

 Broyden mixing:
  rms(total) = 0.40647E-01    rms(broyden)= 0.40614E-01
  rms(prec ) = 0.42882E-01
  weight for this iteration     100.00

 eigenvalues of (default mixing * dielectric matrix)
  average eigenvalue GAMMA=   1.6005
  7.2897  2.0001  1.5151  1.5151  1.3378  1.3378  0.9101  0.7448  0.7448  0.6276
  0.5916  0.5916

 Free energy of the ion-electron system (eV)
  ---------------------------------------------------
  alpha Z        PSCENC =        27.30027354
  Ewald energy   TEWEN  =     31148.12393290
  -Hartree energ DENC   =    -48997.10421934
  -exchange      EXHF   =         0.00000000
  -V(xc)+E(xc)   XCENC  =      -203.72117231
  PAW double counting   =     19444.06700386   -18645.21960183
  entropy T*S    EENTRO =        -0.00000000
  eigenvalues    EBANDS =     -1476.04430066
  atomic energy  EATOM  =     18669.57534155
  ---------------------------------------------------
  free energy    TOTEN  =       -33.02274228 eV

  energy without entropy =      -33.02274228  energy(sigma->0) =      -33.02274228


--------------------------------------------------------------------------------------------------------




----------------------------------------- Iteration    1(  18)  ---------------------------------------


    POTLOK:  cpu time    0.29: real time    0.29
    SETDIJ:  cpu time    0.00: real time    0.01
     EDDAV:  cpu time    1.88: real time    1.88
       DOS:  cpu time    0.00: real time    0.00
    CHARGE:  cpu time    0.09: real time    0.09
    MIXING:  cpu time    0.02: real time    0.01
    --------------------------------------------
      LOOP:  cpu time    2.29: real time    2.31

 eigenvalue-minimisations  :   520
 total energy-change (2. order) :-0.4929216E+00  (-0.4457783E-02)
 number of electron     198.0000440 magnetization       2.3858752
 augmentation part       95.1273285 magnetization       0.3086660

 Broyden mixing:
  rms(total) = 0.22331E-01    rms(broyden)= 0.22320E-01
  rms(prec ) = 0.24825E-01
  weight for this iteration     100.00

 eigenvalues of (default mixing * dielectric matrix)
  average eigenvalue GAMMA=   1.6518
  8.1699  2.3492  1.7956  1.7956  1.2251  1.2251  0.8569  0.8569  0.8508  0.6320
  0.6027  0.6027  0.5112

 Free energy of the ion-electron system (eV)
  ---------------------------------------------------
  alpha Z        PSCENC =        27.30027354
  Ewald energy   TEWEN  =     31148.12393290
  -Hartree energ DENC   =    -48993.76923519
  -exchange      EXHF   =         0.00000000
  -V(xc)+E(xc)   XCENC  =      -204.23274275
  PAW double counting   =     19444.89024010   -18645.95448431
  entropy T*S    EENTRO =         0.00000000
  eigenvalues    EBANDS =     -1479.44898971
  atomic energy  EATOM  =     18669.57534155
  ---------------------------------------------------
  free energy    TOTEN  =       -33.51566386 eV

  energy without entropy =      -33.51566386  energy(sigma->0) =      -33.51566386


--------------------------------------------------------------------------------------------------------




----------------------------------------- Iteration    1(  19)  ---------------------------------------


    POTLOK:  cpu time    0.29: real time    0.29
    SETDIJ:  cpu time    0.01: real time    0.01
     EDDAV:  cpu time    1.97: real time    1.97
       DOS:  cpu time    0.00: real time    0.00
    CHARGE:  cpu time    0.10: real time    0.09
    MIXING:  cpu time    0.01: real time    0.01
    --------------------------------------------
      LOOP:  cpu time    2.38: real time    2.40

 eigenvalue-minimisations  :   552
 total energy-change (2. order) :-0.2396228E+00  (-0.1083001E-02)
 number of electron     198.0000440 magnetization       2.2017994
 augmentation part       95.1227417 magnetization       0.1326136

 Broyden mixing:
  rms(total) = 0.14965E-01    rms(broyden)= 0.14949E-01
  rms(prec ) = 0.16673E-01
  weight for this iteration     100.00

 eigenvalues of (default mixing * dielectric matrix)
  average eigenvalue GAMMA=   1.6552
  8.6609  2.4197  1.9979  1.9979  1.2669  1.2669  0.7662  0.7662  0.8881  0.8331
  0.6251  0.5887  0.5887  0.5069

 Free energy of the ion-electron system (eV)
  ---------------------------------------------------
  alpha Z        PSCENC =        27.30027354
  Ewald energy   TEWEN  =     31148.12393290
  -Hartree energ DENC   =    -48991.38501128
  -exchange      EXHF   =         0.00000000
  -V(xc)+E(xc)   XCENC  =      -204.48316485
  PAW double counting   =     19445.78794420   -18646.79331245
  entropy T*S    EENTRO =         0.00000000
  eigenvalues    EBANDS =     -1481.88129027
  atomic energy  EATOM  =     18669.57534155
  ---------------------------------------------------
  free energy    TOTEN  =       -33.75528665 eV

  energy without entropy =      -33.75528665  energy(sigma->0) =      -33.75528665


--------------------------------------------------------------------------------------------------------




----------------------------------------- Iteration    1(  20)  ---------------------------------------


    POTLOK:  cpu time    0.29: real time    0.29
    SETDIJ:  cpu time    0.00: real time    0.01
     EDDAV:  cpu time    1.91: real time    1.91
       DOS:  cpu time    0.00: real time    0.00
    CHARGE:  cpu time    0.09: real time    0.09
    MIXING:  cpu time    0.02: real time    0.01
    --------------------------------------------
      LOOP:  cpu time    2.32: real time    2.32

 eigenvalue-minimisations  :   528
 total energy-change (2. order) :-0.1398152E+00  (-0.3126626E-03)
 number of electron     198.0000440 magnetization       2.0053924
 augmentation part       95.1240066 magnetization      -0.0578954

 Broyden mixing:
  rms(total) = 0.14239E-01    rms(broyden)= 0.14231E-01
  rms(prec ) = 0.16657E-01
  weight for this iteration     100.00

 eigenvalues of (default mixing * dielectric matrix)
  average eigenvalue GAMMA=   1.6963
  9.3475  2.4401  2.1122  2.1122  1.3776  1.3776  1.0489  0.9067  0.9067  0.8094
  0.6258  0.6258  0.6301  0.5618  0.5618

 Free energy of the ion-electron system (eV)
  ---------------------------------------------------
  alpha Z        PSCENC =        27.30027354
  Ewald energy   TEWEN  =     31148.12393290
  -Hartree energ DENC   =    -48989.35319624
  -exchange      EXHF   =         0.00000000
  -V(xc)+E(xc)   XCENC  =      -204.63904606
  PAW double counting   =     19447.66301242   -18648.66553744
  entropy T*S    EENTRO =         0.00000000
  eigenvalues    EBANDS =     -1483.89988249
  atomic energy  EATOM  =     18669.57534155
  ---------------------------------------------------
  free energy    TOTEN  =       -33.89510181 eV

  energy without entropy =      -33.89510181  energy(sigma->0) =      -33.89510181


--------------------------------------------------------------------------------------------------------




----------------------------------------- Iteration    1(  21)  ---------------------------------------


    POTLOK:  cpu time    0.29: real time    0.29
    SETDIJ:  cpu time    0.01: real time    0.01
     EDDAV:  cpu time    1.95: real time    1.95
       DOS:  cpu time    0.00: real time    0.00
    CHARGE:  cpu time    0.10: real time    0.09
    MIXING:  cpu time    0.02: real time    0.01
    --------------------------------------------
      LOOP:  cpu time    2.36: real time    2.46

 eigenvalue-minimisations  :   544
 total energy-change (2. order) :-0.1433027E+00  (-0.4216454E-03)
 number of electron     198.0000440 magnetization       2.0082283
 augmentation part       95.1264280 magnetization      -0.0497555

 Broyden mixing:
  rms(total) = 0.16178E-01    rms(broyden)= 0.16173E-01
  rms(prec ) = 0.19100E-01
  weight for this iteration     100.00

 eigenvalues of (default mixing * dielectric matrix)
  average eigenvalue GAMMA=   1.7114
  9.6300  2.7992  1.9711  1.9711  1.9508  1.2290  1.2290  1.1600  0.7841  0.7841
  0.8688  0.6559  0.6559  0.5920  0.5920  0.5092

 Free energy of the ion-electron system (eV)
  ---------------------------------------------------
  alpha Z        PSCENC =        27.30027354
  Ewald energy   TEWEN  =     31148.12393290
  -Hartree energ DENC   =    -48986.38450868
  -exchange      EXHF   =         0.00000000
  -V(xc)+E(xc)   XCENC  =      -204.80641528
  PAW double counting   =     19449.46975846   -18650.47271533
  entropy T*S    EENTRO =         0.00000000
  eigenvalues    EBANDS =     -1486.84407169
  atomic energy  EATOM  =     18669.57534155
  ---------------------------------------------------
  free energy    TOTEN  =       -34.03840453 eV

  energy without entropy =      -34.03840453  energy(sigma->0) =      -34.03840453


--------------------------------------------------------------------------------------------------------




----------------------------------------- Iteration    1(  22)  ---------------------------------------


    POTLOK:  cpu time    0.29: real time    0.29
    SETDIJ:  cpu time    0.01: real time    0.01
     EDDAV:  cpu time    1.97: real time    1.97
       DOS:  cpu time    0.00: real time    0.00
    CHARGE:  cpu time    0.09: real time    0.09
    MIXING:  cpu time    0.02: real time    0.01
    --------------------------------------------
      LOOP:  cpu time    2.38: real time    2.40

 eigenvalue-minimisations  :   552
 total energy-change (2. order) :-0.3933696E-01  (-0.2547960E-03)
 number of electron     198.0000440 magnetization       2.0172016
 augmentation part       95.1256802 magnetization      -0.0446240

 Broyden mixing:
  rms(total) = 0.79028E-02    rms(broyden)= 0.78964E-02
  rms(prec ) = 0.90721E-02
  weight for this iteration     100.00

 eigenvalues of (default mixing * dielectric matrix)
  average eigenvalue GAMMA=   1.6878
  9.6637  3.3475  1.9170  1.9170  1.9061  1.2187  1.2187  1.2366  0.8230  0.8230
  0.9218  0.7602  0.6120  0.6120  0.6362  0.5627  0.5168

 Free energy of the ion-electron system (eV)
  ---------------------------------------------------
  alpha Z        PSCENC =        27.30027354
  Ewald energy   TEWEN  =     31148.12393290
  -Hartree energ DENC   =    -48985.07047629
  -exchange      EXHF   =         0.00000000
  -V(xc)+E(xc)   XCENC  =      -204.84942460
  PAW double counting   =     19451.18779092   -18652.18483008
  entropy T*S    EENTRO =         0.00000000
  eigenvalues    EBANDS =     -1488.16034943
  atomic energy  EATOM  =     18669.57534155
  ---------------------------------------------------
  free energy    TOTEN  =       -34.07774149 eV

  energy without entropy =      -34.07774149  energy(sigma->0) =      -34.07774149


--------------------------------------------------------------------------------------------------------




----------------------------------------- Iteration    1(  23)  ---------------------------------------


    POTLOK:  cpu time    0.29: real time    0.29
    SETDIJ:  cpu time    0.01: real time    0.01
     EDDAV:  cpu time    1.58: real time    1.57
       DOS:  cpu time    0.00: real time    0.00
    CHARGE:  cpu time    0.09: real time    0.09
    MIXING:  cpu time    0.02: real time    0.02
    --------------------------------------------
      LOOP:  cpu time    1.98: real time    2.42

 eigenvalue-minimisations  :   400
 total energy-change (2. order) :-0.1263649E-01  (-0.4752710E-04)
 number of electron     198.0000440 magnetization       2.0199404
 augmentation part       95.1255369 magnetization      -0.0441765

 Broyden mixing:
  rms(total) = 0.53838E-02    rms(broyden)= 0.53788E-02
  rms(prec ) = 0.62613E-02
  weight for this iteration     100.00

 eigenvalues of (default mixing * dielectric matrix)
  average eigenvalue GAMMA=   1.6814
  9.7082  3.5285  2.0528  2.0528  2.0370  1.1247  1.1247  1.0980  1.0980  0.9910
  0.8106  0.8106  0.8399  0.6055  0.6055  0.6306  0.6306  0.5155

 Free energy of the ion-electron system (eV)
  ---------------------------------------------------
  alpha Z        PSCENC =        27.30027354
  Ewald energy   TEWEN  =     31148.12393290
  -Hartree energ DENC   =    -48984.28659455
  -exchange      EXHF   =         0.00000000
  -V(xc)+E(xc)   XCENC  =      -204.86422550
  PAW double counting   =     19451.45985424   -18652.44526824
  entropy T*S    EENTRO =         0.00000000
  eigenvalues    EBANDS =     -1488.95369191
  atomic energy  EATOM  =     18669.57534155
  ---------------------------------------------------
  free energy    TOTEN  =       -34.09037797 eV

  energy without entropy =      -34.09037797  energy(sigma->0) =      -34.09037797


--------------------------------------------------------------------------------------------------------




----------------------------------------- Iteration    1(  24)  ---------------------------------------


    POTLOK:  cpu time    0.29: real time    0.29
    SETDIJ:  cpu time    0.01: real time    0.01
     EDDAV:  cpu time    1.44: real time    1.44
       DOS:  cpu time    0.00: real time    0.00
    CHARGE:  cpu time    0.09: real time    0.09
    MIXING:  cpu time    0.02: real time    0.02
    --------------------------------------------
      LOOP:  cpu time    1.85: real time    1.86

 eigenvalue-minimisations  :   352
 total energy-change (2. order) :-0.9616939E-02  (-0.3357537E-04)
 number of electron     198.0000440 magnetization       2.0260544
 augmentation part       95.1271835 magnetization      -0.0388747

 Broyden mixing:
  rms(total) = 0.28255E-02    rms(broyden)= 0.28252E-02
  rms(prec ) = 0.36702E-02
  weight for this iteration     100.00

 eigenvalues of (default mixing * dielectric matrix)
  average eigenvalue GAMMA=   1.7145
  9.6360  4.1238  2.2765  2.2109  2.2109  1.1608  1.1608  1.2624  1.2624  1.0471
  0.8670  0.8670  0.8185  0.6060  0.6060  0.7064  0.6362  0.5989  0.5177

 Free energy of the ion-electron system (eV)
  ---------------------------------------------------
  alpha Z        PSCENC =        27.30027354
  Ewald energy   TEWEN  =     31148.12393290
  -Hartree energ DENC   =    -48983.15202266
  -exchange      EXHF   =         0.00000000
  -V(xc)+E(xc)   XCENC  =      -204.88083508
  PAW double counting   =     19451.20411407   -18652.18778499
  entropy T*S    EENTRO =         0.00000000
  eigenvalues    EBANDS =     -1490.08301425
  atomic energy  EATOM  =     18669.57534155
  ---------------------------------------------------
  free energy    TOTEN  =       -34.09999491 eV

  energy without entropy =      -34.09999491  energy(sigma->0) =      -34.09999491


--------------------------------------------------------------------------------------------------------




----------------------------------------- Iteration    1(  25)  ---------------------------------------


    POTLOK:  cpu time    0.29: real time    0.29
    SETDIJ:  cpu time    0.01: real time    0.01
     EDDAV:  cpu time    1.53: real time    1.53
       DOS:  cpu time    0.00: real time    0.00
    CHARGE:  cpu time    0.10: real time    0.09
    MIXING:  cpu time    0.02: real time    0.02
    --------------------------------------------
      LOOP:  cpu time    1.94: real time    1.94

 eigenvalue-minimisations  :   384
 total energy-change (2. order) :-0.8433313E-02  (-0.5375372E-04)
 number of electron     198.0000440 magnetization       2.0194800
 augmentation part       95.1273465 magnetization      -0.0476815

 Broyden mixing:
  rms(total) = 0.15563E-02    rms(broyden)= 0.15526E-02
  rms(prec ) = 0.20529E-02
  weight for this iteration     100.00

 eigenvalues of (default mixing * dielectric matrix)
  average eigenvalue GAMMA=   1.7188
  9.6507  4.6571  2.3456  2.3456  2.3118  1.1849  1.1849  1.2015  1.2015  1.0969
  0.8992  0.8992  0.9654  0.8160  0.6059  0.6059  0.5183  0.6456  0.6456  0.5947

 Free energy of the ion-electron system (eV)
  ---------------------------------------------------
  alpha Z        PSCENC =        27.30027354
  Ewald energy   TEWEN  =     31148.12393290
  -Hartree energ DENC   =    -48981.59819246
  -exchange      EXHF   =         0.00000000
  -V(xc)+E(xc)   XCENC  =      -204.89645017
  PAW double counting   =     19451.85555060   -18652.84615592
  entropy T*S    EENTRO =         0.00000000
  eigenvalues    EBANDS =     -1491.62272828
  atomic energy  EATOM  =     18669.57534155
  ---------------------------------------------------
  free energy    TOTEN  =       -34.10842823 eV

  energy without entropy =      -34.10842823  energy(sigma->0) =      -34.10842823


--------------------------------------------------------------------------------------------------------




----------------------------------------- Iteration    1(  26)  ---------------------------------------


    POTLOK:  cpu time    0.29: real time    0.29
    SETDIJ:  cpu time    0.00: real time    0.01
     EDDAV:  cpu time    1.51: real time    1.51
       DOS:  cpu time    0.00: real time    0.00
    CHARGE:  cpu time    0.10: real time    0.09
    MIXING:  cpu time    0.02: real time    0.02
    --------------------------------------------
      LOOP:  cpu time    1.92: real time    1.93

 eigenvalue-minimisations  :   376
 total energy-change (2. order) :-0.9800920E-03  (-0.9351978E-05)
 number of electron     198.0000440 magnetization       2.0127927
 augmentation part       95.1279888 magnetization      -0.0542481

 Broyden mixing:
  rms(total) = 0.12619E-02    rms(broyden)= 0.12615E-02
  rms(prec ) = 0.15910E-02
  weight for this iteration     100.00

 eigenvalues of (default mixing * dielectric matrix)
  average eigenvalue GAMMA=   1.7248
  9.6391  4.9849  2.3709  2.3709  2.2419  1.5509  1.1631  1.1631  1.3187  1.3187
  0.8796  0.8796  1.0394  0.9517  0.6056  0.6056  0.7315  0.5188  0.6442  0.6442
  0.5979

 Free energy of the ion-electron system (eV)
  ---------------------------------------------------
  alpha Z        PSCENC =        27.30027354
  Ewald energy   TEWEN  =     31148.12393290
  -Hartree energ DENC   =    -48980.92687720
  -exchange      EXHF   =         0.00000000
  -V(xc)+E(xc)   XCENC  =      -204.90191885
  PAW double counting   =     19451.70294970   -18652.69355666
  entropy T*S    EENTRO =         0.00000000
  eigenvalues    EBANDS =     -1492.28955331
  atomic energy  EATOM  =     18669.57534155
  ---------------------------------------------------
  free energy    TOTEN  =       -34.10940832 eV

  energy without entropy =      -34.10940832  energy(sigma->0) =      -34.10940832


--------------------------------------------------------------------------------------------------------




----------------------------------------- Iteration    1(  27)  ---------------------------------------


    POTLOK:  cpu time    0.29: real time    0.29
    SETDIJ:  cpu time    0.01: real time    0.01
     EDDAV:  cpu time    1.51: real time    1.51
       DOS:  cpu time    0.00: real time    0.00
    CHARGE:  cpu time    0.10: real time    0.09
    MIXING:  cpu time    0.02: real time    0.02
    --------------------------------------------
      LOOP:  cpu time    1.92: real time    1.93

 eigenvalue-minimisations  :   376
 total energy-change (2. order) :-0.1573007E-02  (-0.1070600E-04)
 number of electron     198.0000440 magnetization       2.0075242
 augmentation part       95.1282630 magnetization      -0.0596749

 Broyden mixing:
  rms(total) = 0.11910E-02    rms(broyden)= 0.11899E-02
  rms(prec ) = 0.14249E-02
  weight for this iteration     100.00

 eigenvalues of (default mixing * dielectric matrix)
  average eigenvalue GAMMA=   1.7555
  9.6090  5.4943  2.8900  2.3533  2.3533  1.9545  1.1688  1.1688  1.3103  1.3103
  1.1968  0.8876  0.8876  0.8853  0.8853  0.6060  0.6060  0.5195  0.6663  0.6393
  0.6393  0.5894

 Free energy of the ion-electron system (eV)
  ---------------------------------------------------
  alpha Z        PSCENC =        27.30027354
  Ewald energy   TEWEN  =     31148.12393290
  -Hartree energ DENC   =    -48980.22357508
  -exchange      EXHF   =         0.00000000
  -V(xc)+E(xc)   XCENC  =      -204.90788698
  PAW double counting   =     19451.86164175   -18652.85437562
  entropy T*S    EENTRO =         0.00000000
  eigenvalues    EBANDS =     -1492.98633340
  atomic energy  EATOM  =     18669.57534155
  ---------------------------------------------------
  free energy    TOTEN  =       -34.11098132 eV

  energy without entropy =      -34.11098132  energy(sigma->0) =      -34.11098132


--------------------------------------------------------------------------------------------------------




----------------------------------------- Iteration    1(  28)  ---------------------------------------


    POTLOK:  cpu time    0.29: real time    0.29
    SETDIJ:  cpu time    0.01: real time    0.01
     EDDAV:  cpu time    1.53: real time    1.54
       DOS:  cpu time    0.00: real time    0.00
    CHARGE:  cpu time    0.09: real time    0.09
    MIXING:  cpu time    0.02: real time    0.02
    --------------------------------------------
      LOOP:  cpu time    1.94: real time    1.96

 eigenvalue-minimisations  :   384
 total energy-change (2. order) :-0.8458769E-03  (-0.2264365E-05)
 number of electron     198.0000440 magnetization       2.0043323
 augmentation part       95.1281881 magnetization      -0.0626923

 Broyden mixing:
  rms(total) = 0.69880E-03    rms(broyden)= 0.69871E-03
  rms(prec ) = 0.84973E-03
  weight for this iteration     100.00

 eigenvalues of (default mixing * dielectric matrix)
  average eigenvalue GAMMA=   1.7547
  9.5907  5.9032  3.1727  2.3660  2.3660  1.9248  1.1646  1.1646  1.3332  1.3332
  1.2475  1.0884  0.8960  0.8960  0.8561  0.7399  0.7399  0.6047  0.6047  0.5190
  0.6264  0.6107  0.6107

 Free energy of the ion-electron system (eV)
  ---------------------------------------------------
  alpha Z        PSCENC =        27.30027354
  Ewald energy   TEWEN  =     31148.12393290
  -Hartree energ DENC   =    -48979.92655643
  -exchange      EXHF   =         0.00000000
  -V(xc)+E(xc)   XCENC  =      -204.91007722
  PAW double counting   =     19452.11158939   -18653.10788056
  entropy T*S    EENTRO =         0.00000000
  eigenvalues    EBANDS =     -1493.27845039
  atomic energy  EATOM  =     18669.57534155
  ---------------------------------------------------
  free energy    TOTEN  =       -34.11182720 eV

  energy without entropy =      -34.11182720  energy(sigma->0) =      -34.11182720


--------------------------------------------------------------------------------------------------------




----------------------------------------- Iteration    1(  29)  ---------------------------------------


    POTLOK:  cpu time    0.28: real time    0.28
    SETDIJ:  cpu time    0.01: real time    0.01
     EDDAV:  cpu time    1.44: real time    1.44
       DOS:  cpu time    0.00: real time    0.00
    CHARGE:  cpu time    0.09: real time    0.09
    MIXING:  cpu time    0.02: real time    0.02
    --------------------------------------------
      LOOP:  cpu time    1.84: real time    2.70

 eigenvalue-minimisations  :   368
 total energy-change (2. order) :-0.4349958E-03  (-0.9327644E-06)
 number of electron     198.0000440 magnetization       2.0016115
 augmentation part       95.1281750 magnetization      -0.0652681

 Broyden mixing:
  rms(total) = 0.37751E-03    rms(broyden)= 0.37696E-03
  rms(prec ) = 0.46454E-03
  weight for this iteration     100.00

 eigenvalues of (default mixing * dielectric matrix)
  average eigenvalue GAMMA=   1.7647
  9.5862  6.1223  3.4256  2.4296  2.4296  2.1409  1.1623  1.1623  1.3521  1.3521
  1.2992  1.2992  0.8861  0.8861  0.9092  0.9092  0.7662  0.6058  0.6058  0.5192
  0.6381  0.6381  0.6365  0.5919

 Free energy of the ion-electron system (eV)
  ---------------------------------------------------
  alpha Z        PSCENC =        27.30027354
  Ewald energy   TEWEN  =     31148.12393290
  -Hartree energ DENC   =    -48979.76021082
  -exchange      EXHF   =         0.00000000
  -V(xc)+E(xc)   XCENC  =      -204.91124354
  PAW double counting   =     19452.15113038   -18653.14725540
  entropy T*S    EENTRO =         0.00000000
  eigenvalues    EBANDS =     -1493.44423081
  atomic energy  EATOM  =     18669.57534155
  ---------------------------------------------------
  free energy    TOTEN  =       -34.11226220 eV

  energy without entropy =      -34.11226220  energy(sigma->0) =      -34.11226220


--------------------------------------------------------------------------------------------------------




----------------------------------------- Iteration    1(  30)  ---------------------------------------


    POTLOK:  cpu time    0.29: real time    0.29
    SETDIJ:  cpu time    0.01: real time    0.01
     EDDAV:  cpu time    1.42: real time    1.43
       DOS:  cpu time    0.00: real time    0.00
    CHARGE:  cpu time    0.09: real time    0.09
    MIXING:  cpu time    0.02: real time    0.02
    --------------------------------------------
      LOOP:  cpu time    1.84: real time    1.86

 eigenvalue-minimisations  :   344
 total energy-change (2. order) :-0.5582969E-03  (-0.6709195E-06)
 number of electron     198.0000440 magnetization       1.9992512
 augmentation part       95.1282598 magnetization      -0.0674320

 Broyden mixing:
  rms(total) = 0.19899E-03    rms(broyden)= 0.19879E-03
  rms(prec ) = 0.26270E-03
  weight for this iteration     100.00

 eigenvalues of (default mixing * dielectric matrix)
  average eigenvalue GAMMA=   1.8162
  9.5825  6.6767  4.2001  2.4850  2.4850  2.2703  1.6457  1.6457  1.1638  1.1638
  1.2994  1.2994  1.0716  0.8841  0.8841  0.8382  0.8382  0.6053  0.6053  0.7219
  0.5191  0.6711  0.6250  0.6250  0.5973

 Free energy of the ion-electron system (eV)
  ---------------------------------------------------
  alpha Z        PSCENC =        27.30027354
  Ewald energy   TEWEN  =     31148.12393290
  -Hartree energ DENC   =    -48979.61136849
  -exchange      EXHF   =         0.00000000
  -V(xc)+E(xc)   XCENC  =      -204.91253627
  PAW double counting   =     19452.12793809   -18653.12277798
  entropy T*S    EENTRO =         0.00000000
  eigenvalues    EBANDS =     -1493.59362384
  atomic energy  EATOM  =     18669.57534155
  ---------------------------------------------------
  free energy    TOTEN  =       -34.11282049 eV

  energy without entropy =      -34.11282049  energy(sigma->0) =      -34.11282049


--------------------------------------------------------------------------------------------------------




----------------------------------------- Iteration    1(  31)  ---------------------------------------


    POTLOK:  cpu time    0.29: real time    0.29
    SETDIJ:  cpu time    0.01: real time    0.01
     EDDAV:  cpu time    1.49: real time    1.49
       DOS:  cpu time    0.00: real time    0.00
    CHARGE:  cpu time    0.09: real time    0.09
    MIXING:  cpu time    0.02: real time    0.02
    --------------------------------------------
      LOOP:  cpu time    1.90: real time    1.91

 eigenvalue-minimisations  :   368
 total energy-change (2. order) :-0.2148964E-03  (-0.4933923E-06)
 number of electron     198.0000440 magnetization       1.9990742
 augmentation part       95.1282166 magnetization      -0.0674752

 Broyden mixing:
  rms(total) = 0.10269E-03    rms(broyden)= 0.10249E-03
  rms(prec ) = 0.14594E-03
  weight for this iteration     100.00

 eigenvalues of (default mixing * dielectric matrix)
  average eigenvalue GAMMA=   1.8414
  9.5538  7.4080  4.7364  2.4017  2.4017  2.2866  2.2033  1.1633  1.1633  1.3194
  1.3194  1.3173  1.1989  1.0268  0.8824  0.8824  0.9069  0.7728  0.6052  0.6052
  0.5191  0.6805  0.6805  0.5990  0.6207  0.6207

 Free energy of the ion-electron system (eV)
  ---------------------------------------------------
  alpha Z        PSCENC =        27.30027354
  Ewald energy   TEWEN  =     31148.12393290
  -Hartree energ DENC   =    -48979.51630166
  -exchange      EXHF   =         0.00000000
  -V(xc)+E(xc)   XCENC  =      -204.91308239
  PAW double counting   =     19452.16148147   -18653.15667820
  entropy T*S    EENTRO =         0.00000000
  eigenvalues    EBANDS =     -1493.68800261
  atomic energy  EATOM  =     18669.57534155
  ---------------------------------------------------
  free energy    TOTEN  =       -34.11303539 eV

  energy without entropy =      -34.11303539  energy(sigma->0) =      -34.11303539


--------------------------------------------------------------------------------------------------------




----------------------------------------- Iteration    1(  32)  ---------------------------------------


    POTLOK:  cpu time    0.29: real time    0.29
    SETDIJ:  cpu time    0.00: real time    0.01
     EDDAV:  cpu time    1.39: real time    1.39
       DOS:  cpu time    0.00: real time    0.00
    --------------------------------------------
      LOOP:  cpu time    1.68: real time    1.68

 eigenvalue-minimisations  :   328
 total energy-change (2. order) :-0.8376632E-05  (-0.8905198E-07)
 number of electron     198.0000440 magnetization       1.9990742
 augmentation part       95.1282166 magnetization      -0.0674752

 Free energy of the ion-electron system (eV)
  ---------------------------------------------------
  alpha Z        PSCENC =        27.30027354
  Ewald energy   TEWEN  =     31148.12393290
  -Hartree energ DENC   =    -48979.48436002
  -exchange      EXHF   =         0.00000000
  -V(xc)+E(xc)   XCENC  =      -204.91318373
  PAW double counting   =     19452.15572923   -18653.15112542
  entropy T*S    EENTRO =         0.00000000
  eigenvalues    EBANDS =     -1493.71965181
  atomic energy  EATOM  =     18669.57534155
  ---------------------------------------------------
[...]
     35      -7.9423      1.00000
     36      -7.9208      1.00000
     37      -7.9081      1.00000
     38      -7.8442      1.00000
     39      -7.8300      1.00000
     40      -7.7796      1.00000
     41      -7.7308      1.00000
     42      -7.7115      1.00000
     43      -7.7062      1.00000
     44      -7.6674      1.00000
     45      -7.6008      1.00000
     46      -7.5610      1.00000
     47      -7.5163      1.00000
     48      -7.4926      1.00000
     49      -7.4402      1.00000
     50      -7.3814      1.00000
     51      -7.3238      1.00000
     52      -7.2720      1.00000
     53      -7.2689      1.00000
     54      -7.2534      1.00000
     55      -7.2390      1.00000
     56      -7.2154      1.00000
     57      -7.2045      1.00000
     58      -7.1916      1.00000
     59      -7.1751      1.00000
     60      -7.1655      1.00000
     61      -7.1505      1.00000
     62      -7.1308      1.00000
     63      -7.0934      1.00000
     64      -7.0779      1.00000
     65      -7.0706      1.00000
     66      -7.0271      1.00000
     67      -7.0212      1.00000
     68      -7.0070      1.00000
     69      -6.9890      1.00000
     70      -6.9687      1.00000
     71      -6.9316      1.00000
     72      -6.9192      1.00000
     73      -6.9039      1.00000
     74      -6.8954      1.00000
     75      -6.8716      1.00000
     76      -6.8640      1.00000
     77      -6.8485      1.00000
     78      -6.7969      1.00000
     79      -6.7835      1.00000
     80      -6.7739      1.00000
     81      -6.7634      1.00000
     82      -6.7559      1.00000
     83      -6.7252      1.00000
     84      -6.7017      1.00000
     85      -6.6605      1.00000
     86      -6.6490      1.00000
     87      -6.6300      1.00000
     88      -6.5629      1.00000
     89      -6.5350      1.00000
     90      -6.5281      1.00000
     91      -6.5099      1.00000
     92      -6.4230      1.00000
     93      -5.9864      1.00000
     94      -5.9210      1.00000
     95      -5.4393      1.00000
     96      -4.6538      1.00000
     97      -4.3722      1.00000
     98      -3.8298      1.00000
     99      -3.5906      0.00000
    100      -3.5850      0.00000
    101      -3.1548      0.00000
    102      -2.8538      0.00000
    103      -2.7819      0.00000
    104      -2.2636      0.00000
    105      -2.0122      0.00000
    106      -1.8335      0.00000
    107      -1.6603      0.00000
    108      -1.4939      0.00000
    109      -1.3939      0.00000
    110      -1.2001      0.00000
    111      -1.1282      0.00000
    112      -1.1009      0.00000
    113      -1.0394      0.00000
    114      -0.5102      0.00000
    115      -0.4864      0.00000
    116      -0.4336      0.00000
    117      -0.3359      0.00000
    118      -0.0534      0.00000
    119       0.1524      0.00000
    120       0.2628      0.00000
    121       0.2800      0.00000
    122       0.4544      0.00000
    123       0.5165      0.00000
    124       0.5689      0.00000
    125       0.5908      0.00000
    126       0.6202      0.00000
    127       0.6370      0.00000
    128       0.6544      0.00000


--------------------------------------------------------------------------------------------------------


 soft charge-density along one line, spin component           1
         0         1         2         3         4         5         6         7         8         9
 total charge-density along one line
 
 soft charge-density along one line, spin component           2
         0         1         2         3         4         5         6         7         8         9
 total charge-density along one line
 
 pseudopotential strength for first ion, spin component:           1
-10.344   0.004  -0.001  -0.006   0.000 -10.318   0.004  -0.001
  0.004 -10.367  -0.001  -0.004   0.001   0.004 -10.340  -0.001
 -0.001  -0.001 -10.367  -0.002  -0.001  -0.001  -0.001 -10.340
 -0.006  -0.004  -0.002 -10.367  -0.003  -0.006  -0.004  -0.002
  0.000   0.001  -0.001  -0.003 -10.340   0.000   0.001  -0.001
-10.318   0.004  -0.001  -0.006   0.000 -10.267   0.003  -0.001
  0.004 -10.340  -0.001  -0.004   0.001   0.003 -10.288  -0.001
 -0.001  -0.001 -10.340  -0.002  -0.001  -0.001  -0.001 -10.289
 -0.006  -0.004  -0.002 -10.339  -0.003  -0.006  -0.004  -0.002
  0.000   0.001  -0.001  -0.003 -10.313   0.000   0.001  -0.001
  0.001   0.002   0.006  -0.000   0.000   0.001   0.002   0.006
  0.001   0.003   0.010  -0.000   0.000   0.001   0.003   0.010
  0.001  -0.030   0.003   0.000   0.006   0.001  -0.029   0.003
  0.000  -0.005  -0.035   0.001   0.000   0.000  -0.005  -0.033
 -0.005   0.000  -0.000  -0.030   0.001  -0.005   0.000  -0.000
  0.001  -0.037   0.004   0.000   0.007   0.001  -0.035   0.004
  0.000  -0.006  -0.042   0.001   0.000   0.000  -0.006  -0.040
 -0.006   0.000  -0.001  -0.036   0.001  -0.006   0.000  -0.001
 pseudopotential strength for first ion, spin component:           2
-10.346   0.003  -0.001  -0.006   0.000 -10.319   0.003  -0.001
  0.003 -10.370  -0.002  -0.004   0.001   0.003 -10.342  -0.001
 -0.001  -0.002 -10.370  -0.003  -0.001  -0.001  -0.001 -10.342
 -0.006  -0.004  -0.003 -10.368  -0.002  -0.006  -0.003  -0.003
  0.000   0.001  -0.001  -0.002 -10.342   0.000   0.001  -0.001
-10.319   0.003  -0.001  -0.006   0.000 -10.269   0.003  -0.001
  0.003 -10.342  -0.001  -0.003   0.001   0.003 -10.291  -0.001
 -0.001  -0.001 -10.342  -0.003  -0.001  -0.001  -0.001 -10.291
 -0.006  -0.003  -0.003 -10.341  -0.002  -0.006  -0.003  -0.003
  0.000   0.001  -0.001  -0.002 -10.316   0.000   0.001  -0.001
  0.000   0.002   0.007  -0.001  -0.000   0.000   0.002   0.007
  0.001   0.003   0.011  -0.001  -0.000   0.001   0.003   0.011
  0.000  -0.030   0.003   0.000   0.006   0.000  -0.029   0.003
  0.000  -0.005  -0.034   0.001   0.000   0.000  -0.005  -0.033
 -0.005   0.000  -0.000  -0.030   0.001  -0.005   0.000  -0.000
  0.000  -0.037   0.004   0.000   0.007   0.000  -0.035   0.004
  0.000  -0.006  -0.041   0.001   0.000   0.000  -0.006  -0.040
 -0.006   0.000  -0.000  -0.036   0.001  -0.006   0.000  -0.000
 total augmentation occupancy for first ion, spin component:           1
  2.246   0.014  -0.017  -0.008   0.003  -0.237   0.039  -0.009  -0.039   0.000  -0.035   0.002   0.012  -0.002  -0.009  -0.000
  0.014   2.412   0.022  -0.016  -0.048   0.039  -0.487  -0.021  -0.024   0.027  -0.142   0.028  -0.064  -0.017  -0.004  -0.015
 -0.017   0.022   2.590  -0.040  -0.007  -0.009  -0.021  -0.584   0.009   0.004  -0.534   0.128  -0.002  -0.121   0.003   0.002
 -0.008  -0.016  -0.040   2.474  -0.069  -0.040  -0.024   0.009  -0.558   0.042   0.063  -0.028  -0.005   0.028  -0.088   0.000
  0.003  -0.048  -0.007  -0.069   2.366   0.000   0.027   0.004   0.042  -0.272  -0.018  -0.000   0.007  -0.002   0.014   0.002
 -0.237   0.039  -0.009  -0.040   0.000   0.209  -0.081   0.030   0.079  -0.003   0.031  -0.001  -0.026   0.007   0.023   0.002
  0.039  -0.487  -0.021  -0.024   0.027  -0.081   0.530   0.020   0.057  -0.010   0.118  -0.021   0.108   0.021   0.009  -0.007
 -0.009  -0.021  -0.584   0.009   0.004   0.030   0.020   0.558   0.016  -0.000   0.445  -0.098  -0.002   0.154   0.005  -0.000
 -0.039  -0.024   0.009  -0.558   0.042   0.079   0.057   0.016   0.610  -0.020  -0.059   0.029   0.009  -0.023   0.131  -0.001
  0.000   0.027   0.004   0.042  -0.272  -0.003  -0.010  -0.000  -0.020   0.168   0.023  -0.004  -0.003   0.004  -0.009  -0.000
 -0.035  -0.142  -0.534   0.063  -0.018   0.031   0.118   0.445  -0.059   0.023   1.721  -0.166   0.033   0.244  -0.024  -0.003
  0.002   0.028   0.128  -0.028  -0.000  -0.001  -0.021  -0.098   0.029  -0.004  -0.166   0.034  -0.005  -0.044   0.009   0.000
  0.012  -0.064  -0.002  -0.005   0.007  -0.026   0.108  -0.002   0.009  -0.003   0.033  -0.005   0.026   0.004   0.001  -0.002
 -0.002  -0.017  -0.121   0.028  -0.002   0.007   0.021   0.154  -0.023   0.004   0.244  -0.044   0.004   0.064  -0.008  -0.000
 -0.009  -0.004   0.003  -0.088   0.014   0.023   0.009   0.005   0.131  -0.009  -0.024   0.009   0.001  -0.008   0.034  -0.000
 -0.000  -0.015   0.002   0.000   0.002   0.002  -0.007  -0.000  -0.001  -0.000  -0.003   0.000  -0.002  -0.000  -0.000   0.000
  0.000  -0.001  -0.012  -0.001   0.000  -0.001  -0.002  -0.012   0.001  -0.000  -0.021   0.003  -0.000  -0.005   0.000   0.000
 -0.002   0.000  -0.000  -0.014  -0.000  -0.002  -0.001  -0.000  -0.008   0.000   0.002  -0.001  -0.000   0.000  -0.002   0.000
 total augmentation occupancy for first ion, spin component:           2
 -0.033   0.002  -0.004   0.010  -0.004   0.011  -0.001   0.003  -0.007   0.003  -0.023  -0.003   0.005   0.002  -0.004   0.000
  0.002  -0.052  -0.002   0.011   0.006  -0.001   0.027   0.002  -0.008  -0.005  -0.016  -0.002  -0.004   0.002  -0.003   0.000
 -0.004  -0.002  -0.059  -0.004  -0.005   0.003   0.002   0.031   0.004   0.004   0.025   0.003   0.000  -0.003   0.001  -0.000
  0.010   0.011  -0.004  -0.031   0.019  -0.007  -0.008   0.004   0.010  -0.015  -0.057  -0.007  -0.002   0.007  -0.010   0.000
 -0.004   0.006  -0.005   0.019  -0.046   0.003  -0.005   0.004  -0.015   0.022  -0.025  -0.004  -0.003   0.002  -0.002   0.000
  0.011  -0.001   0.003  -0.007   0.003   0.010   0.000  -0.002   0.006  -0.002   0.019   0.001  -0.002  -0.001   0.003   0.000
 -0.001   0.027   0.002  -0.008  -0.005   0.000  -0.002  -0.001   0.006   0.004   0.013   0.001   0.001  -0.001   0.002  -0.000
  0.003   0.002   0.031   0.004   0.004  -0.002  -0.001  -0.004  -0.004  -0.002  -0.020  -0.001  -0.000   0.001  -0.002   0.000
 -0.007  -0.008   0.004   0.010  -0.015   0.006   0.006  -0.004   0.012   0.010   0.045   0.003   0.002  -0.003   0.007  -0.000
  0.003  -0.005   0.004  -0.015   0.022  -0.002   0.004  -0.002   0.010   0.002   0.020   0.002   0.002  -0.002   0.003  -0.000
 -0.023  -0.016   0.025  -0.057  -0.025   0.019   0.013  -0.020   0.045   0.020   0.146   0.006   0.004  -0.015   0.023  -0.000
 -0.003  -0.002   0.003  -0.007  -0.004   0.001   0.001  -0.001   0.003   0.002   0.006   0.002   0.000  -0.002   0.001   0.000
  0.005  -0.004   0.000  -0.002  -0.003  -0.002   0.001  -0.000   0.002   0.002   0.004   0.000   0.001  -0.000   0.001  -0.000
  0.002   0.002  -0.003   0.007   0.002  -0.001  -0.001   0.001  -0.003  -0.002  -0.015  -0.002  -0.000   0.001  -0.001   0.000
 -0.004  -0.003   0.001  -0.010  -0.002   0.003   0.002  -0.002   0.007   0.003   0.023   0.001   0.001  -0.001   0.003  -0.000
  0.000   0.000  -0.000   0.000   0.000   0.000  -0.000   0.000  -0.000  -0.000  -0.000   0.000  -0.000   0.000  -0.000   0.000
  0.000   0.000   0.000   0.000   0.000  -0.000  -0.000  -0.000  -0.000  -0.000  -0.000   0.000  -0.000   0.000  -0.000   0.000
  0.000   0.000  -0.000   0.000   0.000  -0.000  -0.000   0.000  -0.000  -0.000  -0.001   0.000  -0.000  -0.000  -0.000   0.000


------------------------ aborting loop because EDIFF is reached ----------------------------------------


    CHARGE:  cpu time    0.09: real time    0.09
    FORLOC:  cpu time    0.01: real time    0.01
    FORNL :  cpu time    1.02: real time    1.02
    STRESS:  cpu time    1.32: real time    1.32
    FORCOR:  cpu time    0.29: real time    0.29
    FORHAR:  cpu time    0.04: real time    0.04
    MIXING:  cpu time    0.01: real time    0.01
    OFIELD:  cpu time    0.00: real time    0.00

  FORCE on cell =-STRESS in cart. coord.  units (eV):
  Direction    XX          YY          ZZ          XY          YZ          ZX
  --------------------------------------------------------------------------------------
  Alpha Z    27.30027    27.30027    27.30027
  Ewald    7305.87630  7108.92718 16528.58118  -440.79857   171.92092 -3518.28764
  Hartree 13520.10700 13323.67827 21941.31441  -388.57257   161.82557 -3129.83766
  E(xc)   -1043.90620 -1043.92058 -1042.21679    -0.11725     0.01398    -0.90194
  Local  -23742.08958-23350.16995-41375.07156   828.98750  -333.55351  6642.41111
  n-local  -197.76328  -197.38900  -196.84077    -0.20793    -0.13305    -0.56981
  augment  1654.67705  1655.01292  1650.83841     0.20362    -0.03555     2.01813
  Kinetic  2469.84569  2470.65009  2460.08709     0.50603    -0.11201     5.11971
  Fock        0.00000     0.00000     0.00000     0.00000     0.00000     0.00000
  -------------------------------------------------------------------------------------
  Total      -5.95275    -5.91080    -6.00776     0.00084    -0.07364    -0.04810
  in kB      -0.94479    -0.93813    -0.95352     0.00013    -0.01169    -0.00763
  external pressure =       -0.95 kB  Pullay stress =        0.00 kB


 VOLUME and BASIS-vectors are now :
 -----------------------------------------------------------------------------
  energy-cutoff  :      249.84
  volume of cell :    10094.67
      direct lattice vectors                 reciprocal lattice vectors
    21.612121354  0.000000000  0.000000000     0.046270331  0.000000000  0.000000000
     0.000000000 21.612121354  0.000000000     0.000000000  0.046270331  0.000000000
     0.000000000  0.000000000 21.612121354     0.000000000  0.000000000  0.046270331

  length of vectors
    21.612121354 21.612121354 21.612121354     0.046270331  0.046270331  0.046270331


 FORCES acting on ions
    electron-ion (+dipol)            ewald-force                    non-local-force                 convergence-correction
 -----------------------------------------------------------------------------------------------
   -.189E+03 0.123E+03 0.107E+04   0.189E+03 -.122E+03 -.106E+04   0.236E+00 -.989E+00 -.619E+01   0.319E-02 -.178E-04 -.227E-02
   0.444E+03 -.516E+03 0.975E+03   -.443E+03 0.514E+03 -.972E+03   -.112E+01 0.181E+01 -.302E+01   0.743E-02 -.110E-02 0.456E-02
   0.110E+04 0.324E+03 0.515E+03   -.110E+04 -.323E+03 -.514E+03   -.493E+01 -.120E+01 -.104E+01   0.526E-02 0.173E-02 -.200E-02
   0.126E+03 0.886E+03 0.780E+03   -.126E+03 -.884E+03 -.778E+03   0.581E-01 -.268E+01 -.229E+01   -.137E-02 0.341E-02 -.251E-02
   0.766E+03 -.904E+03 0.258E+03   -.763E+03 0.902E+03 -.256E+03   -.284E+01 0.169E+01 -.194E+01   0.797E-02 0.264E-02 -.362E-02
   -.932E+03 -.139E+03 0.712E+03   0.929E+03 0.138E+03 -.710E+03   0.250E+01 0.489E+00 -.163E+01   0.420E-02 -.229E-03 -.705E-03
   -.400E+03 -.114E+04 0.395E+03   0.398E+03 0.113E+04 -.394E+03   0.206E+01 0.425E+01 -.129E+01   0.486E-02 -.135E-02 -.246E-03
   -.667E+02 -.299E+01 0.116E+03   0.664E+02 0.290E+01 -.116E+03   0.219E+00 0.897E-01 0.152E+00   -.119E-01 0.107E-01 -.369E-01
   0.904E+03 0.193E+03 -.206E+03   -.905E+03 -.193E+03 0.205E+03   0.174E+00 0.913E-01 0.565E+00   0.298E-01 0.128E-01 0.281E-01
   -.897E+03 0.888E+03 0.130E+03   0.893E+03 -.885E+03 -.129E+03   0.387E+01 -.309E+01 -.358E+00   -.121E-03 -.920E-02 -.405E-02
   0.632E+03 -.874E+03 -.527E+03   -.629E+03 0.870E+03 0.524E+03   -.280E+01 0.377E+01 0.310E+01   -.146E-02 -.861E-03 -.164E-02
   0.260E+03 0.118E+04 -.174E+02   -.258E+03 -.118E+04 0.187E+02   -.161E+01 -.318E+01 -.121E+01   -.774E-02 -.954E-02 -.685E-02
   0.175E+03 0.909E+03 -.760E+03   -.174E+03 -.906E+03 0.755E+03   -.834E+00 -.370E+01 0.407E+01   -.150E-01 -.790E-03 0.762E-02
   -.121E+04 -.330E+03 -.216E+03   0.121E+04 0.329E+03 0.214E+03   0.446E+01 0.131E+01 0.155E+01   0.600E-02 -.208E-02 0.627E-02
   0.777E+03 0.901E+02 -.838E+03   -.772E+03 -.894E+02 0.834E+03   -.461E+01 -.765E+00 0.361E+01   0.461E-02 0.720E-02 -.602E-02
   -.282E+03 -.221E+03 -.111E+04   0.282E+03 0.221E+03 0.111E+04   0.710E+00 0.639E+00 0.340E+01   -.870E-02 0.258E-02 0.626E-02
   -.777E+03 0.459E+03 -.725E+03   0.775E+03 -.457E+03 0.724E+03   0.242E+01 -.163E+01 0.619E+00   -.176E-01 -.523E-02 0.504E-02
   -.430E+03 -.928E+03 -.548E+03   0.429E+03 0.925E+03 0.548E+03   0.125E+01 0.267E+01 0.124E+00   -.309E-02 -.231E-02 0.322E-02
 -----------------------------------------------------------------------------------------------
   0.826E+00 0.465E+00 0.180E+01   -.171E-12 0.227E-12 -.114E-12   -.797E+00 -.409E+00 -.177E+01   0.625E-02 0.832E-02 -.575E-02
 
 
 POSITION                                       TOTAL-FORCE (eV/Angst)
 -----------------------------------------------------------------------------------
     12.07786     10.58064      6.19836        -0.007557     -0.000988      0.003940
     10.49782     12.03886      8.02680        -0.004606     -0.004748      0.011841
      8.80874     10.33122      9.55666         0.000426     -0.001035     -0.006234
     11.12846      9.20088      8.43355         0.001208      0.002848      0.009959
      9.49851     13.11430     10.61097        -0.003571     -0.004645      0.000364
     13.33088     11.28093      8.51603        -0.008577      0.004398      0.002380
     12.16229     13.65393      9.74173        -0.013522     -0.000088     -0.004659
     11.36325     11.06466     10.52069        -0.010233      0.006133      0.005599
      9.14445     10.75239     12.29181        -0.043970     -0.005547      0.001456
     13.30192      9.02300     10.32758         0.008719      0.000770     -0.000834
      9.10380     13.27819     13.38571         0.006258     -0.009480      0.003572
     10.61062      8.48169     11.22137         0.010143     -0.001940      0.002840
     10.23984      8.83139     13.96232         0.016317      0.009248     -0.006976
     13.96408     11.80372     11.20282         0.007841      0.010603     -0.010162
      8.38872     10.86731     14.93284         0.009771     -0.011551     -0.007512
     11.01821     11.52514     14.63661         0.000072     -0.007017     -0.012512
     12.53097     10.03765     12.87762         0.030321      0.003047      0.008584
     11.78268     13.06654     12.49919         0.000959      0.009991     -0.001646
 -----------------------------------------------------------------------------------
    total drift:                                0.035793      0.064460      0.023542


--------------------------------------------------------------------------------------------------------



  FREE ENERGIE OF THE ION-ELECTRON SYSTEM (eV)
  ---------------------------------------------------
  free  energy   TOTEN  =       -34.70024120 eV

  energy  without entropy=      -34.70024120  energy(sigma->0) =      -34.70024120
 
 d Force =-0.2160502E-04[-0.928E-04, 0.496E-04]  d Energy =-0.3209877E-04 0.105E-04
 d Force =-0.3107881E+00[-0.311E+00,-0.311E+00]  d Ewald  =-0.3107881E+00-0.625E-07


--------------------------------------------------------------------------------------------------------


    POTLOK:  cpu time    0.30: real time    0.30


--------------------------------------------------------------------------------------------------------




--------------------------------------------------------------------------------------------------------


  
 reached required accuracy - stopping structural energy minimisation
     LOOP+:  cpu time    7.30: real time    7.40
    4ORBIT:  cpu time    0.00: real time    0.00

 total amount of memory used by VASP on root node    64097. kBytes
========================================================================

   base      :      30000. kBytes
   nonl-proj :       2441. kBytes
   fftplans  :       7250. kBytes
   grid      :      18544. kBytes
   one-center:         46. kBytes
   wavefun   :       5816. kBytes
 
  
  
 General timing and accounting informations for this job:
 ========================================================
  
                  Total CPU time used (sec):      509.696
                            User time (sec):      504.400
                          System time (sec):        5.296
                         Elapsed time (sec):      541.277
  
                   Maximum memory used (kb):       80168.
                   Average memory used (kb):           0.
  
                          Minor page faults:       869984
                          Major page faults:            0
                 Voluntary context switches:         7242
