10
Energy = -70.30264322 eV
V 8.3489891519951 7.825469857442529 5.802273350734515
V 6.4840840094340395 9.104959447097155 6.9529153023808705
V 6.684042610754953 6.7590239962811 6.2140156251103775
V 8.66327944536975 9.603128867418205 7.135919872828994
V 8.780084134813436 6.029498210467197 7.444456854137703
V 6.6998667999064745 5.7603977449053 8.227096579775065
V 9.654721694291709 7.775499957087077 7.978621328926665
V 7.789888008531395 9.056880144012052 9.12879673851125
V 7.905498716949533 7.090813868303897 9.578409968592243
V 5.803469700337533 7.8082521793696875 8.35141865138692
