15
Energy = -106.02250339 eV
V 10.669105661394235 8.94062405876656 6.770561702498492
V 8.460343634700973 7.991272299031524 5.728732229288537
V 10.699813005097502 7.130466018077832 5.57217594304436
V 8.338842214995447 9.466815226940227 7.393638852009517
V 8.518053241848095 5.899902682397558 6.027017724020762
V 10.321917241349034 6.555783795074944 7.491830727222341
V 6.204876275455246 7.884269432557134 7.361387516725
V 6.025388947069897 9.726642297004634 8.661176646655179
V 5.99909855171864 7.470599171585909 9.802613805604013
V 7.9139562524270595 7.010528499312086 8.204256430362431
V 9.718126277315402 8.508221993123373 8.907011255054446
V 8.2385344777671 10.542912520389386 9.51236409025501
V 7.910229795488101 7.608503303723784 10.639741564035075
V 6.2749674895440934 9.555881653888877 10.702680495192267
V 8.660079115893785 9.660909230190358 11.178143200096743
