15
Energy = -106.58086144 eV
V 13.070850420121007 11.98555933797788 12.294860863563814
V 11.361717759733263 10.662998613734707 13.137323034497369
V 13.244194583291192 9.956646263490555 10.86486674767039
V 11.074087551436197 13.046738808011593 12.185316909410869
V 12.678560498467125 12.389498473911786 10.221071314436015
V 9.489414838719291 11.756833322228044 13.048423923174541
V 11.00794483853003 10.922023637849312 10.842981640212432
V 9.249241366263039 9.5656461029211 11.788293512430233
V 12.805789358850122 10.116715420249426 8.951060163559827
V 8.941882777915035 12.1478270448706 10.611419867891165
V 11.104657534019202 8.539126088692132 9.878827795792297
V 10.511067332548302 11.053146633837999 8.591783480885773
V 8.871141465531897 9.844362841782837 9.441160502103951
V 7.558306401150094 10.870496453685893 11.490882708752796
V 10.73595469778361 8.708374118208747 7.989865522279568
