4
Energy = -23.89419329 eV
V 9.888657802554924 8.02906694644805 9.51605187533097
V 8.302637927606815 8.652078843250129 9.807512994182359
V 9.643066016793197 10.264135341488187 8.180596574563609
V 9.93260710932007 10.677417912867059 9.83773084484307
