8
Energy = -54.22907797 eV
V 8.925984984250372 11.631417835538814 11.222663077788384
V 8.925468905066362 10.696123130580222 9.644716875890484
V 10.958875300200079 12.040062860407929 9.811066219162566
V 10.570329825658941 9.694887785989936 11.37298690860454
V 11.24699444450383 9.559036236214988 9.496982966714295
V 11.212354808199283 12.469053700918728 11.668854819105155
V 12.832203476350177 10.620061580382961 10.997295648500522
V 12.294477751547932 10.676378349977679 12.819674699627464
