   41   41 1000    2
  0.3143893E+03  0.2344682E-08  0.2344682E-08  0.2344682E-08  0.1000000E-15
  1.000000000000000E-004
  CAR 
 unknown system                          
    451      1    292
 
  0.0000000E+00  0.0000000E+00  0.0000000E+00  0.1000000E+01
    1       -9.724736     -9.710628
    2       -9.255536     -9.246631
    3       -9.150178     -9.144364
    4       -9.110513     -9.101600
    5       -9.081101     -9.072822
    6       -9.065774     -9.058612
    7       -9.045346     -9.038805
    8       -9.013777     -9.005203
    9       -9.010890     -9.003585
   10       -8.981626     -8.974093
   11       -8.945216     -8.935112
   12       -8.920134     -8.911417
   13       -8.918232     -8.909455
   14       -8.861981     -8.855143
   15       -8.847645     -8.838069
   16       -8.831172     -8.821567
   17       -8.797894     -8.791758
   18       -8.791620     -8.782490
   19       -8.777131     -8.768230
   20       -8.756395     -8.747238
   21       -8.732909     -8.725998
   22       -8.710318     -8.703282
   23       -8.704803     -8.696708
   24       -8.687454     -8.679663
   25       -8.666884     -8.657202
   26       -8.659644     -8.652733
   27       -8.631293     -8.621279
   28       -8.612578     -8.605441
   29       -8.603089     -8.595363
   30       -8.574298     -8.565967
   31       -8.546941     -8.536384
   32       -8.537924     -8.528762
   33       -8.509421     -8.498922
   34       -8.497569     -8.490018
   35       -8.495080     -8.486804
   36       -8.475964     -8.467454
   37       -8.466769     -8.458626
   38       -8.425256     -8.416971
   39       -8.408755     -8.401005
   40       -8.384140     -8.374512
   41       -8.381799     -8.371897
   42       -8.359253     -8.351470
   43       -8.337761     -8.329141
   44       -8.328426     -8.319363
   45       -8.315665     -8.307185
   46       -8.299394     -8.291614
   47       -8.276549     -8.268589
   48       -8.258693     -8.250377
   49       -8.250725     -8.242945
   50       -8.236364     -8.226213
   51       -8.211706     -8.203741
   52       -8.204888     -8.196959
   53       -8.190422     -8.182771
   54       -8.183404     -8.174346
   55       -8.162541     -8.155965
   56       -8.149114     -8.139809
   57       -8.131074     -8.122525
   58       -8.096337     -8.088414
   59       -8.092481     -8.086013
   60       -8.089086     -8.081233
   61       -8.070446     -8.064472
   62       -8.058879     -8.050954
   63       -8.042047     -8.033582
   64       -8.014252     -8.005093
   65       -8.006721     -7.998548
   66       -7.992957     -7.986179
   67       -7.974592     -7.967488
   68       -7.962823     -7.955323
   69       -7.953555     -7.946776
   70       -7.935486     -7.927328
   71       -7.917288     -7.910506
   72       -7.910166     -7.902116
   73       -7.895717     -7.889515
   74       -7.876516     -7.869697
   75       -7.862679     -7.856505
   76       -7.843527     -7.836027
   77       -7.826173     -7.818299
   78       -7.818752     -7.810631
   79       -7.794937     -7.786611
   80       -7.784558     -7.775822
   81       -7.765367     -7.757866
   82       -7.742686     -7.735330
   83       -7.731118     -7.723507
   84       -7.707311     -7.699648
   85       -7.698916     -7.691349
   86       -7.685969     -7.680738
   87       -7.645338     -7.637690
   88       -7.631572     -7.624179
   89       -7.622324     -7.614971
   90       -7.606893     -7.600869
   91       -7.602423     -7.594878
   92       -7.588072     -7.581108
   93       -7.581640     -7.575170
   94       -7.568035     -7.559510
   95       -7.563128     -7.555020
   96       -7.530090     -7.522592
   97       -7.520071     -7.512475
   98       -7.506402     -7.500305
   99       -7.495838     -7.488408
  100       -7.483075     -7.475134
  101       -7.474650     -7.465682
  102       -7.457932     -7.450626
  103       -7.444469     -7.438256
  104       -7.436317     -7.428977
  105       -7.409584     -7.402922
  106       -7.389409     -7.383236
  107       -7.367709     -7.359583
  108       -7.362190     -7.356310
  109       -7.340786     -7.333746
  110       -7.323533     -7.316364
  111       -7.310032     -7.303222
  112       -7.297875     -7.289877
  113       -7.270931     -7.263892
  114       -7.259230     -7.252876
  115       -7.245423     -7.239463
  116       -7.221960     -7.215389
  117       -7.191493     -7.185557
  118       -7.186898     -7.179689
  119       -7.179588     -7.171206
  120       -7.161948     -7.154663
  121       -7.149013     -7.142510
  122       -7.139084     -7.130959
  123       -7.136989     -7.129783
  124       -7.123430     -7.117621
  125       -7.101800     -7.093725
  126       -7.081912     -7.074090
  127       -7.076818     -7.071130
  128       -7.066761     -7.057898
  129       -7.052397     -7.046583
  130       -7.044445     -7.038194
  131       -7.036140     -7.027240
  132       -7.026633     -7.019690
  133       -7.010812     -7.004052
  134       -7.001271     -6.991585
  135       -6.993683     -6.987658
  136       -6.971156     -6.963922
  137       -6.967656     -6.961611
  138       -6.956804     -6.950608
  139       -6.937966     -6.930780
  140       -6.934447     -6.928655
  141       -6.919838     -6.912964
  142       -6.909546     -6.903319
  143       -6.888861     -6.882663
  144       -6.886036     -6.879139
  145       -6.881696     -6.875665
  146       -6.873145     -6.867308
  147       -6.858438     -6.848395
  148       -6.846693     -6.837672
  149       -6.840748     -6.834183
  150       -6.833662     -6.827257
  151       -6.827443     -6.821506
  152       -6.824178     -6.817572
  153       -6.809443     -6.802393
  154       -6.790262     -6.784675
  155       -6.784463     -6.778660
  156       -6.769921     -6.761851
  157       -6.764098     -6.757170
  158       -6.754274     -6.746247
  159       -6.747693     -6.741747
  160       -6.732690     -6.724046
  161       -6.726291     -6.719916
  162       -6.705265     -6.699862
  163       -6.695062     -6.688859
  164       -6.685985     -6.681017
  165       -6.683163     -6.677679
  166       -6.674070     -6.668344
  167       -6.665220     -6.658134
  168       -6.648538     -6.642247
  169       -6.643365     -6.636600
  170       -6.638066     -6.632445
  171       -6.624011     -6.618560
  172       -6.619469     -6.611638
  173       -6.601305     -6.595127
  174       -6.593963     -6.587368
  175       -6.591527     -6.584358
  176       -6.567752     -6.561953
  177       -6.560174     -6.554495
  178       -6.550653     -6.543071
  179       -6.538348     -6.532038
  180       -6.526967     -6.522289
  181       -6.520568     -6.514732
  182       -6.516861     -6.512054
  183       -6.516515     -6.508973
  184       -6.496386     -6.491254
  185       -6.486117     -6.480522
  186       -6.481699     -6.475016
  187       -6.464447     -6.457700
  188       -6.449906     -6.443499
  189       -6.441648     -6.435165
  190       -6.432564     -6.426847
  191       -6.431364     -6.426661
  192       -6.419614     -6.413630
  193       -6.407215     -6.401244
  194       -6.403756     -6.397028
  195       -6.384985     -6.378064
  196       -6.381002     -6.374771
  197       -6.370376     -6.363690
  198       -6.360530     -6.353215
  199       -6.336804     -6.330924
  200       -6.327955     -6.321341
  201       -6.322066     -6.314974
  202       -6.292266     -6.286060
  203       -6.282168     -6.275919
  204       -6.260680     -6.255408
  205       -6.252233     -6.244588
  206       -6.220319     -6.215433
  207       -6.214659     -6.208305
  208       -6.177387     -6.170476
  209       -6.174117     -6.167794
  210       -6.154706     -6.149390
  211       -6.115752     -6.107119
  212       -5.865726     -5.852398
  213       -5.784819     -5.766486
  214       -5.509248     -5.480309
  215       -5.220100     -5.207655
  216       -5.085426     -5.057778
  217       -5.018392     -4.996228
  218       -4.728338     -4.713146
  219       -4.608576     -4.582305
  220       -4.295453     -4.276611
  221       -4.160974     -4.142973
  222       -3.905537     -3.882976
  223       -3.869949     -3.850836
  224       -3.651937     -3.637848
  225       -3.606391     -3.591289
  226       -3.376377     -3.288524
  227       -3.194192     -3.171408
  228       -3.082413     -3.061053
  229       -2.972655     -2.949740
  230       -2.872119     -2.850382
  231       -2.665800     -2.647489
  232       -2.516460     -2.498497
  233       -2.374797     -2.352591
  234       -2.292294     -2.269300
  235       -2.201737     -2.157429
  236       -2.123400     -2.107076
  237       -2.038268     -2.014631
  238       -1.956611     -1.929121
  239       -1.833621     -1.807229
  240       -1.762874     -1.735046
  241       -1.664298     -1.631251
  242       -1.592442     -1.565296
  243       -1.469264     -1.417477
  244       -1.368467     -1.348027
  245       -1.244591     -1.227099
  246       -1.156034     -1.131421
  247       -1.106420     -1.084939
  248       -0.980898     -0.949122
  249       -0.941414     -0.919698
  250       -0.875920     -0.851927
  251       -0.627887     -0.602217
  252       -0.546521     -0.519291
  253       -0.469191     -0.448714
  254       -0.399140     -0.369422
  255       -0.341187     -0.312714
  256       -0.300401     -0.280832
  257       -0.174587     -0.147237
  258       -0.077243     -0.048068
  259       -0.031100     -0.008856
  260        0.015246      0.050709
  261        0.066543      0.091556
  262        0.118591      0.141379
  263        0.205649      0.228920
  264        0.229159      0.250882
  265        0.397583      0.438565
  266        0.508149      0.531955
  267        0.572640      0.593410
  268        0.591115      0.603988
  269        0.685454      0.709446
  270        0.733524      0.741909
  271        0.752863      0.755095
  272        0.778383      0.792421
  273        0.817815      0.822481
  274        0.865690      0.871582
  275        0.900811      0.903120
  276        0.937271      0.947017
  277        0.953930      0.977398
  278        0.973304      0.988540
  279        1.002412      1.011068
  280        1.020109      1.022685
  281        1.024584      1.038369
  282        1.043191      1.043754
  283        1.069310      1.067477
  284        1.078424      1.099310
  285        1.135591      1.153479
  286        1.157736      1.170725
  287        1.180209      1.187536
  288        1.224790      1.231474
  289        1.253850      1.256447
  290        1.257470      1.271676
  291        1.297566      1.295269
  292        1.306753      1.320583
