 running on   32 total cores
 distrk:  each k-point on   32 cores,    1 groups
 distr:  one band on    8 cores,    4 groups
 using from now: INCAR     
 vasp.5.3.5 31Mar14 (build Feb 01 2018 12:10:03) gamma-only                     
  
 POSCAR found type information on POSCAR  Ag
 POSCAR found :  1 types and       7 ions
 scaLAPACK will be used
 LDA part: xc-table for Pade appr. of Perdew
 POSCAR, INCAR and KPOINTS ok, starting setup
 WARNING: small aliasing (wrap around) errors must be expected
 FFT: planning ...
 WAVECAR not read
 entering main loop
       N       E                     dE             d eps       ncg     rms          rms(c)
DAV:   1     0.665400292692E+03    0.66540E+03   -0.11226E+04   208   0.513E+02
DAV:   2     0.271610586210E+03   -0.39379E+03   -0.34554E+03   384   0.890E+01
DAV:   3     0.196625950519E+02   -0.25195E+03   -0.23234E+03   328   0.844E+01
DAV:   4    -0.107177508726E+02   -0.30380E+02   -0.29040E+02   260   0.342E+01
DAV:   5    -0.113165533180E+02   -0.59880E+00   -0.59806E+00   240   0.602E+00    0.132E+01
DAV:   6    -0.251650491453E+01    0.88000E+01   -0.23725E+01   216   0.126E+01    0.616E+00
DAV:   7     0.756920331015E+00    0.32734E+01   -0.16358E+00   232   0.339E+00    0.348E+00
DAV:   8    -0.191464788600E+01   -0.26716E+01   -0.11517E+00   232   0.275E+00    0.177E+00
DAV:   9    -0.490709824737E+01   -0.29925E+01   -0.11112E+00   220   0.236E+00    0.101E+00
DAV:  10    -0.796914148865E+01   -0.30620E+01   -0.12933E+00   208   0.261E+00    0.658E-01
DAV:  11    -0.938342292749E+01   -0.14143E+01   -0.43616E-01   228   0.117E+00    0.432E-01
DAV:  12    -0.106036598940E+02   -0.12202E+01   -0.33758E-01   216   0.108E+00    0.203E-01
DAV:  13    -0.110052448999E+02   -0.40159E+00   -0.54139E-02   224   0.407E-01    0.113E-01
DAV:  14    -0.111711724914E+02   -0.16593E+00   -0.87511E-03   216   0.170E-01    0.648E-02
DAV:  15    -0.112288013426E+02   -0.57629E-01   -0.33573E-03   204   0.951E-02    0.294E-02
DAV:  16    -0.112460925033E+02   -0.17291E-01   -0.14719E-03   184   0.576E-02    0.163E-02
DAV:  17    -0.112491449307E+02   -0.30524E-02   -0.57751E-04   192   0.369E-02    0.996E-03
DAV:  18    -0.112515220731E+02   -0.23771E-02   -0.38252E-04   152   0.270E-02    0.621E-03
DAV:  19    -0.112522140566E+02   -0.69198E-03   -0.85955E-05   168   0.160E-02    0.466E-03
DAV:  20    -0.112525386482E+02   -0.32459E-03   -0.48803E-05   152   0.111E-02    0.258E-03
DAV:  21    -0.112526030695E+02   -0.64421E-04   -0.12757E-05   172   0.662E-03
   1 F= -.11252603E+02 E0= -.11252603E+02  d E =-.112526E+02  mag=     1.0002
 curvature:   0.00 expect dE= 0.000E+00 dE for cont linesearch  0.000E+00
 trial: gam= 0.00000 g(F)=  0.736E-02 g(S)=  0.000E+00 ort = 0.000E+00 (trialstep = 0.100E+01)
 search vector abs. value=  0.736E-02
 bond charge predicted
       N       E                     dE             d eps       ncg     rms          rms(c)
DAV:   1    -0.112594979580E+02   -0.69593E-02   -0.50180E-01   220   0.260E+00    0.652E-02
DAV:   2    -0.112597916942E+02   -0.29374E-03   -0.25205E-03   240   0.251E-01    0.399E-02
DAV:   3    -0.112598287836E+02   -0.37089E-04   -0.44812E-05   136   0.301E-02
   2 F= -.11259829E+02 E0= -.11259829E+02  d E =-.722571E-02  mag=     1.0001
 ZBRENT: can't locate minimum, use default step
 trial-energy change:   -0.007226  1 .order   -0.007002   -0.007362   -0.006642
 step:   4.0000(harm= 10.2337)  dis= 0.01237  next Energy=   -11.290272 (dE=-0.377E-01)
 bond charge predicted
       N       E                     dE             d eps       ncg     rms          rms(c)
DAV:   1    -0.112756794273E+02   -0.15888E-01   -0.45257E+00   216   0.780E+00    0.208E-01
DAV:   2    -0.112778702011E+02   -0.21908E-02   -0.23070E-02   232   0.756E-01    0.121E-01
DAV:   3    -0.112778952899E+02   -0.25089E-04   -0.45836E-04   228   0.909E-02
   3 F= -.11277895E+02 E0= -.11277895E+02  d E =-.252922E-01  mag=     1.0000
 curvature:  -2.78 expect dE=-0.979E-02 dE for cont linesearch -0.975E-02
 ZBRENT: increasing intervall
 opt :  10.0000  next Energy=   -11.298976 (dE=-0.464E-01)
 bond charge predicted
       N       E                     dE             d eps       ncg     rms          rms(c)
DAV:   1    -0.112892221381E+02   -0.11352E-01   -0.18105E+01   208   0.156E+01    0.455E-01
DAV:   2    -0.112979196178E+02   -0.86975E-02   -0.93594E-02   232   0.151E+00    0.253E-01
DAV:   3    -0.112979591963E+02   -0.39579E-04   -0.19611E-03   224   0.186E-01    0.140E-01
DAV:   4    -0.112980281175E+02   -0.68921E-04   -0.26680E-04   192   0.737E-02
   4 F= -.11298028E+02 E0= -.11298028E+02  d E =-.454250E-01  mag=     1.0000
 curvature:  -6.02 expect dE=-0.242E-02 dE for cont linesearch -0.179E-02
 ZBRENT: extrapolating
 opt :  12.4655  next Energy=   -11.299851 (dE=-0.472E-01)
 bond charge predicted
       N       E                     dE             d eps       ncg     rms          rms(c)
DAV:   1    -0.112981563339E+02   -0.19714E-03   -0.30458E+00   216   0.640E+00    0.190E-01
DAV:   2    -0.112996430741E+02   -0.14867E-02   -0.15743E-02   232   0.623E-01    0.113E-01
DAV:   3    -0.112996840931E+02   -0.41019E-04   -0.31683E-04   184   0.779E-02
   5 F= -.11299684E+02 E0= -.11299684E+02  d E =-.470810E-01  mag=     1.0000
 curvature:  -6.14 expect dE=-0.113E-02 dE for cont linesearch -0.131E-03
 trial: gam= 0.07889 g(F)=  0.184E-03 g(S)=  0.000E+00 ort =-0.396E-03 (trialstep = 0.329E+01)
 search vector abs. value=  0.167E-03
 bond charge predicted
       N       E                     dE             d eps       ncg     rms          rms(c)
DAV:   1    -0.113001550196E+02   -0.51195E-03   -0.12350E-01   228   0.129E+00    0.243E-02
DAV:   2    -0.113002427549E+02   -0.87735E-04   -0.63985E-04   232   0.129E-01
   6 F= -.11300243E+02 E0= -.11300243E+02  d E =-.558662E-03  mag=     1.0000
 trial-energy change:   -0.000559  1 .order   -0.000410   -0.000504   -0.000317
 step:   8.8938(harm=  8.8938)  dis= 0.00436  next Energy=   -11.300364 (dE=-0.680E-03)
 bond charge predicted
       N       E                     dE             d eps       ncg     rms          rms(c)
DAV:   1    -0.113007088719E+02   -0.55385E-03   -0.35854E-01   216   0.220E+00    0.337E-02
DAV:   2    -0.113008890164E+02   -0.18014E-03   -0.17783E-03   232   0.216E-01    0.271E-02
DAV:   3    -0.113008941162E+02   -0.50998E-05   -0.26425E-05   156   0.262E-02
   7 F= -.11300894E+02 E0= -.11300894E+02  d E =-.121002E-02  mag=     1.0000
 curvature:  -4.87 expect dE=-0.206E-03 dE for cont linesearch -0.131E-03
 trial: gam=-0.22740 g(F)=  0.424E-04 g(S)=  0.000E+00 ort = 0.671E-04 (trialstep = 0.441E+01)
 search vector abs. value=  0.205E-04
 reached required accuracy - stopping structural energy minimisation
Application 91034177 resources: utime ~790s, stime ~42s, Rss ~50936, inblocks ~81127, outblocks ~149855
