13
Energy = -58.27642755 eV
Si 12.08722880762317 9.5685773477894 13.401878847595711
Si 11.808258411384505 9.72998584193598 9.379453932738715
Si 12.34669609121014 10.996605096827219 11.432862014208135
Si 11.155532641708998 8.589206689932102 11.449200502609653
Si 10.252171961683501 11.544714263641355 10.350061276151049
Si 8.822753051542344 9.342191991655868 10.81737631080006
Si 12.090866304298412 10.271548932606496 7.119374127303976
Si 10.71922418760071 12.001690146082625 8.080058994436293
Si 9.598693169435624 9.701679811032262 8.478953395718868
Si 7.515358465679678 9.724346626522477 12.713226506637302
Si 8.446677864549002 11.822401855636981 11.817224597411778
Si 9.918471642463423 10.355150074101097 12.93859555777533
Si 9.589311869536983 10.73900661567907 6.407651322884382
