18
Energy = -81.79279249 eV
Si 11.253883286881461 9.812868724916559 14.419728074486839
Si 12.792882830407377 10.338651169003754 12.605762618417948
Si 10.539321042019061 12.001306602872873 14.901100100437649
Si 12.04605741093536 8.408085850994429 11.324497823837008
Si 8.725077837907822 10.670628957246757 13.830216716627922
Si 11.512382560422333 13.702966412125779 13.316278257537522
Si 11.276845388666992 10.345897255388822 9.837397095916932
Si 11.722388328439086 12.065417483077495 11.37201248744282
Si 10.373945919294924 10.040044890119706 12.062180401762824
Si 11.352990798044138 15.779161729711271 12.154354370284768
Si 9.387330848648237 12.60637244371127 12.63293572801618
Si 12.246164341357655 8.23280337292704 8.91519478931945
Si 9.318142067530616 14.906778285579291 12.95814916450246
Si 10.399836694756594 14.030723478596252 10.772809873502734
Si 12.933520809386613 9.013382744143176 6.820641677847562
Si 10.730838372867147 7.353602593403645 7.403545521540695
Si 10.717783059350792 9.816920647997124 7.643776966022309
Si 10.947771951372468 8.800551489282455 5.499343415156616
