11
Energy = -48.8243939 eV
Si 11.322374058964192 12.619101402713085 9.891370346929284
Si 10.227353175248087 13.978976090903041 8.306204630390749
Si 11.757455513890605 10.48827832631234 8.59804193767551
Si 9.871392430545018 12.154164983098143 11.736533348204183
Si 11.455642434857822 8.932839936054807 10.425222051206646
Si 8.772902816226392 13.121022374097823 9.871214001679675
Si 9.385855946057653 7.661897900394795 10.860724409410059
Si 11.33400700139632 8.420511943074672 12.809838487306314
Si 9.56074840888479 10.978763666935187 9.349921283022583
Si 11.541910232542284 6.67580408318502 11.142676699217004
Si 9.68571234865397 9.767685520445527 11.830173424579359
