19
Energy = -88.83701767 eV
Si 9.112128505555576 8.256851153190167 6.846619564052677
Si 10.987217695525597 9.85484932033771 6.888583218717577
Si 9.651142528267837 11.989632683353433 6.856065668803865
Si 12.26003603163936 11.895179884481811 7.656684402250419
Si 8.699249972186008 10.155536709616825 8.202076706816781
Si 10.313635164765888 7.984232095501411 8.841598402217667
Si 12.444655795820657 8.132284093092194 7.870823491640054
Si 10.75482929276051 13.699531258547026 8.11580124005355
Si 12.158667806426626 10.027185464750845 9.265978194005656
Si 10.301615337000081 11.751803854414748 9.36453982106405
Si 8.49400896127251 9.807878763524025 10.610365002747747
Si 10.963277247394235 9.72914051140252 11.380593969343852
Si 9.627888255301682 7.719110738395911 11.116190220252514
Si 9.506338500232138 11.675276085382645 11.887372845034388
Si 7.145866300533079 10.769251769354725 12.260920788243595
Si 11.166837176637507 10.633897644577813 13.528744422992345
Si 7.730723112362735 8.248718577982388 12.531504604629776
Si 10.376387005306187 8.169792934514748 13.381039704080443
Si 8.810807945658418 10.005159092225973 13.899810367699821
