14
Energy = -63.60484442 eV
Si 8.785793983614086 12.058948909884865 8.03843788340332
Si 8.554544672285461 10.742094273588739 10.194613699890366
Si 8.083132860048254 13.202444941583511 10.537700338124095
Si 10.202770180725391 12.509303699305903 9.857907773870371
Si 12.40962449403477 9.79442025889358 9.604249496258745
Si 9.199109931103237 9.85701528735878 12.397003076723948
Si 10.185741649342951 8.848952501006206 10.140287179338987
Si 14.294071498742218 8.696876250141878 10.608640019531466
Si 6.690469459539251 11.718551514936818 9.204437427816032
Si 10.144466563771239 7.541838525064395 12.15672573126863
Si 12.559618524300369 12.160442490768881 9.947261223705127
Si 11.186722804923543 10.790731760519222 11.639822990591414
Si 12.30692249151144 8.501361553269058 11.858257901383169
Si 13.543393992292641 10.728231541468803 11.862407614379423
