23
Energy = -102.73523567 eV
Si 15.144871775210943 17.884994528116792 19.480071255914993
Si 18.35432017496691 16.11717376032542 14.947886721740906
Si 14.540214307057965 19.750287772035698 18.00823938742489
Si 15.92757272041946 15.087917855478613 12.058999545809638
Si 14.483784122253219 16.120205642259787 18.10364454206744
Si 16.494347072391164 14.45576995394634 14.288155682626178
Si 18.855516036400736 16.432265979001972 17.299076650901657
Si 12.303917712929332 14.811756612995957 14.868500220414571
Si 13.694965996875256 18.898139067067696 15.93623099515412
Si 15.395192759384292 16.96766969869484 15.538796339826359
Si 18.658803473003378 3.342625312020757 16.006276574590043
Si 14.20877276776964 15.474988629864356 13.592743577423908
Si 16.889913736371113 15.25818048363154 16.812125148622545
Si 16.183733211232976 19.331781503595302 16.306912459208238
Si 16.782153257521465 17.57762301360431 17.827148194137525
Si 15.48909218367338 17.356571061626585 12.97972071806122
Si 15.2963918015175 13.851143056631491 17.88392390917465
Si 18.523700742965254 5.198575481864309 14.683326134138827
Si 17.27846586815091 18.18355258978983 14.270655586564356
Si 13.026721872263437 16.627123328142027 16.323088565313085
Si 14.860450319903546 19.490315339972373 13.90519747681693
Si 14.405952112482103 14.237275094660166 15.745251856257557
Si 16.993452104013706 20.549055032023166 14.432702179873484
