22
Energy = -102.00321 eV
Si 11.332729350012302 11.77956115740135 7.0864928112212615
Si 10.32588675060544 12.266209857541154 9.330758375388204
Si 9.000573760101313 11.127709829345134 6.840709379410575
Si 7.915783964638739 12.080823638574715 8.88383870343238
Si 11.481913021663235 9.300848588891066 7.125991412997422
Si 12.375013176829135 10.825098058805981 9.065868271366654
Si 9.746803645227507 10.093856266347121 10.214531586023519
Si 6.022737828478295 11.189321784515633 9.991006836561578
Si 12.877823097277615 8.368690974357056 8.836571558794946
Si 9.127915238195781 8.801053497856481 7.181708735981888
Si 6.924736688111566 12.245977915426426 6.645147666005484
Si 9.357511218942681 5.287374027935365 12.51273122806923
Si 11.758761059698157 9.138519313406603 11.215786307203686
Si 7.524732793691417 9.592204539506062 11.105336798681474
Si 6.560838918135448 10.22846538968343 7.880047835779523
Si 10.557143565474696 7.93197697659476 9.294551007333908
Si 7.975177245704884 7.867822710352606 9.511723827867584
Si 6.951224723768754 7.880977816357097 7.404085176020943
Si 9.414963231999979 9.454314520801278 12.648251450250097
Si 10.503673507859906 7.262100999455845 12.043237086894896
Si 9.355366155147395 6.0003486456722746 10.146996097188703
Si 8.017470140945411 7.256617238888082 11.959640228709917
