31
Energy = -146.04548956 eV
Si 11.459599203628974 11.374084372749648 6.459839399404799
Si 9.35715167258136 10.843146598573872 7.641968385070968
Si 8.220490021521094 8.803680102556228 8.049646996530942
Si 13.2861286033175 9.532210248189381 7.446156184698048
Si 8.504141597965178 12.635030403996332 8.959392053846216
Si 11.76360268112601 13.15142930267121 8.2224167145597
Si 11.938932247455487 8.022331939158368 8.87432343597207
Si 9.724160985317136 7.019899248260386 8.955417911875676
Si 9.960890965373054 14.587637913845551 9.210159409667462
Si 11.613657577079366 10.660738182730855 8.797162088545374
Si 9.923571328949837 9.265475869172963 9.749901804273376
Si 6.548915042027214 11.988748374551847 10.301683615504668
Si 7.130696150613034 9.621521638423477 10.09800303937027
Si 13.955016752676762 10.775445223443146 9.496269831703772
Si 13.75097055790173 13.130791845856434 9.48539322321352
Si 8.785311057809169 11.108984599542149 10.97198299567441
Si 12.501910755088353 8.159385626245175 11.220241810525724
Si 12.168085409891253 10.631727069276668 11.22926422598015
Si 10.682749933784917 12.475850337001892 10.331625293705704
Si 12.685452128916737 13.1022513333787 11.58514561238884
Si 14.416490549561422 9.622904451488848 11.678532631359502
Si 10.629634917273945 14.440026077548684 11.79648947863708
Si 10.2197147718228 8.989283317961412 12.188071222063886
Si 11.330816514928626 7.0282036029331465 13.062819274558937
Si 7.79008219152904 9.312096837928795 12.44125735520507
Si 7.18433554963829 11.765921548829313 12.794358191496283
Si 13.339714438794372 11.414710576392483 13.221411961221333
Si 9.520200225771037 12.508307520970385 12.816102630959039
Si 11.039861142907787 10.814069096994526 13.579280472604815
Si 8.851227539618115 7.450284731841393 13.62677489310566
Si 10.691621203646566 8.73895572600319 14.684041574793023
