34
Energy = -160.53370314 eV
Si 9.359491275128454 11.380076878120283 7.043027592480409
Si 13.467986721277265 10.30857746772378 7.422850400548657
Si 11.184048297984003 9.934785614264774 7.622390272230867
Si 10.528015453918382 7.666098946335783 7.40073866445787
Si 14.37323349028142 12.30317047655574 8.264052992702682
Si 10.093172483345173 13.093205913616849 8.537508054158193
Si 7.475236460978179 10.151648813798479 8.015354245524568
Si 12.399745770166168 13.536878521464182 8.822282597045291
Si 8.062114056670747 7.727577976828865 7.960645138902723
Si 6.8773951154389215 10.787208927531697 10.325120714311975
Si 12.587104069777302 11.094128828396551 9.63634169130608
Si 8.707278793057958 14.634158032521318 9.579853598283592
Si 14.90295481913411 9.900104977532433 9.319751197388292
Si 9.648152176691502 8.58500925077819 9.548451836546297
Si 11.67541980241187 7.213679771591256 9.508182429811487
Si 9.363834146361008 10.91810718327973 9.477661180533147
Si 7.817093601010858 7.018504743548331 10.388322526597427
Si 10.07063341719772 6.690497259528638 11.079493524340958
Si 13.12062864616312 8.8586173504816 10.508029100146862
Si 12.823104240660658 14.956176288199108 10.782334056026588
Si 10.542099782251837 14.472608149737702 11.131700844882053
Si 8.166511155585688 12.689406604876961 10.822341417709021
Si 7.926404548860881 9.047671482221585 11.734991345078278
Si 12.685828742058195 12.714953464673844 11.538323773893202
Si 10.230408465548344 9.612087928186213 12.153480687052895
Si 10.461450210671726 11.999363396411066 12.173402782376726
Si 10.628654270635002 7.352838285686791 13.243451068356373
Si 12.423196182823723 8.857601803412749 12.778922697413899
Si 8.977081849667554 13.840946627323623 12.850423396945256
Si 8.778384243014472 8.78083187966958 14.014990873956721
Si 12.578376654789475 12.161899683373255 13.852496777834896
Si 10.442242439149956 10.438852376349457 14.576375052726627
Si 10.34187148910233 12.782569948277908 14.551069346555254
Si 12.797390615582701 10.00669863509747 14.852181609271538
