36
Energy = -170.54229443 eV
Si 13.426597508732472 9.956375191057393 5.828101131991164
Si 13.742390248456466 12.381505297217725 5.890001702604454
Si 15.494734083061358 10.907795173073144 6.9634546417343515
Si 12.059213932639553 11.330701811986476 7.380951743662323
Si 13.696573570500947 9.865888699990371 8.264543933691685
Si 14.028227521217152 12.301352450882677 8.33587666028489
Si 9.875433925844085 11.34351110652324 8.276283780298476
Si 10.606902185344891 9.876115615838113 9.950232731699998
Si 12.699241580019477 8.909671834775878 10.168739831576078
Si 10.464090876950758 12.80154761849874 10.018076558912812
Si 13.296239290529893 13.345102703828594 10.343174529419265
Si 11.481541989890784 14.883418679250617 9.899277258941982
Si 12.910056031455063 7.414024720130739 12.042924222707626
Si 13.360574883809495 11.042016497910117 11.164385743952696
Si 14.103653897752933 14.685867419863774 12.209953857305226
Si 10.297297544848591 13.774583946339842 13.68573974120972
Si 11.942932382281533 10.167602769812168 15.043403920086373
Si 9.718226204336545 11.86143095454204 12.026737077330251
Si 8.024053465537987 12.843484516012198 13.539576964808234
Si 11.897170748530389 11.464422691694859 12.960989374167669
Si 15.645107534804106 10.577780308722158 11.706755720485955
Si 11.73817844434589 15.055720831614106 12.278549942402913
Si 9.394243678169119 9.489844617667964 11.9181460692667
Si 11.420885055386698 8.958964851633848 13.094112734282442
Si 10.317006658558673 16.369568159046754 13.846257556254757
Si 8.290285263982332 15.168745673064622 14.259512172481019
Si 13.111321186749494 13.260925342049216 13.984655669560919
Si 14.320116857916252 9.059266838255487 12.952776715143736
Si 15.305738938929364 14.026526231889484 14.201361067190176
Si 11.575424691642583 13.325245029632525 15.782960476880852
Si 15.035433540398362 11.72064631966912 13.692893651274256
Si 14.321705750959934 9.928660156087743 15.120725706199842
Si 9.1010985805875 12.590382937273505 15.689098961264495
Si 10.774985736931205 11.29844095595065 16.82616564615076
Si 10.33139412821103 15.336927283507228 15.983279189598456
Si 8.157083335560777 14.641096019579901 16.635484570050988
