35
Energy = -165.8699779 eV
Si 11.579239047612809 12.61973825031471 6.269020760199585
Si 9.351233598281858 13.526133798420657 6.865050044546939
Si 11.813525215942715 10.886904615072265 8.078232505253807
Si 9.721798995841462 10.968297945672123 6.860652859561905
Si 11.432390863870285 14.857737876282911 7.453356263527478
Si 13.32382638078018 9.130421526499209 8.545340025557046
Si 8.740882291988372 12.053362253122552 8.820853335505685
Si 12.631217006026139 13.143497470877383 8.6233772765272
Si 10.144258213809138 14.015209006291988 9.276670234160122
Si 14.288256709693867 10.929986265401551 9.804211769373678
Si 10.813134110950822 11.735624053530513 10.240636055178449
Si 8.6861249873486 10.80296926834358 11.079250744592779
Si 14.991042717939393 13.05281516323591 8.983483444659676
Si 9.652828199828994 15.159770539223256 11.251071641247272
Si 11.687009259250932 9.405261099357265 10.256307339271963
Si 6.7565102739374465 11.91167431963163 10.11912679315732
Si 9.466313814469745 8.536802009642098 10.718666182018357
Si 15.80388506906362 13.884105932067587 11.14111890511341
Si 13.569022968292195 13.274493917388243 11.085848898958613
Si 12.425979403916257 9.57771148094868 12.447882881176765
Si 15.143226356958642 11.58228767434587 11.843461926008311
Si 11.2985351106903 13.468215534297814 11.810963364110503
Si 8.102096549772863 13.332429381563868 11.528584531265802
Si 10.96523741306361 10.709448629467047 13.851664188307042
Si 9.618355028720359 8.251849972540425 13.052746146706788
Si 12.22782186906322 7.860484361129587 14.078227642125823
Si 10.853984425306935 13.23809673825129 14.125995275793482
Si 10.255314754272248 6.6547613774081045 14.699987877093331
Si 14.112027619480125 10.613364665364433 13.767737728378147
Si 8.54220692559234 9.9114680016889 14.364039244089772
Si 8.918884220919912 12.046538902513774 13.309846555221021
Si 12.713690706412406 12.012514226626884 15.193101608646108
Si 14.250711370539689 8.626620578913093 15.203002000214152
Si 12.30006008728474 9.792518446663072 15.920053138744569
Si 10.212435057614073 8.81995134243818 15.723497438243394
