31
Energy = -145.2412777 eV
Si 14.743508461107044 12.268695433013196 12.28490408835157
Si 16.188588859862 11.408952942917187 10.140391548906226
Si 15.576396685078723 10.302890310751081 7.845748783454866
Si 13.966175969231786 12.858969877113164 10.02519695052741
Si 13.847098608134031 10.405302460665787 11.180594141022313
Si 15.58012955523394 12.76927033605439 8.161755885612648
Si 12.610509011036505 13.445000902966878 12.89414369271203
Si 11.191660847788125 12.283977477728598 11.227303941792586
Si 13.564114305690513 9.293699742325892 8.884156153234843
Si 15.56382785700944 9.023853101869095 10.21373006273987
Si 10.368578310055792 8.616058291249534 12.328542893148049
Si 13.446961149989699 11.594516259806785 8.106335651137618
Si 7.997819453315925 9.168889824480534 15.279388002435862
Si 10.600811221991925 12.447439540398328 13.628334173902507
Si 11.495573574684242 10.004743204752321 10.791460699994616
Si 6.910181405198724 11.37946491334536 14.334629244802416
Si 9.21797693047397 10.286192245023166 13.623104816582407
Si 11.19967342785817 9.391975337397723 8.463537415726627
Si 11.449226050916842 11.205346333913827 6.876484374287043
Si 12.273890178397188 14.415352543854238 10.685364530255827
Si 7.642766184289609 11.435072729273315 12.09153459517752
Si 5.545628021065479 9.672816164597217 15.192770374507996
Si 8.70142768962207 8.51859544219451 10.618533807062567
Si 10.121859689836693 11.901717662352118 8.650315664144845
Si 9.23806431316728 8.033533689334032 8.314955568403986
Si 9.078999806275291 13.279322208160343 11.9855017931911
Si 9.981531657119973 13.97838875687186 9.843195894992345
Si 6.37423788159666 8.015557450248973 11.160829745140957
Si 6.762727226545522 10.204000406391556 10.330070346331961
Si 6.738175037526651 9.076438873175384 13.260061795575135
Si 8.4479121749996 10.243179232071581 8.729532692047236
