48
Energy = -228.54617338 eV
Si 10.578398530765215 14.963932932876181 6.0408244105995825
Si 11.910555669489971 11.008285726219475 6.27073287957492
Si 8.301047115585389 14.421059142639109 6.333490584737069
Si 10.246232671142439 12.700400217482562 6.713693367988715
Si 9.466265569819742 15.888573017550208 7.999480965348546
Si 11.121572717287114 9.547314275380057 7.981328634461572
Si 8.003455349791254 12.084968350019608 7.534050932807721
Si 11.87930595563197 12.07951854248278 8.419320222128208
Si 7.111394037421626 16.082578921061184 7.553085022568435
Si 8.884027678846538 8.815284300764759 8.520238216539846
Si 9.61886731868853 12.631331839405462 9.28184177641708
Si 7.573682421022788 14.094895634603374 8.782857986833811
Si 12.47509946728134 15.473496507839888 10.66542939686863
Si 10.154997768382136 14.977705690846387 10.098199792374587
Si 13.185085867279465 13.418271422615977 9.835733212742594
Si 12.58814097787553 8.695212215278756 9.647217874423422
Si 9.042799967737208 10.051446964359508 10.585862901343738
Si 11.343434506057315 10.644509389012187 10.406521519584887
Si 14.677538599686956 9.731891577442754 10.304204776291026
Si 13.629912310188963 8.534865606206573 12.267208019391411
Si 12.013412861850295 6.633835072901437 10.713282487466644
Si 15.042124554026788 12.112679009474684 10.42256245962973
Si 9.85895721639134 7.420804970062479 10.147503713708275
Si 8.07396099877208 13.553133626320067 11.11308891238938
Si 12.89657264780909 11.795320323835545 11.790607290199528
Si 16.09508141208734 8.86942973801077 11.992464128328455
Si 7.365802086253683 11.394400553833881 11.856668562109363
Si 8.764518085678747 15.593416219841297 12.006567251421917
Si 15.191880284274436 6.866280004547608 12.95711301914997
Si 11.499300567261917 7.584111220752183 12.904097601943432
Si 9.252898457593055 8.25757021829975 12.332333597781485
Si 9.584726407883553 11.78971567865181 12.751916555378461
Si 12.482001958788642 13.978845727026254 12.599243171810707
Si 15.31945964152786 12.446424232919057 12.742230154050795
Si 10.186334873327057 14.058506213943447 13.155766504391224
Si 13.949752806466918 10.53033185082833 13.65747983234569
Si 11.014054248619646 9.968033561206537 13.238628030771482
Si 16.472822875668303 10.606406237213378 13.58295417574449
Si 14.22179191924699 8.244477218687663 14.711726544241632
Si 7.6231468909066065 11.461381620617601 14.338067240863284
Si 12.114033654668848 7.168274896956157 15.184620351134244
Si 8.833196224340972 9.386300714525415 14.383572297527161
Si 14.328581581567013 14.070776554616039 14.156979064832331
Si 9.594646683282075 12.763596508490258 15.084130572250077
Si 11.56325247334155 11.385470346446668 15.24478116926334
Si 13.785730733971917 12.073853683805146 15.49322548135733
Si 15.40668554031712 10.141751241817609 15.755823040619799
Si 10.833424934578789 9.1592976007653 15.601211416747931
