44
Energy = -200.6877718 eV
Si 12.07675332 14.08695292327175 12.07675332
Si 12.07675332 17.275442036796512 12.07675332
Si 13.9810771296889 13.9810771296889 13.9810771296889
Si 12.07675332 15.793675391200386 14.086479064162672
Si 12.07675332 12.07675332 14.08695292327175
Si 12.07675332 10.066553716728249 12.07675332
Si 12.07675332 12.07675332 10.066553716728249
Si 14.08695292327175 12.07675332 12.07675332
Si 10.066553716728249 12.07675332 12.07675332
Si 12.07675332 12.07675332 17.275442036796512
Si 12.07675332 6.878064603203485 12.07675332
Si 12.07675332 12.07675332 6.878064603203485
Si 17.275442036796512 12.07675332 12.07675332
Si 6.878064603203485 12.07675332 12.07675332
Si 13.9810771296889 10.1724295103111 13.9810771296889
Si 13.9810771296889 10.1724295103111 10.1724295103111
Si 13.9810771296889 13.9810771296889 10.1724295103111
Si 10.1724295103111 13.9810771296889 10.1724295103111
Si 10.1724295103111 13.9810771296889 13.9810771296889
Si 10.1724295103111 10.1724295103111 13.9810771296889
Si 10.1724295103111 10.1724295103111 10.1724295103111
Si 12.07675332 10.067027575837328 15.793675391200386
Si 12.07675332 8.359831248799612 10.067027575837328
Si 12.07675332 14.086479064162672 8.359831248799612
Si 14.086479064162672 12.07675332 15.793675391200386
Si 15.793675391200386 12.07675332 10.067027575837328
Si 10.067027575837328 12.07675332 8.359831248799612
Si 8.359831248799612 12.07675332 14.086479064162672
Si 14.086479064162672 8.359831248799612 12.07675332
Si 15.793675391200386 14.086479064162672 12.07675332
Si 10.067027575837328 15.793675391200386 12.07675332
Si 8.359831248799612 10.067027575837328 12.07675332
Si 14.086479064162672 12.07675332 8.359831248799612
Si 15.793675391200386 12.07675332 14.086479064162672
Si 10.067027575837328 12.07675332 15.793675391200386
Si 8.359831248799612 12.07675332 10.067027575837328
Si 14.086479064162672 15.793675391200386 12.07675332
Si 15.793675391200386 10.067027575837328 12.07675332
Si 10.067027575837328 8.359831248799612 12.07675332
Si 8.359831248799612 14.086479064162672 12.07675332
Si 12.07675332 14.086479064162672 15.793675391200386
Si 12.07675332 15.793675391200386 10.067027575837328
Si 12.07675332 10.067027575837328 8.359831248799612
Si 12.07675332 8.359831248799612 14.086479064162672
