42
Energy = -199.55243372 eV
Si 15.614450118774036 7.609457263600608 14.278562088330212
Si 14.159899728953013 7.927791455299604 16.1333506646078
Si 16.99570409589039 9.65087040192459 13.826358546343167
Si 16.07220710536238 11.22390865398775 15.540042599190597
Si 14.160868263124426 10.258046592221067 16.557904272420338
Si 11.979555330989319 7.150926960543174 15.552516182491818
Si 13.335955261975336 7.611154170327532 13.63008936876609
Si 14.429015707367277 9.860580323464038 14.124062045539473
Si 12.012329878325158 11.063808279698293 17.075231868489084
Si 11.934718199602335 9.528991783280638 15.177326464595078
Si 15.526237970753602 10.419113176989947 12.048913486882235
Si 14.799752724170148 12.999552050873172 14.526224103331222
Si 12.749196422767122 12.8457516878389 15.692960271280171
Si 14.792804192318805 8.902283544084055 10.405154382373725
Si 14.571718164121632 12.593083799335362 11.972209079648707
Si 12.6556277671439 8.806796389179269 11.559276413024728
Si 15.072875191088528 14.94521626501578 13.02261017112034
Si 11.5396624405678 10.381407476857255 12.934115344564065
Si 11.340220377106661 14.282809226610132 14.499931456555533
Si 15.24818199134812 14.37014557476347 10.600351970552701
Si 12.03018013780842 12.042249386520284 10.201028873537275
Si 8.243098212641813 13.743630021447798 7.063831571042106
Si 6.730896601990767 13.885338655497133 8.917321879886417
Si 10.079213870431198 15.395000411693538 7.355560319005043
Si 9.557922648758451 16.4051128679658 9.637869955984202
Si 7.826195329750893 15.072405910294433 10.642504804350951
Si 6.181172736348494 11.623760351641918 9.512281630046639
Si 8.322380409571785 11.82168976288022 8.48344305648619
Si 9.513162710485368 13.863656841353311 9.254019981951137
Si 7.539240093580598 14.176549189854148 12.79154302974879
Si 7.689182383279047 12.443916624746908 11.15050846819452
Si 11.715121140089622 13.744881243895763 8.173579520530454
Si 11.146992201735733 15.486480288209775 11.260410958504636
Si 9.939672861162574 13.915163295346863 12.600850759065983
Si 11.775759026922035 11.36017006500272 7.689419765880074
Si 12.855451877476263 14.320877862685876 10.15029805043806
Si 10.21102701811594 10.484877877060427 9.296082152405956
Si 12.737769749417954 15.327161985272628 13.004665374814518
Si 10.018800504437177 11.67708908249559 11.575261384855759
Si 12.627346495871574 12.431180897477972 13.311636942249153
Si 13.054626328286973 10.051643738980987 9.273942459456427
Si 11.318965280464163 8.400627114158091 9.601906831833924
