42
Energy = -200.09017104 eV
Si 14.108486005975857 12.375788704285785 7.261994500530735
Si 13.155703523855037 10.20051597271073 6.869803882815143
Si 10.28650608840936 14.756543393984753 8.182685278886092
Si 12.532105162441033 13.835069983949317 8.299642134635985
Si 8.438274552826522 13.217179754127693 8.82410641815089
Si 12.222898951186293 11.441549519931439 8.72134787286824
Si 10.016203591507425 11.508324275689407 9.51149037124809
Si 15.899901427701835 12.397377567237665 8.842761733206471
Si 14.480605199017704 10.088160876783352 8.799567287002139
Si 10.7103897077699 16.20765046652934 10.021266800697093
Si 16.72376944719174 10.287487716269062 9.515728101911257
Si 13.53346055696951 14.815627273664079 10.153122799934103
Si 10.327580539808102 13.685074903729786 10.44686864458162
Si 7.924978605443855 13.77954384833973 11.244833705154601
Si 10.696706473206142 7.772713201111281 12.179141842698632
Si 13.198101059690556 11.309384612560063 10.928742339780142
Si 9.56852868384913 10.28621146233911 11.453799307770353
Si 12.872845543788426 17.09298313699696 10.496042769832489
Si 15.67202144749862 13.96034161723375 10.589033590064785
Si 9.371815112684057 15.576495550523116 11.864817444573013
Si 15.521156329513307 11.51171477274305 11.232376764429237
Si 16.510447813003235 13.13554565597253 12.692448679023627
Si 12.086627808153894 6.294431026714731 13.49326665027841
Si 11.89333715122707 9.850598993225061 12.270151686503187
Si 12.052891663866452 15.754845278766199 12.218079454833568
Si 8.45637864567055 8.127016000239877 11.46103934264156
Si 12.937247301402381 8.501403446638252 14.030601681750369
Si 8.809279431802802 12.074351399109581 12.805097652686998
Si 12.482297452340154 13.321176083141612 12.011517668464032
Si 14.28495629953199 13.214920998333383 13.623185034349136
Si 10.596777394514598 7.49512214339264 14.858606825862019
Si 10.679343289191488 10.20027057637181 14.313203413469802
Si 8.745983326850157 8.493407083738523 13.831989061231276
Si 10.680692967219645 13.33292892277072 13.599529415093402
Si 13.469483802785447 11.353894789895651 14.771573713049774
Si 10.471360781799792 15.735433666208506 14.011064902057768
Si 14.085512198978654 9.344783335090302 15.895381952238186
Si 11.658248185870434 9.052818253155946 16.313151165679095
Si 8.32411415301995 10.678057999862629 14.777726234645856
Si 12.697721078453817 14.436325469266817 15.074719401136454
Si 11.573181611584175 12.383790136289793 15.610549054952681
Si 10.011673948326957 10.882734447004353 16.667537735210924
