49
Energy = -233.1644739 eV
Si 14.216646959685967 9.479659626647573 6.860275909628741
Si 12.558864155948976 10.690002456620142 17.032674825506803
Si 14.837552605911208 9.185477819448717 9.138561883370052
Si 9.410907079075335 14.868851596662225 12.71683102443164
Si 12.429637944884098 14.591258206361044 14.740748014548103
Si 13.646205103917776 10.815684409500998 14.85881849661648
Si 8.428613596444103 11.95461802743543 11.62798836928207
Si 13.17221683956852 8.094744637229706 10.411186478378644
Si 15.598206980119686 11.721517693049554 9.585709464212984
Si 11.75421214006535 11.844264090684868 8.990817125939186
Si 10.969611930050014 7.601919923498255 14.057074636598822
Si 15.75489384474099 10.565448139351298 12.088981769561917
Si 13.903334752114914 11.672330463895427 7.92113163296982
Si 5.886858262274385 11.679427264514075 12.674712328194044
Si 10.234546298748986 11.441593886590875 16.507059610631224
Si 9.682925946176274 11.635407681488216 7.849867310428681
Si 11.825371422354545 11.021342886617731 13.111315765889453
Si 10.317254733038167 13.430286216168392 15.09397390136573
Si 16.1442722340854 12.806800443016764 12.950297968101415
Si 11.490570931272234 9.594449814309923 15.301189491464667
Si 10.580785319404518 8.345088481916008 9.466131432123666
Si 13.8440029061591 12.910141067786093 13.785355402775915
Si 10.988770177863392 15.715030864338898 9.055329074166881
Si 11.46494729889267 16.1185534188192 13.134554802525361
Si 7.069283510026793 9.718961061277712 12.006123750966445
Si 9.120632224658603 8.961620510145599 13.101281163746373
Si 6.3422173502789345 11.640618259411852 10.223083079873449
Si 8.578198245439879 9.747801113511304 9.077527736822768
Si 12.152707540045368 10.313932697989834 10.790261713587446
Si 16.92239512600326 9.867446890707528 10.080077331796922
Si 8.258036307655303 14.706046728460928 14.794797613949102
Si 12.880125993181235 13.989251070665413 8.144917730363773
Si 11.986074342053131 6.497502760265842 9.074954104320824
Si 9.814617538879673 9.971662549658427 11.138188248360283
Si 9.16115982162572 14.728583401388232 10.316960754910248
Si 16.206039773380308 13.756652405814082 10.731320271522513
Si 9.993786109881432 9.250213241107675 7.16714168819807
Si 12.244440997656277 8.469389390800153 7.693751653475198
Si 7.784806144172233 12.596143755849436 13.842692070626324
Si 8.171863295174104 12.829947657598655 9.33670668724827
Si 11.472524071202683 13.697923442965605 10.415525776869075
Si 14.85411466121234 9.087743305545022 13.747491585456409
Si 6.3373827594044245 9.286550006324822 9.743747433476805
Si 14.039455514249502 14.478499447151055 10.188460506025507
Si 12.778251132648409 8.529316701650798 12.739766544561292
Si 11.386171990123676 13.491311323058474 12.791599780506427
Si 12.418323143060709 15.950588759858748 10.973693770519626
Si 9.528954716042433 10.993571699075826 14.238665018211845
Si 14.123607737208514 12.335504007777468 11.440091223929649
