4
Energy = -13.26132063 eV
Si 9.293507087640721 7.576139670509274 7.3907177792563505
Si 10.263885177050744 10.484432136987952 9.222440683262393
Si 8.317744188827827 9.743881612462525 10.159377231729465
Si 7.691824842854912 7.765692770435073 8.800634282358606
