55
Energy = -263.7747105 eV
Si 8.83291823828186 9.69675967966182 7.058205067802288
Si 15.152246580178696 13.76016655834116 7.8430152258819055
Si 13.309337771190524 9.870459175742065 7.867880228992403
Si 13.292461230082287 12.251735088307214 8.138681069653751
Si 12.3742081878171 18.55146586604071 8.890367700488216
Si 11.064864098153175 12.964607484601025 7.930547732217441
Si 9.556316143454179 8.293185233505222 8.859693625918776
Si 9.999615340543885 11.020558995616414 8.81694356007956
Si 7.484662198234484 9.855844002481003 9.012095579345042
Si 14.12857993249057 14.620034553352399 9.849275794172275
Si 16.130840778136584 12.165839803677699 9.325185197607976
Si 10.2556710808487 14.541704516485469 9.498925793327073
Si 13.15287633721941 16.71672803405393 10.263110651025842
Si 11.579190070608485 9.354910199560463 9.441472956981189
Si 10.791141424599516 16.893478043334213 9.6457479920754
Si 14.97493984151218 10.13200289303018 9.485106594691157
Si 8.090351969182523 13.975768007622152 10.359061822559777
Si 8.276053652055108 11.591363948354617 10.378227754894953
Si 14.00162019319765 18.933874628747933 10.591745822361037
Si 7.916873790133736 8.11756837873941 10.467858816835053
Si 12.186164715281793 13.281998556396372 10.19234065933547
Si 14.863709912246629 11.783438667012037 11.458263123770271
Si 17.266495733924017 12.461704085623833 11.35402089433676
Si 14.911570287815943 14.18786005825316 12.006731735409064
Si 13.244562968731728 17.674062051024762 12.564406980335162
Si 15.07557993624686 9.323650082788799 11.680296120768112
Si 11.970874398677045 9.359231598613118 11.770394217027262
Si 13.57494718335925 7.947292945555844 12.81341166711528
Si 8.074124096067283 10.556865940871761 12.51849799917766
Si 16.72968313338113 10.641843132430948 12.714314974729605
Si 17.060833952952112 14.272398214998832 13.009562973019106
Si 7.7475995496787045 8.210787301717273 12.877335314481428
Si 9.11860023531111 13.710009803142365 12.395033546932384
Si 10.220757767461805 11.519807518359375 13.349871185644016
Si 9.996715205033402 8.942509525270268 13.080082966695798
Si 11.16146472076497 16.85232412062088 11.937284132177183
Si 13.184960637761334 15.26812230378434 13.272244289747814
Si 12.173363520859402 11.769961997666845 12.022962946957408
Si 8.057613906374916 12.416341308205208 14.08141737512987
Si 10.76719323814782 15.047901019114425 13.357440674459975
Si 15.896880528634886 12.410277561945161 14.12036224762468
Si 13.391733847061895 9.713940552531106 14.43313331181155
Si 13.485663814332126 12.082753875137797 13.979441318782849
Si 11.086666187096808 9.848347957387272 14.978617094441965
Si 12.812997222331795 14.178601263373677 15.432808833978509
Si 9.895722282764225 12.71132570332973 15.578298800834192
Si 14.281365003689414 9.912618129892921 16.714921388266227
Si 10.612387102379122 14.946115695667826 15.738228718866045
Si 16.190810014007127 10.497974021170076 18.08156454131247
Si 15.735050204965289 12.162579752536018 16.481092641242103
Si 10.626756917733216 10.975835773254063 17.018861962416278
Si 12.851818035546179 11.91518408478455 16.49814201513557
Si 14.30674963322895 13.85161632833593 17.354136282800436
Si 12.53364204836964 10.095311047054794 18.42995306053983
Si 14.185940232895694 11.807119963929189 18.627142050821536
