51
Energy = -243.23857718 eV
Si 13.863527350545947 10.05526499007163 7.180013329202972
Si 14.389147382028455 11.751904474895692 8.86010691049736
Si 13.929317805768234 13.808875248047132 7.683927306926938
Si 14.504581853072786 8.560964059260659 10.760324454942328
Si 13.715687067602676 8.06909693786212 8.50671116256669
Si 13.004843546390982 6.1908822103043635 7.21488378777903
Si 13.135305053203153 12.114819469157588 6.13402917909632
Si 12.386407150102485 11.649444403894584 12.370145343722806
Si 10.950968561270155 9.654336382942878 4.5111433600208155
Si 12.749659721260162 10.09263012923178 9.517038465829575
Si 14.468849012927306 10.967420459154129 11.182208052324437
Si 11.970349503764188 5.22740784416547 9.153541593438256
Si 12.440937160480413 7.8809158927483915 11.68919727810202
Si 12.109180125899263 12.849180311503948 8.785017331579505
Si 11.068443246174096 7.524854718790942 7.68645271105938
Si 10.359178742353492 11.836891634451105 7.658345838474227
Si 11.081271144653199 9.390118938679 12.87298765875059
Si 10.74696786758358 7.193237688748167 10.08783554540193
Si 11.466394774818943 9.897104577289953 6.8294287796426065
Si 11.525243968170141 11.046153620677995 14.552973545509111
Si 10.908724960177901 11.944219254604775 5.292206864379772
Si 10.056020189836069 4.845519626782134 10.580954670710405
Si 10.799403060741778 10.447219477642076 10.720293450922233
Si 8.770309151536965 9.314522322499226 5.392766870246696
Si 12.14608497768559 5.534674316500112 11.482696225718156
Si 8.62475970182016 10.034095970980868 9.878216297945883
Si 11.15249878311823 12.962261392237066 10.918049456106791
Si 8.417196149283455 8.969956744855171 7.831532726255562
Si 6.717418698416796 9.862148492222016 4.395920492458138
Si 9.226322801127898 11.607134585416969 13.992862169773758
Si 8.460233728989044 6.645845692755021 10.796262906251583
Si 9.073035073000888 8.145755889169065 12.934879869242877
Si 9.01961689231418 14.04544045267628 10.833412244321801
Si 8.856495627805755 6.909932398619442 6.575244287114735
Si 7.4803729091715905 6.789835106690174 8.593563266950433
Si 8.35590766157717 12.332938807744139 9.073267132296518
Si 7.706431328721221 9.759906859425811 14.393758730368727
Si 8.750150979091517 11.778554717163006 11.674540197371218
Si 7.330331069836166 9.617312014239507 11.932352959161525
Si 6.62929616818033 7.802058668607128 5.602648225076903
Si 5.497989780128868 11.917013682909396 9.81936040528788
Si 7.878001493134756 13.583910039896285 13.075765593873646
Si 5.663922109198493 9.641194947906284 9.95958849257765
Si 6.7271952043179715 10.44378550806012 6.7075836443572445
Si 6.903727326657633 6.958066115794725 12.590540942140636
Si 5.91925447717301 8.443659536489449 7.942650143830344
Si 6.434524360365936 12.663991986878411 7.7276248130387435
Si 7.976027502648382 7.350871440629997 14.833613492135207
Si 5.509919290841409 10.343266696515494 13.57977669997664
Si 6.3205782404997946 12.024861415971444 12.019446000602168
Si 5.1575286469235655 8.487099312562743 11.986945721779003
