50
Energy = -235.65593414 eV
Si 13.91324485243364 6.0220468782434615 9.250660425293193
Si 11.996295406675141 4.238507268379587 9.404954486017198
Si 12.452849363979979 5.894703984285343 11.319382691992685
Si 14.193827698361533 8.395353207165003 9.9938009025997
Si 11.7818800124474 5.989557914808162 7.54931982555326
Si 13.143604610846753 9.80050563233839 11.599808179770493
Si 13.513817862503473 7.924294193726329 7.524302391532153
Si 10.304661778962954 4.6314482321843515 11.115946775692645
Si 11.797155905767568 7.83022573707041 9.46646681887751
Si 9.715127844249453 4.68575578945494 8.619587516850494
Si 10.447559848662623 7.156766594942228 11.588836229215664
Si 13.766912971695085 11.307991662224332 9.922769352652544
Si 15.097205255002597 9.944575985517423 8.332887782935382
Si 11.437409670582882 10.356033955153334 9.650988531523828
Si 12.167721680051717 9.133362271301179 5.782116221903536
Si 6.471488974216962 6.101152039067789 13.165952067590018
Si 9.80536092181685 7.318613638317524 8.094308173882103
Si 8.352749614307662 7.417391625876518 12.95125652659891
Si 8.703469079831994 6.403283437761658 10.04679376982836
Si 10.384310182366043 12.669850925702715 13.012792437004036
Si 12.86257805419377 10.57965503243107 7.6372602787322155
Si 10.435401663052593 10.507160532832717 14.076958968341101
Si 10.008150503671086 9.281800049440625 6.734328683754674
Si 12.499947681792234 13.368160064087082 9.633077360589908
Si 6.5096702634986725 7.166267920134974 10.977475024155195
Si 8.362829264892541 9.43563108636995 11.15088273108866
Si 12.76315718799848 13.016306388697618 7.010259446663635
Si 8.254960104030719 12.038145394513728 13.856311162217926
Si 10.717032923761508 9.541125146061457 11.906255641079712
Si 8.098407299633632 9.595548334941277 13.83860331947587
Si 7.644001793518639 9.570206741878621 6.513540605721099
Si 6.0956617237939374 8.352792031242618 14.140001956358185
Si 5.613663208096698 8.297941634237517 6.445355970021501
Si 10.41654412909959 12.487655329388511 10.434306322523112
Si 11.332752243939842 11.50028626515398 5.812844321299133
Si 7.713125523729683 8.8818780579952 8.895126341573633
Si 6.062035313555265 9.424989245883932 11.973284042182227
Si 9.650944825395689 11.47282848577737 7.985343721793635
Si 5.495706012161142 7.99971652459585 8.92071965491403
Si 11.51612703809043 14.8800847978762 7.960066857097518
Si 8.290400129841256 11.829985606538532 11.499710825721209
Si 4.876004258603421 11.463258783774496 11.38725704105313
Si 7.332970662065769 11.33322687860687 8.54562564010794
Si 7.059701231149189 11.976968757838035 6.178257987298502
Si 5.261239234791317 10.57955038241144 7.072942699014701
Si 10.120260575932479 13.426045884494519 6.502594732087395
Si 5.0812489480859595 10.265354937829327 9.397680714907366
Si 9.363487916669298 13.903491326395324 8.815459803808606
Si 6.560143766580665 12.871514373213133 10.32062746423419
Si 6.995063085968979 13.820670640069682 8.143789577151768
