53
Energy = -252.14882028 eV
Si 9.837362604317512 9.456876077599233 4.587832461234093
Si 10.703157451161939 11.265421733975392 5.983792629201048
Si 6.4394537995395 11.456549912745707 5.472828593148702
Si 10.187679516128068 7.032259428273232 4.215897021931738
Si 7.682258213259895 9.410591222951954 5.595302371795415
Si 8.457521828706085 5.322803592084894 4.7160822843092385
Si 11.609655196739324 13.389831977521037 6.819429919601476
Si 8.443782056684832 11.954214926823688 6.760786828051263
Si 12.934125591848188 8.024572559539164 6.8410337300833675
Si 6.262334977555943 6.866221954659438 7.482448291347012
Si 10.585904423046738 8.162710334543927 6.417506644946814
Si 12.117501450399292 6.369613563466025 5.368062727878073
Si 7.8433672094459554 7.944005166078807 9.172112881940675
Si 6.940795231154761 7.160080655649981 5.267653805880413
Si 12.534691877816051 10.388419619015654 7.224211974748318
Si 5.532832315986342 10.829065499707946 7.6159454710478425
Si 8.794010980452525 6.698296171692738 6.875950180315233
Si 8.792387516698199 15.231365684595636 9.65760558050877
Si 9.655998554123439 4.469690812202972 6.895592953573484
Si 8.56819429028836 9.82553428685531 7.848723635658326
Si 12.06175618418713 4.471143461334526 6.8171452117393585
Si 13.431047898872542 12.518346008554442 8.250557798715855
Si 9.49347938627224 13.73645850605173 7.978506969936239
Si 5.38555656246104 4.855008198171946 8.439172580661335
Si 12.079374120543152 6.352078496316766 8.316235203874822
Si 6.717689319891177 6.086613014242956 10.164878669617737
Si 11.03568943995145 12.039156695326156 8.809279845345475
Si 9.042790382172424 4.67316593511826 9.2118239626185
Si 6.965688896993556 3.7176273218588913 10.057407934527108
Si 5.239824546052409 8.723497516928326 8.669250023047613
Si 5.0914111342575445 12.45052871141202 9.337099637215795
Si 6.644335925347734 5.011053586521474 12.398085873422694
Si 11.797281974735142 10.249153314084575 10.913564980208116
Si 4.301838268184279 6.636983036841068 9.652219061676035
Si 10.020476142042984 6.992987849543591 9.462518679432
Si 10.344204347823318 5.2073091814865835 11.178137128315784
Si 7.168354010725488 13.484019132173653 10.156002548327137
Si 7.122942079127161 11.062960220895505 9.454723583601629
Si 12.535307590471394 12.595532097145586 10.702728151592712
Si 10.22436004925605 13.483705317010052 10.622466808217384
Si 10.835346113867443 9.670974738158089 8.796626735777421
Si 5.309191830272894 11.227039887346441 11.363344539752203
Si 6.087347650346842 9.036396777612465 10.981254622071733
Si 12.053256313150607 6.792466967792327 10.743036217031069
Si 8.669913056622194 6.373929417937083 12.52325251712898
Si 5.153828672141845 6.939399579266743 11.850490969263832
Si 6.820660691666337 12.767127928390055 12.44910448969664
Si 12.446830069961775 8.379742187127082 12.45910526536648
Si 10.939457471104166 6.558134089139835 13.334547545700845
Si 8.778426243520512 11.689143649080739 11.112574134709584
Si 7.759402256875743 10.580846946763161 13.008403562072026
Si 10.035439809200431 9.848931967073389 12.405747032000328
Si 8.416988032044076 8.462924638807781 11.494419285630247
