52
Energy = -246.82163082 eV
Si 11.403040249839336 10.247448835715968 5.307011987208776
Si 14.790615487520524 9.432416549906755 6.443069533446263
Si 9.361057273383949 11.51383049331028 5.788011884157542
Si 9.682567771310225 7.141209308150714 7.539817656586358
Si 15.924515612560805 9.666304672202246 8.595585673585129
Si 14.865162817568974 11.215244685789221 10.043508886590383
Si 7.868196206840986 9.693326935361581 5.667531034226393
Si 12.818702182388776 10.44267915688562 7.399695378687476
Si 9.86996722120692 8.277709441360349 5.472648844945145
Si 15.32811997930485 7.517081291265387 9.461692180658106
Si 10.562906859280009 9.536297034281374 7.528195912594186
Si 13.504851558535771 8.044301458044997 7.8901259231938
Si 15.273783277628818 10.09829308635117 12.15697113826938
Si 11.816506722234106 6.3723828625670675 8.282981544152626
Si 7.438689019210341 6.834529418592177 8.311948421263642
Si 8.296393896660499 13.21252953460348 7.0168842425314555
Si 12.63994119564047 11.909718014008353 9.339774831623181
Si 13.588334662003486 9.146372969224307 10.07466581191284
Si 12.246879053292526 6.43570105533127 10.619125671210762
Si 6.12444032543391 12.296348813996563 6.214269183636273
Si 14.695154559666937 12.697593463560658 12.020993642990542
Si 8.56729172175789 7.429980069268739 10.274705375001616
Si 5.584023417258438 9.89859182661155 6.028585454808052
Si 8.631786301686331 10.828158517252565 7.998081113095252
Si 14.197832763368092 7.365291242972352 11.687911064081547
Si 6.825598004492813 9.178264515950827 8.031498309350706
Si 9.613092147932457 11.757699891542984 9.941355076832853
Si 10.8623096153508 8.319513636396747 9.799750811524186
Si 11.504514392798683 10.531295542955208 10.972001257587365
Si 6.315689183620807 12.162700766335156 8.499048212628491
Si 12.119621060019398 14.042850868990739 10.489204827006217
Si 10.1977950782215 6.54528792387243 11.678119817364736
Si 12.874836758409446 9.235798718021854 12.641051554432783
Si 9.661144316282337 13.963824644188646 10.884936878400554
Si 13.86303722124344 11.2484762921243 13.767271152922328
Si 7.831814953468597 8.393014484039822 12.360537901182262
Si 12.108982077450806 12.45858617721379 12.363129615125338
Si 7.916347799913034 10.678963703709476 11.17316807388616
Si 5.889537220757052 10.348515118808836 9.979258727395246
Si 7.477931474891366 13.341802513046556 10.214323264772789
Si 10.074599731704952 9.33272298174522 12.499694423369055
Si 8.967655717552681 12.006077840589144 12.917663328671395
Si 11.336615798132412 8.819617294353872 14.582834888152497
Si 9.533156932029689 7.315489444179266 13.819977197217186
Si 9.337581886277672 14.317239574156531 13.28514345470226
Si 4.466967996496574 10.861656407455028 11.946936620421997
Si 11.080136081238082 13.030071415268448 14.451631245483574
Si 6.278292218741299 12.476805791642438 12.119337727465888
Si 6.414207886924061 10.07494550073713 13.205567180020896
Si 10.055989125854614 10.824049008919573 14.688036539809843
Si 7.690264654204658 11.117367124836521 14.9992385712736
Si 7.243692520571503 13.369135349892868 14.147327589072427
