6
Energy = -24.78965256 eV
Si 10.564760170439355 9.54786722334274 8.281491769354188
Si 8.704308332562649 10.43016633141138 9.391906065577125
Si 6.84437526763008 9.546876544326347 8.281808458208541
Si 6.500801834662699 7.357009601099213 8.85871159496457
Si 8.703382914395794 7.989425928319313 8.554837651174443
Si 10.910017011839217 7.356299903030928 8.858889992251052
