8
Energy = -34.98724888 eV
Si 6.753610632745035 7.9440826308136545 10.852969314065154
Si 11.046352719597998 8.358241598734336 9.883792749668013
Si 8.580702588230992 9.202500165508422 10.617411893364833
Si 10.407454669636488 10.751980216489923 10.505729627381633
Si 7.668546063317751 7.927445214771265 8.711418869792556
Si 9.440866876494377 9.535516309630232 8.353728646007609
Si 11.765695710575427 10.09833860205085 8.501683232160387
Si 9.984863304689783 11.81332901175548 8.28872657171216
