  38  38   0   0
  0.2906411E+03  0.2226966E-08  0.2226966E-08  0.2226966E-08  0.1000000E-15
  1.000000000000000E-004
  CAR 
 unknown system                          
      1.90995043    -10.23814658  301     -3.34410153      1.00000000
    -10.238  0.0000E+00  0.0000E+00  0.0000E+00  0.0000E+00
    -10.198  0.0000E+00  0.0000E+00  0.0000E+00  0.0000E+00
    -10.157  0.0000E+00  0.0000E+00  0.0000E+00  0.0000E+00
    -10.117  0.0000E+00  0.0000E+00  0.0000E+00  0.0000E+00
    -10.076  0.0000E+00  0.0000E+00  0.0000E+00  0.0000E+00
    -10.036  0.0000E+00  0.0000E+00  0.0000E+00  0.0000E+00
     -9.995  0.0000E+00  0.0000E+00  0.0000E+00  0.0000E+00
     -9.955  0.0000E+00  0.0000E+00  0.0000E+00  0.0000E+00
     -9.914  0.0000E+00  0.0000E+00  0.0000E+00  0.0000E+00
     -9.874  0.0000E+00  0.0000E+00  0.0000E+00  0.0000E+00
     -9.833  0.0000E+00  0.0000E+00  0.0000E+00  0.0000E+00
     -9.793  0.0000E+00  0.0000E+00  0.0000E+00  0.0000E+00
     -9.752  0.0000E+00  0.0000E+00  0.0000E+00  0.0000E+00
     -9.712  0.0000E+00  0.0000E+00  0.0000E+00  0.0000E+00
     -9.671  0.0000E+00  0.0000E+00  0.1000E-02  0.1000E-02
     -9.631  0.0000E+00  0.0000E+00  0.1000E-02  0.1000E-02
     -9.590  0.0000E+00  0.0000E+00  0.1000E-02  0.1000E-02
     -9.550  0.0000E+00  0.0000E+00  0.1000E-02  0.1000E-02
     -9.509  0.0000E+00  0.0000E+00  0.1000E-02  0.1000E-02
     -9.469  0.0000E+00  0.0000E+00  0.1000E-02  0.1000E-02
     -9.428  0.0000E+00  0.0000E+00  0.1000E-02  0.1000E-02
     -9.388  0.0000E+00  0.0000E+00  0.1000E-02  0.1000E-02
     -9.347  0.0000E+00  0.0000E+00  0.1000E-02  0.1000E-02
     -9.307  0.0000E+00  0.0000E+00  0.1000E-02  0.1000E-02
     -9.266  0.0000E+00  0.0000E+00  0.1000E-02  0.1000E-02
     -9.226  0.0000E+00  0.0000E+00  0.1000E-02  0.1000E-02
     -9.185  0.0000E+00  0.0000E+00  0.2000E-02  0.2000E-02
     -9.145  0.0000E+00  0.0000E+00  0.2000E-02  0.2000E-02
     -9.104  0.0000E+00  0.0000E+00  0.4000E-02  0.4000E-02
     -9.064  0.0000E+00  0.0000E+00  0.5000E-02  0.5000E-02
     -9.023  0.0000E+00  0.0000E+00  0.6000E-02  0.6000E-02
     -8.983  0.0000E+00  0.0000E+00  0.7000E-02  0.7000E-02
     -8.942  0.0000E+00  0.0000E+00  0.8000E-02  0.8000E-02
     -8.902  0.0000E+00  0.0000E+00  0.8000E-02  0.8000E-02
     -8.861  0.0000E+00  0.0000E+00  0.1100E-01  0.1100E-01
     -8.821  0.0000E+00  0.0000E+00  0.1100E-01  0.1100E-01
     -8.780  0.0000E+00  0.0000E+00  0.1300E-01  0.1300E-01
     -8.740  0.0000E+00  0.0000E+00  0.1500E-01  0.1500E-01
     -8.699  0.0000E+00  0.0000E+00  0.1700E-01  0.1700E-01
     -8.659  0.0000E+00  0.0000E+00  0.1900E-01  0.1900E-01
     -8.618  0.0000E+00  0.0000E+00  0.2100E-01  0.2100E-01
     -8.578  0.0000E+00  0.0000E+00  0.2300E-01  0.2300E-01
     -8.537  0.0000E+00  0.0000E+00  0.2400E-01  0.2400E-01
     -8.497  0.0000E+00  0.0000E+00  0.2700E-01  0.2700E-01
     -8.456  0.0000E+00  0.0000E+00  0.2900E-01  0.2900E-01
     -8.416  0.0000E+00  0.0000E+00  0.3200E-01  0.3200E-01
     -8.375  0.0000E+00  0.0000E+00  0.3400E-01  0.3400E-01
     -8.335  0.0000E+00  0.0000E+00  0.3700E-01  0.3700E-01
     -8.294  0.0000E+00  0.0000E+00  0.4000E-01  0.4000E-01
     -8.254  0.0000E+00  0.0000E+00  0.4200E-01  0.4200E-01
     -8.213  0.0000E+00  0.0000E+00  0.4600E-01  0.4600E-01
     -8.173  0.0000E+00  0.0000E+00  0.4700E-01  0.4700E-01
     -8.132  0.0000E+00  0.0000E+00  0.5000E-01  0.5000E-01
     -8.092  0.0000E+00  0.0000E+00  0.5200E-01  0.5200E-01
     -8.051  0.0000E+00  0.0000E+00  0.5300E-01  0.5300E-01
     -8.011  0.0000E+00  0.0000E+00  0.5500E-01  0.5500E-01
     -7.971  0.0000E+00  0.0000E+00  0.6000E-01  0.6000E-01
     -7.930  0.0000E+00  0.0000E+00  0.6100E-01  0.6100E-01
     -7.890  0.0000E+00  0.0000E+00  0.6300E-01  0.6300E-01
     -7.849  0.0000E+00  0.0000E+00  0.6500E-01  0.6500E-01
     -7.809  0.0000E+00  0.0000E+00  0.6900E-01  0.6900E-01
     -7.768  0.0000E+00  0.0000E+00  0.7100E-01  0.7100E-01
     -7.728  0.0000E+00  0.0000E+00  0.7400E-01  0.7400E-01
     -7.687  0.0000E+00  0.0000E+00  0.7600E-01  0.7600E-01
     -7.647  0.0000E+00  0.0000E+00  0.7900E-01  0.7900E-01
     -7.606  0.0000E+00  0.0000E+00  0.8100E-01  0.8100E-01
     -7.566  0.0000E+00  0.0000E+00  0.8300E-01  0.8300E-01
     -7.525  0.0000E+00  0.0000E+00  0.8600E-01  0.8600E-01
     -7.485  0.0000E+00  0.0000E+00  0.8700E-01  0.8700E-01
     -7.444  0.0000E+00  0.0000E+00  0.9000E-01  0.9000E-01
     -7.404  0.0000E+00  0.0000E+00  0.9200E-01  0.9200E-01
     -7.363  0.0000E+00  0.0000E+00  0.9400E-01  0.9400E-01
     -7.323  0.0000E+00  0.0000E+00  0.9800E-01  0.9800E-01
     -7.282  0.0000E+00  0.0000E+00  0.1000E+00  0.1000E+00
     -7.242  0.1756E-01  0.1756E-01  0.1027E+00  0.1027E+00
     -7.201  0.0000E+00  0.0000E+00  0.1050E+00  0.1050E+00
     -7.161  0.0000E+00  0.0000E+00  0.1080E+00  0.1080E+00
     -7.120  0.0000E+00  0.0000E+00  0.1110E+00  0.1110E+00
     -7.080  0.0000E+00  0.0000E+00  0.1140E+00  0.1140E+00
     -7.039  0.0000E+00  0.0000E+00  0.1160E+00  0.1160E+00
     -6.999  0.0000E+00  0.0000E+00  0.1180E+00  0.1180E+00
     -6.958  0.0000E+00  0.0000E+00  0.1190E+00  0.1190E+00
     -6.918  0.0000E+00  0.0000E+00  0.1230E+00  0.1230E+00
     -6.877  0.0000E+00  0.0000E+00  0.1260E+00  0.1260E+00
     -6.837  0.0000E+00  0.0000E+00  0.1290E+00  0.1290E+00
     -6.796  0.0000E+00  0.0000E+00  0.1320E+00  0.1320E+00
     -6.756  0.0000E+00  0.0000E+00  0.1360E+00  0.1360E+00
     -6.715  0.0000E+00  0.0000E+00  0.1410E+00  0.1410E+00
     -6.675  0.0000E+00  0.0000E+00  0.1460E+00  0.1460E+00
     -6.634  0.1989E-01  0.1989E-01  0.1498E+00  0.1498E+00
     -6.594  0.2470E-01  0.2470E-01  0.1550E+00  0.1550E+00
     -6.553  0.0000E+00  0.0000E+00  0.1590E+00  0.1590E+00
     -6.513  0.0000E+00  0.0000E+00  0.1640E+00  0.1640E+00
     -6.472  0.0000E+00  0.0000E+00  0.1660E+00  0.1660E+00
     -6.432  0.0000E+00  0.0000E+00  0.1710E+00  0.1710E+00
     -6.391  0.2371E-12  0.2372E-12  0.1740E+00  0.1740E+00
     -6.351  0.0000E+00  0.0000E+00  0.1780E+00  0.1780E+00
     -6.310  0.2470E-01  0.2470E-01  0.1820E+00  0.1820E+00
     -6.270  0.0000E+00  0.0000E+00  0.1840E+00  0.1840E+00
     -6.229  0.2470E-01  0.2470E-01  0.1880E+00  0.1880E+00
     -6.189  0.0000E+00  0.0000E+00  0.1890E+00  0.1890E+00
     -6.148  0.0000E+00  0.0000E+00  0.1910E+00  0.1910E+00
     -6.108  0.0000E+00  0.0000E+00  0.1930E+00  0.1930E+00
     -6.067  0.0000E+00  0.0000E+00  0.1930E+00  0.1930E+00
     -6.027  0.0000E+00  0.0000E+00  0.1940E+00  0.1940E+00
     -5.986  0.0000E+00  0.0000E+00  0.1950E+00  0.1950E+00
     -5.946  0.0000E+00  0.0000E+00  0.1950E+00  0.1950E+00
     -5.905  0.0000E+00  0.0000E+00  0.1960E+00  0.1960E+00
     -5.865  0.0000E+00  0.0000E+00  0.1960E+00  0.1960E+00
     -5.824  0.0000E+00  0.0000E+00  0.1960E+00  0.1960E+00
     -5.784  0.0000E+00  0.0000E+00  0.1960E+00  0.1960E+00
     -5.743  0.0000E+00  0.0000E+00  0.1960E+00  0.1960E+00
     -5.703  0.0000E+00  0.0000E+00  0.1970E+00  0.1970E+00
     -5.662  0.0000E+00  0.0000E+00  0.1970E+00  0.1970E+00
     -5.622  0.0000E+00  0.0000E+00  0.1970E+00  0.1970E+00
     -5.581  0.0000E+00  0.0000E+00  0.1970E+00  0.1970E+00
     -5.541  0.0000E+00  0.0000E+00  0.1970E+00  0.1970E+00
     -5.500  0.0000E+00  0.0000E+00  0.1970E+00  0.1970E+00
     -5.460  0.0000E+00  0.0000E+00  0.1980E+00  0.1980E+00
     -5.419  0.0000E+00  0.0000E+00  0.1980E+00  0.1980E+00
     -5.379  0.0000E+00  0.0000E+00  0.1980E+00  0.1980E+00
     -5.338  0.0000E+00  0.0000E+00  0.1990E+00  0.1990E+00
     -5.298  0.0000E+00  0.0000E+00  0.1990E+00  0.1990E+00
     -5.257  0.0000E+00  0.0000E+00  0.1990E+00  0.1990E+00
     -5.217  0.0000E+00  0.0000E+00  0.1990E+00  0.1990E+00
     -5.176  0.0000E+00  0.0000E+00  0.1990E+00  0.1990E+00
     -5.136  0.0000E+00  0.0000E+00  0.1990E+00  0.1990E+00
     -5.095  0.0000E+00  0.0000E+00  0.1990E+00  0.1990E+00
     -5.055  0.0000E+00  0.0000E+00  0.1990E+00  0.1990E+00
     -5.014  0.0000E+00  0.0000E+00  0.1990E+00  0.1990E+00
     -4.974  0.0000E+00  0.0000E+00  0.1990E+00  0.1990E+00
     -4.933  0.0000E+00  0.0000E+00  0.1990E+00  0.1990E+00
     -4.893  0.0000E+00  0.0000E+00  0.1990E+00  0.1990E+00
     -4.852  0.0000E+00  0.0000E+00  0.2000E+00  0.2000E+00
     -4.812  0.0000E+00  0.0000E+00  0.2000E+00  0.2000E+00
     -4.772  0.0000E+00  0.0000E+00  0.2010E+00  0.2010E+00
     -4.731  0.0000E+00  0.0000E+00  0.2020E+00  0.2020E+00
     -4.691  0.0000E+00  0.0000E+00  0.2020E+00  0.2020E+00
     -4.650  0.0000E+00  0.0000E+00  0.2020E+00  0.2020E+00
     -4.610  0.0000E+00  0.0000E+00  0.2020E+00  0.2020E+00
     -4.569  0.0000E+00  0.0000E+00  0.2020E+00  0.2020E+00
     -4.529  0.0000E+00  0.0000E+00  0.2020E+00  0.2020E+00
     -4.488  0.0000E+00  0.0000E+00  0.2030E+00  0.2030E+00
     -4.448  0.0000E+00  0.0000E+00  0.2030E+00  0.2030E+00
     -4.407  0.0000E+00  0.0000E+00  0.2030E+00  0.2030E+00
     -4.367  0.0000E+00  0.0000E+00  0.2030E+00  0.2030E+00
     -4.326  0.0000E+00  0.0000E+00  0.2030E+00  0.2030E+00
     -4.286  0.0000E+00  0.0000E+00  0.2030E+00  0.2030E+00
     -4.245  0.0000E+00  0.0000E+00  0.2040E+00  0.2040E+00
     -4.205  0.0000E+00  0.0000E+00  0.2040E+00  0.2040E+00
     -4.164  0.0000E+00  0.0000E+00  0.2040E+00  0.2040E+00
     -4.124  0.0000E+00  0.0000E+00  0.2050E+00  0.2050E+00
     -4.083  0.0000E+00  0.0000E+00  0.2050E+00  0.2050E+00
     -4.043  0.0000E+00  0.0000E+00  0.2050E+00  0.2050E+00
     -4.002  0.0000E+00  0.0000E+00  0.2050E+00  0.2050E+00
     -3.962  0.0000E+00  0.0000E+00  0.2050E+00  0.2050E+00
     -3.921  0.0000E+00  0.0000E+00  0.2050E+00  0.2050E+00
     -3.881  0.0000E+00  0.0000E+00  0.2050E+00  0.2050E+00
     -3.840  0.0000E+00  0.0000E+00  0.2050E+00  0.2050E+00
     -3.800  0.0000E+00  0.0000E+00  0.2050E+00  0.2050E+00
     -3.759  0.0000E+00  0.0000E+00  0.2060E+00  0.2060E+00
     -3.719  0.2469E-01  0.2469E-01  0.2070E+00  0.2070E+00
     -3.678  0.0000E+00  0.0000E+00  0.2070E+00  0.2070E+00
     -3.638  0.0000E+00  0.0000E+00  0.2070E+00  0.2070E+00
     -3.597  0.0000E+00  0.0000E+00  0.2070E+00  0.2070E+00
     -3.557  0.0000E+00  0.0000E+00  0.2080E+00  0.2080E+00
     -3.516  0.0000E+00  0.0000E+00  0.2080E+00  0.2080E+00
     -3.476  0.0000E+00  0.0000E+00  0.2080E+00  0.2080E+00
     -3.435  0.0000E+00  0.0000E+00  0.2080E+00  0.2080E+00
     -3.395  0.0000E+00  0.0000E+00  0.2080E+00  0.2080E+00
     -3.354  0.0000E+00  0.0000E+00  0.2090E+00  0.2090E+00
     -3.314  0.0000E+00  0.0000E+00  0.2090E+00  0.2090E+00
     -3.273  0.0000E+00  0.0000E+00  0.2090E+00  0.2090E+00
     -3.233  0.0000E+00  0.0000E+00  0.2090E+00  0.2090E+00
     -3.192  0.0000E+00  0.0000E+00  0.2090E+00  0.2090E+00
     -3.152  0.0000E+00  0.0000E+00  0.2090E+00  0.2090E+00
     -3.111  0.0000E+00  0.0000E+00  0.2100E+00  0.2100E+00
     -3.071  0.0000E+00  0.0000E+00  0.2100E+00  0.2100E+00
     -3.030  0.0000E+00  0.0000E+00  0.2100E+00  0.2100E+00
     -2.990  0.0000E+00  0.0000E+00  0.2100E+00  0.2100E+00
     -2.949  0.0000E+00  0.0000E+00  0.2100E+00  0.2100E+00
     -2.909  0.0000E+00  0.0000E+00  0.2110E+00  0.2110E+00
     -2.868  0.0000E+00  0.0000E+00  0.2110E+00  0.2110E+00
     -2.828  0.0000E+00  0.0000E+00  0.2110E+00  0.2110E+00
     -2.787  0.0000E+00  0.0000E+00  0.2120E+00  0.2120E+00
     -2.747  0.0000E+00  0.0000E+00  0.2130E+00  0.2130E+00
     -2.706  0.0000E+00  0.0000E+00  0.2130E+00  0.2130E+00
     -2.666  0.0000E+00  0.0000E+00  0.2140E+00  0.2140E+00
     -2.625  0.0000E+00  0.0000E+00  0.2140E+00  0.2140E+00
     -2.585  0.0000E+00  0.0000E+00  0.2140E+00  0.2140E+00
     -2.544  0.0000E+00  0.0000E+00  0.2150E+00  0.2150E+00
     -2.504  0.0000E+00  0.0000E+00  0.2150E+00  0.2150E+00
     -2.463  0.0000E+00  0.0000E+00  0.2150E+00  0.2150E+00
     -2.423  0.0000E+00  0.0000E+00  0.2150E+00  0.2150E+00
     -2.382  0.0000E+00  0.0000E+00  0.2160E+00  0.2160E+00
     -2.342  0.0000E+00  0.0000E+00  0.2160E+00  0.2160E+00
     -2.301  0.0000E+00  0.0000E+00  0.2160E+00  0.2160E+00
     -2.261  0.0000E+00  0.0000E+00  0.2170E+00  0.2170E+00
     -2.220  0.0000E+00  0.0000E+00  0.2170E+00  0.2170E+00
     -2.180  0.0000E+00  0.0000E+00  0.2170E+00  0.2170E+00
     -2.139  0.0000E+00  0.0000E+00  0.2180E+00  0.2180E+00
     -2.099  0.0000E+00  0.0000E+00  0.2180E+00  0.2180E+00
     -2.058  0.0000E+00  0.0000E+00  0.2180E+00  0.2180E+00
     -2.018  0.0000E+00  0.0000E+00  0.2180E+00  0.2180E+00
     -1.977  0.0000E+00  0.0000E+00  0.2180E+00  0.2180E+00
     -1.937  0.0000E+00  0.0000E+00  0.2180E+00  0.2180E+00
     -1.896  0.0000E+00  0.0000E+00  0.2190E+00  0.2190E+00
     -1.856  0.0000E+00  0.0000E+00  0.2210E+00  0.2210E+00
     -1.815  0.0000E+00  0.0000E+00  0.2210E+00  0.2210E+00
     -1.775  0.0000E+00  0.0000E+00  0.2210E+00  0.2210E+00
     -1.734  0.0000E+00  0.0000E+00  0.2210E+00  0.2210E+00
     -1.694  0.0000E+00  0.0000E+00  0.2210E+00  0.2210E+00
     -1.653  0.0000E+00  0.0000E+00  0.2210E+00  0.2210E+00
     -1.613  0.0000E+00  0.0000E+00  0.2210E+00  0.2210E+00
     -1.573  0.0000E+00  0.0000E+00  0.2220E+00  0.2220E+00
     -1.532  0.0000E+00  0.0000E+00  0.2220E+00  0.2220E+00
     -1.492  0.0000E+00  0.0000E+00  0.2230E+00  0.2230E+00
     -1.451  0.0000E+00  0.0000E+00  0.2240E+00  0.2240E+00
     -1.411  0.0000E+00  0.0000E+00  0.2250E+00  0.2250E+00
     -1.370  0.0000E+00  0.0000E+00  0.2250E+00  0.2250E+00
     -1.330  0.0000E+00  0.0000E+00  0.2250E+00  0.2250E+00
     -1.289  0.0000E+00  0.0000E+00  0.2250E+00  0.2250E+00
     -1.249  0.0000E+00  0.0000E+00  0.2260E+00  0.2260E+00
     -1.208  0.0000E+00  0.0000E+00  0.2270E+00  0.2270E+00
     -1.168  0.0000E+00  0.0000E+00  0.2280E+00  0.2280E+00
     -1.127  0.0000E+00  0.0000E+00  0.2280E+00  0.2280E+00
     -1.087  0.0000E+00  0.0000E+00  0.2280E+00  0.2280E+00
     -1.046  0.0000E+00  0.0000E+00  0.2280E+00  0.2280E+00
     -1.006  0.0000E+00  0.0000E+00  0.2290E+00  0.2290E+00
     -0.965  0.0000E+00  0.0000E+00  0.2300E+00  0.2300E+00
     -0.925  0.0000E+00  0.0000E+00  0.2300E+00  0.2300E+00
     -0.884  0.0000E+00  0.0000E+00  0.2300E+00  0.2300E+00
     -0.844  0.1195E-01  0.1192E-01  0.2305E+00  0.2305E+00
     -0.803  0.0000E+00  0.0000E+00  0.2310E+00  0.2310E+00
     -0.763  0.0000E+00  0.0000E+00  0.2320E+00  0.2320E+00
     -0.722  0.0000E+00  0.0000E+00  0.2320E+00  0.2320E+00
     -0.682  0.0000E+00  0.0000E+00  0.2320E+00  0.2320E+00
     -0.641  0.0000E+00  0.0000E+00  0.2330E+00  0.2330E+00
     -0.601  0.0000E+00  0.0000E+00  0.2330E+00  0.2330E+00
     -0.560  0.2613E-03  0.2618E-03  0.2330E+00  0.2330E+00
     -0.520  0.5252E-05  0.5207E-05  0.2340E+00  0.2340E+00
     -0.479  0.0000E+00  0.0000E+00  0.2350E+00  0.2350E+00
     -0.439  0.0000E+00  0.0000E+00  0.2350E+00  0.2350E+00
     -0.398  0.0000E+00  0.0000E+00  0.2360E+00  0.2360E+00
     -0.358  0.0000E+00  0.0000E+00  0.2360E+00  0.2360E+00
     -0.317  0.0000E+00  0.0000E+00  0.2360E+00  0.2360E+00
     -0.277  0.0000E+00  0.0000E+00  0.2360E+00  0.2360E+00
     -0.236  0.0000E+00  0.0000E+00  0.2370E+00  0.2370E+00
     -0.196  0.0000E+00  0.0000E+00  0.2370E+00  0.2370E+00
     -0.155  0.0000E+00  0.0000E+00  0.2370E+00  0.2370E+00
     -0.115  0.0000E+00  0.0000E+00  0.2380E+00  0.2380E+00
     -0.074  0.0000E+00  0.0000E+00  0.2390E+00  0.2390E+00
     -0.034  0.0000E+00  0.0000E+00  0.2390E+00  0.2390E+00
      0.007  0.0000E+00  0.0000E+00  0.2390E+00  0.2390E+00
      0.047  0.0000E+00  0.0000E+00  0.2400E+00  0.2400E+00
      0.088  0.0000E+00  0.0000E+00  0.2410E+00  0.2410E+00
      0.128  0.0000E+00  0.0000E+00  0.2410E+00  0.2410E+00
      0.169  0.0000E+00  0.0000E+00  0.2410E+00  0.2410E+00
      0.209  0.0000E+00  0.0000E+00  0.2410E+00  0.2410E+00
      0.250  0.0000E+00  0.0000E+00  0.2420E+00  0.2420E+00
      0.290  0.0000E+00  0.0000E+00  0.2420E+00  0.2420E+00
      0.331  0.0000E+00  0.0000E+00  0.2420E+00  0.2420E+00
      0.371  0.0000E+00  0.0000E+00  0.2420E+00  0.2420E+00
      0.412  0.0000E+00  0.0000E+00  0.2430E+00  0.2430E+00
      0.452  0.0000E+00  0.0000E+00  0.2430E+00  0.2430E+00
      0.493  0.0000E+00  0.0000E+00  0.2440E+00  0.2440E+00
      0.533  0.0000E+00  0.0000E+00  0.2440E+00  0.2440E+00
      0.574  0.0000E+00  0.0000E+00  0.2450E+00  0.2450E+00
      0.614  0.0000E+00  0.0000E+00  0.2460E+00  0.2460E+00
      0.655  0.0000E+00  0.0000E+00  0.2470E+00  0.2470E+00
      0.695  0.0000E+00  0.0000E+00  0.2480E+00  0.2480E+00
      0.736  0.0000E+00  0.0000E+00  0.2490E+00  0.2490E+00
      0.776  0.0000E+00  0.0000E+00  0.2500E+00  0.2500E+00
      0.817  0.0000E+00  0.0000E+00  0.2510E+00  0.2510E+00
      0.857  0.0000E+00  0.0000E+00  0.2530E+00  0.2530E+00
      0.898  0.2899E-02  0.2990E-02  0.2541E+00  0.2541E+00
      0.938  0.0000E+00  0.0000E+00  0.2550E+00  0.2550E+00
      0.979  0.0000E+00  0.0000E+00  0.2560E+00  0.2560E+00
      1.019  0.0000E+00  0.0000E+00  0.2580E+00  0.2580E+00
      1.060  0.0000E+00  0.0000E+00  0.2580E+00  0.2580E+00
      1.100  0.0000E+00  0.0000E+00  0.2610E+00  0.2610E+00
      1.141  0.0000E+00  0.0000E+00  0.2630E+00  0.2630E+00
      1.181  0.0000E+00  0.0000E+00  0.2650E+00  0.2650E+00
      1.222  0.0000E+00  0.0000E+00  0.2670E+00  0.2670E+00
      1.262  0.0000E+00  0.0000E+00  0.2680E+00  0.2680E+00
      1.303  0.0000E+00  0.0000E+00  0.2690E+00  0.2690E+00
      1.343  0.0000E+00  0.0000E+00  0.2710E+00  0.2710E+00
      1.384  0.0000E+00  0.0000E+00  0.2720E+00  0.2720E+00
      1.424  0.0000E+00  0.0000E+00  0.2720E+00  0.2720E+00
      1.465  0.0000E+00  0.0000E+00  0.2720E+00  0.2720E+00
      1.505  0.0000E+00  0.0000E+00  0.2720E+00  0.2720E+00
      1.546  0.0000E+00  0.0000E+00  0.2720E+00  0.2720E+00
      1.586  0.0000E+00  0.0000E+00  0.2720E+00  0.2720E+00
      1.626  0.0000E+00  0.0000E+00  0.2720E+00  0.2720E+00
      1.667  0.0000E+00  0.0000E+00  0.2720E+00  0.2720E+00
      1.707  0.0000E+00  0.0000E+00  0.2720E+00  0.2720E+00
      1.748  0.0000E+00  0.0000E+00  0.2720E+00  0.2720E+00
      1.788  0.0000E+00  0.0000E+00  0.2720E+00  0.2720E+00
      1.829  0.0000E+00  0.0000E+00  0.2720E+00  0.2720E+00
      1.869  0.0000E+00  0.0000E+00  0.2720E+00  0.2720E+00
      1.910  0.0000E+00  0.0000E+00  0.2720E+00  0.2720E+00
