19
Energy = -24.58643768 eV
Ba 18.167174639763566 12.296648178886143 13.300813283930303
Ba 14.311793992320844 13.664427373853266 14.498233164212522
Ba 17.292308386044432 16.699918002795044 13.708479335794413
Ba 15.416371338362266 14.349981048546043 10.446773715896013
Ba 15.759544972151996 10.202636726973 16.5261618576404
Ba 11.467897290474035 10.740082298262184 15.295505072994308
Ba 15.924119535888616 18.711481624619363 10.058805411461186
Ba 11.246421938192386 13.422649256467064 11.52529601826359
Ba 12.245429191853754 16.750599294551023 8.462289349714203
Ba 14.418003949896772 10.259678860482655 12.09893230105937
Ba 17.446210794415112 14.213844308691037 17.337678477205767
Ba 12.970919492906077 17.29224077722545 12.695473309522747
Ba 16.75770644306484 11.614714087352198 0.23096552442664117
Ba 10.459329868581854 15.04526644988055 15.656247861861708
Ba 13.319836021136346 13.238001758667886 18.620594987621985
Ba 15.555955470640388 -0.02907082261828679 14.23092322626429
Ba 14.196080581091545 17.2223047829878 16.940599765603512
Ba 18.17450198111745 18.629688432036343 17.633798473432982
Ba 15.929135927283882 16.080431984039166 0.35128158463044645
