26
Energy = -36.55425344 eV
Ba 11.327748483453954 8.35209967654604 11.327748483453954
Ba 9.83992408 15.139200582329284 9.83992408
Ba 7.231953342538512 12.447894817461492 7.231953342538512
Ba 9.83992408 9.83992408 4.5406475776707165
Ba 14.218767240309921 11.122796248176686 5.461080919690075
Ba 14.218767240309921 14.218767240309921 8.557051911823455
Ba 11.122796248176686 14.218767240309921 5.461080919690075
Ba 11.122796248176686 5.461080919690075 14.218767240309921
Ba 9.83992408 9.83992408 15.139200582329284
Ba 7.231953342538512 7.231953342538512 12.447894817461492
Ba 9.83992408 4.5406475776707165 9.83992408
Ba 14.218767240309921 5.461080919690075 11.122796248176686
Ba 14.218767240309921 8.557051911823455 14.218767240309921
Ba 12.447894817461492 12.447894817461492 12.447894817461492
Ba 8.35209967654604 11.327748483453954 11.327748483453954
Ba 8.35209967654604 8.35209967654604 8.35209967654604
Ba 12.447894817461492 7.231953342538512 7.231953342538512
Ba 15.139200582329284 9.83992408 9.83992408
Ba 11.327748483453954 11.327748483453954 8.35209967654604
Ba 5.461080919690075 8.557051911823455 5.461080919690075
Ba 4.5406475776707165 9.83992408 9.83992408
Ba 8.557051911823455 5.461080919690075 5.461080919690075
Ba 5.461080919690075 5.461080919690075 8.557051911823455
Ba 8.557051911823455 14.218767240309921 14.218767240309921
Ba 5.461080919690075 11.122796248176686 14.218767240309921
Ba 5.461080919690075 14.218767240309921 11.122796248176686
