23
Energy = -31.90866107 eV
Ba 9.169757217176903 12.428128294488742 10.36232694
Ba 14.921365103993038 10.36232694 6.7535070677491795
Ba 12.48814926052527 6.683852707136057 8.095618981204101
Ba 12.48814926052527 6.683852707136057 12.629034898795902
Ba 14.921365103993038 10.36232694 13.97114681225082
Ba 16.218646702647238 12.64256401969006 10.36232694
Ba 16.218646702647238 8.082089860309942 10.36232694
Ba 5.460502414156482 14.291990588116354 10.36232694
Ba 8.08001441827235 14.30894636359286 6.751419060164112
Ba 6.1092476436746175 10.36232694 8.098348748677822
Ba 6.1092476436746175 10.36232694 12.626305131322178
Ba 8.08001441827235 14.30894636359286 13.973234819835888
Ba 9.413814517068747 16.5747479715693 10.36232694
Ba 12.48814926052527 14.040801172863945 8.095618981204101
Ba 10.3617146508774 10.36232694 6.618335642521619
Ba 9.169757217176903 8.296525585511256 10.36232694
Ba 10.3617146508774 10.36232694 14.106318237478384
Ba 12.48814926052527 14.040801172863945 12.629034898795902
Ba 12.75076840562084 10.36232694 10.36232694
Ba 9.413814517068747 4.1499059084307 10.36232694
Ba 8.08001441827235 6.415707516407142 6.751419060164112
Ba 8.08001441827235 6.415707516407142 13.973234819835888
Ba 5.460502414156482 6.432663291883646 10.36232694
