43
Energy = -60.93615658 eV
Ba 12.623251187837196 12.245483332360248 0.4973898428369438
Ba 16.38161262941738 14.619101232530625 22.805903669688295
Ba 16.6168140880304 10.311978186751354 22.725850219503215
Ba 12.55703772525808 16.15247881736612 21.2724756141428
Ba 14.420802629850138 12.448844484997045 19.580929706840916
Ba 10.097976939048575 13.087549564538566 19.806949335577706
Ba 20.299351193149008 17.033414848632585 21.930581711055936
Ba 16.218299516017524 18.536269372052455 20.710932091765514
Ba 18.53856682691832 10.625561060636318 18.705015075916126
Ba 20.376343744092253 12.69095903319284 22.187809511523906
Ba 0.951651897658573 19.781658430717304 21.462645190671928
Ba 14.290585696334166 16.258515952998845 17.417247105850272
Ba 19.914618818616063 20.96682855179248 20.216905987165095
Ba 12.362009808017271 20.18852309759325 19.039502174027962
Ba 1.2216094853610402 15.241183079657402 21.603365278660768
Ba 20.808294181597052 11.267305071278512 14.62969392792624
Ba 9.994845254015008 16.834275183557462 17.56115608366091
Ba 18.121314478366195 14.819933806379629 18.95901116816166
Ba 11.878304290696992 13.092087985184722 15.83152466441866
Ba 16.29112920028721 12.519792913684734 15.433372064381452
Ba 22.124263036180203 13.20030242147865 18.358594005926587
Ba 11.995136053948926 16.802297742864916 13.834792172267553
Ba 18.392395815710103 18.793792905450054 16.918511634328922
Ba 22.222230110866917 17.443682358024077 18.237611821401046
Ba 16.255267668448532 22.604989947395907 18.696832041077034
Ba 13.793192991050548 13.629163606629431 11.670420628627165
Ba 19.784849301462 15.125560388424306 15.19847212714649
Ba 14.738436449220746 20.1290235643808 15.563848108542935
Ba 20.093332273160428 2.1620519105323446 18.935887708146254
Ba 12.79176980348447 1.0909724498735405 16.746615684170514
Ba 16.318913787386805 16.412320103249005 13.51793718187752
Ba 22.91494064636885 21.817709760262137 17.502450582089367
Ba 18.131402145896885 12.872984732082037 11.523037511835483
Ba 10.781989212520593 20.798447085538832 14.741719373024248
Ba 0.8396494676752859 14.961325474660066 14.542257905521002
Ba 16.51532318924489 3.324651995424343 16.425258903004146
Ba 21.78231581650268 19.104208838067148 14.26160302756016
Ba 19.039132438008938 22.747098682226756 15.510566292638917
Ba 13.800575165262607 19.514796266699634 11.33631618051081
Ba 20.595236365880464 16.253234534215373 11.3008911083199
Ba 16.49302526162292 16.499202343327514 9.406878270369559
Ba 15.160918000714808 0.4658652640965945 13.2739317363804
Ba 17.985330413667256 19.955778076202943 12.253030005595141
