unknown system                          
           1
    19.326637    0.000000    0.000000
     0.000000   19.326637    0.000000
     0.000000    0.000000   19.326637
   Ag
  25
Direct configuration=     1
   0.45841195  0.55026760  0.38054154
   0.74389749  0.51840098  0.38264405
   0.68366174  0.64695711  0.39913549
   0.53816300  0.67421132  0.41378059
   0.60708786  0.52927180  0.42149653
   0.39930894  0.65977169  0.46334318
   0.49744719  0.43440866  0.47309700
   0.61252819  0.46849301  0.55690825
   0.37477690  0.51543758  0.49693270
   0.50524577  0.57422943  0.51060108
   0.72222156  0.56030480  0.51796688
   0.62874025  0.67212551  0.52861321
   0.53911132  0.35302156  0.59290581
   0.49350361  0.71214858  0.56246806
   0.60167675  0.72727957  0.66458059
   0.46313794  0.47273422  0.61070624
   0.56247158  0.59296058  0.63838333
   0.71620498  0.64450910  0.63809551
   0.67425982  0.36986789  0.65014295
   0.70750764  0.50745624  0.66055491
   0.40260631  0.60588966  0.61209670
   0.57737518  0.45919137  0.70359646
   0.63665673  0.59400736  0.75588237
   0.46891713  0.68820390  0.70886759
   0.46466508  0.54843539  0.73624388
Direct configuration=     2
   0.45841216  0.55024905  0.38047456
   0.74391315  0.51838873  0.38262717
   0.68364754  0.64700806  0.39911587
   0.53817834  0.67423759  0.41376804
   0.60707233  0.52921914  0.42151181
   0.39931455  0.65985605  0.46333288
   0.49748609  0.43438677  0.47310314
   0.61253124  0.46855243  0.55686765
   0.37471520  0.51539570  0.49696850
   0.50532162  0.57422868  0.51066484
   0.72224145  0.56030385  0.51801949
   0.62873523  0.67213115  0.52859818
   0.53906298  0.35298226  0.59289031
   0.49347498  0.71213681  0.56246215
   0.60166286  0.72730797  0.66458045
   0.46312455  0.47272018  0.61072334
   0.56247269  0.59292998  0.63833367
   0.71625535  0.64450439  0.63806612
   0.67429784  0.36986561  0.65016611
   0.70753342  0.50741904  0.66053522
   0.40258106  0.60589429  0.61210213
   0.57734452  0.45921690  0.70360950
   0.63670581  0.59399557  0.75591472
   0.46886896  0.68822551  0.70889254
   0.46463097  0.54842919  0.73625653
Direct configuration=     3
   0.45841278  0.55019340  0.38027362
   0.74396015  0.51835199  0.38257653
   0.68360493  0.64716088  0.39905700
   0.53822436  0.67431642  0.41373037
   0.60702573  0.52906114  0.42155765
   0.39933139  0.66010914  0.46330200
   0.49760280  0.43432110  0.47312155
   0.61254041  0.46873067  0.55674585
   0.37453007  0.51527007  0.49707592
   0.50554917  0.57422641  0.51085612
   0.72230114  0.56030102  0.51817731
   0.62872015  0.67214810  0.52855309
   0.53891796  0.35286437  0.59284381
   0.49338909  0.71210150  0.56244443
   0.60162121  0.72739316  0.66458001
   0.46308438  0.47267806  0.61077465
   0.56247603  0.59283819  0.63818467
   0.71640647  0.64449027  0.63797795
   0.67441189  0.36985876  0.65023560
   0.70761077  0.50730743  0.66047616
   0.40250530  0.60590816  0.61211841
   0.57725254  0.45929348  0.70364859
   0.63685306  0.59396023  0.75601175
   0.46872448  0.68829034  0.70896740
   0.46452864  0.54841061  0.73629449
Direct configuration=     4
   0.45841403  0.55008211  0.37987173
   0.74405415  0.51827850  0.38247525
   0.68351971  0.64746653  0.39893926
   0.53831640  0.67447407  0.41365503
   0.60693254  0.52874514  0.42164933
   0.39936507  0.66061532  0.46324023
   0.49783620  0.43418977  0.47315837
   0.61255875  0.46908715  0.55650226
   0.37415983  0.51501880  0.49729074
   0.50600427  0.57422189  0.51123867
   0.72242050  0.56029535  0.51849295
   0.62868999  0.67218199  0.52846291
   0.53862792  0.35262858  0.59275080
   0.49321731  0.71203088  0.56240898
   0.60153790  0.72756355  0.66457913
   0.46300405  0.47259381  0.61087726
   0.56248271  0.59265460  0.63788669
   0.71670870  0.64446203  0.63780162
   0.67463999  0.36984506  0.65037458
   0.70776547  0.50708421  0.66035804
   0.40235379  0.60593591  0.61215098
   0.57706858  0.45944665  0.70372678
   0.63714754  0.59388953  0.75620583
   0.46843551  0.68842000  0.70911711
   0.46432398  0.54837345  0.73637040
Direct configuration=     5
   0.45843513  0.55007188  0.37988853
   0.74404284  0.51830364  0.38248362
   0.68347392  0.64750041  0.39890375
   0.53832185  0.67449670  0.41364137
   0.60696894  0.52867059  0.42162411
   0.39944415  0.66073011  0.46321711
   0.49788823  0.43416859  0.47317221
   0.61255130  0.46911283  0.55650572
   0.37414574  0.51498381  0.49736322
   0.50596479  0.57419970  0.51113792
   0.72248847  0.56029597  0.51852439
   0.62868847  0.67220441  0.52844962
   0.53857000  0.35260041  0.59271568
   0.49315922  0.71201916  0.56242121
   0.60149669  0.72755592  0.66455883
   0.46295739  0.47255593  0.61090256
   0.56256543  0.59265899  0.63798972
   0.71679052  0.64445501  0.63776056
   0.67465797  0.36986219  0.65041365
   0.70781450  0.50703216  0.66032529
   0.40229726  0.60593192  0.61214662
   0.57703815  0.45948747  0.70372293
   0.63724660  0.59385304  0.75618695
   0.46833244  0.68844524  0.70915295
   0.46424490  0.54838883  0.73637639
Direct configuration=     6
   0.45849840  0.55004117  0.37993895
   0.74400891  0.51837904  0.38250873
   0.68333656  0.64760204  0.39879722
   0.53833821  0.67456458  0.41360040
   0.60707816  0.52844695  0.42154843
   0.39968136  0.66107446  0.46314777
   0.49804432  0.43410504  0.47321374
   0.61252894  0.46918989  0.55651610
   0.37410346  0.51487885  0.49758065
   0.50584637  0.57413315  0.51083568
   0.72269236  0.56029781  0.51861870
   0.62868392  0.67227166  0.52840974
   0.53839623  0.35251588  0.59261033
   0.49298497  0.71198399  0.56245788
   0.60137309  0.72753303  0.66449792
   0.46281740  0.47244228  0.61097846
   0.56281360  0.59267217  0.63829881
   0.71703600  0.64443396  0.63763739
   0.67471189  0.36991356  0.65053084
   0.70796160  0.50687602  0.66022705
   0.40212766  0.60591996  0.61213353
   0.57694686  0.45960992  0.70371138
   0.63754378  0.59374357  0.75613034
   0.46802324  0.68852096  0.70926046
   0.46400764  0.54843497  0.73639437
Direct configuration=     7
   0.45849924  0.55002242  0.37992598
   0.74401332  0.51841831  0.38251785
   0.68327691  0.64760798  0.39877054
   0.53836137  0.67459345  0.41357855
   0.60711456  0.52839008  0.42153147
   0.39973078  0.66116477  0.46310891
   0.49808242  0.43407491  0.47322355
   0.61251448  0.46920459  0.55654910
   0.37410044  0.51485872  0.49764546
   0.50586105  0.57413662  0.51091891
   0.72275045  0.56030561  0.51861365
   0.62866888  0.67227241  0.52841737
   0.53837017  0.35250516  0.59258397
   0.49296444  0.71195143  0.56250167
   0.60133670  0.72751629  0.66447582
   0.46278286  0.47243907  0.61099561
   0.56279112  0.59266822  0.63824228
   0.71709462  0.64443124  0.63760792
   0.67468455  0.36991743  0.65056330
   0.70801946  0.50686367  0.66019143
   0.40210071  0.60590618  0.61212221
   0.57692578  0.45963887  0.70369876
   0.63769362  0.59370384  0.75614739
   0.46792311  0.68853706  0.70927342
   0.46392387  0.54845658  0.73637978
Direct configuration=     8
   0.45850177  0.54996618  0.37988705
   0.74402657  0.51853610  0.38254522
   0.68309798  0.64762582  0.39869050
   0.53843085  0.67468007  0.41351299
   0.60722378  0.52821946  0.42148058
   0.39987905  0.66143569  0.46299233
   0.49819669  0.43398450  0.47325298
   0.61247108  0.46924870  0.55664808
   0.37409138  0.51479835  0.49783988
   0.50590507  0.57414706  0.51116859
   0.72292473  0.56032898  0.51859852
   0.62862378  0.67227466  0.52844026
   0.53829199  0.35247300  0.59250491
   0.49290285  0.71185376  0.56263303
   0.60122755  0.72746607  0.66440951
   0.46267924  0.47242945  0.61104704
   0.56272371  0.59265638  0.63807267
   0.71727047  0.64442307  0.63751948
   0.67460251  0.36992906  0.65066066
   0.70819304  0.50682660  0.66008458
   0.40201987  0.60586484  0.61208828
   0.57686256  0.45972570  0.70366089
   0.63814315  0.59358466  0.75619854
   0.46762272  0.68858534  0.70931230
   0.46367255  0.54852142  0.73633604
Direct configuration=     9
   0.45854169  0.54996484  0.37998730
   0.74405648  0.51857279  0.38253223
   0.68303386  0.64764084  0.39866341
   0.53842477  0.67466399  0.41352340
   0.60719346  0.52816033  0.42150569
   0.39996365  0.66149227  0.46295574
   0.49823253  0.43399260  0.47325864
   0.61248023  0.46927391  0.55666222
   0.37411451  0.51479103  0.49788316
   0.50586666  0.57411092  0.51094584
   0.72297227  0.56034090  0.51860233
   0.62863525  0.67227218  0.52842484
   0.53825487  0.35246104  0.59247907
   0.49285815  0.71186450  0.56266067
   0.60119388  0.72742245  0.66440688
   0.46263981  0.47238080  0.61107268
   0.56282133  0.59266997  0.63831327
   0.71731838  0.64443123  0.63749034
   0.67458128  0.36993871  0.65069735
   0.70824919  0.50679170  0.66003793
   0.40194404  0.60586663  0.61208560
   0.57683906  0.45979549  0.70365704
   0.63824784  0.59353427  0.75609551
   0.46752091  0.68861028  0.70932561
   0.46360080  0.54854124  0.73631815
Direct configuration=    10
   0.45857371  0.54996377  0.38006769
   0.74408046  0.51860222  0.38252181
   0.68298244  0.64765288  0.39864169
   0.53841990  0.67465109  0.41353176
   0.60716916  0.52811292  0.42152584
   0.40003148  0.66153763  0.46292639
   0.49826126  0.43399910  0.47326319
   0.61248757  0.46929412  0.55667356
   0.37413306  0.51478517  0.49791787
   0.50583585  0.57408193  0.51076723
   0.72301039  0.56035047  0.51860540
   0.62864444  0.67227019  0.52841247
   0.53822510  0.35245145  0.59245835
   0.49282231  0.71187310  0.56268284
   0.60116689  0.72738748  0.66440477
   0.46260819  0.47234179  0.61109325
   0.56289962  0.59268087  0.63850620
   0.71735680  0.64443778  0.63746698
   0.67456425  0.36994645  0.65072676
   0.70829422  0.50676371  0.66000051
   0.40188324  0.60586806  0.61208344
   0.57682022  0.45985145  0.70365395
   0.63833179  0.59349387  0.75601289
   0.46743927  0.68863028  0.70933628
   0.46354326  0.54855712  0.73630380
Direct configuration=    11
   0.45859254  0.54994022  0.38009722
   0.74410503  0.51866715  0.38251497
   0.68288773  0.64765806  0.39859841
   0.53843686  0.67467115  0.41351762
   0.60719980  0.52802341  0.42152879
   0.40011595  0.66163847  0.46287201
   0.49831275  0.43397343  0.47327771
   0.61248424  0.46933185  0.55671077
   0.37413872  0.51476450  0.49799532
   0.50585073  0.57408129  0.51077980
   0.72308265  0.56036714  0.51859650
   0.62863177  0.67225746  0.52841713
   0.53818208  0.35243603  0.59242116
   0.49278130  0.71184478  0.56273605
   0.60111815  0.72734924  0.66439591
   0.46255838  0.47231466  0.61111715
   0.56290360  0.59267926  0.63856904
   0.71743686  0.64444689  0.63742189
   0.67451986  0.36995642  0.65078023
   0.70839001  0.50672318  0.65992766
   0.40181369  0.60585701  0.61206393
   0.57679233  0.45992644  0.70364644
   0.63854931  0.59342581  0.75596990
   0.46728341  0.68866667  0.70934835
   0.46341714  0.54858436  0.73628095
Direct configuration=    12
   0.45864903  0.54986956  0.38018583
   0.74417874  0.51886195  0.38249443
   0.68260358  0.64767360  0.39846859
   0.53848774  0.67473134  0.41347522
   0.60729175  0.52775489  0.42153766
   0.40036934  0.66194099  0.46270887
   0.49846720  0.43389640  0.47332127
   0.61247426  0.46944505  0.55682237
   0.37415571  0.51470250  0.49822769
   0.50589536  0.57407935  0.51081752
   0.72329945  0.56041716  0.51856980
   0.62859376  0.67221927  0.52843110
   0.53805301  0.35238976  0.59230959
   0.49265828  0.71175983  0.56289569
   0.60097193  0.72723454  0.66436935
   0.46240895  0.47223327  0.61118883
   0.56291554  0.59267443  0.63875756
   0.71767704  0.64447423  0.63728662
   0.67438668  0.36998634  0.65094063
   0.70867740  0.50660158  0.65970910
   0.40160505  0.60582387  0.61200540
   0.57670867  0.46015141  0.70362389
   0.63920186  0.59322164  0.75584093
   0.46681581  0.68877586  0.70938455
   0.46303876  0.54866608  0.73621239
Direct configuration=    13
   0.45864076  0.54984508  0.38015866
   0.74420165  0.51891788  0.38247695
   0.68255987  0.64764474  0.39845025
   0.53850140  0.67475046  0.41346145
   0.60733391  0.52772796  0.42153918
   0.40035987  0.66194207  0.46268232
   0.49846797  0.43388485  0.47333029
   0.61246100  0.46944973  0.55685765
   0.37416111  0.51470279  0.49823128
   0.50596052  0.57410569  0.51103490
   0.72331307  0.56043034  0.51852584
   0.62856209  0.67218202  0.52846448
   0.53806755  0.35240244  0.59230614
   0.49267790  0.71173041  0.56293108
   0.60096351  0.72721963  0.66439136
   0.46240648  0.47225688  0.61118488
   0.56278377  0.59267402  0.63862057
   0.71768953  0.64447874  0.63727590
   0.67432212  0.36997705  0.65096752
   0.70874897  0.50660970  0.65965537
   0.40160264  0.60581535  0.61198244
   0.57671885  0.46017161  0.70363096
   0.63937427  0.59319628  0.75586908
   0.46674161  0.68879245  0.70936007
   0.46296449  0.54867672  0.73619627
Direct configuration=    14
   0.45863662  0.54983284  0.38014507
   0.74421311  0.51894586  0.38246821
   0.68253801  0.64763030  0.39844107
   0.53850823  0.67476002  0.41345456
   0.60735499  0.52771449  0.42153995
   0.40035514  0.66194262  0.46266904
   0.49846835  0.43387907  0.47333480
   0.61245436  0.46945208  0.55687529
   0.37416381  0.51470293  0.49823308
   0.50599310  0.57411886  0.51114360
   0.72331988  0.56043693  0.51850386
   0.62854625  0.67216340  0.52848117
   0.53807481  0.35240878  0.59230442
   0.49268771  0.71171570  0.56294877
   0.60095930  0.72721217  0.66440237
   0.46240525  0.47226870  0.61118291
   0.56271787  0.59267382  0.63855207
   0.71769578  0.64448100  0.63727053
   0.67428984  0.36997240  0.65098097
   0.70878476  0.50661376  0.65962850
   0.40160143  0.60581108  0.61197096
   0.57672394  0.46018171  0.70363450
   0.63946048  0.59318361  0.75588316
   0.46670451  0.68880074  0.70934783
   0.46292736  0.54868204  0.73618821
