 vasp.5.3.5 31Mar14 (build Feb 01 2018 12:10:03) gamma-only                     
  
 executed on             LinuxIFC date 2019.03.23  15:48:37
 running on   64 total cores
 distrk:  each k-point on   64 cores,    1 groups
 distr:  one band on NCORES_PER_BAND=  16 cores,    4 groups


--------------------------------------------------------------------------------------------------------


 INCAR:
 POTCAR:    PAW_PBE Ag 02Apr2005                  
 POTCAR:    PAW_PBE Ag 02Apr2005                  
   VRHFIN =Ag : s1 d10                                                          
   LEXCH  = PE                                                                  
   EATOM  =  1037.2675 eV,   76.2370 Ry                                         
                                                                                
   TITEL  = PAW_PBE Ag 02Apr2005                                                
   LULTRA =        F    use ultrasoft PP ?                                      
   IUNSCR =        1    unscreen: 0-lin 1-nonlin 2-no                           
   RPACOR =    2.000    partial core radius                                     
   POMASS =  107.868; ZVAL   =   11.000    mass and valenz                      
   RCORE  =    2.500    outmost cutoff radius                                   
   RWIGS  =    2.840; RWIGS  =    1.503    wigner-seitz radius (au A)           
   ENMAX  =  249.844; ENMIN  =  187.383 eV                                      
   ICORE  =        3    local potential                                         
   LCOR   =        T    correct aug charges                                     
   LPAW   =        T    paw PP                                                  
   EAUG   =  412.496                                                            
   DEXC   =    0.000                                                            
   RMAX   =    2.560    core radius for proj-oper                               
   RAUG   =    1.300    factor for augmentation sphere                          
   RDEP   =    2.576    radius for radial grids                                 
   RDEPT  =    2.072    core radius for aug-charge                              
                                                                                
   Atomic configuration                                                         
   12 entries                                                                   
     n  l   j            E        occ.                                          
     1  0  0.50    -25324.9161   2.0000                                         
     2  0  0.50     -3728.5341   2.0000                                         
     2  1  1.50     -3344.0404   6.0000                                         
     3  0  0.50      -683.5581   2.0000                                         
     3  1  1.50      -557.3225   6.0000                                         
     3  2  2.50      -358.3853  10.0000                                         
     4  0  0.50       -95.0341   2.0000                                         
     4  1  1.50       -58.5511   6.0000                                         
     4  2  2.50        -7.4440  10.0000                                         
     5  0  0.50        -4.4045   1.0000                                         
     5  1  0.50        -1.3606   0.0000                                         
     4  3  2.50        -1.3606   0.0000                                         
   Description                                                                  
     l       E           TYP  RCUT    TYP  RCUT                                 
     2     -7.4439781     23  2.400                                             
     2     -8.8045607     23  2.400                                             
     0     -4.4044681     23  2.400                                             
     0      1.9520038     23  2.400                                             
     1     -1.3605826     23  2.500                                             
     1     27.2116520     23  2.500                                             
     3     -4.0817478     23  2.400                                             
  local pseudopotential read in
  partial core-charges read in
  partial kinetic energy density read in
  atomic valenz-charges read in
  non local Contribution for L=           2  read in
    real space projection operators read in
  non local Contribution for L=           2  read in
    real space projection operators read in
  non local Contribution for L=           0  read in
    real space projection operators read in
  non local Contribution for L=           0  read in
    real space projection operators read in
  non local Contribution for L=           1  read in
    real space projection operators read in
  non local Contribution for L=           1  read in
    real space projection operators read in
    PAW grid and wavefunctions read in
 
   number of l-projection  operators is LMAX  =           6
   number of lm-projection operators is LMMAX =          18
 

 ----------------------------------------------------------------------------- 
|                                                                             |
|  ADVICE TO THIS USER RUNNING 'VASP/VAMP'   (HEAR YOUR MASTER'S VOICE ...):  |
|                                                                             |
|      You have a (more or less) 'large supercell' and for larger cells       |
|      it might be more efficient to use real space projection opertators     |
|      So try LREAL= Auto  in the INCAR   file.                               |
|      Mind: At the moment your POTCAR file does not contain real space       |
|       projectors, and has to be modified,  BUT if you                       |
|      want to do an extremely  accurate calculation you might also keep the  |
|      reciprocal projection scheme          (i.e. LREAL=.FALSE.)             |
|                                                                             |
 ----------------------------------------------------------------------------- 

  PAW_PBE Ag 02Apr2005                  :
 energy of atom  1       EATOM=-1037.2675
 kinetic energy error for atom=    0.0689 (will be added to EATOM!!)
 
 
 POSCAR: Ti42, -280.4302161 <s> Ag </s>          
  positions in direct lattice
  No initial velocities read in
 exchange correlation table for  LEXCH =        8
   RHO(1)=    0.500       N(1)  =     2000
   RHO(2)=  100.500       N(2)  =     4000
 


--------------------------------------------------------------------------------------------------------


 ion  position               nearest neighbor table
   1  0.682  0.538  0.462-   7 2.62   5 2.64   6 2.64   3 2.65   4 2.75  17 2.85
   2  0.585  0.455  0.362-  12 2.41   5 2.73  10 2.76  11 2.79   6 2.82  22 2.96
   3  0.690  0.480  0.560-   7 2.61   1 2.65  17 2.68   9 2.70   5 2.75  13 2.90
   4  0.657  0.653  0.476-   7 2.61  15 2.66   1 2.75  16 2.79  21 2.80  14 2.90   6 3.03  17 3.38

   5  0.612  0.450  0.476-   8 2.59   1 2.64   2 2.73   3 2.75  17 2.75  26 2.88  11 2.91  10 2.91
                             9 3.08   6 3.34
   6  0.592  0.570  0.399-   1 2.64  11 2.66  18 2.78  16 2.81  12 2.81   2 2.82  14 2.85   4 3.03
                             5 3.34  17 3.49
   7  0.703  0.592  0.559-  21 2.61   4 2.61   3 2.61   1 2.62  13 2.69  17 2.79
   8  0.612  0.348  0.521-   5 2.59  19 2.65  20 2.66  26 2.74  10 2.81   9 2.84
   9  0.594  0.434  0.606-  31 2.60   3 2.70  20 2.76  26 2.81   8 2.84  17 2.88  38 2.96   5 3.08
                            13 3.13  33 3.46
  10  0.546  0.359  0.421-  22 2.67  19 2.69   2 2.76  27 2.78  26 2.81   8 2.81   5 2.91  11 3.53

  11  0.506  0.505  0.438-   6 2.66  12 2.70  29 2.79   2 2.79  18 2.83  22 2.84   5 2.91  25 2.91
                            33 3.09  26 3.11  14 3.13  32 3.16  17 3.37  10 3.53
  12  0.514  0.519  0.323-   2 2.41  11 2.70  25 2.72  18 2.75   6 2.81  22 2.83
  13  0.640  0.553  0.648-  17 2.60   7 2.69  31 2.72  30 2.88   3 2.90  21 2.92   9 3.13
  14  0.537  0.622  0.496-  17 2.56  23 2.59  16 2.74  15 2.82  34 2.83  24 2.83  18 2.84   6 2.85
                             4 2.90  11 3.13  21 3.13  32 3.22  30 3.32  33 3.36
  15  0.581  0.735  0.503-  24 2.49  16 2.58   4 2.66  23 2.73  21 2.81  14 2.82
  16  0.568  0.688  0.403-  15 2.58  18 2.69  14 2.74  23 2.78   4 2.79   6 2.81
  17  0.594  0.543  0.547-  14 2.56  13 2.60   3 2.68   5 2.75   7 2.79   1 2.85   9 2.88  33 2.89
                            30 2.99  21 3.08  11 3.37  31 3.37   4 3.38   6 3.49
  18  0.481  0.613  0.388-  32 2.47  16 2.69  12 2.75   6 2.78  11 2.83  14 2.84  23 2.95  25 2.97

  19  0.517  0.287  0.506-  20 2.63  27 2.63   8 2.65  28 2.69  10 2.69  26 2.77
  20  0.541  0.327  0.609-  19 2.63   8 2.66  38 2.70  26 2.72  28 2.74   9 2.76
  21  0.623  0.664  0.591-   7 2.61  24 2.74  30 2.77   4 2.80  15 2.81  13 2.92  17 3.08  14 3.13

  22  0.463  0.417  0.365-  25 2.62  10 2.67  27 2.82  12 2.83  11 2.84   2 2.96  29 3.02  35 3.06

  23  0.471  0.708  0.471-  14 2.59  15 2.73  24 2.74  16 2.78  18 2.95  34 3.00  32 3.07
  24  0.513  0.706  0.581-  15 2.49  34 2.59  30 2.70  23 2.74  21 2.74  14 2.83
  25  0.405  0.513  0.365-  22 2.62  37 2.64  12 2.72  11 2.91  32 2.91  35 2.93  29 2.94  18 2.97

  26  0.509  0.404  0.526-  20 2.72   8 2.74  28 2.74  19 2.77  33 2.80  10 2.81   9 2.81   5 2.88
                            29 2.88  38 2.92  27 3.08  11 3.11  42 3.57
  27  0.432  0.332  0.446-  36 2.62  19 2.63  10 2.78  22 2.82  28 2.89  29 2.94  35 3.07  26 3.08

  28  0.430  0.329  0.570-  36 2.61  19 2.69  26 2.74  20 2.74  42 2.84  27 2.89  38 2.90
  29  0.406  0.452  0.476-  35 2.48  41 2.73  36 2.77  11 2.79  37 2.79  26 2.88  42 2.90  27 2.94
                            25 2.94  40 2.97  33 3.00  22 3.02  32 3.32
  30  0.529  0.607  0.638-  31 2.58  24 2.70  21 2.77  34 2.77  13 2.88  39 2.93  17 2.99  33 3.02
                            14 3.32
  31  0.538  0.503  0.675-  30 2.58  38 2.58   9 2.60  13 2.72  39 2.75  33 2.93  17 3.37
  32  0.406  0.594  0.461-  18 2.47  37 2.61  34 2.63  40 2.75  25 2.91  23 3.07  11 3.16  14 3.22
                            29 3.32  33 3.49
  33  0.475  0.513  0.567-  39 2.46  34 2.79  26 2.80  17 2.89  40 2.90  31 2.93  38 2.94  29 3.00
                            42 3.00  30 3.02  11 3.09  14 3.36   9 3.46  32 3.49
  34  0.437  0.627  0.565-  24 2.59  32 2.63  30 2.77  33 2.79  40 2.79  14 2.83  23 3.00  39 3.02

  35  0.337  0.414  0.403-  29 2.48  36 2.77  37 2.79  41 2.80  25 2.93  22 3.06  27 3.07
  36  0.341  0.357  0.508-  41 2.44  28 2.61  27 2.62  35 2.77  29 2.77  42 2.86
  37  0.319  0.527  0.439-  41 2.48  32 2.61  25 2.64  40 2.77  35 2.79  29 2.79
  38  0.475  0.415  0.647-  31 2.58  42 2.65  20 2.70  28 2.90  26 2.92  33 2.94   9 2.96  39 3.05

  39  0.426  0.536  0.658-  33 2.46  31 2.75  30 2.93  40 2.97  42 3.00  34 3.02  38 3.05
  40  0.354  0.541  0.552-  42 2.70  41 2.72  32 2.75  37 2.77  34 2.79  33 2.90  29 2.97  39 2.97

  41  0.293  0.450  0.509-  36 2.44  37 2.48  40 2.72  29 2.73  35 2.80  42 2.81
  42  0.376  0.435  0.596-  38 2.65  40 2.70  41 2.81  28 2.84  36 2.86  29 2.90  39 3.00  33 3.00
                            26 3.57
 
  LATTYP: Found a simple cubic cell.
 ALAT       =    23.2337081906
  
  Lattice vectors:
  
 A1 = (  23.2337081906,   0.0000000000,   0.0000000000)
 A2 = (   0.0000000000,  23.2337081906,   0.0000000000)
 A3 = (   0.0000000000,   0.0000000000,  23.2337081906)


Analysis of symmetry for initial positions (statically):
=====================================================================
 Subroutine PRICEL returns:
 Original cell was already a primitive cell.
 

 Routine SETGRP: Setting up the symmetry group for a 
 simple cubic supercell.


 Subroutine GETGRP returns: Found  1 space group operations
 (whereof  1 operations were pure point group operations)
 out of a pool of 48 trial point group operations.


The static configuration has the point symmetry C_1 .


Analysis of symmetry for dynamics (positions and initial velocities):
=====================================================================
 Subroutine PRICEL returns:
 Original cell was already a primitive cell.
 

 Routine SETGRP: Setting up the symmetry group for a 
 simple cubic supercell.


 Subroutine GETGRP returns: Found  1 space group operations
 (whereof  1 operations were pure point group operations)
 out of a pool of 48 trial point group operations.


The dynamic configuration has the point symmetry C_1 .


Analysis of magnetic symmetry:
=====================================================================
 Subroutine PRICEL returns:
 Original cell was already a primitive cell.
 

 Subroutine MAGSYM returns: Found  1 space group operations
 (whereof  1 operations were pure point group operations)
 out of a pool of  1 trial space group operations
 (whereof  1 operations were pure point group operations)
 and found also     1 'primitive' translations


The magnetic configuration has the point symmetry C_1 .
 
 
 KPOINTS: Gamma-point only                        
  k-points in reciprocal lattice
Space group operators:
 irot       det(A)        alpha          n_x          n_y          n_z        tau_x        tau_y        tau_z
    1     1.000000     0.000001     1.000000     0.000000     0.000000     0.000000     0.000000     0.000000


--------------------------------------------------------------------------------------------------------




 Dimension of arrays:
   k-points           NKPTS =      1   k-points in BZ     NKDIM =      1   number of bands    NBANDS=    300
   number of dos      NEDOS =    301   number of ions     NIONS =     42
   non local maximal  LDIM  =      6   non local SUM 2l+1 LMDIM =     18
   total plane-waves  NPLWV = 729000
   max r-space proj   IRMAX =      1   max aug-charges    IRDMAX=   3057
   dimension x,y,z NGX =    90 NGY =   90 NGZ =   90
   dimension x,y,z NGXF=   180 NGYF=  180 NGZF=  180
   support grid    NGXF=   180 NGYF=  180 NGZF=  180
   ions per type =              42
 NGX,Y,Z   is equivalent  to a cutoff of   6.44,  6.44,  6.44 a.u.
 NGXF,Y,Z  is equivalent  to a cutoff of  12.88, 12.88, 12.88 a.u.


 I would recommend the setting:
   dimension x,y,z NGX =    90 NGY =   90 NGZ =   90
 SYSTEM =  unknown system                          
 POSCAR =  Ti42, -280.4302161 <s> Ag </s>          

 Startparameter for this run:
   NWRITE =      2    write-flag & timer
   PREC   = normal    normal or accurate (medium, high low for compatibility)
   ISTART =      0    job   : 0-new  1-cont  2-samecut
   ICHARG =      2    charge: 1-file 2-atom 10-const
   ISPIN  =      2    spin polarized calculation?
   LNONCOLLINEAR =      F non collinear calculations
   LSORBIT =      F    spin-orbit coupling
   INIWAV =      1    electr: 0-lowe 1-rand  2-diag
   LASPH  =      F    aspherical Exc in radial PAW
   METAGGA=      F    non-selfconsistent MetaGGA calc.

 Electronic Relaxation 1
   ENCUT  =  249.8 eV  18.36 Ry    4.29 a.u.  29.94 29.94 29.94*2*pi/ulx,y,z
   ENINI  =  249.8     initial cutoff
   ENAUG  =  412.5 eV  augmentation charge cutoff
   NELM   =     60;   NELMIN=  2; NELMDL= -5     # of ELM steps 
   EDIFF  = 0.1E-03   stopping-criterion for ELM
   LREAL  =      F    real-space projection
   NLSPLINE    = F    spline interpolate recip. space projectors
   LCOMPAT=      F    compatible to vasp.4.4
   GGA_COMPAT  = T    GGA compatible to vasp.4.4-vasp.4.6
   LMAXPAW     = -100 max onsite density
   LMAXMIX     =    2 max onsite mixed and CHGCAR
   VOSKOWN=      0    Vosko Wilk Nusair interpolation
   ROPT   =    0.00000
 Ionic relaxation
   EDIFFG = 0.1E-02   stopping-criterion for IOM
   NSW    =   1000    number of steps for IOM
   NBLOCK =      1;   KBLOCK =   1000    inner block; outer block 
   IBRION =      2    ionic relax: 0-MD 1-quasi-New 2-CG
   NFREE  =      1    steps in history (QN), initial steepest desc. (CG)
   ISIF   =      2    stress and relaxation
   IWAVPR =     11    prediction:  0-non 1-charg 2-wave 3-comb
   ISYM   =      2    0-nonsym 1-usesym 2-fastsym
   LCORR  =      T    Harris-Foulkes like correction to forces

   POTIM  = 0.1000    time-step for ionic-motion
   TEIN   =    0.0    initial temperature
   TEBEG  =    0.0;   TEEND  =   0.0 temperature during run
   SMASS  =  -3.00    Nose mass-parameter (am)
   estimated Nose-frequenzy (Omega)   =  0.10E-29 period in steps =****** mass=  -0.123E-25a.u.
   SCALEE = 1.0000    scale energy and forces
   NPACO  =    256;   APACO  = 16.0  distance and # of slots for P.C.
   PSTRESS=    0.0 pullay stress

  Mass of Ions in am
   POMASS = 107.87
  Ionic Valenz
   ZVAL   =  11.00
  Atomic Wigner-Seitz radii
   RWIGS  =  -1.00
  virtual crystal weights 
   VCA    =   1.00
   NELECT =     462.0000    total number of electrons
   NUPDOWN=      -1.0000    fix difference up-down

 DOS related values:
   EMIN   =  10.00;   EMAX   =-10.00  energy-range for DOS
   EFERMI =   0.00
   ISMEAR =     0;   SIGMA  =   0.00  broadening in eV -4-tet -1-fermi 0-gaus

 Electronic relaxation 2 (details)
   IALGO  =     38    algorithm
   LDIAG  =      T    sub-space diagonalisation (order eigenvalues)
   LSUBROT=      F    optimize rotation matrix (better conditioning)
   TURBO    =      0    0=normal 1=particle mesh
   IRESTART =      0    0=no restart 2=restart with 2 vectors
   NREBOOT  =      0    no. of reboots
   NMIN     =      0    reboot dimension
   EREF     =   0.00    reference energy to select bands
   IMIX   =      4    mixing-type and parameters
     AMIX     =   0.40;   BMIX     =  1.00
     AMIX_MAG =   1.60;   BMIX_MAG =  1.00
     AMIN     =   0.10
     WC   =   100.;   INIMIX=   1;  MIXPRE=   1;  MAXMIX= -45

 Intra band minimization:
   WEIMIN = 0.0010     energy-eigenvalue tresh-hold
   EBREAK =  0.83E-07  absolut break condition
   DEPER  =   0.30     relativ break condition  

   TIME   =   0.40     timestep for ELM

  volume/ion in A,a.u.               =     298.61      2015.13
  Fermi-wavevector in a.u.,A,eV,Ry     =   0.544716  1.029364  4.037063  0.296716
  Thomas-Fermi vector in A             =   1.573762
 
 Write flags
   LWAVE  =      F    write WAVECAR
   LCHARG =      F    write CHGCAR
   LVTOT  =      F    write LOCPOT, total local potential
   LVHAR  =      F    write LOCPOT, Hartree potential only
   LELF   =      F    write electronic localiz. function (ELF)
   LORBIT =      0    0 simple, 1 ext, 2 COOP (PROOUT)


 Dipole corrections
   LMONO  =      F    monopole corrections only (constant potential shift)
   LDIPOL =      F    correct potential (dipole corrections)
   IDIPOL =      0    1-x, 2-y, 3-z, 4-all directions 
   EPSILON=  1.0000000 bulk dielectric constant

 Exchange correlation treatment:
   GGA     =    PE    GGA type
   LEXCH   =     8    internal setting for exchange type
   VOSKOWN=      0    Vosko Wilk Nusair interpolation
   LHFCALC =     F    Hartree Fock is set to
   LHFONE  =     F    Hartree Fock one center treatment
   AEXX    =    0.0000 exact exchange contribution

 Linear response parameters
   LEPSILON=     F    determine dielectric tensor
   LRPA    =     F    only Hartree local field effects (RPA)
   LNABLA  =     F    use nabla operator in PAW spheres
   LVEL    =     F    velocity operator in full k-point grid
   LINTERFAST=   F  fast interpolation
   KINTER  =     0    interpolate to denser k-point grid
   CSHIFT  =0.1000    complex shift for real part using Kramers Kronig
   OMEGAMAX=  -1.0    maximum frequency
   DEG_THRESHOLD= 0.2000000E-02 threshold for treating states as degnerate
   RTIME   =    0.100 relaxation time in fs

 Orbital magnetization related:
   ORBITALMAG=     F  switch on orbital magnetization
   LCHIMAG   =     F  perturbation theory with respect to B field
   DQ        =  0.001000  dq finite difference perturbation B field



--------------------------------------------------------------------------------------------------------


 conjugate gradient relaxation of ions
 charge density and potential will be updated during run
 spin polarized calculation
 Variant of blocked Davidson
 Davidson routine will perform the subspace rotation
 perform sub-space diagonalisation
    after iterative eigenvector-optimisation
 modified Broyden-mixing scheme, WC =      100.0
 initial mixing is a Kerker type mixing with AMIX =  0.4000 and BMIX =      1.0000
 Hartree-type preconditioning will be used
 using additional bands           69
 reciprocal scheme for non local part
 use partial core corrections
 calculate Harris-corrections to forces 
   (improved forces if not selfconsistent)
 use gradient corrections 
 use of overlap-Matrix (Vanderbilt PP)
 Gauss-broadening in eV      SIGMA  =   0.00


--------------------------------------------------------------------------------------------------------


  energy-cutoff  :      249.84
  volume of cell :    12541.68
      direct lattice vectors                 reciprocal lattice vectors
    23.233708191  0.000000000  0.000000000     0.043040912  0.000000000  0.000000000
     0.000000000 23.233708191  0.000000000     0.000000000  0.043040912  0.000000000
     0.000000000  0.000000000 23.233708191     0.000000000  0.000000000  0.043040912

  length of vectors
    23.233708191 23.233708191 23.233708191     0.043040912  0.043040912  0.043040912


 
 k-points in units of 2pi/SCALE and weight: Gamma-point only                        
   0.00000000  0.00000000  0.00000000       1.000
 
 k-points in reciprocal lattice and weights: Gamma-point only                        
   0.00000000  0.00000000  0.00000000       1.000
 
 position of ions in fractional coordinates (direct lattice) 
   0.68198745  0.53826704  0.46195731
   0.58476812  0.45466975  0.36180589
   0.68996922  0.48028678  0.55970015
   0.65666433  0.65319448  0.47620234
   0.61214346  0.45002207  0.47609264
   0.59233515  0.56992726  0.39934832
   0.70275073  0.59209232  0.55866356
   0.61214673  0.34805135  0.52120342
   0.59449000  0.43379667  0.60641147
   0.54581270  0.35933236  0.42059598
   0.50633617  0.50482109  0.43791195
   0.51361806  0.51918228  0.32289010
   0.64041451  0.55315667  0.64814518
   0.53736683  0.62213978  0.49605283
   0.58110825  0.73508615  0.50308249
   0.56798490  0.68820763  0.40321730
   0.59386112  0.54274782  0.54704224
   0.48133443  0.61283706  0.38769577
   0.51665273  0.28712404  0.50621594
   0.54119738  0.32747485  0.60885807
   0.62288408  0.66407418  0.59138363
   0.46337577  0.41667510  0.36498971
   0.47129758  0.70837151  0.47091862
   0.51340110  0.70648013  0.58089949
   0.40466291  0.51304841  0.36526698
   0.50872344  0.40417594  0.52644559
   0.43199954  0.33189916  0.44611988
   0.42962131  0.32854541  0.57028109
   0.40574287  0.45177631  0.47618198
   0.52928791  0.60673377  0.63794162
   0.53844614  0.50261954  0.67483425
   0.40632724  0.59397509  0.46082489
   0.47470972  0.51256499  0.56666253
   0.43707805  0.62655491  0.56477950
   0.33739926  0.41356972  0.40334038
   0.34075821  0.35681935  0.50791164
   0.31931643  0.52657487  0.43910625
   0.47545136  0.41523238  0.64734854
   0.42627804  0.53648229  0.65792535
   0.35398572  0.54052213  0.55234269
   0.29300775  0.45022820  0.50920512
   0.37563632  0.43506728  0.59630532
 
 position of ions in cartesian coordinates  (Angst):
  15.84509751 12.50593930 10.73298127
  13.58633188 10.56366427  8.40609251
  16.03054363 11.15884296 13.00390986
  15.25674736 15.17612993 11.06394632
  14.22236250 10.45568141 11.06139754
  13.76214202 13.24152367  9.27834223
  16.32750537 13.75650018 12.97982606
  14.22243846  8.08652341 12.10948807
  13.81220723 10.07870525 14.08918704
  12.68125291  8.34862311  9.77200433
  11.76406684 11.72886592 10.17431834
  11.93325211 12.06252953  7.50193445
  14.87920391 12.85188058 15.05881587
  12.48502401 14.45461408 11.52514662
  13.50129940 17.07877707 11.68847181
  13.19639545 15.98961527  9.36823311
  13.79759586 12.61004454 12.70981967
  11.18318361 14.23847745  9.00761037
  12.00375867  6.67095618 11.76127351
  12.57402202  7.60845518 14.14603068
  14.47190689 15.42890572 13.74003480
  10.76593741  9.68090761  8.48006434
  10.94999035 16.45809704 10.94118588
  11.92821129 16.41415317 13.49644928
   9.40181994 11.92001716  8.48650635
  11.81953204  9.39050576 12.23128321
  10.03695122  7.71124814 10.36501913
   9.98169605  7.63332815 13.24974454
   9.42691153 10.49643890 11.06347308
  12.29732074 14.09667526 14.82174950
  12.51010039 11.67771571 15.67890199
   9.44048857 13.80024384 10.70667101
  11.02926704 11.90878540 13.16567182
  10.15494398 14.55719389 13.12192210
   7.83903585  9.60875808  9.37109273
   7.91707687  8.29023658 11.80067078
   7.41890485 12.23428693 10.20206643
  11.04649824  9.64738784 15.04030718
   9.90401958 12.46447307 15.28604552
   8.22440103 12.55833346 12.83296879
   6.80765661 10.46047061 11.83072314
   8.72742464 10.10822613 13.85438378
 


--------------------------------------------------------------------------------------------------------


 use parallel FFT for wavefunctions z direction half grid
 k-point  1 :   0.0000 0.0000 0.0000  plane waves:   56130

 maximum and minimum number of plane-waves per node :      3516     3501

 maximum number of plane-waves:     56130
 maximum index in each direction: 
   IXMAX=   29   IYMAX=   29   IZMAX=   29
   IXMIN=  -29   IYMIN=  -29   IZMIN=    0

 WARNING: aliasing errors must be expected set NGX to 118 to avoid them
 WARNING: aliasing errors must be expected set NGY to 118 to avoid them
 WARNING: aliasing errors must be expected set NGZ to 118 to avoid them
 aliasing errors are usually negligible using standard VASP settings
 and one can safely disregard these warnings

 parallel 3D FFT for wavefunctions:
    minimum data exchange during FFTs selected (reduces bandwidth)
 parallel 3D FFT for charge:
    minimum data exchange during FFTs selected (reduces bandwidth)


 total amount of memory used by VASP on root node    56695. kBytes
========================================================================

   base      :      30000. kBytes
   nonl-proj :       2862. kBytes
   fftplans  :       4337. kBytes
   grid      :      10964. kBytes
   one-center:         46. kBytes
   wavefun   :       8486. kBytes
 
     INWAV:  cpu time    0.00: real time    0.00
 Broyden mixing: mesh for mixing (old mesh)
   NGX = 59   NGY = 59   NGZ = 59
  (NGX  =180   NGY  =180   NGZ  =180)
  gives a total of 205379 points

 initial charge density was supplied:
 charge density of overlapping atoms calculated
 number of electron     462.0000000 magnetization      42.0000000
 keeping initial charge density in first step


--------------------------------------------------------------------------------------------------------


 Maximum index for augmentation-charges          240 (set IRDMAX)


--------------------------------------------------------------------------------------------------------


 First call to EWALD:  gamma=   0.076
 Maximum number of real-space cells 3x 3x 3
 Maximum number of reciprocal cells 3x 3x 3

 FEWALD executed in parallel
    FEWALD:  cpu time    0.00: real time    0.00


----------------------------------------- Iteration    1(   1)  ---------------------------------------


    POTLOK:  cpu time    0.22: real time    0.22
    SETDIJ:  cpu time    0.01: real time    0.01
     EDDAV:  cpu time    4.42: real time    4.42
       DOS:  cpu time    0.00: real time    0.00
    --------------------------------------------
      LOOP:  cpu time    4.64: real time    4.67

 eigenvalue-minimisations  :  1200
 total energy-change (2. order) : 0.4075790E+04  (-0.9122135E+04)
 number of electron     462.0000000 magnetization      42.0000000
 augmentation part      462.0000000 magnetization      42.0000000

 Free energy of the ion-electron system (eV)
  ---------------------------------------------------
  alpha Z        PSCENC =       119.63470151
  Ewald energy   TEWEN  =    127366.26303989
  -Hartree energ DENC   =   -169109.04279810
  -exchange      EXHF   =         0.00000000
  -V(xc)+E(xc)   XCENC  =      -448.59230396
  PAW double counting   =     42141.63147892   -40205.11357291
  entropy T*S    EENTRO =         0.00000000
  eigenvalues    EBANDS =       648.66650753
  atomic energy  EATOM  =     43562.34246363
  ---------------------------------------------------
  free energy    TOTEN  =      4075.78951650 eV

  energy without entropy =     4075.78951650  energy(sigma->0) =     4075.78951650


--------------------------------------------------------------------------------------------------------




----------------------------------------- Iteration    1(   2)  ---------------------------------------


     EDDAV:  cpu time    6.70: real time    6.71
       DOS:  cpu time    0.00: real time    0.00
    --------------------------------------------
      LOOP:  cpu time    6.70: real time    6.72

 eigenvalue-minimisations  :  2008
 total energy-change (2. order) :-0.3341114E+04  (-0.2996924E+04)
 number of electron     462.0000000 magnetization      42.0000000
 augmentation part      462.0000000 magnetization      42.0000000

 Free energy of the ion-electron system (eV)
  ---------------------------------------------------
  alpha Z        PSCENC =       119.63470151
  Ewald energy   TEWEN  =    127366.26303989
  -Hartree energ DENC   =   -169109.04279810
  -exchange      EXHF   =         0.00000000
  -V(xc)+E(xc)   XCENC  =      -448.59230396
  PAW double counting   =     42141.63147892   -40205.11357291
  entropy T*S    EENTRO =         0.00000000
  eigenvalues    EBANDS =     -2692.44700706
  atomic energy  EATOM  =     43562.34246363
  ---------------------------------------------------
  free energy    TOTEN  =       734.67600191 eV

  energy without entropy =      734.67600191  energy(sigma->0) =      734.67600191


--------------------------------------------------------------------------------------------------------




----------------------------------------- Iteration    1(   3)  ---------------------------------------


     EDDAV:  cpu time    5.35: real time    5.36
       DOS:  cpu time    0.00: real time    0.00
    --------------------------------------------
      LOOP:  cpu time    5.35: real time    5.36

 eigenvalue-minimisations  :  1528
 total energy-change (2. order) :-0.7883644E+03  (-0.7263152E+03)
 number of electron     462.0000000 magnetization      42.0000000
 augmentation part      462.0000000 magnetization      42.0000000

 Free energy of the ion-electron system (eV)
  ---------------------------------------------------
  alpha Z        PSCENC =       119.63470151
  Ewald energy   TEWEN  =    127366.26303989
  -Hartree energ DENC   =   -169109.04279810
  -exchange      EXHF   =         0.00000000
  -V(xc)+E(xc)   XCENC  =      -448.59230396
  PAW double counting   =     42141.63147892   -40205.11357291
  entropy T*S    EENTRO =         0.00000000
  eigenvalues    EBANDS =     -3480.81136814
  atomic energy  EATOM  =     43562.34246363
  ---------------------------------------------------
  free energy    TOTEN  =       -53.68835918 eV

  energy without entropy =      -53.68835918  energy(sigma->0) =      -53.68835918


--------------------------------------------------------------------------------------------------------




----------------------------------------- Iteration    1(   4)  ---------------------------------------


     EDDAV:  cpu time    4.74: real time    4.75
       DOS:  cpu time    0.00: real time    0.00
    --------------------------------------------
      LOOP:  cpu time    4.75: real time    4.75

 eigenvalue-minimisations  :  1312
 total energy-change (2. order) :-0.3376916E+02  (-0.3345134E+02)
 number of electron     462.0000000 magnetization      42.0000000
 augmentation part      462.0000000 magnetization      42.0000000

 Free energy of the ion-electron system (eV)
  ---------------------------------------------------
  alpha Z        PSCENC =       119.63470151
  Ewald energy   TEWEN  =    127366.26303989
  -Hartree energ DENC   =   -169109.04279810
  -exchange      EXHF   =         0.00000000
  -V(xc)+E(xc)   XCENC  =      -448.59230396
  PAW double counting   =     42141.63147892   -40205.11357291
  entropy T*S    EENTRO =         0.00000000
  eigenvalues    EBANDS =     -3514.58052544
  atomic energy  EATOM  =     43562.34246363
  ---------------------------------------------------
  free energy    TOTEN  =       -87.45751647 eV

  energy without entropy =      -87.45751647  energy(sigma->0) =      -87.45751647


--------------------------------------------------------------------------------------------------------




----------------------------------------- Iteration    1(   5)  ---------------------------------------


     EDDAV:  cpu time    4.88: real time    4.89
       DOS:  cpu time    0.00: real time    0.00
    CHARGE:  cpu time    0.12: real time    0.12
    MIXING:  cpu time    0.00: real time    0.00
    --------------------------------------------
      LOOP:  cpu time    5.01: real time    5.02

 eigenvalue-minimisations  :  1360
 total energy-change (2. order) :-0.4940771E+00  (-0.4933375E+00)
 number of electron     462.0001402 magnetization      37.8564550
 augmentation part      215.6743264 magnetization      34.9967207

 Broyden mixing:
  rms(total) = 0.43210E+01    rms(broyden)= 0.43205E+01
  rms(prec ) = 0.43743E+01
  weight for this iteration     100.00

 Free energy of the ion-electron system (eV)
  ---------------------------------------------------
  alpha Z        PSCENC =       119.63470151
  Ewald energy   TEWEN  =    127366.26303989
  -Hartree energ DENC   =   -169109.04279810
  -exchange      EXHF   =         0.00000000
  -V(xc)+E(xc)   XCENC  =      -448.59230396
  PAW double counting   =     42141.63147892   -40205.11357291
  entropy T*S    EENTRO =         0.00000000
  eigenvalues    EBANDS =     -3515.07460252
  atomic energy  EATOM  =     43562.34246363
  ---------------------------------------------------
  free energy    TOTEN  =       -87.95159355 eV

  energy without entropy =      -87.95159355  energy(sigma->0) =      -87.95159355


--------------------------------------------------------------------------------------------------------




----------------------------------------- Iteration    1(   6)  ---------------------------------------


    POTLOK:  cpu time    0.21: real time    0.21
    SETDIJ:  cpu time    0.01: real time    0.01
     EDDAV:  cpu time    4.50: real time    4.50
       DOS:  cpu time    0.00: real time    0.00
    CHARGE:  cpu time    0.12: real time    0.12
    MIXING:  cpu time    0.00: real time    0.00
    --------------------------------------------
      LOOP:  cpu time    4.84: real time    4.87

 eigenvalue-minimisations  :  1224
 total energy-change (2. order) : 0.4756182E+02  (-0.1433795E+02)
 number of electron     462.0001436 magnetization      34.7205803
 augmentation part      221.2096755 magnetization      21.6939834

 Broyden mixing:
  rms(total) = 0.24461E+01    rms(broyden)= 0.24460E+01
  rms(prec ) = 0.24655E+01
  weight for this iteration     100.00

 eigenvalues of (default mixing * dielectric matrix)
  average eigenvalue GAMMA=   0.8900
  0.8900

 Free energy of the ion-electron system (eV)
  ---------------------------------------------------
  alpha Z        PSCENC =       119.63470151
  Ewald energy   TEWEN  =    127366.26303989
  -Hartree energ DENC   =   -168903.01013101
  -exchange      EXHF   =         0.00000000
  -V(xc)+E(xc)   XCENC  =      -429.88355201
  PAW double counting   =     44197.40083974   -42301.96771235
  entropy T*S    EENTRO =         0.00000000
  eigenvalues    EBANDS =     -3651.16942122
  atomic energy  EATOM  =     43562.34246363
  ---------------------------------------------------
  free energy    TOTEN  =       -40.38977183 eV

  energy without entropy =      -40.38977183  energy(sigma->0) =      -40.38977183


--------------------------------------------------------------------------------------------------------




----------------------------------------- Iteration    1(   7)  ---------------------------------------


    POTLOK:  cpu time    0.21: real time    0.21
    SETDIJ:  cpu time    0.01: real time    0.01
     EDDAV:  cpu time    4.71: real time    4.71
       DOS:  cpu time    0.00: real time    0.00
    CHARGE:  cpu time    0.12: real time    0.12
    MIXING:  cpu time    0.00: real time    0.00
    --------------------------------------------
      LOOP:  cpu time    5.05: real time    5.06

 eigenvalue-minimisations  :  1292
 total energy-change (2. order) : 0.1165017E+02  (-0.1092815E+01)
 number of electron     462.0001437 magnetization      29.9438442
 augmentation part      221.2313558 magnetization      17.3222825

 Broyden mixing:
  rms(total) = 0.14084E+01    rms(broyden)= 0.14084E+01
  rms(prec ) = 0.14160E+01
  weight for this iteration     100.00

 eigenvalues of (default mixing * dielectric matrix)
  average eigenvalue GAMMA=   1.1397
  0.7691  1.5102

 Free energy of the ion-electron system (eV)
  ---------------------------------------------------
  alpha Z        PSCENC =       119.63470151
  Ewald energy   TEWEN  =    127366.26303989
  -Hartree energ DENC   =   -169006.83787345
  -exchange      EXHF   =         0.00000000
  -V(xc)+E(xc)   XCENC  =      -420.72645838
  PAW double counting   =     45474.99304589   -43606.63090013
  entropy T*S    EENTRO =         0.00000000
  eigenvalues    EBANDS =     -3517.77762110
  atomic energy  EATOM  =     43562.34246363
  ---------------------------------------------------
  free energy    TOTEN  =       -28.73960215 eV

  energy without entropy =      -28.73960215  energy(sigma->0) =      -28.73960215


--------------------------------------------------------------------------------------------------------




----------------------------------------- Iteration    1(   8)  ---------------------------------------


    POTLOK:  cpu time    0.21: real time    0.21
    SETDIJ:  cpu time    0.01: real time    0.01
     EDDAV:  cpu time    4.70: real time    4.71
       DOS:  cpu time    0.00: real time    0.00
    CHARGE:  cpu time    0.12: real time    0.12
    MIXING:  cpu time    0.00: real time    0.00
    --------------------------------------------
      LOOP:  cpu time    5.05: real time    5.70

 eigenvalue-minimisations  :  1292
 total energy-change (2. order) : 0.3906755E+01  (-0.2614379E+00)
 number of electron     462.0001434 magnetization      27.2989904
 augmentation part      221.1337684 magnetization      14.8830350

 Broyden mixing:
  rms(total) = 0.68269E+00    rms(broyden)= 0.68268E+00
  rms(prec ) = 0.68540E+00
  weight for this iteration     100.00

 eigenvalues of (default mixing * dielectric matrix)
  average eigenvalue GAMMA=   1.2784
  2.3080  0.9070  0.6201

 Free energy of the ion-electron system (eV)
  ---------------------------------------------------
  alpha Z        PSCENC =       119.63470151
  Ewald energy   TEWEN  =    127366.26303989
  -Hartree energ DENC   =   -169113.80070318
  -exchange      EXHF   =         0.00000000
  -V(xc)+E(xc)   XCENC  =      -417.54410942
  PAW double counting   =     46896.94692995   -45055.92875953
  entropy T*S    EENTRO =         0.00000000
  eigenvalues    EBANDS =     -3382.74641018
  atomic energy  EATOM  =     43562.34246363
  ---------------------------------------------------
  free energy    TOTEN  =       -24.83284733 eV

  energy without entropy =      -24.83284733  energy(sigma->0) =      -24.83284733


--------------------------------------------------------------------------------------------------------




----------------------------------------- Iteration    1(   9)  ---------------------------------------


    POTLOK:  cpu time    0.21: real time    0.21
    SETDIJ:  cpu time    0.01: real time    0.01
     EDDAV:  cpu time    4.79: real time    4.80
       DOS:  cpu time    0.00: real time    0.00
    CHARGE:  cpu time    0.12: real time    0.12
    MIXING:  cpu time    0.00: real time    0.00
    --------------------------------------------
      LOOP:  cpu time    5.14: real time    5.17

 eigenvalue-minimisations  :  1320
 total energy-change (2. order) :-0.4180815E+01  (-0.6422387E-01)
 number of electron     462.0001434 magnetization      24.1902657
 augmentation part      221.0507928 magnetization      11.9720610

 Broyden mixing:
  rms(total) = 0.43566E+00    rms(broyden)= 0.43565E+00
  rms(prec ) = 0.43828E+00
  weight for this iteration     100.00

 eigenvalues of (default mixing * dielectric matrix)
  average eigenvalue GAMMA=   1.2325
  2.3297  0.6175  0.8054  1.1775

 Free energy of the ion-electron system (eV)
  ---------------------------------------------------
  alpha Z        PSCENC =       119.63470151
  Ewald energy   TEWEN  =    127366.26303989
  -Hartree energ DENC   =   -169141.50844048
  -exchange      EXHF   =         0.00000000
  -V(xc)+E(xc)   XCENC  =      -420.49355247
  PAW double counting   =     47243.73486302   -45409.18740528
  entropy T*S    EENTRO =         0.00000000
  eigenvalues    EBANDS =     -3349.79933181
  atomic energy  EATOM  =     43562.34246363
  ---------------------------------------------------
  free energy    TOTEN  =       -29.01366201 eV

  energy without entropy =      -29.01366201  energy(sigma->0) =      -29.01366201


--------------------------------------------------------------------------------------------------------




----------------------------------------- Iteration    1(  10)  ---------------------------------------


    POTLOK:  cpu time    0.21: real time    0.21
    SETDIJ:  cpu time    0.01: real time    0.01
     EDDAV:  cpu time    4.56: real time    4.56
       DOS:  cpu time    0.00: real time    0.00
    CHARGE:  cpu time    0.12: real time    0.12
    MIXING:  cpu time    0.01: real time    0.01
    --------------------------------------------
      LOOP:  cpu time    4.90: real time    6.96

 eigenvalue-minimisations  :  1232
 total energy-change (2. order) :-0.1148447E+02  (-0.2685380E+00)
 number of electron     462.0001434 magnetization      18.2765555
 augmentation part      220.9723513 magnetization       6.5728361

 Broyden mixing:
  rms(total) = 0.32848E+00    rms(broyden)= 0.32847E+00
  rms(prec ) = 0.32995E+00
  weight for this iteration     100.00

 eigenvalues of (default mixing * dielectric matrix)
  average eigenvalue GAMMA=   1.5396
  2.9498  2.2856  0.9150  0.9150  0.6326

 Free energy of the ion-electron system (eV)
  ---------------------------------------------------
  alpha Z        PSCENC =       119.63470151
  Ewald energy   TEWEN  =    127366.26303989
  -Hartree energ DENC   =   -169146.18373795
  -exchange      EXHF   =         0.00000000
  -V(xc)+E(xc)   XCENC  =      -429.25806109
  PAW double counting   =     47269.41473961   -45435.26834708
  entropy T*S    EENTRO =        -0.00000000
  eigenvalues    EBANDS =     -3347.44292636
  atomic energy  EATOM  =     43562.34246363
  ---------------------------------------------------
  free energy    TOTEN  =       -40.49812785 eV

  energy without entropy =      -40.49812785  energy(sigma->0) =      -40.49812785


--------------------------------------------------------------------------------------------------------




----------------------------------------- Iteration    1(  11)  ---------------------------------------


    POTLOK:  cpu time    0.21: real time    0.21
    SETDIJ:  cpu time    0.01: real time    0.01
     EDDAV:  cpu time    4.57: real time    4.58
       DOS:  cpu time    0.00: real time    0.00
    CHARGE:  cpu time    0.12: real time    0.12
    MIXING:  cpu time    0.00: real time    0.01
    --------------------------------------------
      LOOP:  cpu time    4.92: real time    4.93

 eigenvalue-minimisations  :  1240
 total energy-change (2. order) :-0.2160990E+02  (-0.1077127E+01)
 number of electron     462.0001434 magnetization      17.5886304
 augmentation part      220.9014204 magnetization      10.5334879

 Broyden mixing:
  rms(total) = 0.32746E+00    rms(broyden)= 0.32727E+00
  rms(prec ) = 0.33687E+00
  weight for this iteration     100.00

 eigenvalues of (default mixing * dielectric matrix)
  average eigenvalue GAMMA=   1.3455
  3.1823  2.2680  0.6317  0.9054  0.9054  0.1803

 Free energy of the ion-electron system (eV)
  ---------------------------------------------------
  alpha Z        PSCENC =       119.63470151
  Ewald energy   TEWEN  =    127366.26303989
  -Hartree energ DENC   =   -169140.79691702
  -exchange      EXHF   =         0.00000000
  -V(xc)+E(xc)   XCENC  =      -445.62330017
  PAW double counting   =     47222.94748686   -45388.48956293
  entropy T*S    EENTRO =         0.00000000
  eigenvalues    EBANDS =     -3358.38593973
  atomic energy  EATOM  =     43562.34246363
  ---------------------------------------------------
  free energy    TOTEN  =       -62.10802797 eV

  energy without entropy =      -62.10802797  energy(sigma->0) =      -62.10802797


--------------------------------------------------------------------------------------------------------




----------------------------------------- Iteration    1(  12)  ---------------------------------------


    POTLOK:  cpu time    0.21: real time    0.21
    SETDIJ:  cpu time    0.01: real time    0.01
     EDDAV:  cpu time    5.24: real time    5.24
       DOS:  cpu time    0.00: real time    0.00
    CHARGE:  cpu time    0.12: real time    0.12
    MIXING:  cpu time    0.01: real time    0.01
    --------------------------------------------
      LOOP:  cpu time    5.58: real time    5.59

 eigenvalue-minimisations  :  1472
 total energy-change (2. order) :-0.1043243E+01  (-0.2966701E-01)
 number of electron     462.0001434 magnetization      15.9141787
 augmentation part      220.8477261 magnetization       9.0043037

 Broyden mixing:
  rms(total) = 0.29029E+00    rms(broyden)= 0.29028E+00
  rms(prec ) = 0.29898E+00
  weight for this iteration     100.00

 eigenvalues of (default mixing * dielectric matrix)
  average eigenvalue GAMMA=   1.2498
  3.2917  2.3122  0.9097  0.9097  0.6306  0.3472  0.3472

 Free energy of the ion-electron system (eV)
  ---------------------------------------------------
  alpha Z        PSCENC =       119.63470151
  Ewald energy   TEWEN  =    127366.26303989
  -Hartree energ DENC   =   -169141.31956298
  -exchange      EXHF   =         0.00000000
  -V(xc)+E(xc)   XCENC  =      -446.30562954
  PAW double counting   =     47224.36388278   -45390.08028501
  entropy T*S    EENTRO =         0.00000000
  eigenvalues    EBANDS =     -3358.04988161
  atomic energy  EATOM  =     43562.34246363
  ---------------------------------------------------
  free energy    TOTEN  =       -63.15127135 eV

  energy without entropy =      -63.15127135  energy(sigma->0) =      -63.15127135


--------------------------------------------------------------------------------------------------------




----------------------------------------- Iteration    1(  13)  ---------------------------------------


    POTLOK:  cpu time    0.21: real time    0.21
    SETDIJ:  cpu time    0.01: real time    0.01
     EDDAV:  cpu time    4.62: real time    4.63
       DOS:  cpu time    0.00: real time    0.00
    CHARGE:  cpu time    0.12: real time    0.12
    MIXING:  cpu time    0.01: real time    0.01
    --------------------------------------------
      LOOP:  cpu time    4.97: real time    4.98

 eigenvalue-minimisations  :  1256
 total energy-change (2. order) :-0.3767813E+01  (-0.8873610E-01)
 number of electron     462.0001434 magnetization      11.4459967
 augmentation part      220.8590302 magnetization       4.7526475

 Broyden mixing:
  rms(total) = 0.23555E+00    rms(broyden)= 0.23555E+00
  rms(prec ) = 0.24140E+00
  weight for this iteration     100.00

 eigenvalues of (default mixing * dielectric matrix)
  average eigenvalue GAMMA=   1.4949
  4.8820  2.3501  1.2626  0.9331  0.7169  0.7169  0.6437  0.4540

 Free energy of the ion-electron system (eV)
  ---------------------------------------------------
  alpha Z        PSCENC =       119.63470151
  Ewald energy   TEWEN  =    127366.26303989
  -Hartree energ DENC   =   -169132.93367848
  -exchange      EXHF   =         0.00000000
  -V(xc)+E(xc)   XCENC  =      -449.17790448
  PAW double counting   =     47154.54511411   -45320.13788148
  entropy T*S    EENTRO =         0.00000000
  eigenvalues    EBANDS =     -3367.45493860
  atomic energy  EATOM  =     43562.34246363
  ---------------------------------------------------
  free energy    TOTEN  =       -66.91908392 eV

  energy without entropy =      -66.91908392  energy(sigma->0) =      -66.91908392


--------------------------------------------------------------------------------------------------------




----------------------------------------- Iteration    1(  14)  ---------------------------------------


    POTLOK:  cpu time    0.22: real time    0.21
    SETDIJ:  cpu time    0.01: real time    0.01
     EDDAV:  cpu time    4.63: real time    4.64
       DOS:  cpu time    0.00: real time    0.00
    CHARGE:  cpu time    0.12: real time    0.12
    MIXING:  cpu time    0.01: real time    0.01
    --------------------------------------------
      LOOP:  cpu time    4.98: real time    5.28

 eigenvalue-minimisations  :  1256
 total energy-change (2. order) :-0.8628222E+01  (-0.3931672E+00)
 number of electron     462.0001433 magnetization       9.8705224
 augmentation part      220.8713192 magnetization       5.5120872

 Broyden mixing:
  rms(total) = 0.20303E+00    rms(broyden)= 0.20288E+00
  rms(prec ) = 0.21425E+00
  weight for this iteration     100.00

 eigenvalues of (default mixing * dielectric matrix)
  average eigenvalue GAMMA=   1.4475
  5.4882  2.3106  1.3132  0.9396  0.7528  0.7528  0.6431  0.4138  0.4138

 Free energy of the ion-electron system (eV)
  ---------------------------------------------------
  alpha Z        PSCENC =       119.63470151
  Ewald energy   TEWEN  =    127366.26303989
  -Hartree energ DENC   =   -169108.92108738
  -exchange      EXHF   =         0.00000000
  -V(xc)+E(xc)   XCENC  =      -456.32093452
  PAW double counting   =     47016.95248463   -45183.03708673
  entropy T*S    EENTRO =         0.00000000
  eigenvalues    EBANDS =     -3392.46088662
  atomic energy  EATOM  =     43562.34246363
  ---------------------------------------------------
  free energy    TOTEN  =       -75.54730560 eV

  energy without entropy =      -75.54730560  energy(sigma->0) =      -75.54730560


--------------------------------------------------------------------------------------------------------




----------------------------------------- Iteration    1(  15)  ---------------------------------------


    POTLOK:  cpu time    0.22: real time    0.22
    SETDIJ:  cpu time    0.01: real time    0.01
     EDDAV:  cpu time    4.77: real time    4.78
       DOS:  cpu time    0.00: real time    0.00
    CHARGE:  cpu time    0.12: real time    0.12
    MIXING:  cpu time    0.01: real time    0.01
    --------------------------------------------
      LOOP:  cpu time    5.12: real time    5.31

 eigenvalue-minimisations  :  1304
 total energy-change (2. order) :-0.1693639E+01  (-0.3225399E-01)
 number of electron     462.0001433 magnetization       7.6476500
 augmentation part      220.8692729 magnetization       3.4361751

 Broyden mixing:
  rms(total) = 0.14837E+00    rms(broyden)= 0.14835E+00
  rms(prec ) = 0.15626E+00
  weight for this iteration     100.00

 eigenvalues of (default mixing * dielectric matrix)
  average eigenvalue GAMMA=   1.5766
  6.9554  2.1446  1.8100  0.7692  0.7692  0.8858  0.7950  0.6265  0.5052  0.5052

 Free energy of the ion-electron system (eV)
  ---------------------------------------------------
  alpha Z        PSCENC =       119.63470151
  Ewald energy   TEWEN  =    127366.26303989
  -Hartree energ DENC   =   -169102.64316193
  -exchange      EXHF   =         0.00000000
  -V(xc)+E(xc)   XCENC  =      -457.81965704
  PAW double counting   =     46998.28552076   -45164.71822221
  entropy T*S    EENTRO =         0.00000000
  eigenvalues    EBANDS =     -3398.58562908
  atomic energy  EATOM  =     43562.34246363
  ---------------------------------------------------
  free energy    TOTEN  =       -77.24094449 eV

  energy without entropy =      -77.24094449  energy(sigma->0) =      -77.24094449


--------------------------------------------------------------------------------------------------------




----------------------------------------- Iteration    1(  16)  ---------------------------------------


    POTLOK:  cpu time    0.22: real time    0.21
    SETDIJ:  cpu time    0.00: real time    0.01
     EDDAV:  cpu time    4.51: real time    4.52
       DOS:  cpu time    0.00: real time    0.00
    CHARGE:  cpu time    0.12: real time    0.12
    MIXING:  cpu time    0.00: real time    0.01
    --------------------------------------------
      LOOP:  cpu time    4.86: real time    4.87

 eigenvalue-minimisations  :  1216
 total energy-change (2. order) :-0.2571827E+01  (-0.4830248E-01)
 number of electron     462.0001432 magnetization       6.7258060
 augmentation part      220.8571336 magnetization       4.5222669

 Broyden mixing:
  rms(total) = 0.17247E+00    rms(broyden)= 0.17231E+00
  rms(prec ) = 0.17977E+00
  weight for this iteration     100.00

 eigenvalues of (default mixing * dielectric matrix)
  average eigenvalue GAMMA=   1.4794
  7.2385  2.1457  1.8199  0.7751  0.7751  0.8517  0.8229  0.6332  0.5115  0.5115
  0.1881

 Free energy of the ion-electron system (eV)
  ---------------------------------------------------
  alpha Z        PSCENC =       119.63470151
  Ewald energy   TEWEN  =    127366.26303989
  -Hartree energ DENC   =   -169093.88705591
  -exchange      EXHF   =         0.00000000
  -V(xc)+E(xc)   XCENC  =      -460.09816596
  PAW double counting   =     46983.47955460   -45150.21940004
  entropy T*S    EENTRO =         0.00000000
  eigenvalues    EBANDS =     -3407.32790965
  atomic energy  EATOM  =     43562.34246363
  ---------------------------------------------------
  free energy    TOTEN  =       -79.81277194 eV

  energy without entropy =      -79.81277194  energy(sigma->0) =      -79.81277194


--------------------------------------------------------------------------------------------------------




----------------------------------------- Iteration    1(  17)  ---------------------------------------


    POTLOK:  cpu time    0.21: real time    0.21
    SETDIJ:  cpu time    0.01: real time    0.01
     EDDAV:  cpu time    4.76: real time    4.76
       DOS:  cpu time    0.00: real time    0.00
    CHARGE:  cpu time    0.12: real time    0.12
    MIXING:  cpu time    0.01: real time    0.01
    --------------------------------------------
      LOOP:  cpu time    5.10: real time    5.11

 eigenvalue-minimisations  :  1304
 total energy-change (2. order) :-0.4619323E+00  (-0.4701431E-02)
 number of electron     462.0001433 magnetization       5.1192673
 augmentation part      220.8677702 magnetization       2.9779768

 Broyden mixing:
  rms(total) = 0.13912E+00    rms(broyden)= 0.13911E+00
  rms(prec ) = 0.14667E+00
  weight for this iteration     100.00

 eigenvalues of (default mixing * dielectric matrix)
  average eigenvalue GAMMA=   1.5379
  8.1686  2.0410  1.7158  0.8963  0.8963  1.0406  0.9558  0.6269  0.6003  0.6003
  0.4565  0.4565

 Free energy of the ion-electron system (eV)
  ---------------------------------------------------
  alpha Z        PSCENC =       119.63470151
  Ewald energy   TEWEN  =    127366.26303989
  -Hartree energ DENC   =   -169090.43475420
  -exchange      EXHF   =         0.00000000
  -V(xc)+E(xc)   XCENC  =      -460.55324820
  PAW double counting   =     46973.87529683   -45140.62289027
  entropy T*S    EENTRO =         0.00000000
  eigenvalues    EBANDS =     -3410.77931341
  atomic energy  EATOM  =     43562.34246363
  ---------------------------------------------------
  free energy    TOTEN  =       -80.27470423 eV

  energy without entropy =      -80.27470423  energy(sigma->0) =      -80.27470423


--------------------------------------------------------------------------------------------------------




----------------------------------------- Iteration    1(  18)  ---------------------------------------


    POTLOK:  cpu time    0.21: real time    0.21
    SETDIJ:  cpu time    0.00: real time    0.01
     EDDAV:  cpu time    4.56: real time    4.56
       DOS:  cpu time    0.00: real time    0.00
    CHARGE:  cpu time    0.12: real time    0.12
    MIXING:  cpu time    0.00: real time    0.01
    --------------------------------------------
      LOOP:  cpu time    4.90: real time    4.91

 eigenvalue-minimisations  :  1232
 total energy-change (2. order) :-0.1255554E+01  (-0.1414097E-01)
 number of electron     462.0001433 magnetization       3.2914459
 augmentation part      220.8217024 magnetization       1.2159366

 Broyden mixing:
  rms(total) = 0.89182E-01    rms(broyden)= 0.89174E-01
  rms(prec ) = 0.95534E-01
  weight for this iteration     100.00

 eigenvalues of (default mixing * dielectric matrix)
  average eigenvalue GAMMA=   1.6969
 10.0132  2.3580  1.3166  1.3166  1.3477  1.3477  0.7032  0.7032  0.7997  0.6253
  0.6150  0.4566  0.4566

 Free energy of the ion-electron system (eV)
  ---------------------------------------------------
  alpha Z        PSCENC =       119.63470151
  Ewald energy   TEWEN  =    127366.26303989
  -Hartree energ DENC   =   -169086.26244016
  -exchange      EXHF   =         0.00000000
  -V(xc)+E(xc)   XCENC  =      -461.71885726
  PAW double counting   =     46994.45350882   -45161.17782577
  entropy T*S    EENTRO =        -0.00000000
  eigenvalues    EBANDS =     -3415.06484856
  atomic energy  EATOM  =     43562.34246363
  ---------------------------------------------------
  free energy    TOTEN  =       -81.53025792 eV

  energy without entropy =      -81.53025792  energy(sigma->0) =      -81.53025792


--------------------------------------------------------------------------------------------------------




----------------------------------------- Iteration    1(  19)  ---------------------------------------


    POTLOK:  cpu time    0.21: real time    0.21
    SETDIJ:  cpu time    0.01: real time    0.01
     EDDAV:  cpu time    4.50: real time    4.50
       DOS:  cpu time    0.00: real time    0.00
    CHARGE:  cpu time    0.12: real time    0.12
    MIXING:  cpu time    0.01: real time    0.01
    --------------------------------------------
      LOOP:  cpu time    4.85: real time    4.87

 eigenvalue-minimisations  :  1208
 total energy-change (2. order) :-0.1908943E+01  (-0.2104704E-01)
 number of electron     462.0001434 magnetization       3.0561813
 augmentation part      220.8059237 magnetization       2.9452174

 Broyden mixing:
  rms(total) = 0.12447E+00    rms(broyden)= 0.12428E+00
  rms(prec ) = 0.13349E+00
  weight for this iteration     100.00

 eigenvalues of (default mixing * dielectric matrix)
  average eigenvalue GAMMA=   1.5951
 10.1555  2.3722  1.3634  1.3634  1.4272  1.2085  0.7002  0.7002  0.7870  0.6425
  0.6068  0.4563  0.4563  0.0923

 Free energy of the ion-electron system (eV)
  ---------------------------------------------------
  alpha Z        PSCENC =       119.63470151
  Ewald energy   TEWEN  =    127366.26303989
  -Hartree energ DENC   =   -169066.57009677
  -exchange      EXHF   =         0.00000000
  -V(xc)+E(xc)   XCENC  =      -463.65768891
  PAW double counting   =     46996.84372470   -45162.65411186
  entropy T*S    EENTRO =        -0.00000000
  eigenvalues    EBANDS =     -3435.64123342
  atomic energy  EATOM  =     43562.34246363
  ---------------------------------------------------
  free energy    TOTEN  =       -83.43920124 eV

  energy without entropy =      -83.43920124  energy(sigma->0) =      -83.43920124


--------------------------------------------------------------------------------------------------------




----------------------------------------- Iteration    1(  20)  ---------------------------------------


    POTLOK:  cpu time    0.21: real time    0.21
    SETDIJ:  cpu time    0.00: real time    0.01
     EDDAV:  cpu time    4.94: real time    4.94
       DOS:  cpu time    0.00: real time    0.00
    CHARGE:  cpu time    0.12: real time    0.12
    MIXING:  cpu time    0.01: real time    0.01
    --------------------------------------------
      LOOP:  cpu time    5.29: real time    5.29

 eigenvalue-minimisations  :  1368
 total energy-change (2. order) :-0.1022822E+00  (-0.6236512E-03)
 number of electron     462.0001434 magnetization       2.6379956
 augmentation part      220.8138718 magnetization       2.5445267

 Broyden mixing:
  rms(total) = 0.11299E+00    rms(broyden)= 0.11298E+00
  rms(prec ) = 0.12192E+00
  weight for this iteration     100.00

 eigenvalues of (default mixing * dielectric matrix)
  average eigenvalue GAMMA=   1.5802
 10.5903  2.2955  1.3541  1.3541  1.4401  1.2962  0.8364  0.7153  0.7153  0.6291
  0.5729  0.4575  0.4575  0.4940  0.4940

 Free energy of the ion-electron system (eV)
  ---------------------------------------------------
  alpha Z        PSCENC =       119.63470151
  Ewald energy   TEWEN  =    127366.26303989
  -Hartree energ DENC   =   -169064.52784208
  -exchange      EXHF   =         0.00000000
  -V(xc)+E(xc)   XCENC  =      -463.77929082
  PAW double counting   =     46993.67580820   -45159.47403098
  entropy T*S    EENTRO =         0.00000000
  eigenvalues    EBANDS =     -3437.67633279
  atomic energy  EATOM  =     43562.34246363
  ---------------------------------------------------
  free energy    TOTEN  =       -83.54148345 eV

  energy without entropy =      -83.54148345  energy(sigma->0) =      -83.54148345


--------------------------------------------------------------------------------------------------------




----------------------------------------- Iteration    1(  21)  ---------------------------------------


    POTLOK:  cpu time    0.21: real time    0.21
    SETDIJ:  cpu time    0.01: real time    0.01
     EDDAV:  cpu time    4.65: real time    4.65
       DOS:  cpu time    0.00: real time    0.00
    CHARGE:  cpu time    0.12: real time    0.12
    MIXING:  cpu time    0.01: real time    0.01
    --------------------------------------------
      LOOP:  cpu time    5.00: real time    5.52

 eigenvalue-minimisations  :  1264
 total energy-change (2. order) :-0.2033754E+00  (-0.6628936E-03)
 number of electron     462.0001434 magnetization       1.2771238
 augmentation part      220.8128741 magnetization       1.2040919

 Broyden mixing:
  rms(total) = 0.94708E-01    rms(broyden)= 0.94707E-01
  rms(prec ) = 0.10255E+00
  weight for this iteration     100.00

 eigenvalues of (default mixing * dielectric matrix)
  average eigenvalue GAMMA=   1.6628
 11.5464  2.2812  1.5677  1.5677  1.4196  1.4196  1.0142  1.0142  0.8147  0.6613
  0.6613  0.6166  0.6166  0.5051  0.4492  0.4492

 Free energy of the ion-electron system (eV)
  ---------------------------------------------------
  alpha Z        PSCENC =       119.63470151
  Ewald energy   TEWEN  =    127366.26303989
  -Hartree energ DENC   =   -169061.15863928
  -exchange      EXHF   =         0.00000000
  -V(xc)+E(xc)   XCENC  =      -464.00265194
  PAW double counting   =     46998.78210289   -45164.62675224
  entropy T*S    EENTRO =        -0.00000000
  eigenvalues    EBANDS =     -3440.97912327
  atomic energy  EATOM  =     43562.34246363
  ---------------------------------------------------
  free energy    TOTEN  =       -83.74485882 eV

  energy without entropy =      -83.74485882  energy(sigma->0) =      -83.74485882


--------------------------------------------------------------------------------------------------------




----------------------------------------- Iteration    1(  22)  ---------------------------------------


    POTLOK:  cpu time    0.22: real time    0.21
    SETDIJ:  cpu time    0.00: real time    0.01
     EDDAV:  cpu time    4.56: real time    4.57
       DOS:  cpu time    0.00: real time    0.00
    CHARGE:  cpu time    0.12: real time    0.12
    MIXING:  cpu time    0.01: real time    0.01
    --------------------------------------------
      LOOP:  cpu time    4.91: real time    4.93

 eigenvalue-minimisations  :  1232
 total energy-change (2. order) :-0.8248142E+00  (-0.7461866E-02)
 number of electron     462.0001434 magnetization       0.6053509
 augmentation part      220.8174028 magnetization       0.5884610

 Broyden mixing:
  rms(total) = 0.33364E-01    rms(broyden)= 0.33350E-01
  rms(prec ) = 0.37537E-01
  weight for this iteration     100.00

 eigenvalues of (default mixing * dielectric matrix)
  average eigenvalue GAMMA=   1.7631
 12.8385  2.6642  2.1518  2.1518  1.3472  1.1541  1.1541  0.9602  0.6567  0.6567
  0.7390  0.7390  0.7020  0.6393  0.5163  0.4506  0.4506

 Free energy of the ion-electron system (eV)
  ---------------------------------------------------
  alpha Z        PSCENC =       119.63470151
  Ewald energy   TEWEN  =    127366.26303989
  -Hartree energ DENC   =   -169043.76042776
  -exchange      EXHF   =         0.00000000
  -V(xc)+E(xc)   XCENC  =      -464.92311030
  PAW double counting   =     47004.42151069   -45170.09708247
  entropy T*S    EENTRO =         0.00000000
  eigenvalues    EBANDS =     -3458.45076817
  atomic energy  EATOM  =     43562.34246363
  ---------------------------------------------------
  free energy    TOTEN  =       -84.56967299 eV

  energy without entropy =      -84.56967299  energy(sigma->0) =      -84.56967299


--------------------------------------------------------------------------------------------------------




----------------------------------------- Iteration    1(  23)  ---------------------------------------


    POTLOK:  cpu time    0.21: real time    0.21
    SETDIJ:  cpu time    0.00: real time    0.01
     EDDAV:  cpu time    4.66: real time    4.67
       DOS:  cpu time    0.00: real time    0.00
    CHARGE:  cpu time    0.12: real time    0.12
    MIXING:  cpu time    0.01: real time    0.01
    --------------------------------------------
      LOOP:  cpu time    5.02: real time    5.07

 eigenvalue-minimisations  :  1264
 total energy-change (2. order) :-0.4948612E+00  (-0.2637236E-02)
 number of electron     462.0001434 magnetization       0.4084212
 augmentation part      220.8281467 magnetization       0.4153577

 Broyden mixing:
  rms(total) = 0.24753E-01    rms(broyden)= 0.24742E-01
  rms(prec ) = 0.27194E-01
  weight for this iteration     100.00

 eigenvalues of (default mixing * dielectric matrix)
  average eigenvalue GAMMA=   1.7625
 13.1521  2.7161  2.1450  2.1450  1.5492  1.3433  1.3433  0.9466  0.8099  0.8099
  0.6510  0.6510  0.7734  0.6315  0.6265  0.4508  0.4508  0.5290

 Free energy of the ion-electron system (eV)
  ---------------------------------------------------
  alpha Z        PSCENC =       119.63470151
  Ewald energy   TEWEN  =    127366.26303989
  -Hartree energ DENC   =   -169029.96028601
  -exchange      EXHF   =         0.00000000
  -V(xc)+E(xc)   XCENC  =      -465.49120331
  PAW double counting   =     47008.36775123   -45173.85899832
  entropy T*S    EENTRO =         0.00000000
  eigenvalues    EBANDS =     -3472.36200281
  atomic energy  EATOM  =     43562.34246363
  ---------------------------------------------------
  free energy    TOTEN  =       -85.06453421 eV

  energy without entropy =      -85.06453421  energy(sigma->0) =      -85.06453421


--------------------------------------------------------------------------------------------------------




----------------------------------------- Iteration    1(  24)  ---------------------------------------


    POTLOK:  cpu time    0.21: real time    0.21
    SETDIJ:  cpu time    0.01: real time    0.01
     EDDAV:  cpu time    4.64: real time    4.65
       DOS:  cpu time    0.00: real time    0.00
    CHARGE:  cpu time    0.12: real time    0.12
    MIXING:  cpu time    0.01: real time    0.01
    --------------------------------------------
      LOOP:  cpu time    5.00: real time    5.01

 eigenvalue-minimisations  :  1256
 total energy-change (2. order) :-0.2547875E+00  (-0.6250715E-03)
 number of electron     462.0001434 magnetization       0.2089477
 augmentation part      220.8320197 magnetization       0.2131920

 Broyden mixing:
  rms(total) = 0.16487E-01    rms(broyden)= 0.16484E-01
  rms(prec ) = 0.18399E-01
  weight for this iteration     100.00

 eigenvalues of (default mixing * dielectric matrix)
  average eigenvalue GAMMA=   1.7978
 13.5270  3.5276  2.4411  1.6781  1.6781  1.4551  1.4551  0.9643  0.8977  0.8977
  0.8298  0.8298  0.6518  0.6518  0.4506  0.4506  0.6346  0.6090  0.5289

 Free energy of the ion-electron system (eV)
  ---------------------------------------------------
  alpha Z        PSCENC =       119.63470151
  Ewald energy   TEWEN  =    127366.26303989
  -Hartree energ DENC   =   -169021.00270046
  -exchange      EXHF   =         0.00000000
  -V(xc)+E(xc)   XCENC  =      -465.79113275
  PAW double counting   =     47016.04510564   -45181.53796966
  entropy T*S    EENTRO =         0.00000000
  eigenvalues    EBANDS =     -3481.27282950
  atomic energy  EATOM  =     43562.34246363
  ---------------------------------------------------
  free energy    TOTEN  =       -85.31932171 eV

  energy without entropy =      -85.31932171  energy(sigma->0) =      -85.31932171


--------------------------------------------------------------------------------------------------------




----------------------------------------- Iteration    1(  25)  ---------------------------------------


    POTLOK:  cpu time    0.21: real time    0.21
    SETDIJ:  cpu time    0.01: real time    0.01
     EDDAV:  cpu time    4.62: real time    4.62
       DOS:  cpu time    0.00: real time    0.00
    CHARGE:  cpu time    0.12: real time    0.12
    MIXING:  cpu time    0.01: real time    0.01
    --------------------------------------------
      LOOP:  cpu time    4.97: real time    5.03

 eigenvalue-minimisations  :  1248
 total energy-change (2. order) :-0.2004385E+00  (-0.4233959E-03)
 number of electron     462.0001434 magnetization       0.1447924
 augmentation part      220.8381014 magnetization       0.1502729

 Broyden mixing:
  rms(total) = 0.11546E-01    rms(broyden)= 0.11544E-01
  rms(prec ) = 0.12946E-01
  weight for this iteration     100.00

 eigenvalues of (default mixing * dielectric matrix)
  average eigenvalue GAMMA=   1.8334
 13.7928  4.2198  2.3762  2.1240  2.1240  1.4143  1.4143  1.1191  0.8627  0.8627
  0.6498  0.6498  0.8402  0.8402  0.4506  0.4506  0.7021  0.6247  0.6247  0.5250

 Free energy of the ion-electron system (eV)
  ---------------------------------------------------
  alpha Z        PSCENC =       119.63470151
  Ewald energy   TEWEN  =    127366.26303989
  -Hartree energ DENC   =   -169011.69888207
  -exchange      EXHF   =         0.00000000
  -V(xc)+E(xc)   XCENC  =      -466.03837208
  PAW double counting   =     47015.38289280   -45180.88439060
  entropy T*S    EENTRO =         0.00000000
  eigenvalues    EBANDS =     -3490.52121331
  atomic energy  EATOM  =     43562.34246363
  ---------------------------------------------------
  free energy    TOTEN  =       -85.51976024 eV

  energy without entropy =      -85.51976024  energy(sigma->0) =      -85.51976024


--------------------------------------------------------------------------------------------------------




----------------------------------------- Iteration    1(  26)  ---------------------------------------


    POTLOK:  cpu time    0.21: real time    0.21
    SETDIJ:  cpu time    0.01: real time    0.01
     EDDAV:  cpu time    3.86: real time    3.86
       DOS:  cpu time    0.00: real time    0.00
    CHARGE:  cpu time    0.12: real time    0.12
    MIXING:  cpu time    0.01: real time    0.01
    --------------------------------------------
      LOOP:  cpu time    4.21: real time    4.22

 eigenvalue-minimisations  :   980
 total energy-change (2. order) :-0.7355006E-01  (-0.1639236E-03)
 number of electron     462.0001434 magnetization       0.1558354
 augmentation part      220.8421949 magnetization       0.1611011

 Broyden mixing:
  rms(total) = 0.71487E-02    rms(broyden)= 0.71474E-02
  rms(prec ) = 0.82232E-02
  weight for this iteration     100.00

 eigenvalues of (default mixing * dielectric matrix)
  average eigenvalue GAMMA=   1.8156
 13.7540  4.4722  2.4630  2.1726  2.1726  1.4344  1.4344  1.0919  1.0919  0.8570
  0.8570  0.6509  0.6509  0.8330  0.8330  0.4506  0.4506  0.6904  0.6206  0.6206
  0.5254

 Free energy of the ion-electron system (eV)
  ---------------------------------------------------
  alpha Z        PSCENC =       119.63470151
  Ewald energy   TEWEN  =    127366.26303989
  -Hartree energ DENC   =   -169006.12503740
  -exchange      EXHF   =         0.00000000
  -V(xc)+E(xc)   XCENC  =      -466.13642017
  PAW double counting   =     47012.77375843   -45178.30977176
  entropy T*S    EENTRO =         0.00000000
  eigenvalues    EBANDS =     -3496.03604442
  atomic energy  EATOM  =     43562.34246363
  ---------------------------------------------------
  free energy    TOTEN  =       -85.59331030 eV

  energy without entropy =      -85.59331030  energy(sigma->0) =      -85.59331030


--------------------------------------------------------------------------------------------------------




----------------------------------------- Iteration    1(  27)  ---------------------------------------


    POTLOK:  cpu time    0.21: real time    0.21
    SETDIJ:  cpu time    0.01: real time    0.01
     EDDAV:  cpu time    3.50: real time    3.51
       DOS:  cpu time    0.00: real time    0.00
    CHARGE:  cpu time    0.12: real time    0.12
    MIXING:  cpu time    0.01: real time    0.01
    --------------------------------------------
      LOOP:  cpu time    3.86: real time    3.87

 eigenvalue-minimisations  :   848
 total energy-change (2. order) :-0.3742224E-01  (-0.7376498E-04)
 number of electron     462.0001434 magnetization       0.0937957
 augmentation part      220.8410879 magnetization       0.0946596

 Broyden mixing:
  rms(total) = 0.40556E-02    rms(broyden)= 0.40544E-02
  rms(prec ) = 0.49638E-02
  weight for this iteration     100.00

 eigenvalues of (default mixing * dielectric matrix)
  average eigenvalue GAMMA=   1.8262
 13.8323  4.8769  2.3051  2.2376  2.2376  1.7709  1.4705  1.4705  1.0343  0.8835
  0.8835  0.8694  0.8694  0.6505  0.6505  0.8048  0.4506  0.4506  0.6430  0.6295
  0.6295  0.5261

 Free energy of the ion-electron system (eV)
  ---------------------------------------------------
  alpha Z        PSCENC =       119.63470151
  Ewald energy   TEWEN  =    127366.26303989
  -Hartree energ DENC   =   -169002.95001987
  -exchange      EXHF   =         0.00000000
  -V(xc)+E(xc)   XCENC  =      -466.18141019
  PAW double counting   =     47014.63007418   -45180.20566222
  entropy T*S    EENTRO =         0.00000000
  eigenvalues    EBANDS =     -3499.16391947
  atomic energy  EATOM  =     43562.34246363
  ---------------------------------------------------
  free energy    TOTEN  =       -85.63073254 eV

  energy without entropy =      -85.63073254  energy(sigma->0) =      -85.63073254


--------------------------------------------------------------------------------------------------------




----------------------------------------- Iteration    1(  28)  ---------------------------------------


    POTLOK:  cpu time    0.21: real time    0.21
    SETDIJ:  cpu time    0.01: real time    0.01
     EDDAV:  cpu time    3.60: real time    3.61
       DOS:  cpu time    0.00: real time    0.00
    CHARGE:  cpu time    0.12: real time    0.12
    MIXING:  cpu time    0.01: real time    0.01
    --------------------------------------------
      LOOP:  cpu time    3.96: real time    6.35

 eigenvalue-minimisations  :   884
 total energy-change (2. order) :-0.1847257E-01  (-0.7683834E-04)
 number of electron     462.0001434 magnetization       0.0903378
 augmentation part      220.8437903 magnetization       0.0909499

 Broyden mixing:
  rms(total) = 0.29981E-02    rms(broyden)= 0.29964E-02
  rms(prec ) = 0.35728E-02
  weight for this iteration     100.00

 eigenvalues of (default mixing * dielectric matrix)
  average eigenvalue GAMMA=   1.8536
 13.7796  5.5221  2.6837  2.2749  2.2749  2.1669  1.4669  1.4669  1.1366  1.1366
  0.8507  0.8507  0.6505  0.6505  0.4506  0.4506  0.8437  0.7780  0.7780  0.5260
  0.6416  0.6416  0.6114

 Free energy of the ion-electron system (eV)
  ---------------------------------------------------
  alpha Z        PSCENC =       119.63470151
  Ewald energy   TEWEN  =    127366.26303989
  -Hartree energ DENC   =   -168999.03909303
  -exchange      EXHF   =         0.00000000
  -V(xc)+E(xc)   XCENC  =      -466.21649247
  PAW double counting   =     47014.52554092   -45180.09673929
  entropy T*S    EENTRO =         0.00000000
  eigenvalues    EBANDS =     -3503.06262625
  atomic energy  EATOM  =     43562.34246363
  ---------------------------------------------------
  free energy    TOTEN  =       -85.64920512 eV

  energy without entropy =      -85.64920512  energy(sigma->0) =      -85.64920512


--------------------------------------------------------------------------------------------------------




----------------------------------------- Iteration    1(  29)  ---------------------------------------


    POTLOK:  cpu time    0.21: real time    0.21
    SETDIJ:  cpu time    0.01: real time    0.01
     EDDAV:  cpu time    3.45: real time    3.46
       DOS:  cpu time    0.00: real time    0.00
    CHARGE:  cpu time    0.12: real time    0.12
    MIXING:  cpu time    0.01: real time    0.01
    --------------------------------------------
      LOOP:  cpu time    3.81: real time    3.98

 eigenvalue-minimisations  :   828
 total energy-change (2. order) :-0.1301836E-01  (-0.3593122E-04)
 number of electron     462.0001434 magnetization       0.0618600
 augmentation part      220.8423684 magnetization       0.0597088

 Broyden mixing:
  rms(total) = 0.23525E-02    rms(broyden)= 0.23510E-02
  rms(prec ) = 0.26194E-02
  weight for this iteration     100.00

 eigenvalues of (default mixing * dielectric matrix)
  average eigenvalue GAMMA=   1.8511
 13.8035  5.8299  2.8836  2.4611  2.1790  2.1790  1.4661  1.4661  1.3333  1.3333
  0.8710  0.8710  0.6504  0.6504  0.8261  0.8261  0.8085  0.4506  0.4506  0.7010
  0.5261  0.6215  0.6215  0.6165

 Free energy of the ion-electron system (eV)
  ---------------------------------------------------
  alpha Z        PSCENC =       119.63470151
  Ewald energy   TEWEN  =    127366.26303989
  -Hartree energ DENC   =   -168996.66892810
  -exchange      EXHF   =         0.00000000
  -V(xc)+E(xc)   XCENC  =      -466.23535906
  PAW double counting   =     47016.42879577   -45182.01429811
  entropy T*S    EENTRO =         0.00000000
  eigenvalues    EBANDS =     -3505.41263900
  atomic energy  EATOM  =     43562.34246363
  ---------------------------------------------------
  free energy    TOTEN  =       -85.66222348 eV

  energy without entropy =      -85.66222348  energy(sigma->0) =      -85.66222348


--------------------------------------------------------------------------------------------------------




----------------------------------------- Iteration    1(  30)  ---------------------------------------


    POTLOK:  cpu time    0.21: real time    0.21
    SETDIJ:  cpu time    0.01: real time    0.01
     EDDAV:  cpu time    3.56: real time    3.57
       DOS:  cpu time    0.00: real time    0.00
    CHARGE:  cpu time    0.12: real time    0.12
    MIXING:  cpu time    0.01: real time    0.01
[...]
 -0.003  -0.001 -10.299  -0.003  -0.000  -0.003  -0.001 -10.274
  0.004   0.004  -0.003 -10.306  -0.001   0.004   0.004  -0.003
  0.002  -0.001  -0.000  -0.001 -10.303   0.002  -0.001  -0.000
-10.277  -0.004  -0.003   0.004   0.002 -10.228  -0.003  -0.003
 -0.004 -10.270  -0.001   0.004  -0.001  -0.003 -10.221  -0.001
 -0.003  -0.001 -10.274  -0.003  -0.000  -0.003  -0.001 -10.225
  0.004   0.004  -0.003 -10.281  -0.001   0.003   0.004  -0.003
  0.002  -0.001  -0.000  -0.001 -10.278   0.002  -0.001  -0.000
 -0.000  -0.001  -0.000   0.003  -0.001  -0.000  -0.001  -0.000
 -0.000  -0.001  -0.000   0.004  -0.002  -0.000  -0.001  -0.000
  0.017  -0.016   0.005   0.000   0.008   0.017  -0.016   0.005
  0.000  -0.007  -0.019   0.018   0.000   0.000  -0.007  -0.018
 -0.008   0.000  -0.010  -0.016   0.018  -0.008   0.000  -0.010
  0.021  -0.020   0.006   0.000   0.010   0.020  -0.019   0.006
  0.000  -0.009  -0.023   0.021  -0.000   0.000  -0.009  -0.022
 -0.010   0.000  -0.012  -0.020   0.022  -0.010   0.000  -0.012
 total augmentation occupancy for first ion, spin component:           1
  2.761  -0.158   0.034  -0.004   0.030  -0.755   0.120  -0.018   0.034  -0.001  -0.036  -0.010   0.158  -0.019  -0.001   0.002
 -0.158   2.907   0.011   0.059  -0.069   0.120  -0.880  -0.033  -0.045   0.074  -0.003  -0.001  -0.156  -0.025  -0.036  -0.001
  0.034   0.011   2.862  -0.099  -0.072  -0.018  -0.033  -0.836   0.064   0.016  -0.059   0.016   0.007  -0.140  -0.075   0.002
 -0.004   0.059  -0.099   2.677  -0.044   0.034  -0.045   0.064  -0.709   0.040  -0.118  -0.023  -0.040   0.107  -0.024   0.002
  0.030  -0.069  -0.072  -0.044   2.708  -0.001   0.074   0.016   0.040  -0.706   0.123   0.002   0.036   0.028   0.070   0.002
 -0.755   0.120  -0.018   0.034  -0.001   0.719  -0.092   0.006  -0.059  -0.023   0.041  -0.000  -0.178   0.026   0.009   0.011
  0.120  -0.880  -0.033  -0.045   0.074  -0.092   0.826   0.053   0.033  -0.078   0.005  -0.001   0.163   0.037   0.039  -0.009
 -0.018  -0.033  -0.836   0.064   0.016   0.006   0.053   0.782  -0.037   0.029   0.048  -0.015  -0.004   0.155   0.086   0.000
  0.034  -0.045   0.064  -0.709   0.040  -0.059   0.033  -0.037   0.705  -0.038   0.095   0.022   0.042  -0.123   0.044  -0.002
 -0.001   0.074   0.016   0.040  -0.706  -0.023  -0.078   0.029  -0.038   0.673  -0.134   0.014  -0.036  -0.030  -0.087   0.002
 -0.036  -0.003  -0.059  -0.118   0.123   0.041   0.005   0.048   0.095  -0.134   1.855  -0.266   0.042   0.141  -0.167  -0.004
 -0.010  -0.001   0.016  -0.023   0.002  -0.000  -0.001  -0.015   0.022   0.014  -0.266   0.057  -0.004  -0.032   0.039   0.001
  0.158  -0.156   0.007  -0.040   0.036  -0.178   0.163  -0.004   0.042  -0.036   0.042  -0.004   0.109  -0.000   0.011  -0.006
 -0.019  -0.025  -0.140   0.107   0.028   0.026   0.037   0.155  -0.123  -0.030   0.141  -0.032  -0.000   0.092   0.010  -0.000
 -0.001  -0.036  -0.075  -0.024   0.070   0.009   0.039   0.086   0.044  -0.087  -0.167   0.039   0.011   0.010   0.067  -0.000
  0.002  -0.001   0.002   0.002   0.002   0.011  -0.009   0.000  -0.002   0.002  -0.004   0.001  -0.006  -0.000  -0.000   0.000
  0.001  -0.003  -0.003   0.004  -0.002  -0.002  -0.002  -0.010   0.007   0.002  -0.014   0.003  -0.000  -0.006   0.000   0.000
 -0.004   0.002  -0.002  -0.007   0.007  -0.001  -0.002  -0.005  -0.003   0.005   0.016  -0.003  -0.000  -0.000  -0.005  -0.000
 total augmentation occupancy for first ion, spin component:           2
  0.000  -0.000   0.000  -0.000   0.000  -0.000   0.000  -0.000   0.000  -0.000  -0.000   0.000   0.000  -0.000  -0.000   0.000
 -0.000   0.000  -0.000   0.000  -0.000   0.000  -0.000   0.000   0.000   0.000   0.000  -0.000   0.000  -0.000   0.000  -0.000
  0.000  -0.000  -0.000   0.000  -0.000  -0.000   0.000   0.000  -0.000   0.000   0.000  -0.000  -0.000  -0.000   0.000   0.000
 -0.000   0.000   0.000   0.000  -0.000   0.000   0.000  -0.000  -0.000  -0.000   0.000  -0.000   0.000   0.000   0.000  -0.000
  0.000  -0.000  -0.000  -0.000  -0.000  -0.000   0.000   0.000  -0.000   0.000   0.000  -0.000  -0.000   0.000  -0.000   0.000
 -0.000   0.000  -0.000   0.000  -0.000   0.000  -0.000  -0.000  -0.000   0.000  -0.000  -0.000  -0.000   0.000  -0.000  -0.000
  0.000  -0.000   0.000   0.000   0.000  -0.000  -0.000   0.000  -0.000   0.000  -0.000   0.000  -0.000  -0.000  -0.000   0.000
 -0.000   0.000   0.000  -0.000   0.000  -0.000   0.000  -0.000  -0.000   0.000  -0.000   0.000   0.000   0.000  -0.000  -0.000
  0.000   0.000  -0.000  -0.000  -0.000  -0.000  -0.000  -0.000  -0.000   0.000  -0.000   0.000  -0.000   0.000  -0.000   0.000
 -0.000   0.000   0.000  -0.000   0.000   0.000   0.000   0.000   0.000  -0.000   0.000   0.000   0.000  -0.000   0.000  -0.000
 -0.000   0.000   0.000   0.000   0.000  -0.000  -0.000  -0.000  -0.000   0.000  -0.000   0.000  -0.000   0.000  -0.000   0.000
  0.000  -0.000  -0.000  -0.000  -0.000  -0.000   0.000   0.000   0.000   0.000   0.000  -0.000  -0.000  -0.000  -0.000   0.000
  0.000   0.000  -0.000   0.000  -0.000  -0.000  -0.000   0.000  -0.000   0.000  -0.000  -0.000  -0.000  -0.000  -0.000   0.000
 -0.000  -0.000  -0.000   0.000   0.000   0.000  -0.000   0.000   0.000  -0.000   0.000  -0.000  -0.000  -0.000   0.000  -0.000
 -0.000   0.000   0.000   0.000  -0.000  -0.000  -0.000  -0.000  -0.000   0.000  -0.000  -0.000  -0.000   0.000  -0.000  -0.000
  0.000  -0.000   0.000  -0.000   0.000  -0.000   0.000  -0.000   0.000  -0.000   0.000   0.000   0.000  -0.000  -0.000   0.000
  0.000   0.000   0.000  -0.000  -0.000  -0.000   0.000  -0.000   0.000   0.000  -0.000   0.000   0.000   0.000  -0.000  -0.000
  0.000   0.000  -0.000  -0.000   0.000  -0.000   0.000   0.000   0.000  -0.000   0.000   0.000  -0.000   0.000  -0.000   0.000


------------------------ aborting loop because EDIFF is reached ----------------------------------------


    CHARGE:  cpu time    0.12: real time    0.12
    FORLOC:  cpu time    0.02: real time    0.02
    FORNL :  cpu time    3.42: real time    3.43
    STRESS:  cpu time    4.05: real time    4.05
    FORCOR:  cpu time    0.21: real time    0.21
    FORHAR:  cpu time    0.04: real time    0.04
    MIXING:  cpu time    0.00: real time    0.01
    OFIELD:  cpu time    0.00: real time    0.00

  FORCE on cell =-STRESS in cart. coord.  units (eV):
  Direction    XX          YY          ZZ          XY          YZ          ZX
  --------------------------------------------------------------------------------------
  Alpha Z   119.63470   119.63470   119.63470
  Ewald   41841.33433 50464.26749 25318.66227  7666.30477 -1490.65329  2636.69620
  Hartree 55567.80970 63869.27475 39967.15343  7230.57048 -1369.09653  2441.38439
  E(xc)   -2435.27271 -2435.02094 -2436.86369     0.55369    -0.20278     0.35205
  Local  ************************-72160.65520-14901.60547  2858.64224 -5074.69456
  n-local  -434.03362  -433.34643  -437.66559     2.48706    -0.54911    -0.06034
  augment  3857.70453  3858.75637  3861.89251     0.28481     0.68851    -1.31609
  Kinetic  5745.34255  5747.56888  5753.45044     1.28791     1.02113    -2.92476
  Fock        0.00000     0.00000     0.00000     0.00000     0.00000     0.00000
  -------------------------------------------------------------------------------------
  Total     -14.15300   -15.06578   -14.39112    -0.11675    -0.14983    -0.56312
  in kB      -1.80802    -1.92463    -1.83844    -0.01491    -0.01914    -0.07194
  external pressure =       -1.86 kB  Pullay stress =        0.00 kB


 VOLUME and BASIS-vectors are now :
 -----------------------------------------------------------------------------
  energy-cutoff  :      249.84
  volume of cell :    12541.68
      direct lattice vectors                 reciprocal lattice vectors
    23.233708191  0.000000000  0.000000000     0.043040912  0.000000000  0.000000000
     0.000000000 23.233708191  0.000000000     0.000000000  0.043040912  0.000000000
     0.000000000  0.000000000 23.233708191     0.000000000  0.000000000  0.043040912

  length of vectors
    23.233708191 23.233708191 23.233708191     0.043040912  0.043040912  0.043040912


 FORCES acting on ions
    electron-ion (+dipol)            ewald-force                    non-local-force                 convergence-correction
 -----------------------------------------------------------------------------------------------
   -.154E+04 0.180E+01 0.732E+03   0.154E+04 -.456E+00 -.729E+03   0.319E+01 -.134E+01 -.265E+01   0.349E-01 0.426E-02 -.255E-01
   -.872E+03 0.534E+03 0.141E+04   0.869E+03 -.534E+03 -.141E+04   0.265E+01 0.218E+00 -.376E+01   -.581E-02 -.166E-01 -.994E-02
   -.156E+04 0.536E+03 -.493E+03   0.156E+04 -.534E+03 0.492E+03   0.513E+01 -.226E+01 0.148E+01   0.295E-02 -.447E-02 -.179E-01
   -.122E+04 -.961E+03 0.493E+03   0.122E+04 0.961E+03 -.491E+03   0.104E+01 0.468E+00 -.219E+01   0.274E-02 -.373E-03 -.515E-02
   -.120E+04 0.684E+03 0.481E+03   0.120E+04 -.685E+03 -.482E+03   -.119E+00 0.789E+00 0.313E+00   0.238E-01 -.292E-01 -.371E-01
   -.833E+03 -.409E+03 0.125E+04   0.832E+03 0.410E+03 -.125E+04   0.517E+00 -.460E+00 -.273E+00   0.573E-02 -.194E-01 0.221E-01
   -.159E+04 -.519E+03 -.407E+03   0.158E+04 0.519E+03 0.405E+03   0.422E+01 0.344E+00 0.203E+01   0.116E-01 -.988E-02 -.132E-01
   -.115E+04 0.125E+04 -.170E+03   0.115E+04 -.125E+04 0.169E+03   0.322E+01 -.377E+01 0.476E+00   -.145E-02 0.170E-01 0.688E-02
   -.830E+03 0.631E+03 -.103E+04   0.830E+03 -.631E+03 0.103E+04   0.645E+00 0.292E+00 -.602E-01   -.464E-03 0.164E-01 0.101E-01
   -.570E+03 0.125E+04 0.956E+03   0.570E+03 -.124E+04 -.954E+03   0.525E+00 -.243E+01 -.204E+01   0.807E-02 -.123E-01 0.426E-02
   -.105E+03 0.470E+02 0.612E+03   0.106E+03 -.469E+02 -.610E+03   -.175E+00 -.114E+00 -.187E+01   0.645E-03 -.311E-01 0.122E-01
   -.530E+02 -.132E+03 0.174E+04   0.521E+02 0.132E+03 -.174E+04   0.926E+00 0.327E+00 -.547E+01   -.770E-02 -.148E-01 0.291E-01
   -.101E+04 -.230E+03 -.136E+04   0.101E+04 0.230E+03 0.136E+04   0.196E+01 -.795E+00 0.307E+01   -.126E-01 -.184E-01 -.295E-01
   -.428E+02 -.800E+03 0.941E+02   0.429E+02 0.798E+03 -.938E+02   -.988E-01 0.204E+01 -.282E+00   0.119E-01 -.146E-01 0.397E-02
   -.489E+03 -.158E+04 0.399E+02   0.489E+03 0.157E+04 -.395E+02   0.268E+00 0.441E+01 -.437E+00   -.440E-02 -.106E-02 -.563E-02
   -.366E+03 -.123E+04 0.112E+04   0.365E+03 0.123E+04 -.111E+04   0.790E+00 0.324E+01 -.287E+01   0.178E-01 0.792E-02 -.327E-02
   -.709E+03 -.125E+03 -.200E+03   0.707E+03 0.125E+03 0.200E+03   0.176E+01 -.131E+00 0.697E+00   -.214E-02 -.179E-01 -.517E-01
   0.420E+03 -.908E+03 0.127E+04   -.419E+03 0.907E+03 -.127E+04   -.274E+00 0.131E+01 -.182E+01   -.278E-01 -.202E-01 -.261E-02
   -.168E+03 0.167E+04 0.111E+03   0.166E+03 -.167E+04 -.112E+03   0.186E+01 -.464E+01 0.101E+01   0.611E-02 0.187E-01 0.680E-01
   -.361E+03 0.129E+04 -.110E+04   0.359E+03 -.128E+04 0.109E+04   0.180E+01 -.359E+01 0.330E+01   -.548E-02 0.162E-01 0.228E-01
   -.841E+03 -.112E+04 -.844E+03   0.840E+03 0.112E+04 0.843E+03   0.734E+00 0.218E+01 0.147E+01   0.832E-03 0.473E-02 -.157E-01
   0.253E+03 0.757E+03 0.142E+04   -.253E+03 -.756E+03 -.142E+04   -.328E-01 -.855E+00 -.128E+01   0.178E-03 0.167E-01 -.187E-01
   0.711E+03 -.150E+04 0.361E+03   -.709E+03 0.149E+04 -.360E+03   -.235E+01 0.470E+01 -.966E+00   -.126E-01 -.887E-02 -.423E-02
   0.244E+03 -.144E+04 -.836E+03   -.243E+03 0.144E+04 0.833E+03   -.932E+00 0.287E+01 0.254E+01   -.482E-02 0.435E-02 -.131E-01
   0.881E+03 -.270E+03 0.134E+04   -.880E+03 0.271E+03 -.134E+04   -.934E+00 -.735E+00 -.204E+01   0.300E-01 0.120E-01 -.882E-02
   -.101E+03 0.731E+03 -.126E+03   0.993E+02 -.729E+03 0.125E+03   0.129E+01 -.141E+01 0.579E+00   -.948E-03 0.352E-02 0.231E-02
   0.519E+03 0.134E+04 0.719E+03   -.518E+03 -.134E+04 -.717E+03   -.102E+01 -.105E+01 -.229E+01   0.103E-01 -.430E-02 0.197E-01
   0.640E+03 0.134E+04 -.715E+03   -.639E+03 -.134E+04 0.714E+03   -.740E+00 -.192E+01 0.105E+01   -.689E-02 0.774E-02 0.102E-01
   0.746E+03 0.283E+03 0.193E+03   -.743E+03 -.283E+03 -.192E+03   -.216E+01 0.437E+00 -.332E+00   0.141E-01 0.862E-03 0.286E-01
   -.204E+02 -.770E+03 -.134E+04   0.212E+02 0.771E+03 0.134E+04   -.695E+00 -.399E+00 0.673E+00   -.216E-01 0.282E-01 0.718E-02
   -.231E+03 0.590E+02 -.170E+04   0.230E+03 -.597E+02 0.170E+04   0.937E+00 0.637E+00 0.464E+01   -.159E-01 0.324E-02 0.470E-02
   0.107E+04 -.941E+03 0.396E+03   -.107E+04 0.941E+03 -.395E+03   0.971E-01 0.243E+00 -.192E+00   0.179E-01 0.223E-01 -.363E-01
   0.241E+03 -.120E+03 -.498E+03   -.240E+03 0.120E+03 0.496E+03   -.545E+00 0.122E-01 0.185E+01   0.147E-01 -.308E-02 -.250E-01
   0.967E+03 -.110E+04 -.761E+03   -.966E+03 0.109E+04 0.759E+03   -.102E+01 0.279E+01 0.167E+01   0.364E-02 0.254E-01 0.865E-02
   0.118E+04 0.634E+03 0.108E+04   -.117E+04 -.632E+03 -.108E+04   -.413E+01 -.228E+01 -.207E+01   -.849E-02 -.165E-01 0.319E-02
   0.123E+04 0.113E+04 -.113E+02   -.123E+04 -.112E+04 0.118E+02   -.333E+01 -.215E+01 -.563E+00   -.582E-02 0.504E-02 0.105E-01
   0.152E+04 -.468E+03 0.597E+03   -.152E+04 0.466E+03 -.595E+03   -.429E+01 0.158E+01 -.145E+01   -.117E-01 -.220E-02 0.142E-01
   0.299E+03 0.631E+03 -.142E+04   -.298E+03 -.631E+03 0.142E+04   -.249E+00 -.363E+00 0.134E+01   -.684E-02 0.110E-01 0.295E-02
   0.822E+03 -.315E+03 -.150E+04   -.820E+03 0.314E+03 0.150E+04   -.233E+01 0.162E+01 0.384E+01   -.144E-01 0.153E-01 0.111E-01
   0.137E+04 -.551E+03 -.624E+03   -.137E+04 0.551E+03 0.622E+03   -.230E+01 0.316E+00 0.145E+01   -.148E-01 -.142E-02 -.718E-02
   0.163E+04 0.194E+03 -.214E+03   -.162E+04 -.193E+03 0.214E+03   -.448E+01 -.833E+00 -.232E+00   -.564E-02 0.105E-01 0.513E-02
   0.112E+04 0.481E+03 -.106E+04   -.112E+04 -.480E+03 0.106E+04   -.176E+01 -.710E+00 0.135E+01   -.185E-01 0.156E-01 0.511E-02
 -----------------------------------------------------------------------------------------------
   0.638E+00 0.153E+01 0.519E+00   0.682E-12 -.909E-12 -.455E-12   -.408E+00 -.141E+01 -.290E+00   0.107E-02 0.204E-01 -.176E-01
 
 
 POSITION                                       TOTAL-FORCE (eV/Angst)
 -----------------------------------------------------------------------------------
     16.16601     12.47244     10.48194         0.013379     -0.000001     -0.011909
     13.73592     10.40770      8.34187        -0.000832     -0.009378     -0.007492
     16.19608     10.99875     13.09013         0.002067      0.000749     -0.009401
     15.26921     15.16555     10.86368         0.001340     -0.000102     -0.001916
     14.66909     10.15946     10.89165        -0.000424     -0.010410     -0.012565
     13.88475     13.36988      9.06303         0.003357     -0.010947      0.007593
     16.59305     13.80672     12.89224         0.009825     -0.003114     -0.005342
     14.35051      7.92007     12.36313         0.000338      0.009815      0.004145
     13.79192     10.08323     14.13552        -0.001313      0.011356      0.005325
     12.89608      8.20163      9.82909         0.002691     -0.008948      0.001165
     12.03530     11.66308     10.32016        -0.001223     -0.013964      0.010469
     11.85339     12.16893      7.39641        -0.003724     -0.008652      0.012508
     14.88793     12.86403     14.96964        -0.004260     -0.011363     -0.013904
     12.30193     14.48352     11.56862         0.013105     -0.009876      0.005322
     13.63413     17.29155     11.64940        -0.002294     -0.000882     -0.003306
     13.18382     16.11595      9.21387         0.012291      0.003165     -0.001947
     14.01146     12.55856     12.34584        -0.006591     -0.004991     -0.018996
     11.11585     14.40199      8.82493        -0.011343     -0.011867     -0.002649
     11.90371      6.38423     11.76004         0.006868      0.009513      0.034642
     12.45022      7.50725     14.36473        -0.003589      0.007697      0.010399
     14.43301     15.40622     13.58125         0.003378     -0.000817     -0.007600
     10.83567      9.75765      8.57046        -0.002493      0.009717     -0.010479
     10.76559     16.53834     10.90452        -0.010859     -0.004940     -0.004202
     11.84463     16.68497     13.64341        -0.002642      0.001646     -0.007581
      9.36388     12.14808      8.63002         0.015528      0.008045     -0.005683
     11.80150      9.31070     12.15817        -0.002186      0.001389      0.000476
      9.98931      7.80634     10.40398         0.007974     -0.003147      0.009774
      9.84057      7.49790     13.35921        -0.005659      0.001610      0.002157
      9.42360     10.57131     11.26188         0.008826      0.002394      0.011841
     12.30507     14.05609     14.69391        -0.008071      0.012201      0.001095
     12.56224     11.67125     16.04953        -0.010175      0.001315      0.002010
      9.30908     14.00961     10.82010         0.009600      0.014093     -0.017453
     11.19664     12.06932     12.90298         0.004856     -0.002749     -0.013475
      9.90198     14.70455     13.39124         0.001742      0.012301      0.008097
      7.95866      9.61827      9.22544        -0.003208     -0.011880      0.002696
      7.62386      8.03746     11.80780        -0.002441      0.001888      0.001533
      7.21489     12.27921     10.27844        -0.003043     -0.001684      0.012042
     10.98833      9.75105     14.92346        -0.004331      0.002973      0.005143
      9.84476     12.33465     15.24373        -0.009463      0.004618      0.008095
      8.16432     12.56702     12.95251        -0.007697     -0.000577     -0.003389
      6.40101     10.47018     12.13258        -0.003026      0.004925      0.003006
      8.46559      9.89805     13.90524        -0.006277      0.008878     -0.000245
 -----------------------------------------------------------------------------------
    total drift:                                0.231339      0.142788      0.211224


--------------------------------------------------------------------------------------------------------



  FREE ENERGIE OF THE ION-ELECTRON SYSTEM (eV)
  ---------------------------------------------------
  free  energy   TOTEN  =       -90.15814299 eV

  energy  without entropy=      -90.15814299  energy(sigma->0) =      -90.15814299
 
 d Force = 0.6023244E-03[ 0.493E-03, 0.712E-03]  d Energy = 0.7184495E-03-0.116E-03
 d Force = 0.2586837E+01[ 0.259E+01, 0.259E+01]  d Ewald  = 0.2586837E+01 0.100E-06


--------------------------------------------------------------------------------------------------------


    POTLOK:  cpu time    0.23: real time    0.23


--------------------------------------------------------------------------------------------------------




--------------------------------------------------------------------------------------------------------


  
 reached required accuracy - stopping structural energy minimisation
     LOOP+:  cpu time   17.65: real time   21.43
    4ORBIT:  cpu time    0.00: real time    0.00

 total amount of memory used by VASP on root node    56695. kBytes
========================================================================

   base      :      30000. kBytes
   nonl-proj :       2862. kBytes
   fftplans  :       4337. kBytes
   grid      :      10964. kBytes
   one-center:         46. kBytes
   wavefun   :       8486. kBytes
 
  
  
 General timing and accounting informations for this job:
 ========================================================
  
                  Total CPU time used (sec):     1546.109
                            User time (sec):     1536.764
                          System time (sec):        9.345
                         Elapsed time (sec):     1628.809
  
                   Maximum memory used (kb):       70732.
                   Average memory used (kb):           0.
  
                          Minor page faults:       746947
                          Major page faults:            0
                 Voluntary context switches:        39340
