unknown system                          
           1
    24.645723    0.000000    0.000000
     0.000000   24.645723    0.000000
     0.000000    0.000000   24.645723
   Ag
  36
Direct configuration=     1
   0.45309850  0.54276099  0.30750431
   0.72071717  0.59917910  0.36809977
   0.58000880  0.48744339  0.47541404
   0.62536919  0.56468427  0.39916729
   0.41019355  0.42391014  0.61365193
   0.50179430  0.67320507  0.45642529
   0.57318138  0.39913395  0.62702277
   0.54413883  0.62623260  0.36867821
   0.33679217  0.49838410  0.64375583
   0.56822503  0.64398166  0.53628573
   0.38876059  0.32397888  0.64018971
   0.44269807  0.52018430  0.65603937
   0.52653585  0.69226146  0.62565851
   0.55050683  0.50274956  0.63741528
   0.64386484  0.57284696  0.51094731
   0.51986822  0.60012624  0.67773579
   0.61787969  0.58695306  0.61642158
   0.41086445  0.62121877  0.50312769
   0.44194924  0.59870158  0.39802241
   0.48203524  0.78591188  0.61378093
   0.54562193  0.34764692  0.51151110
   0.48298390  0.34301463  0.60057298
   0.67749996  0.43552923  0.47124436
   0.47272091  0.52431445  0.47664969
   0.63923599  0.47714393  0.57144573
   0.48912807  0.58051581  0.57236050
   0.39080639  0.51890831  0.55336441
   0.53101241  0.51135503  0.37912605
   0.36336422  0.53386132  0.44667278
   0.42474610  0.46797495  0.38214595
   0.50251855  0.45027213  0.54973646
   0.58777300  0.29217532  0.59722968
   0.45320477  0.70908146  0.54695033
   0.71853140  0.52835738  0.44528759
   0.64807466  0.36789977  0.54678220
   0.50184917  0.41565477  0.44112984
Direct configuration=     2
   0.45319107  0.54279750  0.30721128
   0.72084255  0.59941811  0.36783091
   0.58012585  0.48749456  0.47538956
   0.62534661  0.56456846  0.39924204
   0.41017230  0.42394625  0.61362454
   0.50173981  0.67327838  0.45636642
   0.57340432  0.39903912  0.62700597
   0.54409244  0.62624476  0.36844259
   0.33653248  0.49841012  0.64390253
   0.56828792  0.64421266  0.53612777
   0.38847228  0.32378339  0.64032757
   0.44276317  0.52023163  0.65612114
   0.52672338  0.69221042  0.62571147
   0.55051597  0.50277634  0.63750369
   0.64399285  0.57280868  0.51090873
   0.51990748  0.60002366  0.67802606
   0.61785928  0.58695421  0.61652384
   0.41070060  0.62117377  0.50309692
   0.44184410  0.59877576  0.39791439
   0.48198009  0.78623902  0.61390917
   0.54559473  0.34764932  0.51142832
   0.48309404  0.34288640  0.60051586
   0.67752232  0.43540252  0.47123209
   0.47264653  0.52431801  0.47653240
   0.63925407  0.47717835  0.57157457
   0.48907529  0.58051162  0.57243545
   0.39088909  0.51898285  0.55333291
   0.53090264  0.51135716  0.37897608
   0.36325292  0.53384548  0.44671900
   0.42476097  0.46798980  0.38211657
   0.50244179  0.45012985  0.54993612
   0.58768523  0.29204980  0.59734865
   0.45317154  0.70903457  0.54692122
   0.71873210  0.52839523  0.44536566
   0.64823857  0.36781862  0.54692006
   0.50179703  0.41561700  0.44101184
Direct configuration=     3
   0.45346879  0.54290706  0.30633220
   0.72121868  0.60013515  0.36702433
   0.58047699  0.48764807  0.47531614
   0.62527886  0.56422104  0.39946628
   0.41010855  0.42405457  0.61354236
   0.50157633  0.67349828  0.45618983
   0.57407314  0.39875462  0.62695557
   0.54395325  0.62628124  0.36773571
   0.33575341  0.49848820  0.64434263
   0.56847661  0.64490566  0.53565386
   0.38760734  0.32319692  0.64074115
   0.44295847  0.52037361  0.65636645
   0.52728597  0.69205732  0.62587033
   0.55054338  0.50285669  0.63776894
   0.64437686  0.57269383  0.51079299
   0.52002526  0.59971593  0.67889686
   0.61779804  0.58695766  0.61683063
   0.41020906  0.62103878  0.50300461
   0.44152869  0.59899832  0.39759034
   0.48181462  0.78722044  0.61429390
   0.54551312  0.34765651  0.51117996
   0.48342447  0.34250170  0.60034450
   0.67758940  0.43502238  0.47119529
   0.47242338  0.52432868  0.47618053
   0.63930832  0.47728159  0.57196109
   0.48891693  0.58049906  0.57266030
   0.39113720  0.51920645  0.55323842
   0.53057332  0.51136355  0.37852618
   0.36291903  0.53379795  0.44685764
   0.42480557  0.46803436  0.38202843
   0.50221153  0.44970299  0.55053511
   0.58742189  0.29167324  0.59770557
   0.45307186  0.70889390  0.54683388
   0.71933419  0.52850881  0.44559988
   0.64873030  0.36757515  0.54733367
   0.50164059  0.41550369  0.44065785
Direct configuration=     4
   0.45402423  0.54312616  0.30457403
   0.72197095  0.60156922  0.36541116
   0.58117927  0.48795509  0.47516930
   0.62514337  0.56352620  0.39991478
   0.40998105  0.42427122  0.61337800
   0.50124937  0.67393809  0.45583664
   0.57541077  0.39818564  0.62685478
   0.54367487  0.62635420  0.36632195
   0.33419526  0.49864434  0.64522283
   0.56885399  0.64629166  0.53470605
   0.38587747  0.32202399  0.64156831
   0.44334907  0.52065757  0.65685706
   0.52841115  0.69175111  0.62618806
   0.55059820  0.50301737  0.63829943
   0.64514488  0.57246413  0.51056153
   0.52026083  0.59910047  0.68063846
   0.61767557  0.58696454  0.61744420
   0.40922596  0.62076879  0.50281999
   0.44089787  0.59944343  0.39694222
   0.48148369  0.78918328  0.61506335
   0.54534989  0.34767089  0.51068324
   0.48408532  0.34173230  0.60000179
   0.67772357  0.43426210  0.47112170
   0.47197708  0.52435003  0.47547680
   0.63941682  0.47748809  0.57273413
   0.48860021  0.58047393  0.57311000
   0.39163342  0.51965365  0.55304943
   0.52991469  0.51137633  0.37762639
   0.36225125  0.53370290  0.44713493
   0.42489476  0.46812346  0.38185213
   0.50175100  0.44884928  0.55173308
   0.58689523  0.29092012  0.59841940
   0.45287250  0.70861256  0.54665921
   0.72053836  0.52873596  0.44606831
   0.64971375  0.36708822  0.54816088
   0.50132773  0.41527708  0.43994986
Direct configuration=     5
   0.45513511  0.54356436  0.30105768
   0.72347548  0.60443735  0.36218483
   0.58258384  0.48856913  0.47487562
   0.62487238  0.56213652  0.40081176
   0.40972606  0.42470451  0.61304929
   0.50059546  0.67481772  0.45513026
   0.57808604  0.39704767  0.62665321
   0.54311811  0.62650012  0.36349444
   0.33107897  0.49895664  0.64698322
   0.56960875  0.64906366  0.53281043
   0.38241773  0.31967811  0.64322263
   0.44413028  0.52122549  0.65783828
   0.53066150  0.69113869  0.62682353
   0.55070783  0.50333874  0.63936041
   0.64668092  0.57200473  0.51009859
   0.52073197  0.59786955  0.68412165
   0.61743062  0.58697832  0.61867134
   0.40725977  0.62022881  0.50245076
   0.43963622  0.60033365  0.39564600
   0.48082182  0.79310896  0.61660227
   0.54502344  0.34769965  0.50968980
   0.48540703  0.34019351  0.59931636
   0.67799190  0.43274155  0.47097452
   0.47108448  0.52439272  0.47406933
   0.63963382  0.47790107  0.57428021
   0.48796677  0.58042368  0.57400939
   0.39262585  0.52054805  0.55267144
   0.52859742  0.51140189  0.37582679
   0.36091570  0.53351281  0.44768950
   0.42507316  0.46830167  0.38149955
   0.50082994  0.44714185  0.55412903
   0.58584189  0.28941387  0.59984707
   0.45247378  0.70804988  0.54630986
   0.72294672  0.52919025  0.44700518
   0.65168064  0.36611435  0.54981530
   0.50070201  0.41482384  0.43853388
Direct configuration=     6
   0.45470284  0.54339384  0.30242598
   0.72289003  0.60332129  0.36344027
   0.58203729  0.48833019  0.47498990
   0.62497783  0.56267728  0.40046272
   0.40982529  0.42453590  0.61317720
   0.50084991  0.67447544  0.45540513
   0.57704502  0.39749049  0.62673165
   0.54333476  0.62644334  0.36459469
   0.33229160  0.49883512  0.64629821
   0.56931505  0.64798501  0.53354806
   0.38376400  0.32059095  0.64257890
   0.44382629  0.52100450  0.65745647
   0.52978583  0.69137699  0.62657625
   0.55066517  0.50321369  0.63894755
   0.64608321  0.57218349  0.51027873
   0.52054864  0.59834853  0.68276626
   0.61752593  0.58697296  0.61819383
   0.40802486  0.62043893  0.50259443
   0.44012716  0.59998724  0.39615039
   0.48107937  0.79158138  0.61600344
   0.54515047  0.34768846  0.51007637
   0.48489272  0.34079229  0.59958308
   0.67788748  0.43333323  0.47103179
   0.47143181  0.52437611  0.47461701
   0.63954938  0.47774037  0.57367859
   0.48821325  0.58044324  0.57365942
   0.39223967  0.52020002  0.55281853
   0.52911000  0.51139195  0.37652706
   0.36143540  0.53358678  0.44747370
   0.42500374  0.46823233  0.38163675
   0.50118835  0.44780625  0.55319671
   0.58625177  0.28999998  0.59929153
   0.45262893  0.70826884  0.54644580
   0.72200957  0.52901348  0.44664062
   0.65091528  0.36649331  0.54917152
   0.50094549  0.41500021  0.43908487
Direct configuration=     7
   0.45521726  0.54363704  0.30136116
   0.72280180  0.60367805  0.36303916
   0.58175973  0.48822222  0.47486239
   0.62546260  0.56259422  0.40038650
   0.40924643  0.42402869  0.61350526
   0.50042055  0.67459880  0.45461835
   0.57787688  0.39734681  0.62674757
   0.54308365  0.62621652  0.36370501
   0.33202155  0.49893117  0.64643247
   0.56982628  0.64840236  0.53308583
   0.38349673  0.32055337  0.64277983
   0.44328428  0.52087820  0.65776904
   0.53010798  0.69168908  0.62662336
   0.55083512  0.50272075  0.63928634
   0.64634082  0.57241812  0.51076699
   0.52078842  0.59822501  0.68407172
   0.61720982  0.58730942  0.61807602
   0.40754225  0.62047868  0.50239149
   0.43963521  0.60017257  0.39534946
   0.48104611  0.79169242  0.61624079
   0.54555440  0.34769579  0.50980935
   0.48405368  0.34017920  0.60001066
   0.67808888  0.43309235  0.47104473
   0.47153555  0.52403027  0.47439494
   0.63970546  0.47782616  0.57405300
   0.48846819  0.58097764  0.57381281
   0.39230603  0.52020641  0.55365261
   0.52885474  0.51147885  0.37603648
   0.36091905  0.53342276  0.44741697
   0.42481759  0.46870798  0.38112914
   0.50106729  0.44761137  0.55329075
   0.58589607  0.28952319  0.59968417
   0.45288273  0.70847278  0.54715051
   0.72279428  0.52950189  0.44619270
   0.65160509  0.36594582  0.54989135
   0.50100092  0.41508744  0.43888445
Direct configuration=     8
   0.45676051  0.54436661  0.29816671
   0.72253709  0.60474832  0.36183583
   0.58092705  0.48789828  0.47447989
   0.62691691  0.56234506  0.40015785
   0.40750984  0.42250704  0.61448945
   0.49913247  0.67496891  0.45225801
   0.58037243  0.39691580  0.62679535
   0.54233034  0.62553606  0.36103597
   0.33121141  0.49921934  0.64683525
   0.57135996  0.64965444  0.53169914
   0.38269494  0.32044064  0.64338264
   0.44165825  0.52049929  0.65870676
   0.53107443  0.69262535  0.62676469
   0.55134497  0.50124194  0.64030268
   0.64711366  0.57312202  0.51223178
   0.52150778  0.59785446  0.68798810
   0.61626146  0.58831879  0.61772260
   0.40609440  0.62059791  0.50178267
   0.43815936  0.60072854  0.39294666
   0.48094634  0.79202554  0.61695283
   0.54676618  0.34771776  0.50900829
   0.48153653  0.33833994  0.60129342
   0.67869309  0.43236970  0.47108355
   0.47184675  0.52299275  0.47372875
   0.64017370  0.47808353  0.57517621
   0.48923299  0.58258086  0.57427299
   0.39250512  0.52022560  0.55615488
   0.52808896  0.51173954  0.37456477
   0.35937000  0.53293072  0.44724678
   0.42425912  0.47013494  0.37960631
   0.50070411  0.44702672  0.55357289
   0.58482896  0.28809281  0.60086210
   0.45364413  0.70908461  0.54926463
   0.72514843  0.53096712  0.44484895
   0.65367452  0.36430336  0.55205084
   0.50116721  0.41534913  0.43828317
Direct configuration=     9
   0.45735087  0.54472267  0.29741114
   0.72204423  0.60470663  0.36187792
   0.58091546  0.48786495  0.47446153
   0.62703340  0.56251373  0.39998094
   0.40687227  0.42220073  0.61497125
   0.49849040  0.67479931  0.45187462
   0.58044422  0.39637542  0.62675381
   0.54216457  0.62478206  0.36038500
   0.33126987  0.49921518  0.64680978
   0.57118385  0.65007190  0.53117885
   0.38252465  0.32045930  0.64362264
   0.44152743  0.52042996  0.65884164
   0.53130680  0.69250929  0.62696783
   0.55089197  0.50130164  0.64088951
   0.64754873  0.57272381  0.51221255
   0.52171824  0.59761938  0.68833469
   0.61521306  0.58885212  0.61755974
   0.40649874  0.62081779  0.50167666
   0.43763732  0.60035796  0.39228587
   0.48112478  0.79142069  0.61713334
   0.54737303  0.34784154  0.50990024
   0.48142468  0.33806548  0.60138667
   0.67877654  0.43280001  0.47162830
   0.47127362  0.52306115  0.47400106
   0.64049582  0.47800810  0.57490943
   0.48965820  0.58339940  0.57452966
   0.39282777  0.52043277  0.55641388
   0.52848649  0.51202605  0.37444018
   0.35936116  0.53281873  0.44758854
   0.42404596  0.47103208  0.37865688
   0.50058207  0.44682865  0.55348684
   0.58420205  0.28818058  0.60100808
   0.45419780  0.70855829  0.54954544
   0.72534298  0.53127195  0.44440987
   0.65457186  0.36389781  0.55228267
   0.50117250  0.41558629  0.43813635
Direct configuration=    10
   0.45912194  0.54579087  0.29514443
   0.72056564  0.60458156  0.36200420
   0.58088066  0.48776498  0.47440646
   0.62738289  0.56301974  0.39945020
   0.40495956  0.42128178  0.61641667
   0.49656418  0.67429052  0.45072443
   0.58065958  0.39475426  0.62662920
   0.54166728  0.62252008  0.35843211
   0.33144527  0.49920268  0.64673338
   0.57065550  0.65132430  0.52961800
   0.38201377  0.32051527  0.64434263
   0.44113495  0.52022197  0.65924627
   0.53200391  0.69216110  0.62757725
   0.54953297  0.50148076  0.64265000
   0.64885392  0.57152920  0.51215485
   0.52234961  0.59691416  0.68937447
   0.61206788  0.59045213  0.61707114
   0.40771177  0.62147740  0.50135861
   0.43607120  0.59924621  0.39030351
   0.48166011  0.78960615  0.61767486
   0.54919359  0.34821288  0.51257608
   0.48108915  0.33724210  0.60166642
   0.67902692  0.43409094  0.47326256
   0.46955426  0.52326634  0.47481800
   0.64146218  0.47778180  0.57410906
   0.49093384  0.58585503  0.57529965
   0.39379571  0.52105429  0.55719088
   0.52967908  0.51288559  0.37406643
   0.35933465  0.53248276  0.44861379
   0.42340648  0.47372353  0.37580861
   0.50021598  0.44623444  0.55322867
   0.58232132  0.28844390  0.60144601
   0.45585880  0.70697933  0.55038790
   0.72592665  0.53218644  0.44309264
   0.65726386  0.36268117  0.55297814
   0.50118834  0.41629776  0.43769589
Direct configuration=    11
   0.46018018  0.54633709  0.29410564
   0.72017399  0.60491333  0.36167107
   0.58061314  0.48795682  0.47440358
   0.62694090  0.56307290  0.39952307
   0.40474846  0.42138494  0.61669028
   0.49592304  0.67374803  0.44983254
   0.58050935  0.39523589  0.62634875
   0.54113356  0.62194396  0.35758635
   0.33136335  0.49930733  0.64674133
   0.57064027  0.65178795  0.52863610
   0.38177349  0.32007523  0.64478654
   0.44113763  0.52022618  0.65931979
   0.53275412  0.69133364  0.62821404
   0.54954169  0.50058225  0.64273672
   0.64886689  0.57132593  0.51226119
   0.52224246  0.59691740  0.68977657
   0.61061505  0.59108119  0.61638977
   0.40820434  0.62133714  0.50116018
   0.43549418  0.59850105  0.38964738
   0.48191391  0.78884343  0.61801210
   0.54991758  0.34929011  0.51317584
   0.48064908  0.33730389  0.60178461
   0.67929904  0.43504292  0.47420549
   0.46930356  0.52333912  0.47497731
   0.64120954  0.47738841  0.57436637
   0.49111847  0.58664724  0.57581480
   0.39430744  0.52144426  0.55759160
   0.52976102  0.51264017  0.37433227
   0.35941367  0.53250584  0.44924702
   0.42370420  0.47508560  0.37480195
   0.49991376  0.44604848  0.55347607
   0.58195943  0.28794550  0.60171787
   0.45666459  0.70605228  0.55034240
   0.72606440  0.53202076  0.44274462
   0.65834958  0.36228094  0.55329798
   0.50114802  0.41660616  0.43783421
Direct configuration=    12
   0.46335489  0.54797574  0.29098928
   0.71899903  0.60590863  0.36067167
   0.57981056  0.48853234  0.47439494
   0.62561492  0.56323240  0.39974167
   0.40411516  0.42169441  0.61751111
   0.49399962  0.67212056  0.44715687
   0.58005866  0.39668079  0.62550740
   0.53953241  0.62021558  0.35504906
   0.33111759  0.49962130  0.64676519
   0.57059457  0.65317889  0.52569037
   0.38105265  0.31875510  0.64611828
   0.44114567  0.52023881  0.65954036
   0.53500475  0.68885127  0.63012443
   0.54956787  0.49788672  0.64299685
   0.64890581  0.57071615  0.51258021
   0.52192103  0.59692714  0.69098288
   0.60625658  0.59296840  0.61434565
   0.40968206  0.62091634  0.50056489
   0.43376310  0.59626559  0.38767899
   0.48267531  0.78655526  0.61902384
   0.55208957  0.35252179  0.51497513
   0.47932887  0.33748927  0.60213919
   0.68011542  0.43789886  0.47703427
   0.46855144  0.52355747  0.47545523
   0.64045162  0.47620826  0.57513829
   0.49167237  0.58902389  0.57736027
   0.39584261  0.52261418  0.55879378
   0.53000685  0.51190391  0.37512978
   0.35965073  0.53257508  0.45114670
   0.42459738  0.47917183  0.37178197
   0.49900710  0.44549061  0.55421825
   0.58087378  0.28645032  0.60253343
   0.45908198  0.70327114  0.55020591
   0.72647765  0.53152375  0.44170059
   0.66160674  0.36108027  0.55425750
   0.50102706  0.41753135  0.43824917
Direct configuration=    13
   0.46509704  0.54891727  0.28991210
   0.71844798  0.60616459  0.36038666
   0.57953463  0.48877246  0.47484868
   0.62541822  0.56345143  0.40003501
   0.40412673  0.42157000  0.61770588
   0.49346511  0.67137134  0.44576590
   0.58013938  0.39577188  0.62476981
   0.53870630  0.61990790  0.35400012
   0.33087332  0.49992762  0.64680812
   0.57057164  0.65367917  0.52421089
   0.38088012  0.31845154  0.64650712
   0.44150340  0.52033022  0.65982430
   0.53592107  0.68820520  0.63065897
   0.54946593  0.49823342  0.64321020
   0.64864752  0.57055931  0.51263098
   0.52156352  0.59624685  0.69155867
   0.60459587  0.59312374  0.61347455
   0.40971620  0.62029446  0.50027577
   0.43321328  0.59534042  0.38707105
   0.48312285  0.78524284  0.61945197
   0.55301528  0.35428237  0.51548939
   0.47904186  0.33774751  0.60218769
   0.68049276  0.43869709  0.47854875
   0.46905188  0.52349317  0.47544386
   0.63983279  0.47605748  0.57567570
   0.49150180  0.58948496  0.57789194
   0.39620854  0.52299105  0.55947297
   0.52981519  0.51127405  0.37524877
   0.35957308  0.53255157  0.45166421
   0.42489380  0.48046415  0.37106180
   0.49829519  0.44569480  0.55448708
   0.58072973  0.28639090  0.60265798
   0.46044390  0.70260474  0.55034511
   0.72637506  0.53169207  0.44089804
   0.66256527  0.36076275  0.55482736
   0.50070716  0.41780309  0.43854599
Direct configuration=    14
   0.46826160  0.55062753  0.28795543
   0.71744702  0.60662953  0.35986895
   0.57903343  0.48920864  0.47567286
   0.62506093  0.56384930  0.40056784
   0.40414774  0.42134402  0.61805967
   0.49249420  0.67001041  0.44323927
   0.58028601  0.39412088  0.62343000
   0.53720570  0.61934900  0.35209475
   0.33042962  0.50048403  0.64688610
   0.57053000  0.65458790  0.52152346
   0.38056671  0.31790014  0.64721344
   0.44215320  0.52049625  0.66034007
   0.53758553  0.68703163  0.63162994
   0.54928075  0.49886318  0.64359775
   0.64817833  0.57027441  0.51272320
   0.52091412  0.59501113  0.69260458
   0.60157926  0.59340591  0.61189224
   0.40977822  0.61916483  0.49975062
   0.43221455  0.59365989  0.38596675
   0.48393579  0.78285888  0.62022964
   0.55469678  0.35748040  0.51642352
   0.47852052  0.33821660  0.60227580
   0.68117818  0.44014702  0.48129975
   0.46996091  0.52337638  0.47542322
   0.63870872  0.47578359  0.57665187
   0.49119195  0.59032247  0.57885768
   0.39687323  0.52367562  0.56070668
   0.52946703  0.51012992  0.37546492
   0.35943205  0.53250885  0.45260424
   0.42543224  0.48281160  0.36975364
   0.49700203  0.44606571  0.55497540
   0.58046809  0.28628297  0.60288423
   0.46291778  0.70139425  0.55059797
   0.72618870  0.53199782  0.43944024
   0.66430640  0.36018600  0.55586250
   0.50012608  0.41829669  0.43908517
Direct configuration=    15
   0.46772566  0.55033789  0.28828681
   0.71761654  0.60655079  0.35995663
   0.57911831  0.48913477  0.47553328
   0.62512144  0.56378191  0.40047760
   0.40414418  0.42138229  0.61799976
   0.49265863  0.67024090  0.44366717
   0.58026118  0.39440049  0.62365691
   0.53745984  0.61944366  0.35241743
   0.33050476  0.50038980  0.64687289
   0.57053705  0.65443400  0.52197860
   0.38061979  0.31799353  0.64709382
   0.44204315  0.52046813  0.66025272
   0.53730364  0.68723038  0.63146550
   0.54931211  0.49875653  0.64353211
   0.64825779  0.57032266  0.51270758
   0.52102411  0.59522041  0.69242745
   0.60209014  0.59335812  0.61216022
   0.40976772  0.61935614  0.49983956
   0.43238369  0.59394450  0.38615377
   0.48379811  0.78326262  0.62009794
   0.55441201  0.35693879  0.51626532
   0.47860881  0.33813716  0.60226088
   0.68106210  0.43990147  0.48083384
   0.46980696  0.52339616  0.47542671
   0.63889909  0.47582997  0.57648655
   0.49124442  0.59018063  0.57869413
   0.39676066  0.52355968  0.56049775
   0.52952600  0.51032369  0.37542831
   0.35945593  0.53251608  0.45244504
   0.42534105  0.48241404  0.36997519
   0.49722104  0.44600290  0.55489270
   0.58051240  0.28630125  0.60284591
   0.46249881  0.70159926  0.55055515
   0.72622026  0.53194604  0.43968713
   0.66401153  0.36028368  0.55568719
   0.50022449  0.41821309  0.43899386
Direct configuration=    16
   0.46917495  0.55095156  0.28800560
   0.71723749  0.60671736  0.35963519
   0.57926606  0.48901409  0.47625270
   0.62468075  0.56415909  0.40067763
   0.40395639  0.42133359  0.61821308
   0.49241154  0.66988185  0.44307376
   0.58013479  0.39384850  0.62360980
   0.53725238  0.61931087  0.35188013
   0.33051398  0.50067862  0.64691064
   0.57032962  0.65438370  0.52115497
   0.38071843  0.31819341  0.64699960
   0.44187775  0.52021652  0.66080159
   0.53818088  0.68730933  0.63160493
   0.54954319  0.49883819  0.64346911
   0.64809269  0.57030172  0.51252681
   0.52071739  0.59476696  0.69321685
   0.60210961  0.59284783  0.61172778
   0.40968525  0.61929161  0.49997179
   0.43202677  0.59381677  0.38601244
   0.48428244  0.78237594  0.62077256
   0.55501000  0.35800752  0.51634911
   0.47887576  0.33835638  0.60210300
   0.68139683  0.43997217  0.48168435
   0.47020937  0.52361786  0.47541378
   0.63809532  0.47635496  0.57720548
   0.49061304  0.58997195  0.57855266
   0.39667202  0.52345118  0.56054513
   0.53015173  0.51028913  0.37510390
   0.35930443  0.53210290  0.45240735
   0.42465517  0.48202247  0.36977892
   0.49660362  0.44684456  0.55525002
   0.58063694  0.28652981  0.60240977
   0.46319523  0.70109616  0.54991184
   0.72581090  0.53236092  0.43906201
   0.66442209  0.36024747  0.55609954
   0.49970862  0.41809046  0.43915960
Direct configuration=    17
   0.47141701  0.55190093  0.28757056
   0.71665108  0.60697505  0.35913791
   0.57949462  0.48882740  0.47736566
   0.62399900  0.56474257  0.40098707
   0.40366589  0.42125825  0.61854310
   0.49202929  0.66932641  0.44215575
   0.57993926  0.39299458  0.62353693
   0.53693143  0.61910546  0.35104890
   0.33052825  0.50112543  0.64696903
   0.57000871  0.65430588  0.51988080
   0.38087103  0.31850262  0.64685386
   0.44162188  0.51982726  0.66165069
   0.53953797  0.68743147  0.63182062
   0.54990067  0.49896453  0.64337163
   0.64783728  0.57026933  0.51224715
   0.52024289  0.59406546  0.69443805
   0.60213972  0.59205840  0.61105880
   0.40955766  0.61919179  0.50017635
   0.43147462  0.59361917  0.38579379
   0.48503171  0.78100424  0.62181621
   0.55593511  0.35966086  0.51647873
   0.47928873  0.33869550  0.60185875
   0.68191468  0.44008154  0.48300010
   0.47083190  0.52396083  0.47539378
   0.63685188  0.47716712  0.57831768
   0.48963629  0.58964913  0.57833380
   0.39653490  0.52328333  0.56061844
   0.53111974  0.51023566  0.37460203
   0.35907006  0.53146370  0.45234904
   0.42359411  0.48141669  0.36947529
   0.49564847  0.44814662  0.55580281
   0.58082960  0.28688339  0.60173506
   0.46427259  0.70031787  0.54891664
   0.72517762  0.53300274  0.43809495
   0.66505723  0.36019146  0.55673744
   0.49891055  0.41790074  0.43941601
Direct configuration=    18
   0.47253514  0.55198283  0.28779705
   0.71605746  0.60736832  0.35814894
   0.57942792  0.48803554  0.47773328
   0.62330247  0.56558805  0.40138693
   0.40323033  0.42139242  0.61884619
   0.49186144  0.66911885  0.44138913
   0.57962338  0.39369452  0.62430034
   0.53710215  0.61940185  0.35072056
   0.33048093  0.50151168  0.64706827
   0.56973568  0.65351543  0.51953460
   0.38125623  0.31885746  0.64643504
   0.44130734  0.51927811  0.66240736
   0.54080891  0.68662531  0.63162656
   0.54938765  0.49877424  0.64391102
   0.64797992  0.57040114  0.51177031
   0.52022412  0.59400521  0.69484065
   0.60240719  0.59156887  0.61099688
   0.40893882  0.61898067  0.50007614
   0.43098376  0.59329703  0.38556223
   0.48577349  0.78006318  0.62281224
   0.55652250  0.36130937  0.51617353
   0.47961062  0.33913519  0.60147646
   0.68249445  0.44034042  0.48385810
   0.47094976  0.52463653  0.47484670
   0.63653059  0.47779234  0.57920569
   0.48932493  0.58910462  0.57836775
   0.39618825  0.52273852  0.56030007
   0.53089549  0.50956833  0.37446095
   0.35924705  0.53086356  0.45208827
   0.42359084  0.48072175  0.36922597
   0.49503568  0.44923139  0.55642442
   0.58116556  0.28672439  0.60068830
   0.46559638  0.70032166  0.54840662
   0.72435061  0.53309983  0.43775243
   0.66535113  0.36034028  0.55743072
   0.49827522  0.41816449  0.43948369
Direct configuration=    19
   0.47505688  0.55216756  0.28830785
   0.71471865  0.60825527  0.35591850
   0.57927749  0.48624967  0.47856238
   0.62173157  0.56749485  0.40228875
   0.40224802  0.42169502  0.61952975
   0.49148289  0.66865073  0.43966017
   0.57891098  0.39527311  0.62602208
   0.53748719  0.62007031  0.34998005
   0.33037420  0.50238282  0.64729209
   0.56911991  0.65173272  0.51875380
   0.38212497  0.31965773  0.64549046
   0.44059795  0.51803960  0.66411389
   0.54367526  0.68480717  0.63118889
   0.54823064  0.49834508  0.64512751
   0.64830161  0.57069843  0.51069491
   0.52018180  0.59386933  0.69574863
   0.60301044  0.59046482  0.61085721
   0.40754313  0.61850452  0.49985013
   0.42987673  0.59257052  0.38504000
   0.48744644  0.77794080  0.62505861
   0.55784726  0.36502725  0.51548519
   0.48033659  0.34012683  0.60061428
   0.68380203  0.44092428  0.48579316
   0.47121558  0.52616047  0.47361286
   0.63580600  0.47920239  0.58120845
   0.48862271  0.58787658  0.57844433
   0.39540647  0.52150982  0.55958203
   0.53038973  0.50806330  0.37414278
   0.35964622  0.52951006  0.45150017
   0.42358348  0.47915443  0.36866368
   0.49365365  0.45167789  0.55782636
   0.58192324  0.28636581  0.59832754
   0.46858193  0.70033023  0.54725635
   0.72248544  0.53331880  0.43697996
   0.66601396  0.36067592  0.55899430
   0.49684235  0.41875931  0.43963632
Direct configuration=    20
   0.47558344  0.55179653  0.28836754
   0.71388452  0.60824260  0.35520157
   0.57929410  0.48560066  0.47848144
   0.62093534  0.56833821  0.40261270
   0.40187659  0.42192340  0.61973284
   0.49128003  0.66845853  0.43940750
   0.57875709  0.39508887  0.62640836
   0.53770556  0.62036464  0.34991358
   0.33012699  0.50274191  0.64741740
   0.56893955  0.65064328  0.51852574
   0.38251633  0.31958451  0.64515719
   0.44028895  0.51787981  0.66444072
   0.54439580  0.68396801  0.63082384
   0.54742603  0.49876751  0.64615947
   0.64828902  0.57056672  0.51074062
   0.52024392  0.59391844  0.69559235
   0.60316190  0.58988879  0.61100742
   0.40739645  0.61874396  0.49985118
   0.42962862  0.59221817  0.38456453
   0.48819515  0.77707101  0.62582509
   0.55860251  0.36663379  0.51556837
   0.48073620  0.34074506  0.60011295
   0.68426178  0.44121372  0.48698974
   0.47136606  0.52682311  0.47322652
   0.63617052  0.47955716  0.58153415
   0.48856311  0.58725961  0.57866643
   0.39529694  0.52108147  0.55946998
   0.53043575  0.50771109  0.37435939
   0.35988713  0.52889473  0.45105506
   0.42378095  0.47865657  0.36829216
   0.49316079  0.45236376  0.55816438
   0.58205830  0.28700280  0.59700057
   0.46953919  0.70025984  0.54689340
   0.72171438  0.53342134  0.43631078
   0.66587279  0.36107908  0.55997934
   0.49618162  0.41904469  0.43969908
Direct configuration=    21
   0.47664932  0.55104549  0.28848835
   0.71219609  0.60821695  0.35375037
   0.57932772  0.48428695  0.47831762
   0.61932361  0.57004534  0.40326843
   0.40112475  0.42238569  0.62014392
   0.49086940  0.66806948  0.43889605
   0.57844558  0.39471593  0.62719027
   0.53814758  0.62096040  0.34977903
   0.32962658  0.50346878  0.64767107
   0.56857445  0.64843804  0.51806410
   0.38330853  0.31943630  0.64448257
   0.43966348  0.51755639  0.66510231
   0.54585431  0.68226940  0.63008492
   0.54579733  0.49962259  0.64824837
   0.64826353  0.57030011  0.51083315
   0.52036967  0.59401785  0.69527602
   0.60346849  0.58872279  0.61131149
   0.40709956  0.61922865  0.49985330
   0.42912637  0.59150496  0.38360208
   0.48971069  0.77531039  0.62737660
   0.56013128  0.36988574  0.51573675
   0.48154508  0.34199650  0.59909816
   0.68519240  0.44179962  0.48941187
   0.47167065  0.52816444  0.47244450
   0.63690839  0.48027529  0.58219342
   0.48844245  0.58601074  0.57911601
   0.39507524  0.52021440  0.55924318
   0.53052890  0.50699815  0.37479785
   0.36037477  0.52764918  0.45015406
   0.42418068  0.47764881  0.36754013
   0.49216313  0.45375210  0.55884860
   0.58233170  0.28829221  0.59431454
   0.47147688  0.70011737  0.54615871
   0.72015360  0.53362889  0.43495624
   0.66558702  0.36189515  0.56197326
   0.49484418  0.41962235  0.43982610
Direct configuration=    22
   0.47677519  0.55018410  0.28831873
   0.71048104  0.60775203  0.35318700
   0.57970181  0.48382107  0.47786323
   0.61835706  0.57121059  0.40401269
   0.40060024  0.42235459  0.62045491
   0.49064458  0.66771124  0.43912605
   0.57843270  0.39516042  0.62762179
   0.53797324  0.62131515  0.34962075
   0.32912950  0.50390105  0.64778010
   0.56843880  0.64639427  0.51758711
   0.38402492  0.31891671  0.64407420
   0.43879484  0.51807408  0.66510431