  24  24   0   0
  0.3358102E+03  0.2004942E-08  0.2004942E-08  0.2004942E-08  0.1000000E-15
  1.000000000000000E-004
  CAR 
 unknown system                          
      1.70165947    -10.05096333  301     -3.48908227      1.00000000
    -10.051  0.0000E+00  0.0000E+00  0.0000E+00  0.0000E+00
    -10.012  0.0000E+00  0.0000E+00  0.0000E+00  0.0000E+00
     -9.973  0.0000E+00  0.0000E+00  0.0000E+00  0.0000E+00
     -9.933  0.0000E+00  0.0000E+00  0.0000E+00  0.0000E+00
     -9.894  0.0000E+00  0.0000E+00  0.0000E+00  0.0000E+00
     -9.855  0.0000E+00  0.0000E+00  0.0000E+00  0.0000E+00
     -9.816  0.0000E+00  0.0000E+00  0.0000E+00  0.0000E+00
     -9.777  0.0000E+00  0.0000E+00  0.0000E+00  0.0000E+00
     -9.738  0.0000E+00  0.0000E+00  0.0000E+00  0.0000E+00
     -9.698  0.0000E+00  0.0000E+00  0.0000E+00  0.0000E+00
     -9.659  0.0000E+00  0.0000E+00  0.0000E+00  0.0000E+00
     -9.620  0.0000E+00  0.0000E+00  0.0000E+00  0.0000E+00
     -9.581  0.0000E+00  0.0000E+00  0.0000E+00  0.0000E+00
     -9.542  0.0000E+00  0.0000E+00  0.0000E+00  0.0000E+00
     -9.503  0.0000E+00  0.0000E+00  0.1000E-02  0.1000E-02
     -9.463  0.0000E+00  0.0000E+00  0.1000E-02  0.1000E-02
     -9.424  0.0000E+00  0.0000E+00  0.1000E-02  0.1000E-02
     -9.385  0.0000E+00  0.0000E+00  0.1000E-02  0.1000E-02
     -9.346  0.0000E+00  0.0000E+00  0.1000E-02  0.1000E-02
     -9.307  0.0000E+00  0.0000E+00  0.1000E-02  0.1000E-02
     -9.267  0.0000E+00  0.0000E+00  0.2000E-02  0.2000E-02
     -9.228  0.0000E+00  0.0000E+00  0.2000E-02  0.2000E-02
     -9.189  0.0000E+00  0.0000E+00  0.2000E-02  0.2000E-02
     -9.150  0.0000E+00  0.0000E+00  0.2000E-02  0.2000E-02
     -9.111  0.0000E+00  0.0000E+00  0.3000E-02  0.3000E-02
     -9.072  0.0000E+00  0.0000E+00  0.3000E-02  0.3000E-02
     -9.032  0.0000E+00  0.0000E+00  0.5000E-02  0.5000E-02
     -8.993  0.0000E+00  0.0000E+00  0.6000E-02  0.6000E-02
     -8.954  0.0000E+00  0.0000E+00  0.6000E-02  0.6000E-02
     -8.915  0.0000E+00  0.0000E+00  0.7000E-02  0.7000E-02
     -8.876  0.0000E+00  0.0000E+00  0.9000E-02  0.9000E-02
     -8.837  0.0000E+00  0.0000E+00  0.9000E-02  0.9000E-02
     -8.797  0.0000E+00  0.0000E+00  0.1000E-01  0.1000E-01
     -8.758  0.0000E+00  0.0000E+00  0.1100E-01  0.1100E-01
     -8.719  0.0000E+00  0.0000E+00  0.1200E-01  0.1200E-01
     -8.680  0.0000E+00  0.0000E+00  0.1200E-01  0.1200E-01
     -8.641  0.0000E+00  0.0000E+00  0.1200E-01  0.1200E-01
     -8.601  0.0000E+00  0.0000E+00  0.1200E-01  0.1200E-01
     -8.562  0.0000E+00  0.0000E+00  0.1300E-01  0.1300E-01
     -8.523  0.0000E+00  0.0000E+00  0.1400E-01  0.1400E-01
     -8.484  0.0000E+00  0.0000E+00  0.1500E-01  0.1500E-01
     -8.445  0.1089E-09  0.1088E-09  0.1500E-01  0.1500E-01
     -8.406  0.0000E+00  0.0000E+00  0.1700E-01  0.1700E-01
     -8.366  0.0000E+00  0.0000E+00  0.2200E-01  0.2200E-01
     -8.327  0.0000E+00  0.0000E+00  0.2200E-01  0.2200E-01
     -8.288  0.0000E+00  0.0000E+00  0.2400E-01  0.2400E-01
     -8.249  0.0000E+00  0.0000E+00  0.2500E-01  0.2500E-01
     -8.210  0.0000E+00  0.0000E+00  0.2600E-01  0.2600E-01
     -8.171  0.0000E+00  0.0000E+00  0.2900E-01  0.2900E-01
     -8.131  0.0000E+00  0.0000E+00  0.3100E-01  0.3100E-01
     -8.092  0.0000E+00  0.0000E+00  0.3100E-01  0.3100E-01
     -8.053  0.0000E+00  0.0000E+00  0.3200E-01  0.3200E-01
     -8.014  0.0000E+00  0.0000E+00  0.3500E-01  0.3500E-01
     -7.975  0.0000E+00  0.0000E+00  0.3700E-01  0.3700E-01
     -7.935  0.0000E+00  0.0000E+00  0.3900E-01  0.3900E-01
     -7.896  0.0000E+00  0.0000E+00  0.4100E-01  0.4100E-01
     -7.857  0.0000E+00  0.0000E+00  0.4200E-01  0.4200E-01
     -7.818  0.0000E+00  0.0000E+00  0.4400E-01  0.4400E-01
     -7.779  0.0000E+00  0.0000E+00  0.4500E-01  0.4500E-01
     -7.740  0.0000E+00  0.0000E+00  0.4900E-01  0.4900E-01
     -7.700  0.2419E-01  0.2419E-01  0.4995E-01  0.4995E-01
     -7.661  0.0000E+00  0.0000E+00  0.5100E-01  0.5100E-01
     -7.622  0.0000E+00  0.0000E+00  0.5100E-01  0.5100E-01
     -7.583  0.0000E+00  0.0000E+00  0.5400E-01  0.5400E-01
     -7.544  0.0000E+00  0.0000E+00  0.5600E-01  0.5600E-01
     -7.505  0.0000E+00  0.0000E+00  0.5700E-01  0.5700E-01
     -7.465  0.1592E-01  0.1592E-01  0.5762E-01  0.5762E-01
     -7.426  0.0000E+00  0.0000E+00  0.6000E-01  0.6000E-01
     -7.387  0.0000E+00  0.0000E+00  0.6100E-01  0.6100E-01
     -7.348  0.0000E+00  0.0000E+00  0.6400E-01  0.6400E-01
     -7.309  0.0000E+00  0.0000E+00  0.6400E-01  0.6400E-01
     -7.270  0.0000E+00  0.0000E+00  0.6600E-01  0.6600E-01
     -7.230  0.0000E+00  0.0000E+00  0.6600E-01  0.6600E-01
     -7.191  0.0000E+00  0.0000E+00  0.6700E-01  0.6700E-01
     -7.152  0.0000E+00  0.0000E+00  0.6800E-01  0.6800E-01
     -7.113  0.0000E+00  0.0000E+00  0.7000E-01  0.7000E-01
     -7.074  0.0000E+00  0.0000E+00  0.7000E-01  0.7000E-01
     -7.034  0.0000E+00  0.0000E+00  0.7200E-01  0.7200E-01
     -6.995  0.2553E-01  0.2553E-01  0.7600E-01  0.7600E-01
     -6.956  0.0000E+00  0.0000E+00  0.7700E-01  0.7700E-01
     -6.917  0.0000E+00  0.0000E+00  0.7900E-01  0.7900E-01
     -6.878  0.0000E+00  0.0000E+00  0.8100E-01  0.8100E-01
     -6.839  0.0000E+00  0.0000E+00  0.8400E-01  0.8400E-01
     -6.799  0.0000E+00  0.0000E+00  0.8600E-01  0.8600E-01
     -6.760  0.0000E+00  0.0000E+00  0.9100E-01  0.9100E-01
     -6.721  0.0000E+00  0.0000E+00  0.9300E-01  0.9300E-01
     -6.682  0.0000E+00  0.0000E+00  0.9300E-01  0.9300E-01
     -6.643  0.0000E+00  0.0000E+00  0.9800E-01  0.9800E-01
     -6.604  0.0000E+00  0.0000E+00  0.1000E+00  0.1000E+00
     -6.564  0.0000E+00  0.0000E+00  0.1020E+00  0.1020E+00
     -6.525  0.0000E+00  0.0000E+00  0.1040E+00  0.1040E+00
     -6.486  0.0000E+00  0.0000E+00  0.1080E+00  0.1080E+00
     -6.447  0.0000E+00  0.0000E+00  0.1110E+00  0.1110E+00
     -6.408  0.9237E-05  0.9225E-05  0.1130E+00  0.1130E+00
     -6.368  0.0000E+00  0.0000E+00  0.1150E+00  0.1150E+00
     -6.329  0.0000E+00  0.0000E+00  0.1180E+00  0.1180E+00
     -6.290  0.0000E+00  0.0000E+00  0.1190E+00  0.1190E+00
     -6.251  0.0000E+00  0.0000E+00  0.1190E+00  0.1190E+00
     -6.212  0.0000E+00  0.0000E+00  0.1200E+00  0.1200E+00
     -6.173  0.0000E+00  0.0000E+00  0.1220E+00  0.1220E+00
     -6.133  0.0000E+00  0.0000E+00  0.1230E+00  0.1230E+00
     -6.094  0.0000E+00  0.0000E+00  0.1230E+00  0.1230E+00
     -6.055  0.0000E+00  0.0000E+00  0.1230E+00  0.1230E+00
     -6.016  0.0000E+00  0.0000E+00  0.1230E+00  0.1230E+00
     -5.977  0.1300E-02  0.1300E-02  0.1231E+00  0.1231E+00
     -5.938  0.0000E+00  0.0000E+00  0.1240E+00  0.1240E+00
     -5.898  0.0000E+00  0.0000E+00  0.1240E+00  0.1240E+00
     -5.859  0.0000E+00  0.0000E+00  0.1240E+00  0.1240E+00
     -5.820  0.0000E+00  0.0000E+00  0.1240E+00  0.1240E+00
     -5.781  0.0000E+00  0.0000E+00  0.1240E+00  0.1240E+00
     -5.742  0.0000E+00  0.0000E+00  0.1240E+00  0.1240E+00
     -5.702  0.0000E+00  0.0000E+00  0.1240E+00  0.1240E+00
     -5.663  0.0000E+00  0.0000E+00  0.1240E+00  0.1240E+00
     -5.624  0.0000E+00  0.0000E+00  0.1250E+00  0.1250E+00
     -5.585  0.0000E+00  0.0000E+00  0.1250E+00  0.1250E+00
     -5.546  0.0000E+00  0.0000E+00  0.1250E+00  0.1250E+00
     -5.507  0.0000E+00  0.0000E+00  0.1250E+00  0.1250E+00
     -5.467  0.0000E+00  0.0000E+00  0.1250E+00  0.1250E+00
     -5.428  0.0000E+00  0.0000E+00  0.1250E+00  0.1250E+00
     -5.389  0.0000E+00  0.0000E+00  0.1250E+00  0.1250E+00
     -5.350  0.0000E+00  0.0000E+00  0.1250E+00  0.1250E+00
     -5.311  0.0000E+00  0.0000E+00  0.1250E+00  0.1250E+00
     -5.272  0.0000E+00  0.0000E+00  0.1250E+00  0.1250E+00
     -5.232  0.0000E+00  0.0000E+00  0.1260E+00  0.1260E+00
     -5.193  0.0000E+00  0.0000E+00  0.1260E+00  0.1260E+00
     -5.154  0.0000E+00  0.0000E+00  0.1260E+00  0.1260E+00
     -5.115  0.0000E+00  0.0000E+00  0.1260E+00  0.1260E+00
     -5.076  0.0000E+00  0.0000E+00  0.1270E+00  0.1270E+00
     -5.037  0.0000E+00  0.0000E+00  0.1270E+00  0.1270E+00
     -4.997  0.0000E+00  0.0000E+00  0.1270E+00  0.1270E+00
     -4.958  0.0000E+00  0.0000E+00  0.1270E+00  0.1270E+00
     -4.919  0.0000E+00  0.0000E+00  0.1270E+00  0.1270E+00
     -4.880  0.0000E+00  0.0000E+00  0.1270E+00  0.1270E+00
     -4.841  0.0000E+00  0.0000E+00  0.1270E+00  0.1270E+00
     -4.801  0.0000E+00  0.0000E+00  0.1270E+00  0.1270E+00
     -4.762  0.0000E+00  0.0000E+00  0.1270E+00  0.1270E+00
     -4.723  0.0000E+00  0.0000E+00  0.1270E+00  0.1270E+00
     -4.684  0.0000E+00  0.0000E+00  0.1270E+00  0.1270E+00
     -4.645  0.0000E+00  0.0000E+00  0.1270E+00  0.1270E+00
     -4.606  0.0000E+00  0.0000E+00  0.1270E+00  0.1270E+00
     -4.566  0.0000E+00  0.0000E+00  0.1270E+00  0.1270E+00
     -4.527  0.0000E+00  0.0000E+00  0.1270E+00  0.1270E+00
     -4.488  0.0000E+00  0.0000E+00  0.1270E+00  0.1270E+00
     -4.449  0.0000E+00  0.0000E+00  0.1270E+00  0.1270E+00
     -4.410  0.0000E+00  0.0000E+00  0.1270E+00  0.1270E+00
     -4.371  0.0000E+00  0.0000E+00  0.1290E+00  0.1290E+00
     -4.331  0.0000E+00  0.0000E+00  0.1290E+00  0.1290E+00
     -4.292  0.0000E+00  0.0000E+00  0.1290E+00  0.1290E+00
     -4.253  0.0000E+00  0.0000E+00  0.1290E+00  0.1290E+00
     -4.214  0.0000E+00  0.0000E+00  0.1290E+00  0.1290E+00
     -4.175  0.0000E+00  0.0000E+00  0.1290E+00  0.1290E+00
     -4.135  0.0000E+00  0.0000E+00  0.1290E+00  0.1290E+00
     -4.096  0.0000E+00  0.0000E+00  0.1290E+00  0.1290E+00
     -4.057  0.0000E+00  0.0000E+00  0.1290E+00  0.1290E+00
     -4.018  0.0000E+00  0.0000E+00  0.1290E+00  0.1290E+00
     -3.979  0.0000E+00  0.0000E+00  0.1290E+00  0.1290E+00
     -3.940  0.0000E+00  0.0000E+00  0.1290E+00  0.1290E+00
     -3.900  0.0000E+00  0.0000E+00  0.1300E+00  0.1300E+00
     -3.861  0.0000E+00  0.0000E+00  0.1300E+00  0.1300E+00
     -3.822  0.0000E+00  0.0000E+00  0.1300E+00  0.1300E+00
     -3.783  0.0000E+00  0.0000E+00  0.1300E+00  0.1300E+00
     -3.744  0.0000E+00  0.0000E+00  0.1310E+00  0.1310E+00
     -3.705  0.0000E+00  0.0000E+00  0.1310E+00  0.1310E+00
     -3.665  0.0000E+00  0.0000E+00  0.1310E+00  0.1310E+00
     -3.626  0.0000E+00  0.0000E+00  0.1310E+00  0.1310E+00
     -3.587  0.0000E+00  0.0000E+00  0.1310E+00  0.1310E+00
     -3.548  0.0000E+00  0.0000E+00  0.1310E+00  0.1310E+00
     -3.509  0.0000E+00  0.0000E+00  0.1310E+00  0.1310E+00
     -3.469  0.0000E+00  0.0000E+00  0.1320E+00  0.1320E+00
     -3.430  0.0000E+00  0.0000E+00  0.1320E+00  0.1320E+00
     -3.391  0.0000E+00  0.0000E+00  0.1320E+00  0.1320E+00
     -3.352  0.0000E+00  0.0000E+00  0.1320E+00  0.1320E+00
     -3.313  0.0000E+00  0.0000E+00  0.1320E+00  0.1320E+00
     -3.274  0.0000E+00  0.0000E+00  0.1320E+00  0.1320E+00
     -3.234  0.0000E+00  0.0000E+00  0.1320E+00  0.1320E+00
     -3.195  0.0000E+00  0.0000E+00  0.1320E+00  0.1320E+00
     -3.156  0.1035E-06  0.1038E-06  0.1320E+00  0.1320E+00
     -3.117  0.0000E+00  0.0000E+00  0.1330E+00  0.1330E+00
     -3.078  0.0000E+00  0.0000E+00  0.1330E+00  0.1330E+00
     -3.039  0.0000E+00  0.0000E+00  0.1330E+00  0.1330E+00
     -2.999  0.0000E+00  0.0000E+00  0.1330E+00  0.1330E+00
     -2.960  0.0000E+00  0.0000E+00  0.1330E+00  0.1330E+00
     -2.921  0.0000E+00  0.0000E+00  0.1340E+00  0.1340E+00
     -2.882  0.0000E+00  0.0000E+00  0.1340E+00  0.1340E+00
     -2.843  0.0000E+00  0.0000E+00  0.1350E+00  0.1350E+00
     -2.804  0.0000E+00  0.0000E+00  0.1350E+00  0.1350E+00
     -2.764  0.0000E+00  0.0000E+00  0.1350E+00  0.1350E+00
     -2.725  0.0000E+00  0.0000E+00  0.1350E+00  0.1350E+00
     -2.686  0.0000E+00  0.0000E+00  0.1350E+00  0.1350E+00
     -2.647  0.0000E+00  0.0000E+00  0.1350E+00  0.1350E+00
     -2.608  0.0000E+00  0.0000E+00  0.1350E+00  0.1350E+00
     -2.568  0.0000E+00  0.0000E+00  0.1350E+00  0.1350E+00
     -2.529  0.0000E+00  0.0000E+00  0.1350E+00  0.1350E+00
     -2.490  0.0000E+00  0.0000E+00  0.1350E+00  0.1350E+00
     -2.451  0.0000E+00  0.0000E+00  0.1350E+00  0.1350E+00
     -2.412  0.0000E+00  0.0000E+00  0.1350E+00  0.1350E+00
     -2.373  0.0000E+00  0.0000E+00  0.1360E+00  0.1360E+00
     -2.333  0.0000E+00  0.0000E+00  0.1370E+00  0.1370E+00
     -2.294  0.0000E+00  0.0000E+00  0.1380E+00  0.1380E+00
     -2.255  0.0000E+00  0.0000E+00  0.1380E+00  0.1380E+00
     -2.216  0.0000E+00  0.0000E+00  0.1380E+00  0.1380E+00
     -2.177  0.0000E+00  0.0000E+00  0.1380E+00  0.1380E+00
     -2.138  0.0000E+00  0.0000E+00  0.1380E+00  0.1380E+00
     -2.098  0.0000E+00  0.0000E+00  0.1390E+00  0.1390E+00
     -2.059  0.0000E+00  0.0000E+00  0.1390E+00  0.1390E+00
     -2.020  0.0000E+00  0.0000E+00  0.1400E+00  0.1400E+00
     -1.981  0.0000E+00  0.0000E+00  0.1400E+00  0.1400E+00
     -1.942  0.0000E+00  0.0000E+00  0.1410E+00  0.1410E+00
     -1.902  0.0000E+00  0.0000E+00  0.1410E+00  0.1410E+00
     -1.863  0.0000E+00  0.0000E+00  0.1410E+00  0.1410E+00
     -1.824  0.0000E+00  0.0000E+00  0.1410E+00  0.1410E+00
     -1.785  0.0000E+00  0.0000E+00  0.1410E+00  0.1410E+00
     -1.746  0.0000E+00  0.0000E+00  0.1410E+00  0.1410E+00
     -1.707  0.0000E+00  0.0000E+00  0.1410E+00  0.1410E+00
     -1.667  0.0000E+00  0.0000E+00  0.1410E+00  0.1410E+00
     -1.628  0.0000E+00  0.0000E+00  0.1410E+00  0.1410E+00
     -1.589  0.0000E+00  0.0000E+00  0.1410E+00  0.1410E+00
     -1.550  0.0000E+00  0.0000E+00  0.1410E+00  0.1410E+00
     -1.511  0.0000E+00  0.0000E+00  0.1430E+00  0.1430E+00
     -1.472  0.0000E+00  0.0000E+00  0.1430E+00  0.1430E+00
     -1.432  0.0000E+00  0.0000E+00  0.1430E+00  0.1430E+00
     -1.393  0.0000E+00  0.0000E+00  0.1430E+00  0.1430E+00
     -1.354  0.0000E+00  0.0000E+00  0.1430E+00  0.1430E+00
     -1.315  0.0000E+00  0.0000E+00  0.1440E+00  0.1440E+00
     -1.276  0.0000E+00  0.0000E+00  0.1440E+00  0.1440E+00
     -1.236  0.0000E+00  0.0000E+00  0.1440E+00  0.1440E+00
     -1.197  0.0000E+00  0.0000E+00  0.1440E+00  0.1440E+00
     -1.158  0.0000E+00  0.0000E+00  0.1440E+00  0.1440E+00
     -1.119  0.0000E+00  0.0000E+00  0.1450E+00  0.1450E+00
     -1.080  0.0000E+00  0.0000E+00  0.1450E+00  0.1450E+00
     -1.041  0.0000E+00  0.0000E+00  0.1450E+00  0.1450E+00
     -1.001  0.0000E+00  0.0000E+00  0.1450E+00  0.1450E+00
     -0.962  0.0000E+00  0.0000E+00  0.1450E+00  0.1450E+00
     -0.923  0.0000E+00  0.0000E+00  0.1450E+00  0.1450E+00
     -0.884  0.0000E+00  0.0000E+00  0.1460E+00  0.1460E+00
     -0.845  0.0000E+00  0.0000E+00  0.1460E+00  0.1460E+00
     -0.806  0.0000E+00  0.0000E+00  0.1460E+00  0.1460E+00
     -0.766  0.0000E+00  0.0000E+00  0.1460E+00  0.1460E+00
     -0.727  0.0000E+00  0.0000E+00  0.1470E+00  0.1470E+00
     -0.688  0.0000E+00  0.0000E+00  0.1470E+00  0.1470E+00
     -0.649  0.0000E+00  0.0000E+00  0.1470E+00  0.1470E+00
     -0.610  0.0000E+00  0.0000E+00  0.1470E+00  0.1470E+00
     -0.571  0.0000E+00  0.0000E+00  0.1470E+00  0.1470E+00
     -0.531  0.0000E+00  0.0000E+00  0.1480E+00  0.1480E+00
     -0.492  0.0000E+00  0.0000E+00  0.1490E+00  0.1490E+00
     -0.453  0.0000E+00  0.0000E+00  0.1490E+00  0.1490E+00
     -0.414  0.0000E+00  0.0000E+00  0.1490E+00  0.1490E+00
     -0.375  0.0000E+00  0.0000E+00  0.1490E+00  0.1490E+00
     -0.335  0.0000E+00  0.0000E+00  0.1490E+00  0.1490E+00
     -0.296  0.0000E+00  0.0000E+00  0.1500E+00  0.1500E+00
     -0.257  0.0000E+00  0.0000E+00  0.1510E+00  0.1510E+00
     -0.218  0.0000E+00  0.0000E+00  0.1520E+00  0.1520E+00
     -0.179  0.0000E+00  0.0000E+00  0.1520E+00  0.1520E+00
     -0.140  0.0000E+00  0.0000E+00  0.1520E+00  0.1520E+00
     -0.100  0.0000E+00  0.0000E+00  0.1530E+00  0.1530E+00
     -0.061  0.0000E+00  0.0000E+00  0.1530E+00  0.1530E+00
     -0.022  0.0000E+00  0.0000E+00  0.1540E+00  0.1540E+00
      0.017  0.0000E+00  0.0000E+00  0.1540E+00  0.1540E+00
      0.056  0.0000E+00  0.0000E+00  0.1550E+00  0.1550E+00
      0.095  0.0000E+00  0.0000E+00  0.1560E+00  0.1560E+00
      0.135  0.0000E+00  0.0000E+00  0.1560E+00  0.1560E+00
      0.174  0.0000E+00  0.0000E+00  0.1580E+00  0.1580E+00
      0.213  0.0000E+00  0.0000E+00  0.1580E+00  0.1580E+00
      0.252  0.0000E+00  0.0000E+00  0.1580E+00  0.1580E+00
      0.291  0.0000E+00  0.0000E+00  0.1580E+00  0.1580E+00
      0.331  0.0000E+00  0.0000E+00  0.1580E+00  0.1580E+00
      0.370  0.0000E+00  0.0000E+00  0.1580E+00  0.1580E+00
      0.409  0.0000E+00  0.0000E+00  0.1580E+00  0.1580E+00
      0.448  0.0000E+00  0.0000E+00  0.1590E+00  0.1590E+00
      0.487  0.0000E+00  0.0000E+00  0.1590E+00  0.1590E+00
      0.526  0.0000E+00  0.0000E+00  0.1590E+00  0.1590E+00
      0.566  0.0000E+00  0.0000E+00  0.1600E+00  0.1600E+00
      0.605  0.0000E+00  0.0000E+00  0.1610E+00  0.1610E+00
      0.644  0.0000E+00  0.0000E+00  0.1610E+00  0.1610E+00
      0.683  0.0000E+00  0.0000E+00  0.1610E+00  0.1610E+00
      0.722  0.0000E+00  0.0000E+00  0.1610E+00  0.1610E+00
      0.761  0.0000E+00  0.0000E+00  0.1620E+00  0.1620E+00
      0.801  0.0000E+00  0.0000E+00  0.1620E+00  0.1620E+00
      0.840  0.0000E+00  0.0000E+00  0.1640E+00  0.1640E+00
      0.879  0.0000E+00  0.0000E+00  0.1660E+00  0.1660E+00
      0.918  0.0000E+00  0.0000E+00  0.1660E+00  0.1660E+00
      0.957  0.0000E+00  0.0000E+00  0.1670E+00  0.1670E+00
      0.997  0.0000E+00  0.0000E+00  0.1680E+00  0.1680E+00
      1.036  0.0000E+00  0.0000E+00  0.1680E+00  0.1680E+00
      1.075  0.0000E+00  0.0000E+00  0.1690E+00  0.1690E+00
      1.114  0.0000E+00  0.0000E+00  0.1710E+00  0.1710E+00
      1.153  0.0000E+00  0.0000E+00  0.1710E+00  0.1710E+00
      1.192  0.0000E+00  0.0000E+00  0.1720E+00  0.1720E+00
      1.232  0.0000E+00  0.0000E+00  0.1720E+00  0.1720E+00
      1.271  0.0000E+00  0.0000E+00  0.1720E+00  0.1720E+00
      1.310  0.0000E+00  0.0000E+00  0.1720E+00  0.1720E+00
      1.349  0.0000E+00  0.0000E+00  0.1720E+00  0.1720E+00
      1.388  0.0000E+00  0.0000E+00  0.1720E+00  0.1720E+00
      1.427  0.0000E+00  0.0000E+00  0.1720E+00  0.1720E+00
      1.467  0.0000E+00  0.0000E+00  0.1720E+00  0.1720E+00
      1.506  0.0000E+00  0.0000E+00  0.1720E+00  0.1720E+00
      1.545  0.0000E+00  0.0000E+00  0.1720E+00  0.1720E+00
      1.584  0.0000E+00  0.0000E+00  0.1720E+00  0.1720E+00
      1.623  0.0000E+00  0.0000E+00  0.1720E+00  0.1720E+00
      1.662  0.0000E+00  0.0000E+00  0.1720E+00  0.1720E+00
      1.702  0.0000E+00  0.0000E+00  0.1720E+00  0.1720E+00
