 running on   32 total cores
 distrk:  each k-point on   32 cores,    1 groups
 distr:  one band on    8 cores,    4 groups
 using from now: INCAR     
 vasp.5.3.5 31Mar14 (build Feb 01 2018 12:10:03) gamma-only                     
  
 POSCAR found type information on POSCAR  Ag
 POSCAR found :  1 types and       7 ions
 scaLAPACK will be used
 LDA part: xc-table for Pade appr. of Perdew
 POSCAR, INCAR and KPOINTS ok, starting setup
 WARNING: small aliasing (wrap around) errors must be expected
 FFT: planning ...
 WAVECAR not read
 entering main loop
       N       E                     dE             d eps       ncg     rms          rms(c)
DAV:   1     0.704229948586E+03    0.70423E+03   -0.11011E+04   208   0.509E+02
DAV:   2     0.283397321002E+03   -0.42083E+03   -0.37334E+03   384   0.912E+01
DAV:   3     0.234875216481E+02   -0.25991E+03   -0.24233E+03   320   0.884E+01
DAV:   4    -0.372999137019E+01   -0.27218E+02   -0.26696E+02   240   0.346E+01
DAV:   5    -0.425830233676E+01   -0.52831E+00   -0.52761E+00   228   0.542E+00    0.248E+01
DAV:   6     0.557264103954E+01    0.98309E+01   -0.25263E+01   224   0.144E+01    0.142E+01
DAV:   7     0.971820784463E+01    0.41456E+01   -0.21833E+00   232   0.536E+00    0.687E+00
DAV:   8     0.428871228280E+01   -0.54295E+01   -0.27876E+00   236   0.397E+00    0.221E+00
DAV:   9     0.152827329214E+01   -0.27604E+01   -0.91827E-01   208   0.250E+00    0.106E+00
DAV:  10    -0.113286129152E+01   -0.26611E+01   -0.99989E-01   208   0.253E+00    0.697E-01
DAV:  11    -0.213249229992E+01   -0.99963E+00   -0.22091E-01   236   0.950E-01    0.465E-01
DAV:  12    -0.323017609381E+01   -0.10977E+01   -0.22819E-01   216   0.107E+00    0.270E-01
DAV:  13    -0.378766520574E+01   -0.55749E+00   -0.77827E-02   224   0.545E-01    0.136E-01
DAV:  14    -0.397630073346E+01   -0.18864E+00   -0.85868E-03   216   0.191E-01    0.857E-02
DAV:  15    -0.410086396646E+01   -0.12456E+00   -0.72384E-03   224   0.148E-01    0.359E-02
DAV:  16    -0.411634147006E+01   -0.15478E-01   -0.50058E-04   172   0.463E-02    0.208E-02
DAV:  17    -0.412380041086E+01   -0.74589E-02   -0.58599E-04   188   0.424E-02    0.114E-02
DAV:  18    -0.412536197066E+01   -0.15616E-02   -0.30743E-04   180   0.285E-02    0.637E-03
DAV:  19    -0.412591308337E+01   -0.55111E-03   -0.72786E-05   168   0.156E-02    0.532E-03
DAV:  20    -0.412673392049E+01   -0.82084E-03   -0.59929E-05   148   0.120E-02    0.246E-03
DAV:  21    -0.412710505910E+01   -0.37114E-03   -0.20021E-05   168   0.730E-03    0.170E-03
DAV:  22    -0.412717664268E+01   -0.71584E-04   -0.60446E-06   176   0.437E-03
   1 F= -.41271766E+01 E0= -.41271766E+01  d E =-.412718E+01  mag=     0.9999
 curvature:   0.00 expect dE= 0.000E+00 dE for cont linesearch  0.000E+00
 trial: gam= 0.00000 g(F)=  0.378E+01 g(S)=  0.000E+00 ort = 0.000E+00 (trialstep = 0.100E+01)
 search vector abs. value=  0.378E+01
 bond charge predicted
       N       E                     dE             d eps       ncg     rms          rms(c)
DAV:   1    -0.672099138051E+01   -0.25939E+01   -0.26062E+02   216   0.593E+01    0.539E+00
DAV:   2    -0.683780023082E+01   -0.11681E+00   -0.12280E+00   228   0.572E+00    0.376E+00
DAV:   3    -0.683189850453E+01    0.59017E-02   -0.77284E-02   224   0.161E+00    0.468E-01
DAV:   4    -0.683204697097E+01   -0.14847E-03   -0.70925E-03   224   0.854E-01    0.194E-01
DAV:   5    -0.683215678950E+01   -0.10982E-03   -0.18737E-03   232   0.184E-01    0.914E-02
DAV:   6    -0.683250733590E+01   -0.35055E-03   -0.22777E-04   204   0.763E-02    0.459E-02
DAV:   7    -0.683266581156E+01   -0.15848E-03   -0.18032E-05   172   0.194E-02    0.200E-02
DAV:   8    -0.683281359543E+01   -0.14778E-03   -0.10506E-05   168   0.122E-02    0.847E-03
DAV:   9    -0.683290733702E+01   -0.93742E-04   -0.53742E-06   156   0.840E-03
   2 F= -.68329073E+01 E0= -.68329073E+01  d E =-.270573E+01  mag=     1.0000
 trial-energy change:   -2.705731  1 .order   -2.802253   -3.779330   -1.825176
 step:   1.9340(harm=  1.9340)  dis= 0.14363  next Energy=    -7.781786 (dE=-0.365E+01)
 bond charge predicted
       N       E                     dE             d eps       ncg     rms          rms(c)
DAV:   1    -0.791968505272E+01   -0.10869E+01   -0.22689E+02   208   0.550E+01    0.251E+00
DAV:   2    -0.802454241823E+01   -0.10486E+00   -0.10806E+00   224   0.542E+00    0.206E+00
DAV:   3    -0.802286326701E+01    0.16792E-02   -0.27084E-02   224   0.944E-01    0.889E-01
DAV:   4    -0.802251580564E+01    0.34746E-03   -0.48919E-03   220   0.409E-01    0.106E-01
DAV:   5    -0.802285927907E+01   -0.34347E-03   -0.55217E-04   216   0.120E-01    0.615E-02
DAV:   6    -0.802321841191E+01   -0.35913E-03   -0.13430E-04   168   0.431E-02    0.265E-02
DAV:   7    -0.802348993447E+01   -0.27152E-03   -0.28997E-05   168   0.201E-02    0.117E-02
DAV:   8    -0.802368060991E+01   -0.19068E-03   -0.63376E-06   164   0.956E-03    0.650E-03
DAV:   9    -0.802383248069E+01   -0.15187E-03   -0.49484E-06   168   0.622E-03    0.231E-03
DAV:  10    -0.802396628402E+01   -0.13380E-03   -0.32246E-06   152   0.380E-03    0.208E-03
DAV:  11    -0.802411519051E+01   -0.14891E-03   -0.83208E-06   168   0.445E-03    0.132E-03
DAV:  12    -0.802414941875E+01   -0.34228E-04   -0.20600E-06   160   0.236E-03
   3 F= -.80241494E+01 E0= -.80241494E+01  d E =-.389697E+01  mag=     1.0000
 curvature:  -0.97 expect dE=-0.811E+00 dE for cont linesearch -0.173E+00
 ZBRENT: increasing intervall
 opt :   3.8020  next Energy=    -7.688028 (dE=-0.356E+01)
 bond charge predicted
       N       E                     dE             d eps       ncg     rms          rms(c)
DAV:   1    -0.808734283279E+01   -0.63228E-01   -0.97827E+02   208   0.120E+02    0.260E+00
DAV:   2    -0.857473133018E+01   -0.48739E+00   -0.52289E+00   220   0.126E+01    0.301E+00
DAV:   3    -0.857849221319E+01   -0.37609E-02   -0.88428E-02   228   0.146E+00    0.227E+00
DAV:   4    -0.857451789410E+01    0.39743E-02   -0.13613E-02   212   0.503E-01    0.129E+00
DAV:   5    -0.857470547073E+01   -0.18758E-03   -0.89853E-03   220   0.501E-01    0.247E-01
DAV:   6    -0.857557986953E+01   -0.87440E-03   -0.48534E-04   228   0.996E-02    0.160E-01
DAV:   7    -0.857725051113E+01   -0.16706E-02   -0.50305E-04   224   0.765E-02    0.695E-02
DAV:   8    -0.857847531470E+01   -0.12248E-02   -0.85186E-05   156   0.391E-02    0.258E-02
DAV:   9    -0.857923118811E+01   -0.75587E-03   -0.27119E-05   156   0.182E-02    0.755E-03
DAV:  10    -0.857964744564E+01   -0.41626E-03   -0.92464E-06   160   0.770E-03    0.341E-03
DAV:  11    -0.858016147510E+01   -0.51403E-03   -0.17096E-05   168   0.743E-03    0.283E-03
DAV:  12    -0.858047701272E+01   -0.31554E-03   -0.13444E-05   168   0.595E-03    0.308E-03
DAV:  13    -0.858056860684E+01   -0.91594E-04   -0.38331E-06   168   0.313E-03
   4 F= -.85805686E+01 E0= -.85805686E+01  d E =-.445339E+01  mag=     1.0000
 curvature:   1.88 expect dE= 0.207E+01 dE for cont linesearch  0.182E-02
 trial: gam= 0.30729 g(F)=  0.110E+01 g(S)=  0.000E+00 ort =-0.605E-01 (trialstep = 0.156E+01)
 search vector abs. value=  0.142E+01
 bond charge predicted
       N       E                     dE             d eps       ncg     rms          rms(c)
DAV:   1    -0.960644065277E+01   -0.10260E+01   -0.24138E+02   208   0.555E+01    0.366E+00
DAV:   2    -0.971029078449E+01   -0.10385E+00   -0.11289E+00   224   0.531E+00    0.252E+00
DAV:   3    -0.970229231395E+01    0.79985E-02   -0.47037E-02   212   0.108E+00    0.610E-01
DAV:   4    -0.970469703081E+01   -0.24047E-02   -0.37353E-03   220   0.442E-01    0.169E-01
DAV:   5    -0.970589444319E+01   -0.11974E-02   -0.67792E-04   220   0.107E-01    0.811E-02
DAV:   6    -0.970704431874E+01   -0.11499E-02   -0.35702E-04   196   0.674E-02    0.329E-02
DAV:   7    -0.970768016142E+01   -0.63584E-03   -0.38707E-05   160   0.215E-02    0.135E-02
DAV:   8    -0.970808223996E+01   -0.40208E-03   -0.91655E-06   156   0.125E-02    0.654E-03
DAV:   9    -0.970839015945E+01   -0.30792E-03   -0.67733E-06   152   0.761E-03    0.289E-03
DAV:  10    -0.970865179262E+01   -0.26163E-03   -0.57770E-06   160   0.461E-03    0.180E-03
DAV:  11    -0.970889320286E+01   -0.24141E-03   -0.68227E-06   160   0.388E-03    0.139E-03
DAV:  12    -0.970908948171E+01   -0.19628E-03   -0.10753E-05   160   0.398E-03    0.650E-04
DAV:  13    -0.970911396758E+01   -0.24486E-04   -0.18378E-06   160   0.218E-03
   5 F= -.97091140E+01 E0= -.97091140E+01  d E =-.112855E+01  mag=     1.0000
 trial-energy change:   -1.128545  1 .order   -1.183538   -1.688855   -0.678221
 step:   2.6076(harm=  2.6076)  dis= 0.16757  next Energy=    -9.991678 (dE=-0.141E+01)
 bond charge predicted
       N       E                     dE             d eps       ncg     rms          rms(c)
DAV:   1    -0.997806430461E+01   -0.26897E+00   -0.10697E+02   208   0.368E+01    0.149E+00
DAV:   2    -0.100263844867E+02   -0.48320E-01   -0.51004E-01   224   0.356E+00    0.109E+00
DAV:   3    -0.100240724005E+02    0.23121E-02   -0.13069E-02   216   0.555E-01    0.436E-01
DAV:   4    -0.100245162496E+02   -0.44385E-03   -0.18868E-03   212   0.221E-01    0.935E-02
DAV:   5    -0.100250943102E+02   -0.57806E-03   -0.21725E-04   172   0.633E-02    0.423E-02
DAV:   6    -0.100255931239E+02   -0.49881E-03   -0.15370E-04   180   0.429E-02    0.163E-02
DAV:   7    -0.100259142273E+02   -0.32110E-03   -0.24204E-05   168   0.170E-02    0.800E-03
DAV:   8    -0.100261256405E+02   -0.21141E-03   -0.58935E-06   160   0.812E-03    0.403E-03
DAV:   9    -0.100262935398E+02   -0.16790E-03   -0.34686E-06   144   0.528E-03    0.174E-03
DAV:  10    -0.100264472883E+02   -0.15375E-03   -0.38265E-06   160   0.365E-03    0.112E-03
DAV:  11    -0.100265672225E+02   -0.11993E-03   -0.35604E-06   168   0.269E-03    0.893E-04
DAV:  12    -0.100266473143E+02   -0.80092E-04   -0.38189E-06   152   0.248E-03
   6 F= -.10026647E+02 E0= -.10026647E+02  d E =-.144608E+01  mag=     1.0000
 curvature:  -1.71 expect dE=-0.909E-01 dE for cont linesearch -0.443E-01
 ZBRENT: increasing intervall
 opt :   4.7019  next Energy=    -9.919186 (dE=-0.134E+01)
 bond charge predicted
       N       E                     dE             d eps       ncg     rms          rms(c)
DAV:   1    -0.991347274660E+01    0.11309E+00   -0.44801E+02   208   0.783E+01    0.186E+00
DAV:   2    -0.101256058956E+02   -0.21213E+00   -0.22062E+00   216   0.776E+00    0.156E+00
DAV:   3    -0.101259602953E+02   -0.35440E-03   -0.35924E-02   240   0.920E-01    0.107E+00
DAV:   4    -0.101232895499E+02    0.26707E-02   -0.12223E-02   216   0.452E-01    0.361E-01
DAV:   5    -0.101245188737E+02   -0.12293E-02   -0.89610E-04   220   0.159E-01    0.839E-02
DAV:   6    -0.101252847364E+02   -0.76586E-03   -0.13430E-04   164   0.450E-02    0.452E-02
DAV:   7    -0.101264231054E+02   -0.11384E-02   -0.23387E-04   192   0.494E-02    0.137E-02
DAV:   8    -0.101270507752E+02   -0.62767E-03   -0.22817E-05   168   0.149E-02    0.695E-03
DAV:   9    -0.101275117513E+02   -0.46098E-03   -0.10438E-05   160   0.721E-03    0.343E-03
DAV:  10    -0.101278741298E+02   -0.36238E-03   -0.72707E-06   168   0.474E-03    0.217E-03
DAV:  11    -0.101283299406E+02   -0.45581E-03   -0.23783E-05   152   0.637E-03    0.179E-03
DAV:  12    -0.101284327147E+02   -0.10277E-03   -0.53309E-06   168   0.328E-03    0.112E-03
DAV:  13    -0.101284571591E+02   -0.24444E-04   -0.28930E-06   152   0.260E-03
   7 F= -.10128457E+02 E0= -.10128457E+02  d E =-.154789E+01  mag=     1.0000
 curvature:   4.16 expect dE= 0.763E-01 dE for cont linesearch  0.973E-02
 ZBRENT: bracketing found
 ZBRENT: interpolating
 opt :   4.2175  next Energy=   -10.142426 (dE=-0.156E+01)
 bond charge predicted
       N       E                     dE             d eps       ncg     rms          rms(c)
DAV:   1    -0.101361437932E+02   -0.77111E-02   -0.22636E+01   208   0.169E+01    0.392E-01
DAV:   2    -0.101467009246E+02   -0.10557E-01   -0.11662E-01   224   0.166E+00    0.248E-01
DAV:   3    -0.101464822483E+02    0.21868E-03   -0.21096E-03   232   0.214E-01    0.141E-01
DAV:   4    -0.101464304884E+02    0.51760E-04   -0.49288E-04   212   0.932E-02
   8 F= -.10146430E+02 E0= -.10146430E+02  d E =-.156586E+01  mag=     1.0000
 curvature:  -5.97 expect dE=-0.973E-01 dE for cont linesearch -0.140E-02
 ZBRENT: interpolating
 opt :   4.0131  next Energy=   -10.148455 (dE=-0.157E+01)
 bond charge predicted
       N       E                     dE             d eps       ncg     rms          rms(c)
DAV:   1    -0.101462764195E+02    0.20583E-03   -0.40157E+00   208   0.712E+00    0.176E-01
DAV:   2    -0.101481426098E+02   -0.18662E-02   -0.20779E-02   212   0.698E-01    0.115E-01
DAV:   3    -0.101481612327E+02   -0.18623E-04   -0.36349E-04   196   0.904E-02
   9 F= -.10148161E+02 E0= -.10148161E+02  d E =-.156759E+01  mag=     1.0000
 curvature:  -8.66 expect dE=-0.142E+00 dE for cont linesearch -0.102E-03
 trial: gam=-0.02710 g(F)=  0.164E-01 g(S)=  0.000E+00 ort = 0.408E-02 (trialstep = 0.205E+01)
 search vector abs. value=  0.172E-01
 bond charge predicted
       N       E                     dE             d eps       ncg     rms          rms(c)
DAV:   1    -0.101785031952E+02   -0.30361E-01   -0.49042E+00   208   0.795E+00    0.129E-01
DAV:   2    -0.101810420398E+02   -0.25388E-02   -0.24993E-02   224   0.794E-01    0.708E-02
DAV:   3    -0.101811897593E+02   -0.14772E-03   -0.42347E-04   216   0.101E-01    0.472E-02
DAV:   4    -0.101812658280E+02   -0.76069E-04   -0.55215E-05   152   0.336E-02
  10 F= -.10181266E+02 E0= -.10181266E+02  d E =-.331046E-01  mag=     1.0000
 ZBRENT: can't locate minimum, use default step
 trial-energy change:   -0.033105  1 .order   -0.032518   -0.033394   -0.031641
 step:   8.2037(harm= 39.0762)  dis= 0.04990  next Energy=   -10.466287 (dE=-0.318E+00)
 bond charge predicted
       N       E                     dE             d eps       ncg     rms          rms(c)
DAV:   1    -0.102448432064E+02   -0.63653E-01   -0.44296E+01   208   0.240E+01    0.430E-01
DAV:   2    -0.102660598265E+02   -0.21217E-01   -0.22737E-01   216   0.239E+00    0.191E-01
DAV:   3    -0.102660724795E+02   -0.12653E-04   -0.38152E-03   232   0.300E-01    0.131E-01
DAV:   4    -0.102659176132E+02    0.15487E-03   -0.45705E-04   216   0.962E-02    0.522E-02
DAV:   5    -0.102660546931E+02   -0.13708E-03   -0.84750E-05   164   0.430E-02    0.176E-02
DAV:   6    -0.102661953086E+02   -0.14062E-03   -0.14909E-05   160   0.145E-02    0.755E-03
DAV:   7    -0.102663446092E+02   -0.14930E-03   -0.11304E-05   164   0.108E-02    0.410E-03
DAV:   8    -0.102664252230E+02   -0.80614E-04   -0.18745E-06   152   0.452E-03
  11 F= -.10266425E+02 E0= -.10266425E+02  d E =-.118264E+00  mag=     1.0000
 curvature:  -6.30 expect dE=-0.656E-01 dE for cont linesearch -0.530E-01
 ZBRENT: increasing intervall
 opt :  20.5093  next Energy=   -10.372755 (dE=-0.225E+00)
 bond charge predicted
       N       E                     dE             d eps       ncg     rms          rms(c)
DAV:   1    -0.102617318893E+02    0.46127E-02   -0.17953E+02   208   0.488E+01    0.119E+00
DAV:   2    -0.103508208422E+02   -0.89089E-01   -0.93863E-01   212   0.490E+00    0.394E-01
DAV:   3    -0.103512290997E+02   -0.40826E-03   -0.16282E-02   224   0.636E-01    0.285E-01
DAV:   4    -0.103509606105E+02    0.26849E-03   -0.18362E-03   228   0.182E-01    0.106E-01
DAV:   5    -0.103512467505E+02   -0.28614E-03   -0.18404E-04   164   0.662E-02    0.357E-02
DAV:   6    -0.103514666460E+02   -0.21990E-03   -0.39702E-05   168   0.257E-02    0.159E-02
DAV:   7    -0.103516925498E+02   -0.22590E-03   -0.27933E-05   164   0.179E-02    0.743E-03
DAV:   8    -0.103518172205E+02   -0.12467E-03   -0.41092E-06   160   0.709E-03    0.397E-03
DAV:   9    -0.103519691615E+02   -0.15194E-03   -0.51451E-06   168   0.448E-03    0.133E-03
DAV:  10    -0.103520453270E+02   -0.76166E-04   -0.18913E-06   152   0.270E-03
  12 F= -.10352045E+02 E0= -.10352045E+02  d E =-.203884E+00  mag=     1.0000
 curvature: -12.64 expect dE=-0.142E+00 dE for cont linesearch -0.471E-03
 trial: gam= 0.56979 g(F)=  0.112E-01 g(S)=  0.000E+00 ort = 0.801E-03 (trialstep = 0.558E+01)
 search vector abs. value=  0.177E-01
 bond charge predicted
       N       E                     dE             d eps       ncg     rms          rms(c)
DAV:   1    -0.103949478127E+02   -0.42979E-01   -0.37225E+01   208   0.220E+01    0.247E-01
DAV:   2    -0.104131171793E+02   -0.18169E-01   -0.18497E-01   216   0.215E+00    0.187E-01
DAV:   3    -0.104131569617E+02   -0.39782E-04   -0.28565E-03   232   0.262E-01    0.127E-01
DAV:   4    -0.104129007307E+02    0.25623E-03   -0.47948E-04   212   0.915E-02    0.733E-02
DAV:   5    -0.104128838489E+02    0.16882E-04   -0.38797E-04   232   0.781E-02
  13 F= -.10412884E+02 E0= -.10412884E+02  d E =-.608385E-01  mag=     1.0000
 ZBRENT: can't locate minimum, use default step
 trial-energy change:   -0.060839  1 .order   -0.061053   -0.065128   -0.056978
 step:  22.3193(harm= 44.5941)  dis= 0.12616  next Energy=   -10.612295 (dE=-0.260E+00)
 bond charge predicted
       N       E                     dE             d eps       ncg     rms          rms(c)
DAV:   1    -0.103468746582E+02    0.66026E-01   -0.34419E+02   208   0.687E+01    0.117E+00
DAV:   2    -0.105215389824E+02   -0.17466E+00   -0.17717E+00   212   0.679E+00    0.645E-01
DAV:   3    -0.105220499432E+02   -0.51096E-03   -0.27836E-02   236   0.821E-01    0.394E-01
DAV:   4    -0.105205804658E+02    0.14695E-02   -0.37799E-03   208   0.251E-01    0.222E-01
DAV:   5    -0.105207003230E+02   -0.11986E-03   -0.21540E-03   224   0.183E-01    0.589E-02
DAV:   6    -0.105209127036E+02   -0.21238E-03   -0.69239E-05   168   0.351E-02    0.372E-02
DAV:   7    -0.105211754532E+02   -0.26275E-03   -0.78307E-05   160   0.307E-02    0.128E-02
DAV:   8    -0.105213275435E+02   -0.15209E-03   -0.12775E-05   172   0.149E-02    0.529E-03
DAV:   9    -0.105214619653E+02   -0.13442E-03   -0.65134E-06   164   0.748E-03    0.264E-03
DAV:  10    -0.105215727555E+02   -0.11079E-03   -0.47532E-06   164   0.500E-03    0.166E-03
DAV:  11    -0.105216957879E+02   -0.12303E-03   -0.92140E-06   168   0.514E-03    0.158E-03
DAV:  12    -0.105217446951E+02   -0.48907E-04   -0.39251E-06   168   0.325E-03
  14 F= -.10521745E+02 E0= -.10521745E+02  d E =-.169699E+00  mag=     1.0000
 curvature: -22.81 expect dE=-0.133E+00 dE for cont linesearch -0.495E-02
 ZBRENT: extrapolating
 opt :  26.2951  next Energy=   -10.525641 (dE=-0.174E+00)
 bond charge predicted
       N       E                     dE             d eps       ncg     rms          rms(c)
DAV:   1    -0.105147347434E+02    0.69610E-02   -0.18884E+01   208   0.157E+01    0.223E-01
DAV:   2    -0.105240064985E+02   -0.92718E-02   -0.93797E-02   220   0.153E+00    0.166E-01
DAV:   3    -0.105240547722E+02   -0.48274E-04   -0.14822E-03   236   0.189E-01    0.107E-01
DAV:   4    -0.105239630037E+02    0.91768E-04   -0.38935E-04   212   0.828E-02
  15 F= -.10523963E+02 E0= -.10523963E+02  d E =-.171918E+00  mag=     1.0000
 curvature: -17.97 expect dE=-0.141E+00 dE for cont linesearch -0.601E-03
 trial: gam= 0.49596 g(F)=  0.784E-02 g(S)=  0.000E+00 ort =-0.770E-03 (trialstep = 0.972E+01)
 search vector abs. value=  0.114E-01
 bond charge predicted
       N       E                     dE             d eps       ncg     rms          rms(c)
DAV:   1    -0.105355240291E+02   -0.11469E-01   -0.73193E+01   208   0.312E+01    0.493E-01
DAV:   2    -0.105706354382E+02   -0.35111E-01   -0.35206E-01   224   0.298E+00    0.439E-01
DAV:   3    -0.105709020614E+02   -0.26662E-03   -0.54534E-03   240   0.351E-01    0.301E-01
DAV:   4    -0.105704471802E+02    0.45488E-03   -0.19590E-03   208   0.184E-01    0.138E-01
DAV:   5    -0.105705977180E+02   -0.15054E-03   -0.28272E-04   220   0.827E-02    0.403E-02
DAV:   6    -0.105706240255E+02   -0.26307E-04   -0.18093E-05   156   0.194E-02
  16 F= -.10570624E+02 E0= -.10570624E+02  d E =-.466610E-01  mag=     1.0000
 trial-energy change:   -0.046661  1 .order   -0.047846   -0.072529   -0.023164
 step:  15.6640(harm= 14.2852)  dis= 0.08104  next Energy=   -10.577431 (dE=-0.535E-01)
 bond charge predicted
       N       E                     dE             d eps       ncg     rms          rms(c)
DAV:   1    -0.105630427222E+02    0.75550E-02   -0.27202E+01   208   0.189E+01    0.281E-01
DAV:   2    -0.105760223172E+02   -0.12980E-01   -0.13169E-01   212   0.182E+00    0.239E-01
DAV:   3    -0.105761086328E+02   -0.86316E-04   -0.20495E-03   240   0.215E-01    0.161E-01
DAV:   4    -0.105759794298E+02    0.12920E-03   -0.68446E-04   208   0.110E-01    0.740E-02
DAV:   5    -0.105760446623E+02   -0.65232E-04   -0.92414E-05   164   0.497E-02
  17 F= -.10576045E+02 E0= -.10576045E+02  d E =-.520817E-01  mag=     1.0000
 curvature:  -9.95 expect dE=-0.210E-01 dE for cont linesearch -0.138E-03
 trial: gam= 0.20450 g(F)=  0.211E-02 g(S)=  0.000E+00 ort =-0.399E-03 (trialstep = 0.109E+02)
 search vector abs. value=  0.243E-02
 bond charge predicted
       N       E                     dE             d eps       ncg     rms          rms(c)
DAV:   1    -0.105836229910E+02   -0.76436E-02   -0.19514E+01   208   0.161E+01    0.231E-01
DAV:   2    -0.105931908554E+02   -0.95679E-02   -0.97488E-02   224   0.157E+00    0.148E-01
DAV:   3    -0.105932099690E+02   -0.19114E-04   -0.15034E-03   232   0.181E-01    0.993E-02
DAV:   4    -0.105931500718E+02    0.59897E-04   -0.41819E-04   216   0.850E-02
  18 F= -.10593150E+02 E0= -.10593150E+02  d E =-.171054E-01  mag=     1.0000
 trial-energy change:   -0.017105  1 .order   -0.017335   -0.022142   -0.012529
 step:  25.1335(harm= 25.1335)  dis= 0.04501  next Energy=   -10.601546 (dE=-0.255E-01)
 bond charge predicted
       N       E                     dE             d eps       ncg     rms          rms(c)
DAV:   1    -0.105836562992E+02    0.95537E-02   -0.33192E+01   208   0.210E+01    0.322E-01
DAV:   2    -0.105997424886E+02   -0.16086E-01   -0.16674E-01   220   0.205E+00    0.195E-01
DAV:   3    -0.105997335530E+02    0.89356E-05   -0.25951E-03   224   0.238E-01    0.129E-01
DAV:   4    -0.105996008560E+02    0.13270E-03   -0.67462E-04   216   0.109E-01    0.420E-02
DAV:   5    -0.105996742971E+02   -0.73441E-04   -0.38341E-05   160   0.329E-02
  19 F= -.10599674E+02 E0= -.10599674E+02  d E =-.236296E-01  mag=     1.0000
 curvature: -15.02 expect dE=-0.413E-01 dE for cont linesearch -0.169E-03
 trial: gam= 1.30793 g(F)=  0.275E-02 g(S)=  0.000E+00 ort =-0.165E-03 (trialstep = 0.516E+01)
 search vector abs. value=  0.646E-02
 bond charge predicted
       N       E                     dE             d eps       ncg     rms          rms(c)
DAV:   1    -0.106060408107E+02   -0.64400E-02   -0.11610E+01   208   0.123E+01    0.168E-01
DAV:   2    -0.106116905718E+02   -0.56498E-02   -0.57667E-02   228   0.120E+00    0.103E-01
DAV:   3    -0.106116705617E+02    0.20010E-04   -0.88707E-04   228   0.141E-01
  20 F= -.10611671E+02 E0= -.10611671E+02  d E =-.119963E-01  mag=     1.0000
 ZBRENT: can't locate minimum, use default step
 trial-energy change:   -0.011996  1 .order   -0.011941   -0.013064   -0.010818
 step:  20.6491(harm= 30.0329)  dis= 0.08138  next Energy=   -10.637675 (dE=-0.380E-01)
 bond charge predicted
       N       E                     dE             d eps       ncg     rms          rms(c)
DAV:   1    -0.105832197156E+02    0.28471E-01   -0.10583E+02   208   0.375E+01    0.645E-01
DAV:   2    -0.106357073486E+02   -0.52488E-01   -0.53741E-01   232   0.369E+00    0.306E-01
DAV:   3    -0.106351862401E+02    0.52111E-03   -0.85422E-03   228   0.440E-01    0.215E-01
DAV:   4    -0.106346642011E+02    0.52204E-03   -0.25888E-03   220   0.198E-01    0.613E-02
DAV:   5    -0.106348432962E+02   -0.17910E-03   -0.11352E-04   152   0.548E-02    0.251E-02
DAV:   6    -0.106349789799E+02   -0.13568E-03   -0.30577E-05   156   0.218E-02    0.147E-02
DAV:   7    -0.106351510991E+02   -0.17212E-03   -0.25744E-05   160   0.162E-02    0.551E-03
DAV:   8    -0.106352684715E+02   -0.11737E-03   -0.50226E-06   160   0.688E-03    0.271E-03
DAV:   9    -0.106353688382E+02   -0.10037E-03   -0.42425E-06   168   0.440E-03    0.157E-03
DAV:  10    -0.106354327869E+02   -0.63949E-04   -0.21579E-06   160   0.270E-03
  21 F= -.10635433E+02 E0= -.10635433E+02  d E =-.357585E-01  mag=     1.0000
 curvature: -32.90 expect dE=-0.106E+00 dE for cont linesearch -0.393E-02
 ZBRENT: increasing intervall
 opt :  51.6227  next Energy=   -10.624929 (dE=-0.253E-01)
 bond charge predicted
       N       E                     dE             d eps       ncg     rms          rms(c)
DAV:   1    -0.103726587379E+02    0.26271E+00   -0.43974E+02   208   0.783E+01    0.187E+00
DAV:   2    -0.106064551250E+02   -0.23380E+00   -0.23751E+00   224   0.796E+00    0.668E-01
DAV:   3    -0.106056939914E+02    0.76113E-03   -0.40306E-02   232   0.987E-01    0.448E-01
DAV:   4    -0.106037617983E+02    0.19322E-02   -0.54940E-03   212   0.299E-01    0.206E-01
DAV:   5    -0.106040184541E+02   -0.25666E-03   -0.14649E-03   216   0.159E-01    0.626E-02
DAV:   6    -0.106044266597E+02   -0.40821E-03   -0.92200E-05   168   0.404E-02    0.324E-02
DAV:   7    -0.106049442115E+02   -0.51755E-03   -0.59547E-05   160   0.250E-02    0.109E-02
DAV:   8    -0.106052775099E+02   -0.33330E-03   -0.12985E-05   168   0.109E-02    0.498E-03
DAV:   9    -0.106055303901E+02   -0.25288E-03   -0.82591E-06   168   0.632E-03    0.283E-03
DAV:  10    -0.106057366753E+02   -0.20629E-03   -0.72591E-06   168   0.472E-03    0.198E-03
DAV:  11    -0.106059544482E+02   -0.21777E-03   -0.19255E-05   168   0.642E-03    0.135E-03
DAV:  12    -0.106059964901E+02   -0.42042E-04   -0.33604E-06   160   0.313E-03
  22 F= -.10605996E+02 E0= -.10605996E+02  d E =-.632219E-02  mag=     1.0000
 curvature:  88.03 expect dE= 0.189E+01 dE for cont linesearch  0.133E+00
 ZBRENT: bracketing found
 ZBRENT: interpolating
 opt :  27.4459  next Energy=   -10.638417 (dE=-0.387E-01)
 bond charge predicted
       N       E                     dE             d eps       ncg     rms          rms(c)
DAV:   1    -0.105093630547E+02    0.96591E-01   -0.26274E+02   208   0.599E+01    0.789E-01
DAV:   2    -0.106401614035E+02   -0.13080E+00   -0.12983E+00   232   0.593E+00    0.778E-01
DAV:   3    -0.106407699089E+02   -0.60851E-03   -0.20277E-02   240   0.702E-01    0.579E-01
DAV:   4    -0.106381178879E+02    0.26520E-02   -0.48436E-03   216   0.286E-01    0.339E-01
DAV:   5    -0.106380062972E+02    0.11159E-03   -0.30889E-03   232   0.219E-01    0.960E-02
DAV:   6    -0.106381684086E+02   -0.16211E-03   -0.10308E-04   156   0.407E-02    0.610E-02
DAV:   7    -0.106384430232E+02   -0.27461E-03   -0.12545E-04   168   0.413E-02    0.224E-02
DAV:   8    -0.106386977029E+02   -0.25468E-03   -0.37576E-05   168   0.258E-02    0.723E-03
DAV:   9    -0.106388606535E+02   -0.16295E-03   -0.81531E-06   152   0.105E-02    0.325E-03
DAV:  10    -0.106389571727E+02   -0.96519E-04   -0.29895E-06   152   0.485E-03
  23 F= -.10638957E+02 E0= -.10638957E+02  d E =-.392829E-01  mag=     1.0000
 curvature:  -1.98 expect dE=-0.976E-02 dE for cont linesearch -0.882E-05
 trial: gam= 1.45350 g(F)=  0.494E-02 g(S)=  0.000E+00 ort = 0.170E-03 (trialstep = 0.326E+01)
 search vector abs. value=  0.191E-01
 bond charge predicted
       N       E                     dE             d eps       ncg     rms          rms(c)
DAV:   1    -0.106483347632E+02   -0.94741E-02   -0.13666E+01   216   0.133E+01    0.135E-01
DAV:   2    -0.106551087992E+02   -0.67740E-02   -0.67798E-02   232   0.132E+00    0.126E-01
DAV:   3    -0.106551290803E+02   -0.20281E-04   -0.10531E-03   236   0.158E-01    0.913E-02
DAV:   4    -0.106550019982E+02    0.12708E-03   -0.23611E-04   184   0.643E-02    0.538E-02
DAV:   5    -0.106550013884E+02    0.60975E-06   -0.25189E-04   208   0.636E-02
  24 F= -.10655001E+02 E0= -.10655001E+02  d E =-.160442E-01  mag=     1.0000
 ZBRENT: can't locate minimum, use default step
 trial-energy change:   -0.016044  1 .order   -0.016116   -0.016886   -0.015346
 step:  13.0307(harm= 35.7139)  dis= 0.06105  next Energy=   -10.731520 (dE=-0.926E-01)
 bond charge predicted
       N       E                     dE             d eps       ncg     rms          rms(c)
DAV:   1    -0.106284556911E+02    0.26546E-01   -0.12460E+02   208   0.405E+01    0.492E-01
DAV:   2    -0.106919440009E+02   -0.63488E-01   -0.63531E-01   228   0.407E+00    0.400E-01
DAV:   3    -0.106920490449E+02   -0.10504E-03   -0.10031E-02   236   0.490E-01    0.270E-01
DAV:   4    -0.106909691765E+02    0.10799E-02   -0.20761E-03   216   0.185E-01    0.152E-01
DAV:   5    -0.106909734192E+02   -0.42428E-05   -0.13031E-03   232   0.139E-01    0.486E-02
DAV:   6    -0.106910648813E+02   -0.91462E-04   -0.32763E-05   160   0.237E-02
  25 F= -.10691065E+02 E0= -.10691065E+02  d E =-.521077E-01  mag=     1.0000
 curvature: -33.64 expect dE=-0.105E+00 dE for cont linesearch -0.160E-01
 ZBRENT: increasing intervall
 opt :  32.5767  next Energy=   -10.716712 (dE=-0.778E-01)
 bond charge predicted
       N       E                     dE             d eps       ncg     rms          rms(c)
DAV:   1    -0.104159475529E+02    0.27503E+00   -0.52010E+02   208   0.856E+01    0.153E+00
DAV:   2    -0.106917907496E+02   -0.27584E+00   -0.27845E+00   240   0.886E+00    0.964E-01
DAV:   3    -0.106919930865E+02   -0.20234E-03   -0.45743E-02   236   0.107E+00    0.589E-01
DAV:   4    -0.106886258606E+02    0.33672E-02   -0.66291E-03   228   0.335E-01    0.349E-01
DAV:   5    -0.106885692280E+02    0.56633E-04   -0.41842E-03   216   0.250E-01    0.931E-02
DAV:   6    -0.106889602648E+02   -0.39104E-03   -0.10546E-04   168   0.427E-02    0.569E-02
DAV:   7    -0.106894768830E+02   -0.51662E-03   -0.92202E-05   164   0.325E-02    0.196E-02
DAV:   8    -0.106898326162E+02   -0.35573E-03   -0.27267E-05   172   0.198E-02    0.757E-03
DAV:   9    -0.106900988032E+02   -0.26619E-03   -0.12030E-05   172   0.911E-03    0.363E-03
DAV:  10    -0.106903121713E+02   -0.21337E-03   -0.11263E-05   160   0.677E-03    0.276E-03
DAV:  11    -0.106905073374E+02   -0.19517E-03   -0.17153E-05   168   0.693E-03    0.250E-03
DAV:  12    -0.106905805181E+02   -0.73181E-04   -0.78558E-06   168   0.428E-03
  26 F= -.10690581E+02 E0= -.10690581E+02  d E =-.516233E-01  mag=     1.0000
 curvature: -53.98 expect dE=-0.596E+00 dE for cont linesearch -0.445E-01
 ZBRENT: bracketing found
 ZBRENT: interpolating
 opt :  21.4643  next Energy=   -10.703763 (dE=-0.648E-01)
 bond charge predicted
       N       E                     dE             d eps       ncg     rms          rms(c)
DAV:   1    -0.106277267495E+02    0.62781E-01   -0.16183E+02   208   0.467E+01    0.578E-01
DAV:   2    -0.107081079023E+02   -0.80381E-01   -0.81046E-01   232   0.464E+00    0.479E-01
DAV:   3    -0.107080613229E+02    0.46579E-04   -0.12999E-02   236   0.566E-01    0.334E-01
DAV:   4    -0.107066291309E+02    0.14322E-02   -0.29475E-03   224   0.225E-01    0.185E-01
DAV:   5    -0.107066120651E+02    0.17066E-04   -0.16879E-03   224   0.164E-01    0.537E-02
DAV:   6    -0.107066966638E+02   -0.84599E-04   -0.61225E-05   168   0.311E-02
  27 F= -.10706697E+02 E0= -.10706697E+02  d E =-.677395E-01  mag=     1.0000
 curvature: -15.39 expect dE=-0.682E-01 dE for cont linesearch -0.211E-03
 trial: gam= 0.52595 g(F)=  0.443E-02 g(S)=  0.000E+00 ort = 0.512E-03 (trialstep = 0.690E+01)
 search vector abs. value=  0.102E-01
 bond charge predicted
       N       E                     dE             d eps       ncg     rms          rms(c)
DAV:   1    -0.107180575620E+02   -0.11445E-01   -0.33064E+01   208   0.206E+01    0.243E-01
DAV:   2    -0.107348894632E+02   -0.16832E-01   -0.16360E-01   232   0.201E+00    0.235E-01
DAV:   3    -0.107349518375E+02   -0.62374E-04   -0.24520E-03   236   0.230E-01    0.176E-01
DAV:   4    -0.107346695705E+02    0.28227E-03   -0.92212E-04   220   0.124E-01    0.904E-02
DAV:   5    -0.107347501480E+02   -0.80578E-04   -0.36023E-04   232   0.752E-02
  28 F= -.10734750E+02 E0= -.10734750E+02  d E =-.280535E-01  mag=     1.0000
 trial-energy change:   -0.028053  1 .order   -0.027655   -0.032416   -0.022894
 step:  23.4854(harm= 23.4854)  dis= 0.11473  next Energy=   -10.761872 (dE=-0.552E-01)
 bond charge predicted
       N       E                     dE             d eps       ncg     rms          rms(c)
DAV:   1    -0.106609343902E+02    0.73735E-01   -0.19494E+02   208   0.506E+01    0.596E-01
DAV:   2    -0.107592834650E+02   -0.98349E-01   -0.97653E-01   232   0.500E+00    0.585E-01
DAV:   3    -0.107596495000E+02   -0.36603E-03   -0.14917E-02   236   0.573E-01    0.420E-01
DAV:   4    -0.107579973188E+02    0.16522E-02   -0.33002E-03   208   0.250E-01    0.265E-01
DAV:   5    -0.107579510674E+02    0.46251E-04   -0.25226E-03   232   0.193E-01    0.913E-02
DAV:   6    -0.107580312002E+02   -0.80133E-04   -0.66434E-05   176   0.339E-02
  29 F= -.10758031E+02 E0= -.10758031E+02  d E =-.513345E-01  mag=     1.0000
 curvature: -25.61 expect dE=-0.987E-01 dE for cont linesearch -0.296E-04
 trial: gam= 0.79429 g(F)=  0.385E-02 g(S)=  0.000E+00 ort =-0.109E-03 (trialstep = 0.102E+02)
 search vector abs. value=  0.101E-01
 bond charge predicted
       N       E                     dE             d eps       ncg     rms          rms(c)
DAV:   1    -0.107467349986E+02    0.11216E-01   -0.72044E+01   208   0.309E+01    0.431E-01
DAV:   2    -0.107820003393E+02   -0.35265E-01   -0.36118E-01   228   0.300E+00    0.255E-01
DAV:   3    -0.107818037618E+02    0.19658E-03   -0.54822E-03   236   0.341E-01    0.177E-01
DAV:   4    -0.107815155250E+02    0.28824E-03   -0.16013E-03   232   0.161E-01    0.638E-02
DAV:   5    -0.107816691849E+02   -0.15366E-03   -0.18055E-04   160   0.598E-02    0.247E-02
DAV:   6    -0.107817618416E+02   -0.92657E-04   -0.25570E-05   156   0.203E-02
  30 F= -.10781762E+02 E0= -.10781762E+02  d E =-.237306E-01  mag=     1.0000
 trial-energy change:   -0.023731  1 .order   -0.024174   -0.038484   -0.009864
 step:  14.2620(harm= 13.7371)  dis= 0.05624  next Energy=   -10.783687 (dE=-0.257E-01)
 bond charge predicted
       N       E                     dE             d eps       ncg     rms          rms(c)
DAV:   1    -0.107773960936E+02    0.42731E-02   -0.11210E+01   208   0.121E+01    0.162E-01
DAV:   2    -0.107828182367E+02   -0.54221E-02   -0.55444E-02   240   0.117E+00    0.108E-01
DAV:   3    -0.107827974235E+02    0.20813E-04   -0.84487E-04   232   0.132E-01
  31 F= -.10782797E+02 E0= -.10782797E+02  d E =-.247662E-01  mag=     1.0000
 curvature: -18.09 expect dE=-0.213E-01 dE for cont linesearch -0.416E-03
 trial: gam= 0.14157 g(F)=  0.118E-02 g(S)=  0.000E+00 ort =-0.483E-03 (trialstep = 0.110E+02)
 search vector abs. value=  0.124E-02
 bond charge predicted
       N       E                     dE             d eps       ncg     rms          rms(c)
DAV:   1    -0.107864137241E+02   -0.35955E-02   -0.10197E+01   208   0.117E+01    0.208E-01
DAV:   2    -0.107913688463E+02   -0.49551E-02   -0.50707E-02   220   0.114E+00    0.125E-01
DAV:   3    -0.107914096293E+02   -0.40783E-04   -0.84104E-04   240   0.147E-01
  32 F= -.10791410E+02 E0= -.10791410E+02  d E =-.861221E-02  mag=     1.0000
 trial-energy change:   -0.008612  1 .order   -0.008256   -0.012216   -0.004297
 step:  17.0071(harm= 17.0071)  dis= 0.02365  next Energy=   -10.792219 (dE=-0.942E-02)
 bond charge predicted
       N       E                     dE             d eps       ncg     rms          rms(c)
DAV:   1    -0.107914672272E+02   -0.98381E-04   -0.30107E+00   208   0.637E+00    0.125E-01
DAV:   2    -0.107929608831E+02   -0.14937E-02   -0.15082E-02   228   0.618E-01    0.777E-02
DAV:   3    -0.107930028398E+02   -0.41957E-04   -0.22841E-04   152   0.783E-02
  33 F= -.10793003E+02 E0= -.10793003E+02  d E =-.102054E-01  mag=     1.0000
 curvature:  -9.54 expect dE=-0.385E-02 dE for cont linesearch -0.797E-04
 trial: gam= 0.32130 g(F)=  0.403E-03 g(S)=  0.000E+00 ort =-0.102E-03 (trialstep = 0.122E+02)
 search vector abs. value=  0.466E-03
 bond charge predicted
       N       E                     dE             d eps       ncg     rms          rms(c)
DAV:   1    -0.107948276787E+02   -0.18668E-02   -0.46955E+00   208   0.795E+00    0.838E-02
DAV:   2    -0.107971687620E+02   -0.23411E-02   -0.23080E-02   232   0.770E-01    0.714E-02
DAV:   3    -0.107971762604E+02   -0.74984E-05   -0.31556E-04   184   0.879E-02
  34 F= -.10797176E+02 E0= -.10797176E+02  d E =-.417342E-02  mag=     1.0000
 trial-energy change:   -0.004173  1 .order   -0.003308   -0.004529   -0.002088
 step:  15.1026(harm= 22.6745)  dis= 0.01000  next Energy=   -10.797434 (dE=-0.443E-02)
 bond charge predicted
       N       E                     dE             d eps       ncg     rms          rms(c)
DAV:   1    -0.107977210395E+02   -0.55228E-03   -0.26521E-01   208   0.189E+00    0.352E-02
DAV:   2    -0.107978646888E+02   -0.14365E-03   -0.12282E-03   240   0.178E-01    0.271E-02
DAV:   3    -0.107978766743E+02   -0.11985E-04   -0.18491E-05   144   0.199E-02
  35 F= -.10797877E+02 E0= -.10797877E+02  d E =-.487383E-02  mag=     1.0000
 curvature:  -6.78 expect dE=-0.920E-03 dE for cont linesearch -0.524E-03
 trial: gam=-0.07024 g(F)=  0.136E-03 g(S)=  0.000E+00 ort = 0.190E-03 (trialstep = 0.128E+02)
 search vector abs. value=  0.111E-03
 bond charge predicted
       N       E                     dE             d eps       ncg     rms          rms(c)
DAV:   1    -0.107987863547E+02   -0.92167E-03   -0.12285E+00   208   0.401E+00    0.457E-02
DAV:   2    -0.107993949895E+02   -0.60863E-03   -0.59090E-03   236   0.383E-01    0.371E-02
DAV:   3    -0.107993938419E+02    0.11476E-05   -0.75430E-05   140   0.421E-02
  36 F= -.10799394E+02 E0= -.10799394E+02  d E =-.151717E-02  mag=     1.0000
 trial-energy change:   -0.001517  1 .order   -0.001241   -0.001566   -0.000917
 step:  30.8722(harm= 30.8722)  dis= 0.00842  next Energy=   -10.799765 (dE=-0.189E-02)
 bond charge predicted
       N       E                     dE             d eps       ncg     rms          rms(c)
DAV:   1    -0.107996207139E+02   -0.22572E-03   -0.24562E+00   212   0.567E+00    0.672E-02
DAV:   2    -0.108008016551E+02   -0.11809E-02   -0.11720E-02   236   0.541E-01    0.550E-02
DAV:   3    -0.108007795086E+02    0.22146E-04   -0.14931E-04   144   0.588E-02
  37 F= -.10800780E+02 E0= -.10800780E+02  d E =-.290283E-02  mag=     1.0000
 curvature: -14.04 expect dE=-0.228E-02 dE for cont linesearch -0.413E-04
 trial: gam= 0.99425 g(F)=  0.163E-03 g(S)=  0.000E+00 ort = 0.181E-04 (trialstep = 0.592E+01)
 search vector abs. value=  0.309E-03
 bond charge predicted
       N       E                     dE             d eps       ncg     rms          rms(c)
DAV:   1    -0.108015078794E+02   -0.70622E-03   -0.73361E-01   216   0.310E+00    0.396E-02
DAV:   2    -0.108018700551E+02   -0.36218E-03   -0.35365E-03   224   0.297E-01    0.304E-02
DAV:   3    -0.108018702325E+02   -0.17745E-06   -0.47566E-05   128   0.334E-02
  38 F= -.10801870E+02 E0= -.10801870E+02  d E =-.109072E-02  mag=     1.0000
 trial-energy change:   -0.001091  1 .order   -0.000902   -0.001069   -0.000735
 step:  18.9618(harm= 18.9618)  dis= 0.01213  next Energy=   -10.802491 (dE=-0.171E-02)
 bond charge predicted
       N       E                     dE             d eps       ncg     rms          rms(c)
DAV:   1    -0.108014091097E+02    0.46095E-03   -0.35447E+00   208   0.681E+00    0.969E-02
DAV:   2    -0.108031467714E+02   -0.17377E-02   -0.17258E-02   216   0.656E-01    0.718E-02
DAV:   3    -0.108031218596E+02    0.24912E-04   -0.25294E-04   188   0.739E-02
  39 F= -.10803122E+02 E0= -.10803122E+02  d E =-.234235E-02  mag=     1.0000
 curvature: -16.20 expect dE=-0.331E-02 dE for cont linesearch -0.117E-04
 trial: gam= 1.78826 g(F)=  0.204E-03 g(S)=  0.000E+00 ort =-0.150E-04 (trialstep = 0.231E+01)
 search vector abs. value=  0.114E-02
 bond charge predicted
       N       E                     dE             d eps       ncg     rms          rms(c)
DAV:   1    -0.108034404980E+02   -0.29373E-03   -0.41375E-01   216   0.231E+00    0.252E-02
DAV:   2    -0.108036581730E+02   -0.21767E-03   -0.19700E-03   224   0.220E-01    0.198E-02
DAV:   3    -0.108036615116E+02   -0.33386E-05   -0.24494E-05   124   0.237E-02
  40 F= -.10803662E+02 E0= -.10803662E+02  d E =-.539652E-03  mag=     1.0000
 ZBRENT: can't locate minimum, use default step
 trial-energy change:   -0.000540  1 .order   -0.000420   -0.000411   -0.000430
 step:   9.2528(harm=  9.2528)  dis= 0.01091  next Energy=   -10.804915 (dE=-0.179E-02)
 bond charge predicted
       N       E                     dE             d eps       ncg     rms          rms(c)
DAV:   1    -0.108033401989E+02    0.31797E-03   -0.36897E+00   208   0.690E+00    0.584E-02
DAV:   2    -0.108051660557E+02   -0.18259E-02   -0.17687E-02   216   0.661E-01    0.547E-02
DAV:   3    -0.108051579635E+02    0.80923E-05   -0.22995E-04   176   0.709E-02
  41 F= -.10805158E+02 E0= -.10805158E+02  d E =-.203610E-02  mag=     1.0000
 curvature: -45.28 expect dE=-0.948E-02 dE for cont linesearch -0.539E-03
 trial: gam= 0.04043 g(F)=  0.209E-03 g(S)=  0.000E+00 ort = 0.116E-03 (trialstep = 0.370E+01)
 search vector abs. value=  0.221E-03
 bond charge predicted
       N       E                     dE             d eps       ncg     rms          rms(c)
DAV:   1    -0.108056673232E+02   -0.50127E-03   -0.20602E-01   208   0.163E+00    0.365E-02
DAV:   2    -0.108057669629E+02   -0.99640E-04   -0.99035E-04   220   0.156E-01
  42 F= -.10805767E+02 E0= -.10805767E+02  d E =-.608999E-03  mag=     1.0000
 trial-energy change:   -0.000609  1 .order   -0.000555   -0.000793   -0.000318
 step:   6.1779(harm=  6.1779)  dis= 0.00419  next Energy=   -10.805819 (dE=-0.662E-03)
 bond charge predicted
       N       E                     dE             d eps       ncg     rms          rms(c)
DAV:   1    -0.108059969757E+02   -0.32965E-03   -0.93373E-02   212   0.110E+00    0.351E-02
DAV:   2    -0.108060467332E+02   -0.49758E-04   -0.45113E-04   220   0.106E-01
  43 F= -.10806047E+02 E0= -.10806047E+02  d E =-.888770E-03  mag=     1.0000
 curvature:  -3.18 expect dE=-0.136E-03 dE for cont linesearch -0.299E-04
 trial: gam= 0.02136 g(F)=  0.427E-04 g(S)=  0.000E+00 ort = 0.456E-04 (trialstep = 0.420E+01)
 search vector abs. value=  0.448E-04
 reached required accuracy - stopping structural energy minimisation
Application 91033684 resources: utime ~6008s, stime ~138s, Rss ~51032, inblocks ~82119, outblocks ~152481
