  39  39   0   0
  0.3069710E+03  0.2287638E-08  0.2287638E-08  0.2287638E-08  0.1000000E-15
  1.000000000000000E-004
  CAR 
 unknown system                          
      1.91441797    -10.31149201  301     -3.40385287      1.00000000
    -10.311  0.0000E+00  0.0000E+00  0.0000E+00  0.0000E+00
    -10.271  0.0000E+00  0.0000E+00  0.0000E+00  0.0000E+00
    -10.230  0.0000E+00  0.0000E+00  0.0000E+00  0.0000E+00
    -10.189  0.0000E+00  0.0000E+00  0.0000E+00  0.0000E+00
    -10.148  0.0000E+00  0.0000E+00  0.0000E+00  0.0000E+00
    -10.108  0.0000E+00  0.0000E+00  0.0000E+00  0.0000E+00
    -10.067  0.0000E+00  0.0000E+00  0.0000E+00  0.0000E+00
    -10.026  0.0000E+00  0.0000E+00  0.0000E+00  0.0000E+00
     -9.985  0.0000E+00  0.0000E+00  0.0000E+00  0.0000E+00
     -9.945  0.0000E+00  0.0000E+00  0.0000E+00  0.0000E+00
     -9.904  0.0000E+00  0.0000E+00  0.0000E+00  0.0000E+00
     -9.863  0.0000E+00  0.0000E+00  0.0000E+00  0.0000E+00
     -9.822  0.0000E+00  0.0000E+00  0.0000E+00  0.0000E+00
     -9.782  0.0000E+00  0.0000E+00  0.0000E+00  0.0000E+00
     -9.741  0.0000E+00  0.0000E+00  0.1000E-02  0.0000E+00
     -9.700  0.0000E+00  0.0000E+00  0.1000E-02  0.1000E-02
     -9.659  0.0000E+00  0.0000E+00  0.1000E-02  0.1000E-02
     -9.619  0.0000E+00  0.0000E+00  0.1000E-02  0.1000E-02
     -9.578  0.0000E+00  0.0000E+00  0.1000E-02  0.1000E-02
     -9.537  0.0000E+00  0.0000E+00  0.1000E-02  0.1000E-02
     -9.496  0.0000E+00  0.0000E+00  0.1000E-02  0.1000E-02
     -9.456  0.0000E+00  0.0000E+00  0.1000E-02  0.1000E-02
     -9.415  0.0000E+00  0.0000E+00  0.1000E-02  0.1000E-02
     -9.374  0.0000E+00  0.0000E+00  0.1000E-02  0.1000E-02
     -9.333  0.0000E+00  0.0000E+00  0.1000E-02  0.1000E-02
     -9.293  0.0000E+00  0.0000E+00  0.1000E-02  0.1000E-02
     -9.252  0.0000E+00  0.0000E+00  0.2000E-02  0.1000E-02
     -9.211  0.0000E+00  0.0000E+00  0.2000E-02  0.2000E-02
     -9.170  0.0000E+00  0.0000E+00  0.3000E-02  0.3000E-02
     -9.130  0.0000E+00  0.0000E+00  0.3000E-02  0.3000E-02
     -9.089  0.0000E+00  0.0000E+00  0.4000E-02  0.4000E-02
     -9.048  0.0000E+00  0.0000E+00  0.6000E-02  0.6000E-02
     -9.007  0.0000E+00  0.0000E+00  0.7000E-02  0.7000E-02
     -8.967  0.0000E+00  0.0000E+00  0.9000E-02  0.8000E-02
     -8.926  0.0000E+00  0.2950E-04  0.1100E-01  0.9001E-02
     -8.885  0.0000E+00  0.0000E+00  0.1300E-01  0.1300E-01
     -8.844  0.0000E+00  0.0000E+00  0.1400E-01  0.1400E-01
     -8.804  0.0000E+00  0.0000E+00  0.1600E-01  0.1500E-01
     -8.763  0.0000E+00  0.0000E+00  0.1800E-01  0.1700E-01
     -8.722  0.0000E+00  0.0000E+00  0.2000E-01  0.2000E-01
     -8.681  0.0000E+00  0.0000E+00  0.2300E-01  0.2200E-01
     -8.641  0.0000E+00  0.0000E+00  0.2600E-01  0.2500E-01
     -8.600  0.0000E+00  0.0000E+00  0.2700E-01  0.2700E-01
     -8.559  0.0000E+00  0.0000E+00  0.3000E-01  0.3000E-01
     -8.518  0.0000E+00  0.0000E+00  0.3300E-01  0.3300E-01
     -8.478  0.0000E+00  0.0000E+00  0.3400E-01  0.3400E-01
     -8.437  0.0000E+00  0.0000E+00  0.3600E-01  0.3600E-01
     -8.396  0.0000E+00  0.0000E+00  0.3700E-01  0.3700E-01
     -8.355  0.0000E+00  0.0000E+00  0.4100E-01  0.4100E-01
     -8.315  0.0000E+00  0.0000E+00  0.4400E-01  0.4200E-01
     -8.274  0.0000E+00  0.0000E+00  0.4500E-01  0.4500E-01
     -8.233  0.4826E-04  0.0000E+00  0.4700E-01  0.4700E-01
     -8.192  0.0000E+00  0.0000E+00  0.5000E-01  0.4900E-01
     -8.152  0.0000E+00  0.0000E+00  0.5300E-01  0.5300E-01
     -8.111  0.0000E+00  0.0000E+00  0.5600E-01  0.5500E-01
     -8.070  0.0000E+00  0.0000E+00  0.5800E-01  0.5800E-01
     -8.029  0.0000E+00  0.0000E+00  0.6000E-01  0.6000E-01
     -7.989  0.0000E+00  0.0000E+00  0.6300E-01  0.6200E-01
     -7.948  0.0000E+00  0.0000E+00  0.6600E-01  0.6500E-01
     -7.907  0.0000E+00  0.0000E+00  0.6700E-01  0.6700E-01
     -7.866  0.0000E+00  0.0000E+00  0.7100E-01  0.7000E-01
     -7.826  0.0000E+00  0.0000E+00  0.7300E-01  0.7200E-01
     -7.785  0.0000E+00  0.0000E+00  0.7500E-01  0.7500E-01
     -7.744  0.0000E+00  0.0000E+00  0.7800E-01  0.7800E-01
     -7.703  0.0000E+00  0.0000E+00  0.8100E-01  0.8000E-01
     -7.663  0.0000E+00  0.0000E+00  0.8300E-01  0.8300E-01
     -7.622  0.0000E+00  0.0000E+00  0.8500E-01  0.8400E-01
     -7.581  0.0000E+00  0.0000E+00  0.8800E-01  0.8700E-01
     -7.540  0.0000E+00  0.0000E+00  0.9000E-01  0.9000E-01
     -7.500  0.0000E+00  0.2454E-01  0.9300E-01  0.9300E-01
     -7.459  0.8199E-05  0.0000E+00  0.9500E-01  0.9400E-01
     -7.418  0.0000E+00  0.0000E+00  0.9900E-01  0.9800E-01
     -7.377  0.0000E+00  0.0000E+00  0.1000E+00  0.1000E+00
     -7.337  0.0000E+00  0.0000E+00  0.1020E+00  0.1020E+00
     -7.296  0.0000E+00  0.2454E-01  0.1050E+00  0.1050E+00
     -7.255  0.2454E-01  0.0000E+00  0.1080E+00  0.1070E+00
     -7.214  0.0000E+00  0.0000E+00  0.1100E+00  0.1100E+00
     -7.174  0.0000E+00  0.0000E+00  0.1130E+00  0.1120E+00
     -7.133  0.0000E+00  0.0000E+00  0.1140E+00  0.1140E+00
     -7.092  0.0000E+00  0.0000E+00  0.1180E+00  0.1170E+00
     -7.051  0.0000E+00  0.0000E+00  0.1220E+00  0.1210E+00
     -7.010  0.0000E+00  0.0000E+00  0.1260E+00  0.1250E+00
     -6.970  0.0000E+00  0.0000E+00  0.1290E+00  0.1280E+00
     -6.929  0.0000E+00  0.0000E+00  0.1320E+00  0.1320E+00
     -6.888  0.0000E+00  0.0000E+00  0.1370E+00  0.1360E+00
     -6.847  0.0000E+00  0.0000E+00  0.1420E+00  0.1410E+00
     -6.807  0.0000E+00  0.0000E+00  0.1470E+00  0.1450E+00
     -6.766  0.0000E+00  0.0000E+00  0.1500E+00  0.1490E+00
     -6.725  0.0000E+00  0.0000E+00  0.1540E+00  0.1530E+00
     -6.684  0.0000E+00  0.1530E-01  0.1580E+00  0.1576E+00
     -6.644  0.0000E+00  0.0000E+00  0.1610E+00  0.1600E+00
     -6.603  0.0000E+00  0.0000E+00  0.1640E+00  0.1640E+00
     -6.562  0.0000E+00  0.0000E+00  0.1670E+00  0.1670E+00
     -6.521  0.2454E-01  0.0000E+00  0.1720E+00  0.1710E+00
     -6.481  0.0000E+00  0.2453E-01  0.1760E+00  0.1760E+00
     -6.440  0.2535E-02  0.1146E-01  0.1801E+00  0.1795E+00
     -6.399  0.0000E+00  0.2431E-01  0.1840E+00  0.1840E+00
     -6.358  0.0000E+00  0.0000E+00  0.1870E+00  0.1870E+00
     -6.318  0.0000E+00  0.0000E+00  0.1900E+00  0.1900E+00
     -6.277  0.0000E+00  0.0000E+00  0.1930E+00  0.1930E+00
     -6.236  0.0000E+00  0.0000E+00  0.1940E+00  0.1940E+00
     -6.195  0.0000E+00  0.0000E+00  0.1960E+00  0.1960E+00
     -6.155  0.0000E+00  0.0000E+00  0.1980E+00  0.1980E+00
     -6.114  0.0000E+00  0.0000E+00  0.1990E+00  0.1990E+00
     -6.073  0.0000E+00  0.0000E+00  0.2000E+00  0.2000E+00
     -6.032  0.0000E+00  0.0000E+00  0.2000E+00  0.2000E+00
     -5.992  0.0000E+00  0.0000E+00  0.2000E+00  0.2000E+00
     -5.951  0.0000E+00  0.0000E+00  0.2000E+00  0.2000E+00
     -5.910  0.0000E+00  0.0000E+00  0.2000E+00  0.2000E+00
     -5.869  0.0000E+00  0.2454E-01  0.2010E+00  0.2010E+00
     -5.829  0.0000E+00  0.0000E+00  0.2010E+00  0.2010E+00
     -5.788  0.0000E+00  0.0000E+00  0.2010E+00  0.2010E+00
     -5.747  0.0000E+00  0.0000E+00  0.2020E+00  0.2020E+00
     -5.706  0.0000E+00  0.0000E+00  0.2020E+00  0.2020E+00
     -5.666  0.0000E+00  0.0000E+00  0.2020E+00  0.2020E+00
     -5.625  0.0000E+00  0.0000E+00  0.2030E+00  0.2030E+00
     -5.584  0.0000E+00  0.0000E+00  0.2030E+00  0.2030E+00
     -5.543  0.0000E+00  0.0000E+00  0.2040E+00  0.2040E+00
     -5.503  0.0000E+00  0.0000E+00  0.2040E+00  0.2040E+00
     -5.462  0.0000E+00  0.0000E+00  0.2040E+00  0.2040E+00
     -5.421  0.0000E+00  0.0000E+00  0.2040E+00  0.2040E+00
     -5.380  0.0000E+00  0.0000E+00  0.2040E+00  0.2040E+00
     -5.340  0.0000E+00  0.0000E+00  0.2040E+00  0.2040E+00
     -5.299  0.0000E+00  0.0000E+00  0.2050E+00  0.2040E+00
     -5.258  0.0000E+00  0.0000E+00  0.2050E+00  0.2050E+00
     -5.217  0.0000E+00  0.0000E+00  0.2050E+00  0.2050E+00
     -5.177  0.0000E+00  0.0000E+00  0.2050E+00  0.2050E+00
     -5.136  0.0000E+00  0.0000E+00  0.2050E+00  0.2050E+00
     -5.095  0.0000E+00  0.0000E+00  0.2060E+00  0.2050E+00
     -5.054  0.0000E+00  0.0000E+00  0.2060E+00  0.2060E+00
     -5.014  0.0000E+00  0.0000E+00  0.2060E+00  0.2060E+00
     -4.973  0.0000E+00  0.0000E+00  0.2060E+00  0.2060E+00
     -4.932  0.0000E+00  0.0000E+00  0.2060E+00  0.2060E+00
     -4.891  0.0000E+00  0.0000E+00  0.2060E+00  0.2060E+00
     -4.851  0.0000E+00  0.0000E+00  0.2060E+00  0.2060E+00
     -4.810  0.0000E+00  0.0000E+00  0.2060E+00  0.2060E+00
     -4.769  0.0000E+00  0.0000E+00  0.2060E+00  0.2060E+00
     -4.728  0.0000E+00  0.0000E+00  0.2060E+00  0.2060E+00
     -4.688  0.0000E+00  0.0000E+00  0.2060E+00  0.2060E+00
     -4.647  0.0000E+00  0.0000E+00  0.2060E+00  0.2060E+00
     -4.606  0.0000E+00  0.0000E+00  0.2060E+00  0.2060E+00
     -4.565  0.0000E+00  0.0000E+00  0.2060E+00  0.2060E+00
     -4.525  0.0000E+00  0.0000E+00  0.2060E+00  0.2060E+00
     -4.484  0.0000E+00  0.0000E+00  0.2080E+00  0.2060E+00
     -4.443  0.0000E+00  0.0000E+00  0.2080E+00  0.2080E+00
     -4.402  0.0000E+00  0.0000E+00  0.2090E+00  0.2090E+00
     -4.362  0.0000E+00  0.0000E+00  0.2090E+00  0.2090E+00
     -4.321  0.0000E+00  0.0000E+00  0.2090E+00  0.2090E+00
     -4.280  0.0000E+00  0.0000E+00  0.2090E+00  0.2090E+00
     -4.239  0.0000E+00  0.0000E+00  0.2090E+00  0.2090E+00
     -4.199  0.0000E+00  0.0000E+00  0.2090E+00  0.2090E+00
     -4.158  0.0000E+00  0.0000E+00  0.2100E+00  0.2090E+00
     -4.117  0.0000E+00  0.0000E+00  0.2100E+00  0.2100E+00
     -4.076  0.0000E+00  0.0000E+00  0.2100E+00  0.2100E+00
     -4.036  0.0000E+00  0.1305E-03  0.2110E+00  0.2100E+00
     -3.995  0.0000E+00  0.0000E+00  0.2120E+00  0.2110E+00
     -3.954  0.0000E+00  0.0000E+00  0.2120E+00  0.2120E+00
     -3.913  0.0000E+00  0.0000E+00  0.2120E+00  0.2120E+00
     -3.873  0.0000E+00  0.0000E+00  0.2120E+00  0.2120E+00
     -3.832  0.0000E+00  0.0000E+00  0.2120E+00  0.2120E+00
     -3.791  0.0000E+00  0.0000E+00  0.2120E+00  0.2120E+00
     -3.750  0.0000E+00  0.0000E+00  0.2120E+00  0.2120E+00
     -3.710  0.0000E+00  0.0000E+00  0.2120E+00  0.2120E+00
     -3.669  0.0000E+00  0.0000E+00  0.2130E+00  0.2120E+00
     -3.628  0.0000E+00  0.0000E+00  0.2130E+00  0.2130E+00
     -3.587  0.0000E+00  0.0000E+00  0.2140E+00  0.2140E+00
     -3.546  0.0000E+00  0.0000E+00  0.2140E+00  0.2140E+00
     -3.506  0.0000E+00  0.0000E+00  0.2140E+00  0.2140E+00
     -3.465  0.0000E+00  0.0000E+00  0.2140E+00  0.2140E+00
     -3.424  0.0000E+00  0.0000E+00  0.2140E+00  0.2140E+00
     -3.383  0.0000E+00  0.0000E+00  0.2150E+00  0.2140E+00
     -3.343  0.0000E+00  0.0000E+00  0.2150E+00  0.2140E+00
     -3.302  0.0000E+00  0.0000E+00  0.2150E+00  0.2150E+00
     -3.261  0.0000E+00  0.0000E+00  0.2150E+00  0.2150E+00
     -3.220  0.0000E+00  0.0000E+00  0.2150E+00  0.2150E+00
     -3.180  0.0000E+00  0.0000E+00  0.2150E+00  0.2150E+00
     -3.139  0.0000E+00  0.0000E+00  0.2160E+00  0.2150E+00
     -3.098  0.0000E+00  0.0000E+00  0.2160E+00  0.2160E+00
     -3.057  0.0000E+00  0.0000E+00  0.2170E+00  0.2170E+00
     -3.017  0.0000E+00  0.0000E+00  0.2170E+00  0.2170E+00
     -2.976  0.0000E+00  0.0000E+00  0.2170E+00  0.2170E+00
     -2.935  0.0000E+00  0.0000E+00  0.2170E+00  0.2170E+00
     -2.894  0.0000E+00  0.0000E+00  0.2180E+00  0.2180E+00
     -2.854  0.0000E+00  0.0000E+00  0.2180E+00  0.2180E+00
     -2.813  0.0000E+00  0.0000E+00  0.2180E+00  0.2180E+00
     -2.772  0.0000E+00  0.0000E+00  0.2180E+00  0.2180E+00
     -2.731  0.0000E+00  0.0000E+00  0.2180E+00  0.2180E+00
     -2.691  0.0000E+00  0.0000E+00  0.2180E+00  0.2180E+00
     -2.650  0.0000E+00  0.0000E+00  0.2180E+00  0.2180E+00
     -2.609  0.0000E+00  0.5679E-08  0.2190E+00  0.2180E+00
     -2.568  0.0000E+00  0.0000E+00  0.2190E+00  0.2190E+00
     -2.528  0.0000E+00  0.0000E+00  0.2190E+00  0.2190E+00
     -2.487  0.0000E+00  0.0000E+00  0.2200E+00  0.2200E+00
     -2.446  0.0000E+00  0.0000E+00  0.2200E+00  0.2200E+00
     -2.405  0.0000E+00  0.0000E+00  0.2210E+00  0.2210E+00
     -2.365  0.0000E+00  0.0000E+00  0.2210E+00  0.2210E+00
     -2.324  0.0000E+00  0.0000E+00  0.2220E+00  0.2210E+00
     -2.283  0.0000E+00  0.0000E+00  0.2230E+00  0.2230E+00
     -2.242  0.0000E+00  0.0000E+00  0.2230E+00  0.2230E+00
     -2.202  0.0000E+00  0.0000E+00  0.2230E+00  0.2230E+00
     -2.161  0.0000E+00  0.0000E+00  0.2240E+00  0.2240E+00
     -2.120  0.0000E+00  0.0000E+00  0.2240E+00  0.2240E+00
     -2.079  0.0000E+00  0.0000E+00  0.2250E+00  0.2240E+00
     -2.039  0.0000E+00  0.2454E-01  0.2260E+00  0.2260E+00
     -1.998  0.0000E+00  0.0000E+00  0.2260E+00  0.2260E+00
     -1.957  0.0000E+00  0.0000E+00  0.2260E+00  0.2260E+00
     -1.916  0.0000E+00  0.0000E+00  0.2270E+00  0.2260E+00
     -1.876  0.0000E+00  0.0000E+00  0.2270E+00  0.2270E+00
     -1.835  0.0000E+00  0.0000E+00  0.2280E+00  0.2280E+00
     -1.794  0.0000E+00  0.0000E+00  0.2280E+00  0.2280E+00
     -1.753  0.0000E+00  0.0000E+00  0.2280E+00  0.2280E+00
     -1.713  0.0000E+00  0.0000E+00  0.2290E+00  0.2280E+00
     -1.672  0.0000E+00  0.0000E+00  0.2300E+00  0.2290E+00
     -1.631  0.0000E+00  0.0000E+00  0.2300E+00  0.2300E+00
     -1.590  0.0000E+00  0.0000E+00  0.2300E+00  0.2300E+00
     -1.550  0.0000E+00  0.0000E+00  0.2300E+00  0.2300E+00
     -1.509  0.0000E+00  0.0000E+00  0.2300E+00  0.2300E+00
     -1.468  0.0000E+00  0.0000E+00  0.2310E+00  0.2300E+00
     -1.427  0.0000E+00  0.0000E+00  0.2310E+00  0.2310E+00
     -1.387  0.0000E+00  0.0000E+00  0.2320E+00  0.2320E+00
     -1.346  0.0000E+00  0.0000E+00  0.2320E+00  0.2320E+00
     -1.305  0.0000E+00  0.0000E+00  0.2320E+00  0.2320E+00
     -1.264  0.0000E+00  0.0000E+00  0.2330E+00  0.2320E+00
     -1.224  0.0000E+00  0.0000E+00  0.2330E+00  0.2330E+00
     -1.183  0.0000E+00  0.0000E+00  0.2330E+00  0.2330E+00
     -1.142  0.0000E+00  0.0000E+00  0.2330E+00  0.2330E+00
     -1.101  0.0000E+00  0.0000E+00  0.2330E+00  0.2330E+00
     -1.061  0.0000E+00  0.0000E+00  0.2340E+00  0.2340E+00
     -1.020  0.0000E+00  0.0000E+00  0.2340E+00  0.2340E+00
     -0.979  0.0000E+00  0.0000E+00  0.2350E+00  0.2340E+00
     -0.938  0.0000E+00  0.0000E+00  0.2350E+00  0.2350E+00
     -0.898  0.0000E+00  0.0000E+00  0.2350E+00  0.2350E+00
     -0.857  0.0000E+00  0.0000E+00  0.2360E+00  0.2360E+00
     -0.816  0.0000E+00  0.0000E+00  0.2360E+00  0.2360E+00
     -0.775  0.0000E+00  0.0000E+00  0.2370E+00  0.2360E+00
     -0.735  0.0000E+00  0.0000E+00  0.2380E+00  0.2370E+00
     -0.694  0.0000E+00  0.0000E+00  0.2380E+00  0.2380E+00
     -0.653  0.0000E+00  0.0000E+00  0.2380E+00  0.2380E+00
     -0.612  0.0000E+00  0.0000E+00  0.2380E+00  0.2380E+00
     -0.572  0.0000E+00  0.0000E+00  0.2390E+00  0.2390E+00
     -0.531  0.0000E+00  0.0000E+00  0.2390E+00  0.2390E+00
     -0.490  0.0000E+00  0.0000E+00  0.2400E+00  0.2400E+00
     -0.449  0.0000E+00  0.0000E+00  0.2410E+00  0.2410E+00
     -0.409  0.0000E+00  0.0000E+00  0.2410E+00  0.2410E+00
     -0.368  0.0000E+00  0.0000E+00  0.2420E+00  0.2410E+00
     -0.327  0.0000E+00  0.0000E+00  0.2420E+00  0.2420E+00
     -0.286  0.0000E+00  0.0000E+00  0.2430E+00  0.2420E+00
     -0.245  0.0000E+00  0.0000E+00  0.2440E+00  0.2430E+00
     -0.205  0.0000E+00  0.0000E+00  0.2440E+00  0.2440E+00
     -0.164  0.0000E+00  0.0000E+00  0.2450E+00  0.2450E+00
     -0.123  0.0000E+00  0.0000E+00  0.2450E+00  0.2450E+00
     -0.082  0.1934E-09  0.0000E+00  0.2450E+00  0.2450E+00
     -0.042  0.0000E+00  0.0000E+00  0.2470E+00  0.2460E+00
     -0.001  0.0000E+00  0.0000E+00  0.2480E+00  0.2470E+00
      0.040  0.0000E+00  0.0000E+00  0.2480E+00  0.2480E+00
      0.081  0.0000E+00  0.0000E+00  0.2480E+00  0.2480E+00
      0.121  0.0000E+00  0.0000E+00  0.2490E+00  0.2480E+00
      0.162  0.0000E+00  0.0000E+00  0.2500E+00  0.2490E+00
      0.203  0.0000E+00  0.0000E+00  0.2500E+00  0.2500E+00
      0.244  0.0000E+00  0.0000E+00  0.2500E+00  0.2500E+00
      0.284  0.0000E+00  0.0000E+00  0.2510E+00  0.2500E+00
      0.325  0.0000E+00  0.0000E+00  0.2510E+00  0.2510E+00
      0.366  0.0000E+00  0.0000E+00  0.2520E+00  0.2510E+00
      0.407  0.0000E+00  0.0000E+00  0.2520E+00  0.2520E+00
      0.447  0.0000E+00  0.0000E+00  0.2520E+00  0.2520E+00
      0.488  0.0000E+00  0.0000E+00  0.2520E+00  0.2520E+00
      0.529  0.0000E+00  0.0000E+00  0.2540E+00  0.2520E+00
      0.570  0.0000E+00  0.0000E+00  0.2540E+00  0.2540E+00
      0.610  0.0000E+00  0.0000E+00  0.2540E+00  0.2540E+00
      0.651  0.0000E+00  0.0000E+00  0.2540E+00  0.2540E+00
      0.692  0.0000E+00  0.0000E+00  0.2550E+00  0.2550E+00
      0.733  0.0000E+00  0.0000E+00  0.2570E+00  0.2560E+00
      0.773  0.0000E+00  0.0000E+00  0.2570E+00  0.2570E+00
      0.814  0.0000E+00  0.0000E+00  0.2580E+00  0.2570E+00
      0.855  0.0000E+00  0.0000E+00  0.2590E+00  0.2580E+00
      0.896  0.0000E+00  0.0000E+00  0.2600E+00  0.2600E+00
      0.936  0.0000E+00  0.0000E+00  0.2630E+00  0.2620E+00
      0.977  0.0000E+00  0.0000E+00  0.2640E+00  0.2630E+00
      1.018  0.0000E+00  0.0000E+00  0.2650E+00  0.2650E+00
      1.059  0.0000E+00  0.0000E+00  0.2680E+00  0.2670E+00
      1.099  0.0000E+00  0.0000E+00  0.2700E+00  0.2700E+00
      1.140  0.0000E+00  0.0000E+00  0.2710E+00  0.2710E+00
      1.181  0.2454E-01  0.0000E+00  0.2730E+00  0.2720E+00
      1.222  0.0000E+00  0.0000E+00  0.2740E+00  0.2740E+00
      1.262  0.0000E+00  0.0000E+00  0.2760E+00  0.2750E+00
      1.303  0.0000E+00  0.0000E+00  0.2770E+00  0.2770E+00
      1.344  0.0000E+00  0.0000E+00  0.2790E+00  0.2790E+00
      1.385  0.0000E+00  0.0000E+00  0.2800E+00  0.2800E+00
      1.425  0.0000E+00  0.0000E+00  0.2800E+00  0.2800E+00
      1.466  0.0000E+00  0.0000E+00  0.2800E+00  0.2800E+00
      1.507  0.0000E+00  0.0000E+00  0.2800E+00  0.2800E+00
      1.548  0.0000E+00  0.0000E+00  0.2800E+00  0.2800E+00
      1.588  0.0000E+00  0.0000E+00  0.2800E+00  0.2800E+00
      1.629  0.0000E+00  0.0000E+00  0.2800E+00  0.2800E+00
      1.670  0.0000E+00  0.0000E+00  0.2800E+00  0.2800E+00
      1.711  0.0000E+00  0.0000E+00  0.2800E+00  0.2800E+00
      1.751  0.0000E+00  0.0000E+00  0.2800E+00  0.2800E+00
      1.792  0.0000E+00  0.0000E+00  0.2800E+00  0.2800E+00
      1.833  0.0000E+00  0.0000E+00  0.2800E+00  0.2800E+00
      1.874  0.0000E+00  0.0000E+00  0.2800E+00  0.2800E+00
      1.914  0.0000E+00  0.0000E+00  0.2800E+00  0.2800E+00
