<?xml version="1.0" encoding="ISO-8859-1"?>
<modeling>
 <generator>
  <i name="program" type="string">vasp </i>
  <i name="version" type="string">5.3.5  </i>
  <i name="subversion" type="string">31Mar14 (build Feb 01 2018 12:10:03) gamma-only                       parallel </i>
  <i name="platform" type="string">LinuxIFC </i>
  <i name="date" type="string">2019 03 21 </i>
  <i name="time" type="string">20:54:35 </i>
 </generator>
 <incar>
  <i type="string" name="PREC">normal</i>
  <i type="int" name="ISPIN">     2</i>
  <i type="int" name="IBRION">     2</i>
  <i type="int" name="NSW">  1000</i>
  <i type="int" name="ISIF">     2</i>
  <i name="POTIM">      0.10000000</i>
  <i type="logical" name="LPLANE"> T  </i>
  <i type="int" name="ISMEAR">     0</i>
  <i name="SIGMA">      0.00010000</i>
  <i type="logical" name="LWAVE"> F  </i>
  <i type="logical" name="LCHARG"> F  </i>
  <i type="logical" name="LVTOT"> F  </i>
  <i type="string" name="GGA"> PE</i>
 </incar>
 <kpoints>
  <varray name="kpointlist" >
   <v>       0.00000000       0.00000000       0.00000000 </v>
  </varray>
  <varray name="weights" >
   <v>       1.00000000 </v>
  </varray>
 </kpoints>
 <parameters>
  <separator name="general" >
   <i type="string" name="SYSTEM">unknown system</i>
   <i type="logical" name="LCOMPAT"> F  </i>
  </separator>
  <separator name="electronic" >
   <i type="string" name="PREC">normal</i>
   <i name="ENMAX">    249.84400000</i>
   <i name="ENAUG">    412.49600000</i>
   <i name="EDIFF">      0.00010000</i>
   <i type="int" name="IALGO">    38</i>
   <i type="int" name="IWAVPR">    11</i>
   <i type="int" name="NBANDS">   136</i>
   <i name="NELECT">    209.00000000</i>
   <i type="int" name="TURBO">     0</i>
   <i type="int" name="IRESTART">     0</i>
   <i type="int" name="NREBOOT">     0</i>
   <i type="int" name="NMIN">     0</i>
   <i name="EREF">      0.00000000</i>
   <separator name="electronic smearing" >
    <i type="int" name="ISMEAR">     0</i>
    <i name="SIGMA">      0.00010000</i>
    <i name="KSPACING">      0.50000000</i>
    <i type="logical" name="KGAMMA"> T  </i>
   </separator>
   <separator name="electronic projectors" >
    <i type="logical" name="LREAL"> F  </i>
    <v name="ROPT">      0.00000000</v>
    <i type="int" name="LMAXPAW">  -100</i>
    <i type="int" name="LMAXMIX">     2</i>
    <i type="logical" name="NLSPLINE"> F  </i>
   </separator>
   <separator name="electronic startup" >
    <i type="int" name="ISTART">     0</i>
    <i type="int" name="ICHARG">     2</i>
    <i type="int" name="INIWAV">     1</i>
   </separator>
   <separator name="electronic spin" >
    <i type="int" name="ISPIN">     2</i>
    <i type="logical" name="LNONCOLLINEAR"> F  </i>
    <v name="MAGMOM">      1.00000000      1.00000000      1.00000000      1.00000000      1.00000000      1.00000000      1.00000000      1.00000000      1.00000000      1.00000000      1.00000000      1.00000000      1.00000000      1.00000000      1.00000000      1.00000000      1.00000000      1.00000000      1.00000000</v>
    <i name="NUPDOWN">     -1.00000000</i>
    <i type="logical" name="LSORBIT"> F  </i>
    <v name="SAXIS">      0.00000000      0.00000000      1.00000000</v>
    <i type="logical" name="LSPIRAL"> F  </i>
    <v name="QSPIRAL">      0.00000000      0.00000000      0.00000000</v>
    <i type="logical" name="LZEROZ"> F  </i>
   </separator>
   <separator name="electronic exchange-correlation" >
    <i type="logical" name="LASPH"> F  </i>
    <i type="logical" name="LMETAGGA"> F  </i>
   </separator>
   <separator name="electronic convergence" >
    <i type="int" name="NELM">    60</i>
    <i type="int" name="NELMDL">    -5</i>
    <i type="int" name="NELMIN">     2</i>
    <i name="ENINI">    249.84400000</i>
    <separator name="electronic convergence detail" >
     <i type="logical" name="LDIAG"> T  </i>
     <i type="logical" name="LSUBROT"> F  </i>
     <i name="WEIMIN">      0.00100000</i>
     <i name="EBREAK">      0.00000018</i>
     <i name="DEPER">      0.30000000</i>
     <i type="int" name="NRMM">     4</i>
     <i name="TIME">      0.40000000</i>
    </separator>
   </separator>
   <separator name="electronic mixer" >
    <i name="AMIX">      0.40000000</i>
    <i name="BMIX">      1.00000000</i>
    <i name="AMIN">      0.10000000</i>
    <i name="AMIX_MAG">      1.60000000</i>
    <i name="BMIX_MAG">      1.00000000</i>
    <separator name="electronic mixer details" >
     <i type="int" name="IMIX">     4</i>
     <i type="int" name="MAXMIX">   -45</i>
     <i name="WC">    100.00000000</i>
     <i type="int" name="INIMIX">     1</i>
     <i type="int" name="MIXPRE">     1</i>
     <i type="int" name="MREMOVE">     5</i>
    </separator>
   </separator>
   <separator name="electronic dipolcorrection" >
    <i type="logical" name="LDIPOL"> F  </i>
    <i type="logical" name="LMONO"> F  </i>
    <i type="int" name="IDIPOL">     0</i>
    <i name="EPSILON">      1.00000000</i>
    <v name="DIPOL">   -100.00000000   -100.00000000   -100.00000000</v>
    <i name="EFIELD">      0.00000000</i>
   </separator>
  </separator>
  <separator name="grids" >
   <i type="int" name="NGX">    80</i>
   <i type="int" name="NGY">    80</i>
   <i type="int" name="NGZ">    80</i>
   <i type="int" name="NGXF">   160</i>
   <i type="int" name="NGYF">   160</i>
   <i type="int" name="NGZF">   160</i>
   <i type="logical" name="ADDGRID"> F  </i>
  </separator>
  <separator name="ionic" >
   <i type="int" name="NSW">  1000</i>
   <i type="int" name="IBRION">     2</i>
   <i type="int" name="ISIF">     2</i>
   <i name="PSTRESS">      0.00000000</i>
   <i name="EDIFFG">      0.00100000</i>
   <i type="int" name="NFREE">     1</i>
   <i name="POTIM">      0.10000000</i>
   <i name="SMASS">     -3.00000000</i>
   <i name="SCALEE">      1.00000000</i>
  </separator>
  <separator name="ionic md" >
   <i name="TEBEG">      0.00010000</i>
   <i name="TEEND">      0.00010000</i>
   <i type="int" name="NBLOCK">     1</i>
   <i type="int" name="KBLOCK">  1000</i>
   <i type="int" name="NPACO">   256</i>
   <i name="APACO">     16.00000000</i>
  </separator>
  <separator name="symmetry" >
   <i type="int" name="ISYM">     2</i>
   <i name="SYMPREC">      0.00001000</i>
  </separator>
  <separator name="dos" >
   <i type="logical" name="LORBIT"> F  </i>
   <v name="RWIGS">     -1.00000000</v>
   <i type="int" name="NEDOS">   301</i>
   <i name="EMIN">     10.00000000</i>
   <i name="EMAX">    -10.00000000</i>
   <i name="EFERMI">      0.00000000</i>
  </separator>
  <separator name="writing" >
   <i type="int" name="NWRITE">     2</i>
   <i type="logical" name="LWAVE"> F  </i>
   <i type="logical" name="LCHARG"> F  </i>
   <i type="logical" name="LPARD"> F  </i>
   <i type="logical" name="LVTOT"> F  </i>
   <i type="logical" name="LVHAR"> F  </i>
   <i type="logical" name="LELF"> F  </i>
   <i type="logical" name="LOPTICS"> F  </i>
   <v name="STM">      0.00000000      0.00000000      0.00000000      0.00000000      0.00000000      0.00000000      0.00000000</v>
  </separator>
  <separator name="performance" >
   <i type="int" name="NPAR">     4</i>
   <i type="int" name="NSIM">     4</i>
   <i type="int" name="NBLK">    -1</i>
   <i type="logical" name="LPLANE"> T  </i>
   <i type="logical" name="LSCALAPACK"> T  </i>
   <i type="logical" name="LSCAAWARE"> F  </i>
   <i type="logical" name="LSCALU"> F  </i>
   <i type="logical" name="LASYNC"> F  </i>
   <i type="logical" name="LORBITALREAL"> F  </i>
  </separator>
  <separator name="miscellaneous" >
   <i type="int" name="IDIOT">     3</i>
   <i type="logical" name="LMUSIC"> F  </i>
   <v name="POMASS">    107.86800000</v>
   <v name="DARWINR">      0.00000000</v>
   <v name="DARWINV">      1.00000000</v>
   <i type="logical" name="LCORR"> T  </i>
  </separator>
  <i type="logical" name="GGA_COMPAT"> T  </i>
  <i type="logical" name="LBERRY"> F  </i>
  <i type="int" name="ICORELEVEL">     0</i>
  <i type="logical" name="LDAU"> F  </i>
  <i type="int" name="I_CONSTRAINED_M">     0</i>
  <separator name="electronic exchange-correlation" >
   <i type="string" name="GGA">PE</i>
   <i type="int" name="VOSKOWN">     0</i>
   <i type="logical" name="LHFCALC"> F  </i>
   <i type="string" name="PRECFOCK"></i>
   <i type="logical" name="LSYMGRAD"> F  </i>
   <i type="logical" name="LHFONE"> F  </i>
   <i type="logical" name="LRHFCALC"> F  </i>
   <i type="logical" name="LTHOMAS"> F  </i>
   <i type="logical" name="LMODELHF"> F  </i>
   <i name="ENCUT4O">     -1.00000000</i>
   <i type="int" name="EXXOEP">     0</i>
   <i type="int" name="FOURORBIT">     0</i>
   <i name="AEXX">      0.00000000</i>
   <i name="HFALPHA">      0.00000000</i>
   <i name="MCALPHA">      0.00000000</i>
   <i name="ALDAX">      1.00000000</i>
   <i name="AGGAX">      1.00000000</i>
   <i name="ALDAC">      1.00000000</i>
   <i name="AGGAC">      1.00000000</i>
   <i type="int" name="NKREDX">     1</i>
   <i type="int" name="NKREDY">     1</i>
   <i type="int" name="NKREDZ">     1</i>
   <i type="logical" name="SHIFTRED"> F  </i>
   <i type="logical" name="ODDONLY"> F  </i>
   <i type="logical" name="EVENONLY"> F  </i>
   <i type="int" name="LMAXFOCK">     0</i>
   <i type="int" name="NMAXFOCKAE">     0</i>
   <i type="logical" name="LFOCKAEDFT"> F  </i>
   <i name="HFSCREEN">      0.00000000</i>
   <i name="HFSCREENC">      0.00000000</i>
   <i type="int" name="NBANDSGWLOW">     0</i>
  </separator>
  <separator name="vdW DFT" >
   <i type="logical" name="LUSE_VDW"> F  </i>
   <i name="Zab_VDW">     -0.84910000</i>
   <i name="PARAM1">      0.12340000</i>
   <i name="PARAM2">      1.00000000</i>
   <i name="PARAM3">      0.00000000</i>
  </separator>
  <separator name="model GW" >
   <i type="int" name="MODEL_GW">     0</i>
   <i name="MODEL_EPS0">    232.06641331</i>
   <i name="MODEL_ALPHA">      1.00000000</i>
  </separator>
  <separator name="linear response parameters" >
   <i type="logical" name="LEPSILON"> F  </i>
   <i type="logical" name="LRPA"> F  </i>
   <i type="logical" name="LNABLA"> F  </i>
   <i type="logical" name="LVEL"> F  </i>
   <i type="int" name="KINTER">     0</i>
   <i name="CSHIFT">      0.10000000</i>
   <i name="OMEGAMAX">     -1.00000000</i>
   <i name="DEG_THRESHOLD">      0.00200000</i>
  </separator>
  <separator name="orbital magnetization" >
   <i type="logical" name="NUCIND"> F  </i>
   <v name="MAGPOS">      0.00000000      0.00000000      0.00000000</v>
   <i type="logical" name="LNICSALL"> T  </i>
   <i type="logical" name="ORBITALMAG"> F  </i>
   <i type="logical" name="LMAGBLOCH"> F  </i>
   <i type="logical" name="LCHIMAG"> F  </i>
   <i type="logical" name="LGAUGE"> T  </i>
   <i type="int" name="MAGATOM">     0</i>
   <v name="MAGDIPOL">      0.00000000      0.00000000      0.00000000</v>
   <v name="AVECCONST">      0.00000000      0.00000000      0.00000000</v>
  </separator>
  <separator name="response functions" >
   <i type="logical" name="LADDER"> F  </i>
   <i type="logical" name="LFXC"> F  </i>
   <i type="logical" name="LHARTREE"> T  </i>
   <i type="int" name="IBSE">     0</i>
   <i type="logical" name="LTCTE"> F  </i>
   <i type="logical" name="LTETE"> F  </i>
   <i type="logical" name="LTRIPLET"> F  </i>
   <i type="logical" name="LFXCEPS"> F  </i>
   <i type="logical" name="LFXHEG"> F  </i>
   <i type="logical" name="L2ORDER"> F  </i>
   <i type="logical" name="LUSEW"> F  </i>
   <i name="ENCUTGW">     -2.00000000</i>
   <i name="ENCUTGWSOFT">     -2.00000000</i>
   <i name="ENCUTLF">     -1.00000000</i>
   <i type="int" name="LMAXMP2">    -1</i>
   <i name="SCISSOR">      0.00000000</i>
   <i type="int" name="NOMEGA">     0</i>
   <i type="int" name="NOMEGAR">     0</i>
   <i type="int" name="NBANDSGW">    -1</i>
   <i type="int" name="NBANDSO">    -1</i>
   <i type="int" name="NBANDSV">    -1</i>
   <i type="int" name="NELM">     1</i>
   <i type="int" name="DIM">     3</i>
   <i type="int" name="ANTIRES">     0</i>
   <i name="OMEGAMAX">    -30.00000000</i>
   <i name="OMEGAMIN">    -30.00000000</i>
   <i name="OMEGATL">   -200.00000000</i>
   <i type="int" name="OMEGAGRID">     0</i>
   <i name="CSHIFT">     -0.10000000</i>
   <i type="logical" name="SELFENERGY"> F  </i>
   <i type="logical" name="LSPECTRAL"> F  </i>
   <i type="logical" name="ODDONLYGW"> F  </i>
   <i type="logical" name="EVENONLYGW"> F  </i>
   <i type="int" name="NKREDLFX">     1</i>
   <i type="int" name="NKREDLFY">     1</i>
   <i type="int" name="NKREDLFZ">     1</i>
   <i type="int" name="MAXMEM">  1800</i>
   <i type="int" name="TELESCOPE">     0</i>
   <i type="int" name="TAUPAR">     1</i>
  </separator>
  <separator name="External order field" >
   <i name="OFIELD_KAPPA">      0.00000000</i>
   <v name="OFIELD_K">      0.00000000      0.00000000      0.00000000</v>
   <i name="OFIELD_Q6_NEAR">      0.00000000</i>
   <i name="OFIELD_Q6_FAR">      0.00000000</i>
   <i name="OFIELD_A">      0.00000000</i>
  </separator>
 </parameters>
 <atominfo>
  <atoms>      19 </atoms>
  <types>       1 </types>
  <array name="atoms" >
   <dimension dim="1">ion</dimension>
   <field type="string">element</field>
   <field type="int">atomtype</field>
   <set>
    <rc><c>Ag</c><c>   1</c></rc>
    <rc><c>Ag</c><c>   1</c></rc>
    <rc><c>Ag</c><c>   1</c></rc>
    <rc><c>Ag</c><c>   1</c></rc>
    <rc><c>Ag</c><c>   1</c></rc>
    <rc><c>Ag</c><c>   1</c></rc>
    <rc><c>Ag</c><c>   1</c></rc>
    <rc><c>Ag</c><c>   1</c></rc>
    <rc><c>Ag</c><c>   1</c></rc>
    <rc><c>Ag</c><c>   1</c></rc>
    <rc><c>Ag</c><c>   1</c></rc>
    <rc><c>Ag</c><c>   1</c></rc>
    <rc><c>Ag</c><c>   1</c></rc>
    <rc><c>Ag</c><c>   1</c></rc>
    <rc><c>Ag</c><c>   1</c></rc>
    <rc><c>Ag</c><c>   1</c></rc>
    <rc><c>Ag</c><c>   1</c></rc>
    <rc><c>Ag</c><c>   1</c></rc>
    <rc><c>Ag</c><c>   1</c></rc>
   </set>
  </array>
  <array name="atomtypes" >
   <dimension dim="1">type</dimension>
   <field type="int">atomspertype</field>
   <field type="string">element</field>
   <field>mass</field>
   <field>valence</field>
   <field type="string">pseudopotential</field>
   <set>
    <rc><c>  19</c><c>Ag</c><c>    107.86800000</c><c>     11.00000000</c><c>  PAW_PBE Ag 02Apr2005                  </c></rc>
   </set>
  </array>
 </atominfo>
 <structure name="initialpos" >
  <crystal>
   <varray name="basis" >
    <v>      19.44187800       0.00000000       0.00000000 </v>
    <v>       0.00000000      19.44187800       0.00000000 </v>
    <v>       0.00000000       0.00000000      19.44187800 </v>
   </varray>
   <i name="volume">   7348.76975492 </i>
   <varray name="rec_basis" >
    <v>       0.05143536       0.00000000       0.00000000 </v>
    <v>       0.00000000       0.05143536       0.00000000 </v>
    <v>       0.00000000       0.00000000       0.05143536 </v>
   </varray>
  </crystal>
  <varray name="positions" >
   <v>       0.59095598       0.40801377       0.62800950 </v>
   <v>       0.46025934       0.61745907       0.38250266 </v>
   <v>       0.38348795       0.65138979       0.50000000 </v>
   <v>       0.35096028       0.52535377       0.42642784 </v>
   <v>       0.64321873       0.46359204       0.50000000 </v>
   <v>       0.35096028       0.52535377       0.57357216 </v>
   <v>       0.48657907       0.51650750       0.50000000 </v>
   <v>       0.45583395       0.33945105       0.61908603 </v>
   <v>       0.46645386       0.47780214       0.65065319 </v>
   <v>       0.59227591       0.55315072       0.39372585 </v>
   <v>       0.46025934       0.61745907       0.61749734 </v>
   <v>       0.45583395       0.33945105       0.38091397 </v>
   <v>       0.59095598       0.40801377       0.37199050 </v>
   <v>       0.46645386       0.47780214       0.34934681 </v>
   <v>       0.54290753       0.65280890       0.50000000 </v>
   <v>       0.39301785       0.40276484       0.50000000 </v>
   <v>       0.68230060       0.60384722       0.50000000 </v>
   <v>       0.59227591       0.55315072       0.60627415 </v>
   <v>       0.53500963       0.36662867       0.50000000 </v>
  </varray>
 </structure>
 <calculation>
  <scstep>
   <time name="dav">    1.49    1.49</time>
   <time name="total">    1.74    1.76</time>
   <energy>
    <i name="alphaZ">     41.78368532 </i>
    <i name="ewald">  28833.14411513 </i>
    <i name="hartreedc"> -47746.72924660 </i>
    <i name="XCdc">   -211.80053135 </i>
    <i name="pawpsdc">  19064.07138332 </i>
    <i name="pawaedc"> -18188.02756870 </i>
    <i name="eentropy">      0.00000000 </i>
    <i name="bandstr">    314.67290570 </i>
    <i name="atom">  19706.77397164 </i>
    <i name="e_fr_energy">   1813.88871446 </i>
    <i name="e_wo_entrp">   1813.88871446 </i>
    <i name="e_0_energy">   1813.88871446 </i>
   </energy>
  </scstep>
  <scstep>
   <time name="dav">    2.37    2.37</time>
   <time name="total">    2.37    2.38</time>
   <energy>
    <i name="e_fr_energy">    434.69997864 </i>
    <i name="e_wo_entrp">    434.69997864 </i>
    <i name="e_0_energy">    434.69997864 </i>
   </energy>
  </scstep>
  <scstep>
   <time name="dav">    1.91    1.91</time>
   <time name="total">    1.91    1.91</time>
   <energy>
    <i name="e_fr_energy">    -12.42289265 </i>
    <i name="e_wo_entrp">    -12.42289265 </i>
    <i name="e_0_energy">    -12.42289265 </i>
   </energy>
  </scstep>
  <scstep>
   <time name="dav">    1.59    1.59</time>
   <time name="total">    1.59    1.60</time>
   <energy>
    <i name="e_fr_energy">    -37.54185237 </i>
    <i name="e_wo_entrp">    -37.54185237 </i>
    <i name="e_0_energy">    -37.54185237 </i>
   </energy>
  </scstep>
  <scstep>
   <time name="dav">    1.67    1.67</time>
   <time name="total">    1.84    1.85</time>
   <energy>
    <i name="e_fr_energy">    -37.89459390 </i>
    <i name="e_wo_entrp">    -37.89459390 </i>
    <i name="e_0_energy">    -37.89459390 </i>
   </energy>
  </scstep>
  <scstep>
   <time name="dav">    1.54    1.54</time>
   <time name="total">    1.94    1.95</time>
   <energy>
    <i name="e_fr_energy">    -12.13994054 </i>
    <i name="e_wo_entrp">    -12.13994054 </i>
    <i name="e_0_energy">    -12.13994054 </i>
   </energy>
  </scstep>
  <scstep>
   <time name="dav">    1.62    1.62</time>
   <time name="total">    2.02    2.03</time>
   <energy>
    <i name="e_fr_energy">     -7.51370279 </i>
    <i name="e_wo_entrp">     -7.51370279 </i>
    <i name="e_0_energy">     -7.51370279 </i>
   </energy>
  </scstep>
  <scstep>
   <time name="dav">    1.58    1.59</time>
   <time name="total">    1.99    1.99</time>
   <energy>
    <i name="e_fr_energy">     -6.03169450 </i>
    <i name="e_wo_entrp">     -6.03169450 </i>
    <i name="e_0_energy">     -6.03169450 </i>
   </energy>
  </scstep>
  <scstep>
   <time name="dav">    1.60    1.61</time>
   <time name="total">    2.01    2.01</time>
   <energy>
    <i name="e_fr_energy">    -12.79213666 </i>
    <i name="e_wo_entrp">    -12.79213666 </i>
    <i name="e_0_energy">    -12.79213666 </i>
   </energy>
  </scstep>
  <scstep>
   <time name="dav">    1.56    1.56</time>
   <time name="total">    1.96    2.02</time>
   <energy>
    <i name="e_fr_energy">    -20.49673954 </i>
    <i name="e_wo_entrp">    -20.49673954 </i>
    <i name="e_0_energy">    -20.49673954 </i>
   </energy>
  </scstep>
  <scstep>
   <time name="dav">    1.56    1.56</time>
   <time name="total">    1.97    1.97</time>
   <energy>
    <i name="e_fr_energy">    -28.28547174 </i>
    <i name="e_wo_entrp">    -28.28547174 </i>
    <i name="e_0_energy">    -28.28547174 </i>
   </energy>
  </scstep>
  <scstep>
   <time name="dav">    1.60    1.60</time>
   <time name="total">    2.00    2.01</time>
   <energy>
    <i name="e_fr_energy">    -31.80453110 </i>
    <i name="e_wo_entrp">    -31.80453110 </i>
    <i name="e_0_energy">    -31.80453110 </i>
   </energy>
  </scstep>
  <scstep>
   <time name="dav">    1.56    1.56</time>
   <time name="total">    1.96    1.97</time>
   <energy>
    <i name="e_fr_energy">    -35.21891421 </i>
    <i name="e_wo_entrp">    -35.21891421 </i>
    <i name="e_0_energy">    -35.21891421 </i>
   </energy>
  </scstep>
  <scstep>
   <time name="dav">    1.56    1.56</time>
   <time name="total">    1.97    2.06</time>
   <energy>
    <i name="e_fr_energy">    -36.55114387 </i>
    <i name="e_wo_entrp">    -36.55114387 </i>
    <i name="e_0_energy">    -36.55114387 </i>
   </energy>
  </scstep>
  <scstep>
   <time name="dav">    1.60    1.60</time>
   <time name="total">    2.01    2.01</time>
   <energy>
    <i name="e_fr_energy">    -37.15146738 </i>
    <i name="e_wo_entrp">    -37.15146738 </i>
    <i name="e_0_energy">    -37.15146738 </i>
   </energy>
  </scstep>
  <scstep>
   <time name="dav">    1.60    1.60</time>
   <time name="total">    2.00    2.01</time>
   <energy>
    <i name="e_fr_energy">    -37.57948031 </i>
    <i name="e_wo_entrp">    -37.57948031 </i>
    <i name="e_0_energy">    -37.57948031 </i>
   </energy>
  </scstep>
  <scstep>
   <time name="dav">    1.63    1.63</time>
   <time name="total">    2.04    2.04</time>
   <energy>
    <i name="e_fr_energy">    -37.66634255 </i>
    <i name="e_wo_entrp">    -37.66634255 </i>
    <i name="e_0_energy">    -37.66634255 </i>
   </energy>
  </scstep>
  <scstep>
   <time name="dav">    1.32    1.32</time>
   <time name="total">    1.73    2.03</time>
   <energy>
    <i name="e_fr_energy">    -37.67278734 </i>
    <i name="e_wo_entrp">    -37.67278734 </i>
    <i name="e_0_energy">    -37.67278734 </i>
   </energy>
  </scstep>
  <scstep>
   <time name="dav">    1.29    1.29</time>
   <time name="total">    1.70    1.70</time>
   <energy>
    <i name="e_fr_energy">    -37.67668439 </i>
    <i name="e_wo_entrp">    -37.67668439 </i>
    <i name="e_0_energy">    -37.67668439 </i>
   </energy>
  </scstep>
  <scstep>
   <time name="dav">    1.21    1.21</time>
   <time name="total">    1.62    1.66</time>
   <energy>
    <i name="e_fr_energy">    -37.68226396 </i>
    <i name="e_wo_entrp">    -37.68226396 </i>
    <i name="e_0_energy">    -37.68226396 </i>
   </energy>
  </scstep>
  <scstep>
   <time name="dav">    1.18    1.18</time>
   <time name="total">    1.59    1.59</time>
   <energy>
    <i name="e_fr_energy">    -37.68513384 </i>
    <i name="e_wo_entrp">    -37.68513384 </i>
    <i name="e_0_energy">    -37.68513384 </i>
   </energy>
  </scstep>
  <scstep>
   <time name="dav">    1.25    1.25</time>
   <time name="total">    1.66    1.66</time>
   <energy>
    <i name="e_fr_energy">    -37.68567199 </i>
    <i name="e_wo_entrp">    -37.68567199 </i>
    <i name="e_0_energy">    -37.68567199 </i>
   </energy>
  </scstep>
  <scstep>
   <time name="dav">    1.23    1.23</time>
   <time name="total">    1.64    1.66</time>
   <energy>
    <i name="e_fr_energy">    -37.68554162 </i>
    <i name="e_wo_entrp">    -37.68554162 </i>
    <i name="e_0_energy">    -37.68554162 </i>
   </energy>
  </scstep>
  <scstep>
   <time name="dav">    1.14    1.15</time>
   <time name="total">    1.56    1.56</time>
   <energy>
    <i name="e_fr_energy">    -37.68573629 </i>
    <i name="e_wo_entrp">    -37.68573629 </i>
    <i name="e_0_energy">    -37.68573629 </i>
   </energy>
  </scstep>
  <scstep>
   <time name="dav">    1.15    1.15</time>
   <time name="total">    1.56    1.63</time>
   <energy>
    <i name="e_fr_energy">    -37.68591993 </i>
    <i name="e_wo_entrp">    -37.68591993 </i>
    <i name="e_0_energy">    -37.68591993 </i>
   </energy>
  </scstep>
  <scstep>
   <time name="dav">    1.15    1.15</time>
   <time name="total">    1.56    1.59</time>
   <energy>
    <i name="e_fr_energy">    -37.68603509 </i>
    <i name="e_wo_entrp">    -37.68603509 </i>
    <i name="e_0_energy">    -37.68603509 </i>
   </energy>
  </scstep>
  <scstep>
   <time name="dav">    1.15    1.15</time>
   <time name="total">    1.38    1.40</time>
   <energy>
    <i name="alphaZ">     41.78368532 </i>
    <i name="ewald">  28833.14411513 </i>
    <i name="hartreedc"> -47736.73071008 </i>
    <i name="XCdc">   -218.31025807 </i>
    <i name="pawpsdc">  20215.68232051 </i>
    <i name="pawaedc"> -19367.04028312 </i>
    <i name="eentropy">      0.00000000 </i>
    <i name="bandstr">  -1512.98896662 </i>
    <i name="atom">  19706.77397164 </i>
    <i name="e_fr_energy">    -37.68612530 </i>
    <i name="e_wo_entrp">    -37.68612530 </i>
    <i name="e_0_energy">    -37.68612530 </i>
   </energy>
  </scstep>
  <structure>
   <crystal>
    <varray name="basis" >
     <v>      19.44187800       0.00000000       0.00000000 </v>
     <v>       0.00000000      19.44187800       0.00000000 </v>
     <v>       0.00000000       0.00000000      19.44187800 </v>
    </varray>
    <i name="volume">   7348.76975492 </i>
    <varray name="rec_basis" >
     <v>       0.05143536       0.00000000       0.00000000 </v>
     <v>       0.00000000       0.05143536       0.00000000 </v>
     <v>       0.00000000       0.00000000       0.05143536 </v>
    </varray>
   </crystal>
   <varray name="positions" >
    <v>       0.59095598       0.40801377       0.62800950 </v>
    <v>       0.46025934       0.61745907       0.38250266 </v>
    <v>       0.38348795       0.65138979       0.50000000 </v>
    <v>       0.35096028       0.52535377       0.42642784 </v>
    <v>       0.64321873       0.46359204       0.50000000 </v>
    <v>       0.35096028       0.52535377       0.57357216 </v>
    <v>       0.48657907       0.51650750       0.50000000 </v>
    <v>       0.45583395       0.33945105       0.61908603 </v>
    <v>       0.46645386       0.47780214       0.65065319 </v>
    <v>       0.59227591       0.55315072       0.39372585 </v>
    <v>       0.46025934       0.61745907       0.61749734 </v>
    <v>       0.45583395       0.33945105       0.38091397 </v>
    <v>       0.59095598       0.40801377       0.37199050 </v>
    <v>       0.46645386       0.47780214       0.34934681 </v>
    <v>       0.54290753       0.65280890       0.50000000 </v>
    <v>       0.39301785       0.40276484       0.50000000 </v>
    <v>       0.68230060       0.60384722       0.50000000 </v>
    <v>       0.59227591       0.55315072       0.60627415 </v>
    <v>       0.53500963       0.36662867       0.50000000 </v>
   </varray>
  </structure>
  <varray name="forces" >
   <v>      -0.18832168       0.14103511      -0.29545006 </v>
   <v>       0.06772625      -0.22169387       0.25258203 </v>
   <v>       0.26540826      -0.29277923       0.00000000 </v>
   <v>       0.30975211      -0.00749865       0.16770180 </v>
   <v>      -0.23519161       0.07621956       0.00000000 </v>
   <v>       0.30975211      -0.00749865      -0.16770180 </v>
   <v>      -0.13514601       0.17475741       0.00000000 </v>
   <v>       0.10832983       0.24119631      -0.24521075 </v>
   <v>       0.08597157       0.06587225      -0.34876874 </v>
   <v>      -0.16299367      -0.09912894       0.22078550 </v>
   <v>       0.06772625      -0.22169387      -0.25258203 </v>
   <v>       0.10832983       0.24119631       0.24521075 </v>
   <v>      -0.18832168       0.14103511       0.29545006 </v>
   <v>       0.08597157       0.06587225       0.34876874 </v>
   <v>      -0.07055044      -0.25610242       0.00000000 </v>
   <v>       0.17810165       0.11050213       0.00000000 </v>
   <v>      -0.37191926      -0.16074712       0.00000000 </v>
   <v>      -0.16299367      -0.09912894      -0.22078550 </v>
   <v>      -0.07163142       0.10858523       0.00000000 </v>
  </varray>
  <varray name="stress" >
   <v>      -2.94469970      -0.02311746       0.00000000 </v>
   <v>      -0.02311746      -2.78844705       0.00000000 </v>
   <v>       0.00000000       0.00000000      -3.07926269 </v>
  </varray>
  <energy>
   <i name="e_fr_energy">    -37.68612530 </i>
   <i name="e_wo_entrp">    -37.68612530 </i>
   <i name="e_0_energy">      0.00000000 </i>
  </energy>
  <time name="totalsc">   52.01   52.76</time>
 </calculation>
 <calculation>
  <scstep>
   <time name="dav">    1.57    1.57</time>
   <time name="total">    1.97    1.98</time>
   <energy>
    <i name="alphaZ">     41.78368532 </i>
    <i name="ewald">  28898.50933916 </i>
    <i name="hartreedc"> -47801.78142454 </i>
    <i name="XCdc">   -218.21833924 </i>
    <i name="pawpsdc">  20215.67286126 </i>
    <i name="pawaedc"> -19367.03115095 </i>
    <i name="eentropy">      0.00000000 </i>
    <i name="bandstr">  -1513.41364195 </i>
    <i name="atom">  19706.77397164 </i>
    <i name="e_fr_energy">    -37.70469931 </i>
    <i name="e_wo_entrp">    -37.70469931 </i>
    <i name="e_0_energy">    -37.70469931 </i>
   </energy>
  </scstep>
  <scstep>
   <time name="dav">    1.62    1.62</time>
   <time name="total">    2.02    2.03</time>
   <energy>
    <i name="e_fr_energy">    -37.70532486 </i>
    <i name="e_wo_entrp">    -37.70532486 </i>
    <i name="e_0_energy">    -37.70532486 </i>
   </energy>
  </scstep>
  <scstep>
   <time name="dav">    1.16    1.17</time>
   <time name="total">    1.40    1.40</time>
   <energy>
    <i name="alphaZ">     41.78368532 </i>
    <i name="ewald">  28898.50933916 </i>
    <i name="hartreedc"> -47801.22602747 </i>
    <i name="XCdc">   -218.23486489 </i>
    <i name="pawpsdc">  20222.47206112 </i>
    <i name="pawaedc"> -19373.94896728 </i>
    <i name="eentropy">     -0.00000000 </i>
    <i name="bandstr">  -1513.83451960 </i>
    <i name="atom">  19706.77397164 </i>
    <i name="e_fr_energy">    -37.70532200 </i>
    <i name="e_wo_entrp">    -37.70532200 </i>
    <i name="e_0_energy">    -37.70532200 </i>
   </energy>
  </scstep>
  <structure>
   <crystal>
    <varray name="basis" >
     <v>      19.44187800       0.00000000       0.00000000 </v>
     <v>       0.00000000      19.44187800       0.00000000 </v>
     <v>       0.00000000       0.00000000      19.44187800 </v>
    </varray>
    <i name="volume">   7348.76975492 </i>
    <varray name="rec_basis" >
     <v>       0.05143536       0.00000000       0.00000000 </v>
     <v>       0.00000000       0.05143536       0.00000000 </v>
     <v>       0.00000000       0.00000000       0.05143536 </v>
    </varray>
   </crystal>
   <varray name="positions" >
    <v>       0.59086252       0.40808376       0.62786287 </v>
    <v>       0.46029295       0.61734905       0.38262801 </v>
    <v>       0.38361967       0.65124449       0.50000000 </v>
    <v>       0.35111401       0.52535005       0.42651106 </v>
    <v>       0.64310201       0.46362987       0.50000000 </v>
    <v>       0.35111401       0.52535005       0.57348894 </v>
    <v>       0.48651200       0.51659423       0.50000000 </v>
    <v>       0.45588771       0.33957075       0.61896433 </v>
    <v>       0.46649652       0.47783483       0.65048011 </v>
    <v>       0.59219502       0.55310153       0.39383542 </v>
    <v>       0.46029295       0.61734905       0.61737199 </v>
    <v>       0.45588771       0.33957075       0.38103567 </v>
    <v>       0.59086252       0.40808376       0.37213713 </v>
    <v>       0.46649652       0.47783483       0.34951989 </v>
    <v>       0.54287252       0.65268180       0.50000000 </v>
    <v>       0.39310623       0.40281968       0.50000000 </v>
    <v>       0.68211602       0.60376744       0.50000000 </v>
    <v>       0.59219502       0.55310153       0.60616458 </v>
    <v>       0.53497408       0.36668256       0.50000000 </v>
   </varray>
  </structure>
  <varray name="forces" >
   <v>      -0.17458091       0.13165835      -0.28031179 </v>
   <v>       0.06586203      -0.20488691       0.23405060 </v>
   <v>       0.25150828      -0.27338416      -0.00000000 </v>
   <v>       0.28777239      -0.00976559       0.15478826 </v>
   <v>      -0.22077973       0.06862138      -0.00000000 </v>
   <v>       0.28777239      -0.00976559      -0.15478826 </v>
   <v>      -0.12913892       0.16544251      -0.00000000 </v>
   <v>       0.10039866       0.22562065      -0.23252300 </v>
   <v>       0.08121851       0.06151439      -0.32998746 </v>
   <v>      -0.15391742      -0.09300912       0.20858934 </v>
   <v>       0.06586203      -0.20488691      -0.23405060 </v>
   <v>       0.10039866       0.22562065       0.23252300 </v>
   <v>      -0.17458091       0.13165835       0.28031179 </v>
   <v>       0.08121851       0.06151439       0.32998746 </v>
   <v>      -0.06504310      -0.23714769      -0.00000000 </v>
   <v>       0.16562465       0.10417212      -0.00000000 </v>
   <v>      -0.35037955      -0.15126220      -0.00000000 </v>
   <v>      -0.15391742      -0.09300912      -0.20858934 </v>
   <v>      -0.06529814       0.10129450      -0.00000000 </v>
  </varray>
  <varray name="stress" >
   <v>      -2.87873719      -0.02121849       0.00000000 </v>
   <v>      -0.02121851      -2.72120238       0.00000000 </v>
   <v>       0.00000000       0.00000000      -3.01320891 </v>
  </varray>
  <energy>
   <i name="e_fr_energy">    -37.70532200 </i>
   <i name="e_wo_entrp">    -37.70532200 </i>
   <i name="e_0_energy">     -0.00000000 </i>
  </energy>
  <time name="totalsc">    8.08    8.18</time>
 </calculation>
 <calculation>
  <scstep>
   <time name="dav">    1.54    1.54</time>
   <time name="total">    1.94    2.01</time>
   <energy>
    <i name="alphaZ">     41.78368532 </i>
    <i name="ewald">  29095.42010257 </i>
    <i name="hartreedc"> -47996.95124659 </i>
    <i name="XCdc">   -217.95982415 </i>
    <i name="pawpsdc">  20226.28474070 </i>
    <i name="pawaedc"> -19377.83538431 </i>
    <i name="eentropy">      0.00000000 </i>
    <i name="bandstr">  -1515.26846964 </i>
    <i name="atom">  19706.77397164 </i>
    <i name="e_fr_energy">    -37.75242446 </i>
    <i name="e_wo_entrp">    -37.75242446 </i>
    <i name="e_0_energy">    -37.75242446 </i>
   </energy>
  </scstep>
  <scstep>
   <time name="dav">    1.66    1.66</time>
   <time name="total">    2.07    2.07</time>
   <energy>
    <i name="e_fr_energy">    -37.75803070 </i>
    <i name="e_wo_entrp">    -37.75803070 </i>
    <i name="e_0_energy">    -37.75803070 </i>
   </energy>
  </scstep>
  <scstep>
   <time name="dav">    1.64    1.64</time>
   <time name="total">    2.05    2.06</time>
   <energy>
    <i name="e_fr_energy">    -37.75794925 </i>
    <i name="e_wo_entrp">    -37.75794925 </i>
    <i name="e_0_energy">    -37.75794925 </i>
   </energy>
  </scstep>
  <scstep>
   <time name="dav">    1.42    1.43</time>
   <time name="total">    1.66    1.68</time>
   <energy>
    <i name="alphaZ">     41.78368532 </i>
    <i name="ewald">  29095.42010257 </i>
    <i name="hartreedc"> -47994.73216865 </i>
    <i name="XCdc">   -218.02042867 </i>
    <i name="pawpsdc">  20258.62395782 </i>
    <i name="pawaedc"> -19410.75761334 </i>
    <i name="eentropy">      0.00000000 </i>
    <i name="bandstr">  -1516.84945083 </i>
    <i name="atom">  19706.77397164 </i>
    <i name="e_fr_energy">    -37.75794413 </i>
    <i name="e_wo_entrp">    -37.75794413 </i>
    <i name="e_0_energy">    -37.75794413 </i>
   </energy>
  </scstep>
  <structure>
   <crystal>
    <varray name="basis" >
     <v>      19.44187800       0.00000000       0.00000000 </v>
     <v>       0.00000000      19.44187800       0.00000000 </v>
     <v>       0.00000000       0.00000000      19.44187800 </v>
    </varray>
    <i name="volume">   7348.76975492 </i>
    <varray name="rec_basis" >
     <v>       0.05143536       0.00000000       0.00000000 </v>
     <v>       0.00000000       0.05143536       0.00000000 </v>
     <v>       0.00000000       0.00000000       0.05143536 </v>
    </varray>
   </crystal>
   <varray name="positions" >
    <v>       0.59058214       0.40829374       0.62742300 </v>
    <v>       0.46039379       0.61701898       0.38300406 </v>
    <v>       0.38401482       0.65080860       0.50000000 </v>
    <v>       0.35157517       0.52533888       0.42676074 </v>
    <v>       0.64275185       0.46374334       0.50000000 </v>
    <v>       0.35157517       0.52533888       0.57323926 </v>
    <v>       0.48631080       0.51685442       0.50000000 </v>
    <v>       0.45604899       0.33992985       0.61859926 </v>
    <v>       0.46662452       0.47793290       0.64996085 </v>
    <v>       0.59195235       0.55295394       0.39416413 </v>
    <v>       0.46039379       0.61701898       0.61699594 </v>
    <v>       0.45604899       0.33992985       0.38140074 </v>
    <v>       0.59058214       0.40829374       0.37257700 </v>
    <v>       0.46662452       0.47793290       0.35003915 </v>
    <v>       0.54276748       0.65230051       0.50000000 </v>
    <v>       0.39337140       0.40298420       0.50000000 </v>
    <v>       0.68156230       0.60352812       0.50000000 </v>
    <v>       0.59195235       0.55295394       0.60583587 </v>
    <v>       0.53486744       0.36684422       0.50000000 </v>
   </varray>
  </structure>
  <varray name="forces" >
   <v>      -0.14975773       0.11600789      -0.26018155 </v>
   <v>       0.06527477      -0.17323083       0.20152235 </v>
   <v>       0.23265444      -0.23924994       0.00000000 </v>
   <v>       0.24894267      -0.01723224       0.13149379 </v>
   <v>      -0.19727309       0.05225122       0.00000000 </v>
   <v>       0.24894267      -0.01723224      -0.13149379 </v>
   <v>      -0.12260095       0.15134613      -0.00000000 </v>
   <v>       0.08562008       0.19986670      -0.21993117 </v>
   <v>       0.07399067       0.05329502      -0.30195736 </v>
   <v>      -0.14059422      -0.08323230       0.18801308 </v>
   <v>       0.06527477      -0.17323083      -0.20152235 </v>
   <v>       0.08562008       0.19986670       0.21993117 </v>
   <v>      -0.14975773       0.11600789       0.26018155 </v>
   <v>       0.07399067       0.05329502       0.30195736 </v>
   <v>      -0.05448087      -0.20184169      -0.00000000 </v>
   <v>       0.14387172       0.09416778       0.00000000 </v>
   <v>      -0.31606128      -0.13568010       0.00000000 </v>
   <v>      -0.14059422      -0.08323230      -0.18801308 </v>
   <v>      -0.05306244       0.08805813      -0.00000000 </v>
  </varray>
  <varray name="stress" >
   <v>      -2.68713751      -0.01776385       0.00000000 </v>
   <v>      -0.01776385      -2.53077132       0.00000000 </v>
   <v>       0.00000000       0.00000000      -2.82196860 </v>
  </varray>
  <energy>
   <i name="e_fr_energy">    -37.75794413 </i>
   <i name="e_wo_entrp">    -37.75794413 </i>
   <i name="e_0_energy">      0.00000000 </i>
  </energy>
  <time name="totalsc">   10.40   11.15</time>
 </calculation>
 <calculation>
  <scstep>
   <time name="dav">    1.54    1.54</time>
   <time name="total">    1.95    1.97</time>
   <energy>
    <i name="alphaZ">     41.78368532 </i>
    <i name="ewald">  29492.94429786 </i>
    <i name="hartreedc"> -48390.30399439 </i>
    <i name="XCdc">   -217.45199254 </i>
    <i name="pawpsdc">  20259.12913009 </i>
    <i name="pawaedc"> -19411.27291838 </i>
    <i name="eentropy">      0.00000000 </i>
    <i name="bandstr">  -1519.42009819 </i>
    <i name="atom">  19706.77397164 </i>
    <i name="e_fr_energy">    -37.81791859 </i>
    <i name="e_wo_entrp">    -37.81791859 </i>
    <i name="e_0_energy">    -37.81791859 </i>
   </energy>
  </scstep>
  <scstep>
   <time name="dav">    1.67    1.68</time>
   <time name="total">    2.08    2.09</time>
   <energy>
    <i name="e_fr_energy">    -37.84050749 </i>
    <i name="e_wo_entrp">    -37.84050749 </i>
    <i name="e_0_energy">    -37.84050749 </i>
   </energy>
  </scstep>
  <scstep>
   <time name="dav">    1.66    1.66</time>
   <time name="total">    2.07    2.08</time>
   <energy>
    <i name="e_fr_energy">    -37.84001185 </i>
    <i name="e_wo_entrp">    -37.84001185 </i>
    <i name="e_0_energy">    -37.84001185 </i>
   </energy>
  </scstep>
  <scstep>
   <time name="dav">    1.66    1.66</time>
   <time name="total">    2.06    2.20</time>
   <energy>
    <i name="e_fr_energy">    -37.83994766 </i>
    <i name="e_wo_entrp">    -37.83994766 </i>
    <i name="e_0_energy">    -37.83994766 </i>
   </energy>
  </scstep>
  <scstep>
   <time name="dav">    1.23    1.23</time>
   <time name="total">    1.47    1.49</time>
   <energy>
    <i name="alphaZ">     41.78368532 </i>
    <i name="ewald">  29492.94429786 </i>
    <i name="hartreedc"> -48385.83448259 </i>
    <i name="XCdc">   -217.57497441 </i>
    <i name="pawpsdc">  20326.91268676 </i>
    <i name="pawaedc"> -19480.26437158 </i>
    <i name="eentropy">      0.00000000 </i>
    <i name="bandstr">  -1522.58075613 </i>
    <i name="atom">  19706.77397164 </i>
    <i name="e_fr_energy">    -37.83994314 </i>
    <i name="e_wo_entrp">    -37.83994314 </i>
    <i name="e_0_energy">    -37.83994314 </i>
   </energy>
  </scstep>
  <structure>
   <crystal>
    <varray name="basis" >
     <v>      19.44187800       0.00000000       0.00000000 </v>
     <v>       0.00000000      19.44187800       0.00000000 </v>
     <v>       0.00000000       0.00000000      19.44187800 </v>
    </varray>
    <i name="volume">   7348.76975492 </i>
    <varray name="rec_basis" >
     <v>       0.05143536       0.00000000       0.00000000 </v>
     <v>       0.00000000       0.05143536       0.00000000 </v>
     <v>       0.00000000       0.00000000       0.05143536 </v>
    </varray>
   </crystal>
   <varray name="positions" >
    <v>       0.59002138       0.40871369       0.62654325 </v>
    <v>       0.46059545       0.61635886       0.38375616 </v>
    <v>       0.38480511       0.64993680       0.50000000 </v>
    <v>       0.35249751       0.52531656       0.42726010 </v>
    <v>       0.64205153       0.46397030       0.50000000 </v>
    <v>       0.35249751       0.52531656       0.57273990 </v>
    <v>       0.48590838       0.51737478       0.50000000 </v>
    <v>       0.45637156       0.34064805       0.61786911 </v>
    <v>       0.46688051       0.47812905       0.64892234 </v>
    <v>       0.59146701       0.55265877       0.39482156 </v>
    <v>       0.46059545       0.61635886       0.61624384 </v>
    <v>       0.45637156       0.34064805       0.38213089 </v>
    <v>       0.59002138       0.40871369       0.37345675 </v>
    <v>       0.46688051       0.47812905       0.35107766 </v>
    <v>       0.54255741       0.65153792       0.50000000 </v>
    <v>       0.39390172       0.40331324       0.50000000 </v>
    <v>       0.68045485       0.60304947       0.50000000 </v>
    <v>       0.59146701       0.55265877       0.60517844 </v>
    <v>       0.53465414       0.36716755       0.50000000 </v>
   </varray>
  </structure>
  <varray name="forces" >
   <v>      -0.08762212       0.07404284      -0.19737869 </v>
   <v>       0.06037899      -0.09622741       0.11380358 </v>
   <v>       0.17618076      -0.14560137       0.00000000 </v>
   <v>       0.15149625      -0.03426810       0.07441651 </v>
   <v>      -0.13799327       0.01344780       0.00000000 </v>
   <v>       0.15149625      -0.03426810      -0.07441651 </v>
   <v>      -0.09861276       0.10645518       0.00000000 </v>
   <v>       0.05115323       0.13373583      -0.17220563 </v>
   <v>       0.05346746       0.03222689      -0.22350512 </v>
   <v>      -0.10403634      -0.05654499       0.12821147 </v>
   <v>       0.06037899      -0.09622741      -0.11380358 </v>
   <v>       0.05115323       0.13373583       0.17220563 </v>
   <v>      -0.08762212       0.07404284       0.19737869 </v>
   <v>       0.05346746       0.03222689       0.22350512 </v>
   <v>      -0.02730298      -0.10809159       0.00000000 </v>
   <v>       0.08716217       0.06775549       0.00000000 </v>
   <v>      -0.22635962      -0.09337927       0.00000000 </v>
   <v>      -0.10403634      -0.05654499      -0.12821147 </v>
   <v>      -0.02274924       0.05348362       0.00000000 </v>
  </varray>
  <varray name="stress" >
   <v>      -2.31276463      -0.00842686       0.00000000 </v>
   <v>      -0.00842686      -2.15974186       0.00000000 </v>
   <v>       0.00000000       0.00000000      -2.45118200 </v>
  </varray>
  <energy>
   <i name="e_fr_energy">    -37.83994314 </i>
   <i name="e_wo_entrp">    -37.83994314 </i>
   <i name="e_0_energy">      0.00000000 </i>
  </energy>
  <time name="totalsc">   12.30   12.52</time>
 </calculation>
 <calculation>
  <scstep>
   <time name="dav">    1.54    1.54</time>
   <time name="total">    1.94    1.96</time>
   <energy>
    <i name="alphaZ">     41.78368532 </i>
    <i name="ewald">  30303.10209904 </i>
    <i name="hartreedc"> -49191.51640059 </i>
    <i name="XCdc">   -216.38551440 </i>
    <i name="pawpsdc">  20326.10554975 </i>
    <i name="pawaedc"> -19479.44531451 </i>
    <i name="eentropy">      0.00000000 </i>
    <i name="bandstr">  -1528.22995686 </i>
    <i name="atom">  19706.77397164 </i>
    <i name="e_fr_energy">    -37.81188062 </i>
    <i name="e_wo_entrp">    -37.81188062 </i>
    <i name="e_0_energy">    -37.81188062 </i>
   </energy>
  </scstep>
  <scstep>
   <time name="dav">    1.62    1.62</time>
   <time name="total">    2.03    2.03</time>
   <energy>
    <i name="e_fr_energy">    -37.90455878 </i>
    <i name="e_wo_entrp">    -37.90455878 </i>
    <i name="e_0_energy">    -37.90455878 </i>
   </energy>
  </scstep>
  <scstep>
   <time name="dav">    1.65    1.65</time>
   <time name="total">    2.06    2.06</time>
   <energy>
    <i name="e_fr_energy">    -37.90197429 </i>
    <i name="e_wo_entrp">    -37.90197429 </i>
    <i name="e_0_energy">    -37.90197429 </i>
   </energy>
  </scstep>
  <scstep>
   <time name="dav">    1.60    1.61</time>
   <time name="total">    2.01    2.02</time>
   <energy>
    <i name="e_fr_energy">    -37.90175912 </i>
    <i name="e_wo_entrp">    -37.90175912 </i>
    <i name="e_0_energy">    -37.90175912 </i>
   </energy>
  </scstep>
  <scstep>
   <time name="dav">    1.62    1.62</time>
   <time name="total">    1.86    1.86</time>
   <energy>
    <i name="alphaZ">     41.78368532 </i>
    <i name="ewald">  30303.10209904 </i>
    <i name="hartreedc"> -49182.10305980 </i>
    <i name="XCdc">   -216.63457949 </i>
    <i name="pawpsdc">  20474.54725066 </i>
    <i name="pawaedc"> -19630.44326975 </i>
    <i name="eentropy">      0.00000000 </i>
    <i name="bandstr">  -1534.92777321 </i>
    <i name="atom">  19706.77397164 </i>
    <i name="e_fr_energy">    -37.90167558 </i>
    <i name="e_wo_entrp">    -37.90167558 </i>
    <i name="e_0_energy">    -37.90167558 </i>
   </energy>
  </scstep>
  <structure>
   <crystal>
    <varray name="basis" >
     <v>      19.44187800       0.00000000       0.00000000 </v>
     <v>       0.00000000      19.44187800       0.00000000 </v>
     <v>       0.00000000       0.00000000      19.44187800 </v>
    </varray>
    <i name="volume">   7348.76975492 </i>
    <varray name="rec_basis" >
     <v>       0.05143536       0.00000000       0.00000000 </v>
     <v>       0.00000000       0.05143536       0.00000000 </v>
     <v>       0.00000000       0.00000000       0.05143536 </v>
    </varray>
   </crystal>
   <varray name="positions" >
    <v>       0.58889987       0.40955360       0.62478375 </v>
    <v>       0.46099878       0.61503860       0.38526036 </v>
    <v>       0.38638570       0.64819321       0.50000000 </v>
    <v>       0.35434218       0.52527190       0.42825882 </v>
    <v>       0.64065089       0.46442421       0.50000000 </v>
    <v>       0.35434218       0.52527190       0.57174118 </v>
    <v>       0.48510354       0.51841552       0.50000000 </v>
    <v>       0.45701670       0.34208445       0.61640880 </v>
    <v>       0.46739250       0.47852134       0.64684531 </v>
    <v>       0.59049634       0.55206843       0.39613640 </v>
    <v>       0.46099878       0.61503860       0.61473964 </v>
    <v>       0.45701670       0.34208445       0.38359120 </v>
    <v>       0.58889987       0.40955360       0.37521625 </v>
    <v>       0.46739250       0.47852134       0.35315469 </v>
    <v>       0.54213726       0.65001275       0.50000000 </v>
    <v>       0.39496237       0.40397131       0.50000000 </v>
    <v>       0.67823996       0.60209217       0.50000000 </v>
    <v>       0.59049634       0.55206843       0.60386360 </v>
    <v>       0.53422756       0.36781421       0.50000000 </v>
   </varray>
  </structure>
  <varray name="forces" >
   <v>       0.05771039      -0.01731220      -0.04489944 </v>
   <v>       0.05479643       0.08436737      -0.09565512 </v>
   <v>       0.03559062       0.06966157       0.00000000 </v>
   <v>      -0.07383583      -0.07596840      -0.05861117 </v>
   <v>      -0.00995354      -0.07126071       0.00000000 </v>
   <v>      -0.07383583      -0.07596840       0.05861117 </v>
   <v>      -0.03169716      -0.01507742       0.00000000 </v>
   <v>      -0.03277304      -0.01905552      -0.06414408 </v>
   <v>       0.00670237      -0.02145891      -0.05870388 </v>
   <v>      -0.01889431       0.00353246      -0.00353325 </v>
   <v>       0.05479643       0.08436737       0.09565512 </v>
   <v>      -0.03277304      -0.01905552       0.06414408 </v>
   <v>       0.05771039      -0.01731220       0.04489944 </v>
   <v>       0.00670237      -0.02145891       0.05870388 </v>
   <v>       0.03705644       0.11892892       0.00000000 </v>
   <v>      -0.03302099       0.01163513       0.00000000 </v>
   <v>      -0.03417814       0.00494594       0.00000000 </v>
   <v>      -0.01889431       0.00353246       0.00353325 </v>
   <v>       0.04879077      -0.02704303       0.00000000 </v>
  </varray>
  <varray name="stress" >
   <v>      -1.45030176       0.01298201       0.00000000 </v>
   <v>       0.01298201      -1.31106639       0.00000000 </v>
   <v>       0.00000000       0.00000000      -1.58567225 </v>
  </varray>
  <energy>
   <i name="e_fr_energy">    -37.90167558 </i>
   <i name="e_wo_entrp">    -37.90167558 </i>
   <i name="e_0_energy">      0.00000000 </i>
  </energy>
  <time name="totalsc">   12.57   12.81</time>
 </calculation>
 <calculation>
  <scstep>
   <time name="dav">    1.61    1.61</time>
   <time name="total">    2.03    3.40</time>
   <energy>
    <i name="alphaZ">     41.78368532 </i>
    <i name="ewald">  30318.57275601 </i>
    <i name="hartreedc"> -49197.67243594 </i>
    <i name="XCdc">   -216.62148034 </i>
    <i name="pawpsdc">  20472.77433574 </i>
    <i name="pawaedc"> -19628.64962940 </i>
    <i name="eentropy">      0.00000000 </i>
    <i name="bandstr">  -1534.86718760 </i>
    <i name="atom">  19706.77397164 </i>
    <i name="e_fr_energy">    -37.90598457 </i>
    <i name="e_wo_entrp">    -37.90598457 </i>
    <i name="e_0_energy">    -37.90598457 </i>
   </energy>
  </scstep>
  <scstep>
   <time name="dav">    1.65    1.65</time>
   <time name="total">    2.06    2.07</time>
   <energy>
    <i name="e_fr_energy">    -37.90712165 </i>
    <i name="e_wo_entrp">    -37.90712165 </i>
    <i name="e_0_energy">    -37.90712165 </i>
   </energy>
  </scstep>
  <scstep>
   <time name="dav">    1.20    1.20</time>
   <time name="total">    1.44    1.44</time>
   <energy>
    <i name="alphaZ">     41.78368532 </i>
    <i name="ewald">  30318.57275601 </i>
    <i name="hartreedc"> -49197.44649846 </i>
    <i name="XCdc">   -216.62637782 </i>
    <i name="pawpsdc">  20473.25239743 </i>
    <i name="pawaedc"> -19629.14569681 </i>
    <i name="eentropy">      0.00000000 </i>
    <i name="bandstr">  -1535.07137166 </i>
    <i name="atom">  19706.77397164 </i>
    <i name="e_fr_energy">    -37.90713435 </i>
    <i name="e_wo_entrp">    -37.90713435 </i>
    <i name="e_0_energy">    -37.90713435 </i>
   </energy>
  </scstep>
  <structure>
   <crystal>
    <varray name="basis" >
     <v>      19.44187800       0.00000000       0.00000000 </v>
     <v>       0.00000000      19.44187800       0.00000000 </v>
     <v>       0.00000000       0.00000000      19.44187800 </v>
    </varray>
    <i name="volume">   7348.76975492 </i>
    <varray name="rec_basis" >
     <v>       0.05143536       0.00000000       0.00000000 </v>
     <v>       0.00000000       0.05143536       0.00000000 </v>
     <v>       0.00000000       0.00000000       0.05143536 </v>
    </varray>
   </crystal>
   <varray name="positions" >
    <v>       0.58898614       0.40955585       0.62456958 </v>
    <v>       0.46116273       0.61518256       0.38509755 </v>
    <v>       0.38656585       0.64827557       0.50000000 </v>
    <v>       0.35425469       0.52507336       0.42816336 </v>
    <v>       0.64054695       0.46426567       0.50000000 </v>
    <v>       0.35425469       0.52507336       0.57183664 </v>
    <v>       0.48497678       0.51843475       0.50000000 </v>
    <v>       0.45696817       0.34211552       0.61616168 </v>
    <v>       0.46743840       0.47848788       0.64657778 </v>
    <v>       0.59039335       0.55204456       0.39620074 </v>
    <v>       0.46116273       0.61518256       0.61490245 </v>
    <v>       0.45696817       0.34211552       0.38383832 </v>
    <v>       0.58898614       0.40955585       0.37543042 </v>
    <v>       0.46743840       0.47848788       0.35342222 </v>
    <v>       0.54220941       0.65023445       0.50000000 </v>
    <v>       0.39493641       0.40403810       0.50000000 </v>
    <v>       0.67802801       0.60205145       0.50000000 </v>
    <v>       0.59039335       0.55204456       0.60379926 </v>
    <v>       0.53432963       0.36778055       0.50000000 </v>
   </varray>
  </structure>
  <varray name="forces" >
   <v>       0.05222182      -0.02177398      -0.01779372 </v>
   <v>       0.03289553       0.06832468      -0.07466384 </v>
   <v>       0.03329221       0.03861443      -0.00000000 </v>
   <v>      -0.05999489      -0.04227029      -0.04265120 </v>
   <v>       0.00902350      -0.04551727      -0.00000000 </v>
   <v>      -0.05999489      -0.04227029       0.04265120 </v>
   <v>      -0.02663123       0.00764537      -0.00000000 </v>
   <v>      -0.03027281      -0.02559662      -0.04529406 </v>
   <v>       0.00686185      -0.01777210      -0.04477447 </v>
   <v>      -0.01080577       0.00466037      -0.00408891 </v>
   <v>       0.03289553       0.06832468       0.07466384 </v>
   <v>      -0.03027281      -0.02559662       0.04529406 </v>
   <v>       0.05222182      -0.02177398       0.01779372 </v>
   <v>       0.00686185      -0.01777210       0.04477447 </v>
   <v>       0.01760906       0.09311362      -0.00000000 </v>
   <v>      -0.03052680       0.00441353      -0.00000000 </v>
   <v>      -0.01747296       0.00355605      -0.00000000 </v>
   <v>      -0.01080577       0.00466037       0.00408891 </v>
   <v>       0.03289473      -0.03296984      -0.00000000 </v>
  </varray>
  <varray name="stress" >
   <v>      -1.43980367       0.00512266       0.00000000 </v>
   <v>       0.00512266      -1.32431625       0.00000000 </v>
   <v>       0.00000000       0.00000000      -1.56984173 </v>
  </varray>
  <energy>
   <i name="e_fr_energy">    -37.90713435 </i>
   <i name="e_wo_entrp">    -37.90713435 </i>
   <i name="e_0_energy">      0.00000000 </i>
  </energy>
  <time name="totalsc">    8.19   10.10</time>
 </calculation>
 <calculation>
  <scstep>
   <time name="dav">    1.54    1.54</time>
   <time name="total">    1.95    2.32</time>
   <energy>
    <i name="alphaZ">     41.78368532 </i>
    <i name="ewald">  30353.93313301 </i>
    <i name="hartreedc"> -49232.50385332 </i>
    <i name="XCdc">   -216.59161711 </i>
    <i name="pawpsdc">  20473.38929137 </i>
    <i name="pawaedc"> -19629.29295831 </i>
    <i name="eentropy">      0.00000000 </i>
    <i name="bandstr">  -1535.40122622 </i>
    <i name="atom">  19706.77397164 </i>
    <i name="e_fr_energy">    -37.90957362 </i>
    <i name="e_wo_entrp">    -37.90957362 </i>
    <i name="e_0_energy">    -37.90957362 </i>
   </energy>
  </scstep>
  <scstep>
   <time name="dav">    1.64    1.64</time>
   <time name="total">    2.04    2.05</time>
   <energy>
    <i name="e_fr_energy">    -37.91515024 </i>
    <i name="e_wo_entrp">    -37.91515024 </i>
    <i name="e_0_energy">    -37.91515024 </i>
   </energy>
  </scstep>
  <scstep>
   <time name="dav">    1.69    1.69</time>
   <time name="total">    1.92    1.94</time>
   <energy>
    <i name="alphaZ">     41.78368532 </i>
    <i name="ewald">  30353.93313301 </i>
    <i name="hartreedc"> -49232.22235453 </i>
    <i name="XCdc">   -216.59999036 </i>
    <i name="pawpsdc">  20476.39220431 </i>
    <i name="pawaedc"> -19632.34049836 </i>
    <i name="eentropy">      0.00000000 </i>
    <i name="bandstr">  -1535.63522468 </i>
    <i name="atom">  19706.77397164 </i>
    <i name="e_fr_energy">    -37.91507364 </i>
    <i name="e_wo_entrp">    -37.91507364 </i>
    <i name="e_0_energy">    -37.91507364 </i>
   </energy>
  </scstep>
  <structure>
   <crystal>
    <varray name="basis" >
     <v>      19.44187800       0.00000000       0.00000000 </v>
     <v>       0.00000000      19.44187800       0.00000000 </v>
     <v>       0.00000000       0.00000000      19.44187800 </v>
    </varray>
    <i name="volume">   7348.76975492 </i>
    <varray name="rec_basis" >
     <v>       0.05143536       0.00000000       0.00000000 </v>
     <v>       0.00000000       0.05143536       0.00000000 </v>
     <v>       0.00000000       0.00000000       0.05143536 </v>
    </varray>
   </crystal>
   <varray name="positions" >
    <v>       0.58918239       0.40956096       0.62408239 </v>
    <v>       0.46153566       0.61551004       0.38472719 </v>
    <v>       0.38697566       0.64846292       0.50000000 </v>
    <v>       0.35405569       0.52462172       0.42794622 </v>
    <v>       0.64031051       0.46390503       0.50000000 </v>
    <v>       0.35405569       0.52462172       0.57205378 </v>
    <v>       0.48468842       0.51847851       0.50000000 </v>
    <v>       0.45685777       0.34218621       0.61559954 </v>
    <v>       0.46754282       0.47841176       0.64596919 </v>
    <v>       0.59015906       0.55199027       0.39634711 </v>
    <v>       0.46153566       0.61551004       0.61527281 </v>
    <v>       0.45685777       0.34218621       0.38440046 </v>
    <v>       0.58918239       0.40956096       0.37591761 </v>
    <v>       0.46754282       0.47841176       0.35403081 </v>
    <v>       0.54237355       0.65073878       0.50000000 </v>
    <v>       0.39487737       0.40419004       0.50000000 </v>
    <v>       0.67754588       0.60195882       0.50000000 </v>
    <v>       0.59015906       0.55199027       0.60365289 </v>
    <v>       0.53456184       0.36770398       0.50000000 </v>
   </varray>
  </structure>
  <varray name="forces" >
   <v>       0.05364605      -0.03390033       0.02426852 </v>
   <v>       0.00316745       0.05317346      -0.05165779 </v>
   <v>       0.04252275      -0.01304073      -0.00000000 </v>
   <v>      -0.04612382       0.00713942      -0.02179088 </v>
   <v>       0.04502939      -0.00703443      -0.00000000 </v>
   <v>      -0.04612382       0.00713942       0.02179088 </v>
   <v>      -0.02736360       0.05642279      -0.00000000 </v>
   <v>      -0.03252790      -0.04060797      -0.03201447 </v>
   <v>       0.01018141      -0.01372520      -0.03644494 </v>
   <v>      -0.00152687       0.00660990      -0.00278674 </v>
   <v>       0.00316745       0.05317346       0.05165779 </v>
   <v>      -0.03252790      -0.04060797       0.03201447 </v>
   <v>       0.05364605      -0.03390033      -0.02426852 </v>
   <v>       0.01018141      -0.01372520       0.03644494 </v>
   <v>      -0.01586182       0.06661807      -0.00000000 </v>
   <v>      -0.03202750      -0.00586441      -0.00000000 </v>
   <v>       0.00348241      -0.00144567      -0.00000000 </v>
   <v>      -0.00152687       0.00660990       0.00278674 </v>
   <v>       0.01058574      -0.05303418      -0.00000000 </v>
  </varray>
  <varray name="stress" >
   <v>      -1.39967368      -0.01223861       0.00000000 </v>
   <v>      -0.01223861      -1.33918569       0.00000000 </v>
   <v>       0.00000000       0.00000000      -1.51363574 </v>
  </varray>
  <energy>
   <i name="e_fr_energy">    -37.91507364 </i>
   <i name="e_wo_entrp">    -37.91507364 </i>
   <i name="e_0_energy">      0.00000000 </i>
  </energy>
  <time name="totalsc">    8.59    9.02</time>
 </calculation>
 <calculation>
  <scstep>
   <time name="dav">    1.54    1.54</time>
   <time name="total">    1.95    1.96</time>
   <energy>
    <i name="alphaZ">     41.78368532 </i>
    <i name="ewald">  30425.34474925 </i>
    <i name="hartreedc"> -49303.23687313 </i>
    <i name="XCdc">   -216.51946019 </i>
    <i name="pawpsdc">  20477.22707659 </i>
    <i name="pawaedc"> -19633.19829091 </i>
    <i name="eentropy">      0.00000000 </i>
    <i name="bandstr">  -1536.06631810 </i>
    <i name="atom">  19706.77397164 </i>
    <i name="e_fr_energy">    -37.89145954 </i>
    <i name="e_wo_entrp">    -37.89145954 </i>
    <i name="e_0_energy">    -37.89145954 </i>
   </energy>
  </scstep>
  <scstep>
   <time name="dav">    1.60    1.61</time>
   <time name="total">    2.01    2.02</time>
   <energy>
    <i name="e_fr_energy">    -37.91387232 </i>
    <i name="e_wo_entrp">    -37.91387232 </i>
    <i name="e_0_energy">    -37.91387232 </i>
   </energy>
  </scstep>
  <scstep>
   <time name="dav">    1.67    1.67</time>
   <time name="total">    2.08    2.08</time>
   <energy>
    <i name="e_fr_energy">    -37.91349805 </i>
    <i name="e_wo_entrp">    -37.91349805 </i>
    <i name="e_0_energy">    -37.91349805 </i>
   </energy>
  </scstep>
  <scstep>
   <time name="dav">    1.59    1.59</time>
   <time name="total">    2.00    2.00</time>
   <energy>
    <i name="e_fr_energy">    -37.91310021 </i>
    <i name="e_wo_entrp">    -37.91310021 </i>
    <i name="e_0_energy">    -37.91310021 </i>
   </energy>
  </scstep>
  <scstep>
   <time name="dav">    1.20    1.20</time>
   <time name="total">    1.44    1.44</time>
   <energy>
    <i name="alphaZ">     41.78368532 </i>
    <i name="ewald">  30425.34474925 </i>
    <i name="hartreedc"> -49302.49472896 </i>
    <i name="XCdc">   -216.54032663 </i>
    <i name="pawpsdc">  20487.95138118 </i>
    <i name="pawaedc"> -19644.10675909 </i>
    <i name="eentropy">      0.00000000 </i>
    <i name="bandstr">  -1536.62515230 </i>
    <i name="atom">  19706.77397164 </i>
    <i name="e_fr_energy">    -37.91317961 </i>
    <i name="e_wo_entrp">    -37.91317961 </i>
    <i name="e_0_energy">    -37.91317961 </i>
   </energy>
  </scstep>
  <structure>
   <crystal>
    <varray name="basis" >
     <v>      19.44187800       0.00000000       0.00000000 </v>
     <v>       0.00000000      19.44187800       0.00000000 </v>
     <v>       0.00000000       0.00000000      19.44187800 </v>
    </varray>
    <i name="volume">   7348.76975492 </i>
    <varray name="rec_basis" >
     <v>       0.05143536       0.00000000       0.00000000 </v>
     <v>       0.00000000       0.05143536       0.00000000 </v>
     <v>       0.00000000       0.00000000       0.05143536 </v>
    </varray>
   </crystal>
   <varray name="positions" >
    <v>       0.58957489       0.40957119       0.62310800 </v>
    <v>       0.46228153       0.61616499       0.38398646 </v>
    <v>       0.38779528       0.64883761       0.50000000 </v>
    <v>       0.35365768       0.52371844       0.42751193 </v>
    <v>       0.63983763       0.46318375       0.50000000 </v>
    <v>       0.35365768       0.52371844       0.57248807 </v>
    <v>       0.48411169       0.51856602       0.50000000 </v>
    <v>       0.45663697       0.34232759       0.61447526 </v>
    <v>       0.46775164       0.47825953       0.64475202 </v>
    <v>       0.58969050       0.55188169       0.39663983 </v>
    <v>       0.46228153       0.61616499       0.61601354 </v>
    <v>       0.45663697       0.34232759       0.38552474 </v>
    <v>       0.58957489       0.40957119       0.37689200 </v>
    <v>       0.46775164       0.47825953       0.35524798 </v>
    <v>       0.54270183       0.65174743       0.50000000 </v>
    <v>       0.39475927       0.40449392       0.50000000 </v>
    <v>       0.67658162       0.60177356       0.50000000 </v>
    <v>       0.58969050       0.55188169       0.60336017 </v>
    <v>       0.53502625       0.36755084       0.50000000 </v>
   </varray>
  </structure>
  <varray name="forces" >
   <v>       0.05445766      -0.05926708       0.11965033 </v>
   <v>      -0.05858245       0.02264543      -0.00275832 </v>
   <v>       0.05189548      -0.10594119       0.00000000 </v>
   <v>      -0.02316084       0.10183222       0.02156624 </v>
   <v>       0.12920936       0.08520971       0.00000000 </v>
   <v>      -0.02316084       0.10183222      -0.02156624 </v>
   <v>      -0.02276655       0.14636303       0.00000000 </v>
   <v>      -0.03699071      -0.07261530       0.00825143 </v>
   <v>       0.01299556      -0.00410312      -0.00060351 </v>
   <v>       0.02298950       0.01163863      -0.00489167 </v>
   <v>      -0.05858245       0.02264543       0.00275832 </v>
   <v>      -0.03699071      -0.07261530      -0.00825143 </v>
   <v>       0.05445766      -0.05926708      -0.11965033 </v>
   <v>       0.01299556      -0.00410312       0.00060351 </v>
   <v>      -0.08284652       0.01215280       0.00000000 </v>
   <v>      -0.03723533      -0.03107725       0.00000000 </v>
   <v>       0.05894204      -0.00844999       0.00000000 </v>
   <v>       0.02298950       0.01163863       0.00489167 </v>
   <v>      -0.04061591      -0.09851865       0.00000000 </v>
  </varray>
  <varray name="stress" >
   <v>      -1.31930850      -0.03397402       0.00000000 </v>
   <v>      -0.03397402      -1.36369915       0.00000000 </v>
   <v>       0.00000000       0.00000000      -1.39375840 </v>
  </varray>
  <energy>
   <i name="e_fr_energy">    -37.91317961 </i>
   <i name="e_wo_entrp">    -37.91317961 </i>
   <i name="e_0_energy">      0.00000000 </i>
  </energy>
  <time name="totalsc">   12.16   12.22</time>
 </calculation>
 <calculation>
  <scstep>
   <time name="dav">    1.54    1.54</time>
   <time name="total">    1.95    1.97</time>
   <energy>
    <i name="alphaZ">     41.78368532 </i>
    <i name="ewald">  30346.82668084 </i>
    <i name="hartreedc"> -49224.36475820 </i>
    <i name="XCdc">   -216.64489869 </i>
    <i name="pawpsdc">  20487.82113903 </i>
    <i name="pawaedc"> -19643.97489100 </i>
    <i name="eentropy">      0.00000000 </i>
    <i name="bandstr">  -1536.14108325 </i>
    <i name="atom">  19706.77397164 </i>
    <i name="e_fr_energy">    -37.92015432 </i>
    <i name="e_wo_entrp">    -37.92015432 </i>
    <i name="e_0_energy">    -37.92015432 </i>
   </energy>
  </scstep>
  <scstep>
   <time name="dav">    1.62    1.62</time>
   <time name="total">    2.03    2.03</time>
   <energy>
    <i name="e_fr_energy">    -37.92478060 </i>
    <i name="e_wo_entrp">    -37.92478060 </i>
    <i name="e_0_energy">    -37.92478060 </i>
   </energy>
  </scstep>
  <scstep>
   <time name="dav">    1.67    1.67</time>
   <time name="total">    1.91    1.91</time>
   <energy>
    <i name="alphaZ">     41.78368532 </i>
    <i name="ewald">  30346.82668084 </i>
    <i name="hartreedc"> -49224.89175035 </i>
    <i name="XCdc">   -216.63000671 </i>
    <i name="pawpsdc">  20479.89658767 </i>
    <i name="pawaedc"> -19635.92007463 </i>
    <i name="eentropy">      0.00000000 </i>
    <i name="bandstr">  -1535.76380968 </i>
    <i name="atom">  19706.77397164 </i>
    <i name="e_fr_energy">    -37.92471590 </i>
    <i name="e_wo_entrp">    -37.92471590 </i>
    <i name="e_0_energy">    -37.92471590 </i>
   </energy>
  </scstep>
  <structure>
   <crystal>
    <varray name="basis" >
     <v>      19.44187800       0.00000000       0.00000000 </v>
     <v>       0.00000000      19.44187800       0.00000000 </v>
     <v>       0.00000000       0.00000000      19.44187800 </v>
    </varray>
    <i name="volume">   7348.76975492 </i>
    <varray name="rec_basis" >
     <v>       0.05143536       0.00000000       0.00000000 </v>
     <v>       0.00000000       0.05143536       0.00000000 </v>
     <v>       0.00000000       0.00000000       0.05143536 </v>
    </varray>
   </crystal>
   <varray name="positions" >
    <v>       0.58983258       0.40929074       0.62367419 </v>
    <v>       0.46200432       0.61627215       0.38397341 </v>
    <v>       0.38804084       0.64833630       0.50000000 </v>
    <v>       0.35354808       0.52420031       0.42761398 </v>
    <v>       0.64044905       0.46358696       0.50000000 </v>
    <v>       0.35354808       0.52420031       0.57238602 </v>
    <v>       0.48400396       0.51925861       0.50000000 </v>
    <v>       0.45646193       0.34198398       0.61451430 </v>
    <v>       0.46781314       0.47824011       0.64474917 </v>
    <v>       0.58979929       0.55193677       0.39661669 </v>
    <v>       0.46200432       0.61627215       0.61602659 </v>
    <v>       0.45646193       0.34198398       0.38548570 </v>
    <v>       0.58983258       0.40929074       0.37632581 </v>
    <v>       0.46781314       0.47824011       0.35525083 </v>
    <v>       0.54230980       0.65180494       0.50000000 </v>
    <v>       0.39458307       0.40434686       0.50000000 </v>
    <v>       0.67686053       0.60173358       0.50000000 </v>
    <v>       0.58979929       0.55193677       0.60338331 </v>
    <v>       0.53483406       0.36708466       0.50000000 </v>
   </varray>
  </structure>
  <varray name="forces" >
   <v>       0.02672966      -0.03439391       0.04337531 </v>
   <v>      -0.02649836       0.00797457      -0.03179509 </v>
   <v>       0.01403348      -0.04491985       0.00000000 </v>
   <v>      -0.01728558       0.05694764       0.00379132 </v>
   <v>       0.04547910      -0.00237798       0.00000000 </v>
   <v>      -0.01728558       0.05694764      -0.00379132 </v>
   <v>      -0.03277215       0.07729403       0.00000000 </v>
   <v>      -0.02302967      -0.03980836       0.00791545 </v>
   <v>       0.01323474      -0.01833296      -0.02386636 </v>
   <v>       0.00694197      -0.00262265      -0.00134720 </v>
   <v>      -0.02649836       0.00797457       0.03179509 </v>
   <v>      -0.02302967      -0.03980836      -0.00791545 </v>
   <v>       0.02672966      -0.03439391      -0.04337531 </v>
   <v>       0.01323474      -0.01833296       0.02386636 </v>
   <v>      -0.02782336       0.01909214       0.00000000 </v>
   <v>      -0.01223445       0.01153062       0.00000000 </v>
   <v>       0.03293977       0.01705441       0.00000000 </v>
   <v>       0.00694197      -0.00262265       0.00134720 </v>
   <v>       0.02019210      -0.01720202       0.00000000 </v>
  </varray>
  <varray name="stress" >
   <v>      -1.42705947      -0.03823624       0.00000000 </v>
   <v>      -0.03823625      -1.45314477       0.00000000 </v>
   <v>       0.00000000       0.00000000      -1.47515058 </v>
  </varray>
  <energy>
   <i name="e_fr_energy">    -37.92471590 </i>
   <i name="e_wo_entrp">    -37.92471590 </i>
   <i name="e_0_energy">      0.00000000 </i>
  </energy>
  <time name="totalsc">    8.56    8.64</time>
 </calculation>
 <calculation>
  <scstep>
   <time name="dav">    1.61    1.61</time>
   <time name="total">    2.02    2.03</time>
   <energy>
    <i name="alphaZ">     41.78368532 </i>
    <i name="ewald">  30307.71507790 </i>
    <i name="hartreedc"> -49186.17118439 </i>
    <i name="XCdc">   -216.67730443 </i>
    <i name="pawpsdc">  20475.03070082 </i>
    <i name="pawaedc"> -19630.97313191 </i>
    <i name="eentropy">      0.00000000 </i>
    <i name="bandstr">  -1535.40772650 </i>
    <i name="atom">  19706.77397164 </i>
    <i name="e_fr_energy">    -37.92591155 </i>
    <i name="e_wo_entrp">    -37.92591155 </i>
    <i name="e_0_energy">    -37.92591155 </i>
   </energy>
  </scstep>
  <scstep>
   <time name="dav">    1.61    1.61</time>
   <time name="total">    2.02    2.02</time>
   <energy>
    <i name="e_fr_energy">    -37.92706213 </i>
    <i name="e_wo_entrp">    -37.92706213 </i>
    <i name="e_0_energy">    -37.92706213 </i>
   </energy>
  </scstep>
  <scstep>
   <time name="dav">    1.27    1.27</time>
   <time name="total">    1.51    1.51</time>
   <energy>
    <i name="alphaZ">     41.78368532 </i>
    <i name="ewald">  30307.71507790 </i>
    <i name="hartreedc"> -49186.43144543 </i>
    <i name="XCdc">   -216.66870341 </i>
    <i name="pawpsdc">  20470.21058494 </i>
    <i name="pawaedc"> -19626.07064235 </i>
    <i name="eentropy">      0.00000000 </i>
    <i name="bandstr">  -1535.23957699 </i>
    <i name="atom">  19706.77397164 </i>
    <i name="e_fr_energy">    -37.92704838 </i>
    <i name="e_wo_entrp">    -37.92704838 </i>
    <i name="e_0_energy">    -37.92704838 </i>
   </energy>
  </scstep>
  <structure>
   <crystal>
    <varray name="basis" >
     <v>      19.44187800       0.00000000       0.00000000 </v>
     <v>       0.00000000      19.44187800       0.00000000 </v>
     <v>       0.00000000       0.00000000      19.44187800 </v>
    </varray>
    <i name="volume">   7348.76975492 </i>
    <varray name="rec_basis" >
     <v>       0.05143536       0.00000000       0.00000000 </v>
     <v>       0.00000000       0.05143536       0.00000000 </v>
     <v>       0.00000000       0.00000000       0.05143536 </v>
    </varray>
   </crystal>
   <varray name="positions" >
    <v>       0.58996178       0.40915013       0.62395806 </v>
    <v>       0.46186534       0.61632588       0.38396687 </v>
    <v>       0.38816397       0.64808495       0.50000000 </v>
    <v>       0.35349313       0.52444190       0.42766515 </v>
    <v>       0.64075560       0.46378912       0.50000000 </v>
    <v>       0.35349313       0.52444190       0.57233485 </v>
    <v>       0.48394995       0.51960586       0.50000000 </v>
    <v>       0.45637417       0.34181170       0.61453388 </v>
    <v>       0.46784397       0.47823038       0.64474774 </v>
    <v>       0.58985383       0.55196438       0.39660508 </v>
    <v>       0.46186534       0.61632588       0.61603313 </v>
    <v>       0.45637417       0.34181170       0.38546612 </v>
    <v>       0.58996178       0.40915013       0.37604194 </v>
    <v>       0.46784397       0.47823038       0.35525226 </v>
    <v>       0.54211325       0.65183377       0.50000000 </v>
    <v>       0.39449473       0.40427313       0.50000000 </v>
    <v>       0.67700037       0.60171353       0.50000000 </v>
    <v>       0.58985383       0.55196438       0.60339492 </v>
    <v>       0.53473770       0.36685092       0.50000000 </v>
   </varray>
  </structure>
  <varray name="forces" >
   <v>       0.01072218      -0.01912144      -0.00062538 </v>
   <v>      -0.00639189       0.00070502      -0.04691818 </v>
   <v>      -0.00683048      -0.00816293      -0.00000000 </v>
   <v>      -0.01423267       0.02786359      -0.00697545 </v>
   <v>      -0.00193710      -0.04870963      -0.00000000 </v>
   <v>      -0.01423267       0.02786359       0.00697545 </v>
   <v>      -0.03658644       0.03615498      -0.00000000 </v>
   <v>      -0.01491765      -0.02037508       0.00541404 </v>
   <v>       0.01338273      -0.02469503      -0.03680751 </v>
   <v>      -0.00264862      -0.01040023       0.00127904 </v>
   <v>      -0.00639189       0.00070502       0.04691818 </v>
   <v>      -0.01491765      -0.02037508      -0.00541404 </v>
   <v>       0.01072218      -0.01912144       0.00062538 </v>
   <v>       0.01338273      -0.02469503       0.03680751 </v>
   <v>       0.00330454       0.02458710      -0.00000000 </v>
   <v>       0.00246281       0.03330088      -0.00000000 </v>
   <v>       0.01687452       0.02923476      -0.00000000 </v>
   <v>      -0.00264862      -0.01040023      -0.00127904 </v>
   <v>       0.05088399       0.02564119      -0.00000000 </v>
  </varray>
  <varray name="stress" >
   <v>      -1.46887995      -0.03917322       0.00000000 </v>
   <v>      -0.03917322      -1.48847281       0.00000000 </v>
   <v>       0.00000000       0.00000000      -1.50724804 </v>
  </varray>
  <energy>
   <i name="e_fr_energy">    -37.92704838 </i>
   <i name="e_wo_entrp">    -37.92704838 </i>
   <i name="e_0_energy">      0.00000000 </i>
  </energy>
  <time name="totalsc">    8.24    8.85</time>
 </calculation>
 <calculation>
  <scstep>
   <time name="dav">    1.58    1.58</time>
   <time name="total">    1.99    2.00</time>
   <energy>
    <i name="alphaZ">     41.78368532 </i>
    <i name="ewald">  30283.50505341 </i>
    <i name="hartreedc"> -49162.45206698 </i>
    <i name="XCdc">   -216.70313799 </i>
    <i name="pawpsdc">  20467.82074835 </i>
    <i name="pawaedc"> -19623.63705924 </i>
    <i name="eentropy">      0.00000000 </i>
    <i name="bandstr">  -1535.01979817 </i>
    <i name="atom">  19706.77397164 </i>
    <i name="e_fr_energy">    -37.92860368 </i>
    <i name="e_wo_entrp">    -37.92860368 </i>
    <i name="e_0_energy">    -37.92860368 </i>
   </energy>
  </scstep>
  <scstep>
   <time name="dav">    1.62    1.63</time>
   <time name="total">    2.03    2.04</time>
   <energy>
    <i name="e_fr_energy">    -37.92948331 </i>
    <i name="e_wo_entrp">    -37.92948331 </i>
    <i name="e_0_energy">    -37.92948331 </i>
   </energy>
  </scstep>
  <scstep>
   <time name="dav">    1.18    1.19</time>
   <time name="total">    1.42    1.43</time>
   <energy>
    <i name="alphaZ">     41.78368532 </i>
    <i name="ewald">  30283.50505341 </i>
    <i name="hartreedc"> -49162.66272285 </i>
    <i name="XCdc">   -216.69677685 </i>
    <i name="pawpsdc">  20465.13877366 </i>
    <i name="pawaedc"> -19620.91169456 </i>
    <i name="eentropy">      0.00000000 </i>
    <i name="bandstr">  -1534.85976369 </i>
    <i name="atom">  19706.77397164 </i>
    <i name="e_fr_energy">    -37.92947393 </i>
    <i name="e_wo_entrp">    -37.92947393 </i>
    <i name="e_0_energy">    -37.92947393 </i>
   </energy>
  </scstep>
  <structure>
   <crystal>
    <varray name="basis" >
     <v>      19.44187800       0.00000000       0.00000000 </v>
     <v>       0.00000000      19.44187800       0.00000000 </v>
     <v>       0.00000000       0.00000000      19.44187800 </v>
    </varray>
    <i name="volume">   7348.76975492 </i>
    <varray name="rec_basis" >
     <v>       0.05143536       0.00000000       0.00000000 </v>
     <v>       0.00000000       0.05143536       0.00000000 </v>
     <v>       0.00000000       0.00000000       0.05143536 </v>
    </varray>
   </crystal>
   <varray name="positions" >
    <v>       0.59003843       0.40902791       0.62400055 </v>
    <v>       0.46180966       0.61633821       0.38372153 </v>
    <v>       0.38814825       0.64800194       0.50000000 </v>
    <v>       0.35341017       0.52462591       0.42763708 </v>
    <v>       0.64079492       0.46356810       0.50000000 </v>
    <v>       0.35341017       0.52462591       0.57236292 </v>
    <v>       0.48375076       0.51985006       0.50000000 </v>
    <v>       0.45628236       0.34167785       0.61456522 </v>
    <v>       0.46791862       0.47810023       0.64455587 </v>
    <v>       0.58984883       0.55191468       0.39660987 </v>
    <v>       0.46180966       0.61633821       0.61627847 </v>
    <v>       0.45628236       0.34167785       0.38543478 </v>
    <v>       0.59003843       0.40902791       0.37599945 </v>
    <v>       0.46791862       0.47810023       0.35544413 </v>
    <v>       0.54209877       0.65196643       0.50000000 </v>
    <v>       0.39449332       0.40443463       0.50000000 </v>
    <v>       0.67711077       0.60186251       0.50000000 </v>
    <v>       0.58984883       0.55191468       0.60339013 </v>
    <v>       0.53498709       0.36694675       0.50000000 </v>
   </varray>
  </structure>
  <varray name="forces" >
   <v>       0.01220810      -0.01829403       0.01249350 </v>
   <v>      -0.00305936       0.00100989      -0.02377873 </v>
[...]
       <r>    -1.0292     0.0000   115.0000 </r>
       <r>    -0.9909     0.0000   115.0000 </r>
       <r>    -0.9525     0.0000   115.0000 </r>
       <r>    -0.9142     0.0000   115.0000 </r>
       <r>    -0.8758     0.0000   115.0000 </r>
       <r>    -0.8375     0.0000   115.0000 </r>
       <r>    -0.7991     0.0000   115.0000 </r>
       <r>    -0.7607     0.0000   115.0000 </r>
       <r>    -0.7224     0.0000   115.0000 </r>
       <r>    -0.6840     0.0000   116.0000 </r>
       <r>    -0.6457     0.0000   116.0000 </r>
       <r>    -0.6073     0.0000   116.0000 </r>
       <r>    -0.5690     0.0000   116.0000 </r>
       <r>    -0.5306     0.0000   117.0000 </r>
       <r>    -0.4923     0.0000   118.0000 </r>
       <r>    -0.4539     0.0000   118.0000 </r>
       <r>    -0.4155     0.0000   119.0000 </r>
       <r>    -0.3772     0.0000   119.0000 </r>
       <r>    -0.3388     0.0000   121.0000 </r>
       <r>    -0.3005     0.0000   121.0000 </r>
       <r>    -0.2621     0.0000   122.0000 </r>
       <r>    -0.2238     0.0000   122.0000 </r>
       <r>    -0.1854     0.0000   122.0000 </r>
       <r>    -0.1470     0.0000   122.0000 </r>
       <r>    -0.1087     0.0000   123.0000 </r>
       <r>    -0.0703     0.0000   124.0000 </r>
       <r>    -0.0320     0.0000   124.0000 </r>
       <r>     0.0064     0.0000   125.0000 </r>
       <r>     0.0447     0.0000   125.0000 </r>
       <r>     0.0831     0.0000   125.0000 </r>
       <r>     0.1214     0.0000   126.0000 </r>
       <r>     0.1598     0.0000   126.0000 </r>
       <r>     0.1982     0.0000   127.0000 </r>
       <r>     0.2365     0.0000   127.0000 </r>
       <r>     0.2749     0.0000   127.0000 </r>
       <r>     0.3132     0.0000   127.0000 </r>
       <r>     0.3516     0.0000   127.0000 </r>
       <r>     0.3899     0.0000   128.0000 </r>
       <r>     0.4283     0.0000   128.0000 </r>
       <r>     0.4667     0.0000   128.0000 </r>
       <r>     0.5050     0.0000   129.0000 </r>
       <r>     0.5434     0.0000   129.0000 </r>
       <r>     0.5817     0.0000   129.0000 </r>
       <r>     0.6201     0.0000   130.0000 </r>
       <r>     0.6584     0.0000   130.0000 </r>
       <r>     0.6968     0.0000   131.0000 </r>
       <r>     0.7351     0.0000   131.0000 </r>
       <r>     0.7735     0.0000   133.0000 </r>
       <r>     0.8119     0.0000   134.0000 </r>
       <r>     0.8502     0.0000   134.0000 </r>
       <r>     0.8886     0.0000   134.0000 </r>
       <r>     0.9269     1.9408   134.0744 </r>
       <r>     0.9653    26.0714   136.0000 </r>
       <r>     1.0036     0.0000   136.0000 </r>
       <r>     1.0420     0.0000   136.0000 </r>
       <r>     1.0804     0.0000   136.0000 </r>
       <r>     1.1187     0.0000   136.0000 </r>
       <r>     1.1571     0.0000   136.0000 </r>
       <r>     1.1954     0.0000   136.0000 </r>
       <r>     1.2338     0.0000   136.0000 </r>
       <r>     1.2721     0.0000   136.0000 </r>
       <r>     1.3105     0.0000   136.0000 </r>
       <r>     1.3488     0.0000   136.0000 </r>
       <r>     1.3872     0.0000   136.0000 </r>
       <r>     1.4256     0.0000   136.0000 </r>
       <r>     1.4639     0.0000   136.0000 </r>
       <r>     1.5023     0.0000   136.0000 </r>
      </set>
      <set comment="spin 2">
       <r>   -10.0046     0.0000     0.0000 </r>
       <r>    -9.9662     0.0000     0.0000 </r>
       <r>    -9.9279     0.0000     0.0000 </r>
       <r>    -9.8895     0.0000     0.0000 </r>
       <r>    -9.8512     0.0000     0.0000 </r>
       <r>    -9.8128     0.0000     0.0000 </r>
       <r>    -9.7744     0.0000     0.0000 </r>
       <r>    -9.7361     0.0000     0.0000 </r>
       <r>    -9.6977     0.0000     0.0000 </r>
       <r>    -9.6594     0.0000     0.0000 </r>
       <r>    -9.6210     0.0000     0.0000 </r>
       <r>    -9.5827     0.0000     0.0000 </r>
       <r>    -9.5443     0.0000     0.0000 </r>
       <r>    -9.5059     0.0000     0.0000 </r>
       <r>    -9.4676     0.0000     0.0000 </r>
       <r>    -9.4292     0.0000     1.0000 </r>
       <r>    -9.3909     0.0000     1.0000 </r>
       <r>    -9.3525     0.0000     1.0000 </r>
       <r>    -9.3142     0.0000     1.0000 </r>
       <r>    -9.2758     0.0000     1.0000 </r>
       <r>    -9.2375     0.0000     1.0000 </r>
       <r>    -9.1991     0.0000     1.0000 </r>
       <r>    -9.1607     0.0000     1.0000 </r>
       <r>    -9.1224     0.0000     1.0000 </r>
       <r>    -9.0840     0.0000     1.0000 </r>
       <r>    -9.0457     0.0000     1.0000 </r>
       <r>    -9.0073     0.0000     2.0000 </r>
       <r>    -8.9690     0.0000     3.0000 </r>
       <r>    -8.9306     0.0000     4.0000 </r>
       <r>    -8.8922     0.0000     5.0000 </r>
       <r>    -8.8539     0.0000     6.0000 </r>
       <r>    -8.8155     0.0000     7.0000 </r>
       <r>    -8.7772     0.0000     7.0000 </r>
       <r>    -8.7388     0.0000     8.0000 </r>
       <r>    -8.7005     0.0000     9.0000 </r>
       <r>    -8.6621     0.0000     9.0000 </r>
       <r>    -8.6238     0.0000    10.0000 </r>
       <r>    -8.5854     0.0000    11.0000 </r>
       <r>    -8.5470     0.0000    13.0000 </r>
       <r>    -8.5087     0.0000    14.0000 </r>
       <r>    -8.4703     0.0000    16.0000 </r>
       <r>    -8.4320     0.0000    17.0000 </r>
       <r>    -8.3936     0.0000    18.0000 </r>
       <r>    -8.3553     0.0000    19.0000 </r>
       <r>    -8.3169     0.0000    21.0000 </r>
       <r>    -8.2785     0.0000    23.0000 </r>
       <r>    -8.2402     0.0000    25.0000 </r>
       <r>    -8.2018     0.0000    26.0000 </r>
       <r>    -8.1635     0.0000    27.0000 </r>
       <r>    -8.1251     0.0000    28.0000 </r>
       <r>    -8.0868     0.0000    29.0000 </r>
       <r>    -8.0484     0.0000    29.0000 </r>
       <r>    -8.0101     0.0000    30.0000 </r>
       <r>    -7.9717     0.0000    32.0000 </r>
       <r>    -7.9333     0.0000    32.0000 </r>
       <r>    -7.8950     0.0000    34.0000 </r>
       <r>    -7.8566     0.0000    34.0000 </r>
       <r>    -7.8183     0.0000    36.0000 </r>
       <r>    -7.7799     0.0000    37.0000 </r>
       <r>    -7.7416     0.0000    37.0000 </r>
       <r>    -7.7032     0.0000    39.0000 </r>
       <r>    -7.6649     0.0000    40.0000 </r>
       <r>    -7.6265     0.0000    41.0000 </r>
       <r>    -7.5881     0.0000    44.0000 </r>
       <r>    -7.5498     0.0000    45.0000 </r>
       <r>    -7.5114     0.0000    46.0000 </r>
       <r>    -7.4731     0.0000    46.0000 </r>
       <r>    -7.4347     0.0000    47.0000 </r>
       <r>    -7.3964     0.0000    48.0000 </r>
       <r>    -7.3580     0.0000    49.0000 </r>
       <r>    -7.3196     0.0000    50.0000 </r>
       <r>    -7.2813     0.0000    50.0000 </r>
       <r>    -7.2429     0.0000    52.0000 </r>
       <r>    -7.2046     0.0000    53.0000 </r>
       <r>    -7.1662    26.0714    55.0000 </r>
       <r>    -7.1279     0.0000    57.0000 </r>
       <r>    -7.0895     0.0000    59.0000 </r>
       <r>    -7.0512     0.0000    59.0000 </r>
       <r>    -7.0128     0.0000    62.0000 </r>
       <r>    -6.9744     0.0000    63.0000 </r>
       <r>    -6.9361     0.0000    66.0000 </r>
       <r>    -6.8977     0.0000    68.0000 </r>
       <r>    -6.8594     0.0000    71.0000 </r>
       <r>    -6.8210     0.0000    71.0000 </r>
       <r>    -6.7827     0.0000    73.0000 </r>
       <r>    -6.7443     0.0000    75.0000 </r>
       <r>    -6.7059     0.0000    77.0000 </r>
       <r>    -6.6676     0.0000    79.0000 </r>
       <r>    -6.6292     0.0000    81.0000 </r>
       <r>    -6.5909     0.0000    83.0000 </r>
       <r>    -6.5525     0.0000    86.0000 </r>
       <r>    -6.5142     0.0000    87.0000 </r>
       <r>    -6.4758     0.0000    89.0000 </r>
       <r>    -6.4375     0.0000    90.0000 </r>
       <r>    -6.3991     0.0000    91.0000 </r>
       <r>    -6.3607     0.0000    93.0000 </r>
       <r>    -6.3224     0.0000    93.0000 </r>
       <r>    -6.2840     0.0000    94.0000 </r>
       <r>    -6.2457     0.0000    95.0000 </r>
       <r>    -6.2073     0.0000    97.0000 </r>
       <r>    -6.1690     0.0000    97.0000 </r>
       <r>    -6.1306     0.0000    97.0000 </r>
       <r>    -6.0922     0.0000    98.0000 </r>
       <r>    -6.0539     0.0000    99.0000 </r>
       <r>    -6.0155     0.0000    99.0000 </r>
       <r>    -5.9772     0.0000    99.0000 </r>
       <r>    -5.9388     0.0000    99.0000 </r>
       <r>    -5.9005     0.0000    99.0000 </r>
       <r>    -5.8621     0.0000    99.0000 </r>
       <r>    -5.8238     0.0000    99.0000 </r>
       <r>    -5.7854     0.0000    99.0000 </r>
       <r>    -5.7470     0.0000    99.0000 </r>
       <r>    -5.7087     0.0000    99.0000 </r>
       <r>    -5.6703     0.0000    99.0000 </r>
       <r>    -5.6320     0.0000    99.0000 </r>
       <r>    -5.5936     0.0000    99.0000 </r>
       <r>    -5.5553     0.0000    99.0000 </r>
       <r>    -5.5169     0.0000    99.0000 </r>
       <r>    -5.4786     0.0000    99.0000 </r>
       <r>    -5.4402     0.0000    99.0000 </r>
       <r>    -5.4018     0.0000    99.0000 </r>
       <r>    -5.3635     0.0000    99.0000 </r>
       <r>    -5.3251     0.0000    99.0000 </r>
       <r>    -5.2868     0.0000    99.0000 </r>
       <r>    -5.2484     0.0000    99.0000 </r>
       <r>    -5.2101     0.0000    99.0000 </r>
       <r>    -5.1717     0.0000    99.0000 </r>
       <r>    -5.1333     0.0000    99.0000 </r>
       <r>    -5.0950     0.0000    99.0000 </r>
       <r>    -5.0566     0.0000    99.0000 </r>
       <r>    -5.0183     0.0000    99.0000 </r>
       <r>    -4.9799     0.0000    99.0000 </r>
       <r>    -4.9416     0.0000    99.0000 </r>
       <r>    -4.9032     0.0000    99.0000 </r>
       <r>    -4.8649     0.0000    99.0000 </r>
       <r>    -4.8265     0.0000   100.0000 </r>
       <r>    -4.7881     0.0000   100.0000 </r>
       <r>    -4.7498     0.0000   100.0000 </r>
       <r>    -4.7114     0.0000   100.0000 </r>
       <r>    -4.6731     0.0000   100.0000 </r>
       <r>    -4.6347     0.0000   100.0000 </r>
       <r>    -4.5964     0.0000   100.0000 </r>
       <r>    -4.5580     0.0000   100.0000 </r>
       <r>    -4.5196     0.0000   102.0000 </r>
       <r>    -4.4813     0.0000   102.0000 </r>
       <r>    -4.4429     0.0000   102.0000 </r>
       <r>    -4.4046     0.0000   102.0000 </r>
       <r>    -4.3662     0.0000   102.0000 </r>
       <r>    -4.3279     0.0000   102.0000 </r>
       <r>    -4.2895     0.0000   102.0000 </r>
       <r>    -4.2512     0.0000   102.0000 </r>
       <r>    -4.2128     0.0000   102.0000 </r>
       <r>    -4.1744     0.0000   102.0000 </r>
       <r>    -4.1361     0.0000   104.0000 </r>
       <r>    -4.0977     0.0000   104.0000 </r>
       <r>    -4.0594     0.0000   104.0000 </r>
       <r>    -4.0210     0.0000   104.0000 </r>
       <r>    -3.9827     0.0000   104.0000 </r>
       <r>    -3.9443     0.0000   104.0000 </r>
       <r>    -3.9059     0.0000   104.0000 </r>
       <r>    -3.8676     0.0000   104.0000 </r>
       <r>    -3.8292     0.0000   104.0000 </r>
       <r>    -3.7909     0.0000   104.0000 </r>
       <r>    -3.7525     0.0000   104.0000 </r>
       <r>    -3.7142     0.0000   104.0000 </r>
       <r>    -3.6758     0.0000   104.0000 </r>
       <r>    -3.6375     0.0000   104.0000 </r>
       <r>    -3.5991     0.0000   104.0000 </r>
       <r>    -3.5607     0.0000   104.0000 </r>
       <r>    -3.5224     0.0000   104.0000 </r>
       <r>    -3.4840     0.0000   104.0000 </r>
       <r>    -3.4457     0.0000   104.0000 </r>
       <r>    -3.4073     0.0000   104.0000 </r>
       <r>    -3.3690     0.0000   105.0000 </r>
       <r>    -3.3306     0.0000   105.0000 </r>
       <r>    -3.2923     0.0000   105.0000 </r>
       <r>    -3.2539     0.0000   105.0000 </r>
       <r>    -3.2155     0.0000   105.0000 </r>
       <r>    -3.1772     0.0000   105.0000 </r>
       <r>    -3.1388     0.0000   105.0000 </r>
       <r>    -3.1005     0.0000   105.0000 </r>
       <r>    -3.0621     0.0000   105.0000 </r>
       <r>    -3.0238     0.0000   105.0000 </r>
       <r>    -2.9854     0.0000   105.0000 </r>
       <r>    -2.9470     0.0000   105.0000 </r>
       <r>    -2.9087     0.0000   105.0000 </r>
       <r>    -2.8703     0.0000   105.0000 </r>
       <r>    -2.8320     0.0000   105.0000 </r>
       <r>    -2.7936     0.0000   105.0000 </r>
       <r>    -2.7553     0.0000   105.0000 </r>
       <r>    -2.7169     0.0000   105.0000 </r>
       <r>    -2.6786     0.0000   105.0000 </r>
       <r>    -2.6402     0.0000   106.0000 </r>
       <r>    -2.6018     0.0000   106.0000 </r>
       <r>    -2.5635     0.0000   106.0000 </r>
       <r>    -2.5251    26.0714   107.0000 </r>
       <r>    -2.4868     0.0000   107.0000 </r>
       <r>    -2.4484     0.0000   108.0000 </r>
       <r>    -2.4101     0.0000   108.0000 </r>
       <r>    -2.3717     0.0000   109.0000 </r>
       <r>    -2.3333     0.0000   109.0000 </r>
       <r>    -2.2950     0.0000   110.0000 </r>
       <r>    -2.2566     0.0000   110.0000 </r>
       <r>    -2.2183     0.0000   110.0000 </r>
       <r>    -2.1799     0.0000   110.0000 </r>
       <r>    -2.1416     0.0000   110.0000 </r>
       <r>    -2.1032     0.0000   110.0000 </r>
       <r>    -2.0649     0.0000   112.0000 </r>
       <r>    -2.0265     0.0000   112.0000 </r>
       <r>    -1.9881     0.0000   112.0000 </r>
       <r>    -1.9498     0.0000   112.0000 </r>
       <r>    -1.9114     0.0000   113.0000 </r>
       <r>    -1.8731     0.0000   113.0000 </r>
       <r>    -1.8347     0.0000   113.0000 </r>
       <r>    -1.7964     0.0000   113.0000 </r>
       <r>    -1.7580     0.0000   113.0000 </r>
       <r>    -1.7196     0.0000   113.0000 </r>
       <r>    -1.6813     0.0000   113.0000 </r>
       <r>    -1.6429     0.0000   113.0000 </r>
       <r>    -1.6046     0.0000   114.0000 </r>
       <r>    -1.5662     0.0000   114.0000 </r>
       <r>    -1.5279     0.0000   114.0000 </r>
       <r>    -1.4895     0.0000   114.0000 </r>
       <r>    -1.4512     0.0000   114.0000 </r>
       <r>    -1.4128     0.0000   115.0000 </r>
       <r>    -1.3744     0.0000   115.0000 </r>
       <r>    -1.3361     0.0000   115.0000 </r>
       <r>    -1.2977     0.0000   115.0000 </r>
       <r>    -1.2594     0.0000   115.0000 </r>
       <r>    -1.2210     0.0000   115.0000 </r>
       <r>    -1.1827     0.0000   115.0000 </r>
       <r>    -1.1443     0.0000   115.0000 </r>
       <r>    -1.1059     0.0000   115.0000 </r>
       <r>    -1.0676     0.0000   115.0000 </r>
       <r>    -1.0292     0.0000   115.0000 </r>
       <r>    -0.9909     0.0000   115.0000 </r>
       <r>    -0.9525     0.0000   115.0000 </r>
       <r>    -0.9142     0.0000   115.0000 </r>
       <r>    -0.8758     0.0000   115.0000 </r>
       <r>    -0.8375     0.0000   115.0000 </r>
       <r>    -0.7991     0.0000   115.0000 </r>
       <r>    -0.7607     0.0000   115.0000 </r>
       <r>    -0.7224     0.0000   115.0000 </r>
       <r>    -0.6840     0.0000   115.0000 </r>
       <r>    -0.6457     0.0000   116.0000 </r>
       <r>    -0.6073     0.0000   116.0000 </r>
       <r>    -0.5690     0.0000   116.0000 </r>
       <r>    -0.5306     0.0000   116.0000 </r>
       <r>    -0.4923     0.0000   116.0000 </r>
       <r>    -0.4539     0.0000   118.0000 </r>
       <r>    -0.4155     0.0000   118.0000 </r>
       <r>    -0.3772     0.0000   118.0000 </r>
       <r>    -0.3388     0.0000   119.0000 </r>
       <r>    -0.3005     0.0000   120.0000 </r>
       <r>    -0.2621     0.0000   121.0000 </r>
       <r>    -0.2238     0.0000   121.0000 </r>
       <r>    -0.1854     0.0000   122.0000 </r>
       <r>    -0.1470     0.0000   122.0000 </r>
       <r>    -0.1087     0.0000   122.0000 </r>
       <r>    -0.0703     0.0007   122.0000 </r>
       <r>    -0.0320     0.0000   124.0000 </r>
       <r>     0.0064     0.0000   124.0000 </r>
       <r>     0.0447     0.0000   125.0000 </r>
       <r>     0.0831     0.0000   125.0000 </r>
       <r>     0.1214     0.0000   125.0000 </r>
       <r>     0.1598     0.0000   125.0000 </r>
       <r>     0.1982     0.0000   126.0000 </r>
       <r>     0.2365     0.0000   127.0000 </r>
       <r>     0.2749     0.0000   127.0000 </r>
       <r>     0.3132     0.0000   127.0000 </r>
       <r>     0.3516     0.0000   127.0000 </r>
       <r>     0.3899     0.0000   127.0000 </r>
       <r>     0.4283     0.0000   127.0000 </r>
       <r>     0.4667     0.0000   128.0000 </r>
       <r>     0.5050     0.0000   128.0000 </r>
       <r>     0.5434     0.0000   128.0000 </r>
       <r>     0.5817     0.0000   129.0000 </r>
       <r>     0.6201     0.0000   129.0000 </r>
       <r>     0.6584     0.0000   129.0000 </r>
       <r>     0.6968     0.0000   130.0000 </r>
       <r>     0.7351     0.0000   130.0000 </r>
       <r>     0.7735     0.0000   131.0000 </r>
       <r>     0.8119    26.0714   134.0000 </r>
       <r>     0.8502     0.0000   134.0000 </r>
       <r>     0.8886     0.0000   134.0000 </r>
       <r>     0.9269     0.0000   134.0000 </r>
       <r>     0.9653     0.0000   135.0000 </r>
       <r>     1.0036     0.0000   136.0000 </r>
       <r>     1.0420     0.0000   136.0000 </r>
       <r>     1.0804     0.0000   136.0000 </r>
       <r>     1.1187     0.0000   136.0000 </r>
       <r>     1.1571     0.0000   136.0000 </r>
       <r>     1.1954     0.0000   136.0000 </r>
       <r>     1.2338     0.0000   136.0000 </r>
       <r>     1.2721     0.0000   136.0000 </r>
       <r>     1.3105     0.0000   136.0000 </r>
       <r>     1.3488     0.0000   136.0000 </r>
       <r>     1.3872     0.0000   136.0000 </r>
       <r>     1.4256     0.0000   136.0000 </r>
       <r>     1.4639     0.0000   136.0000 </r>
       <r>     1.5023     0.0000   136.0000 </r>
      </set>
     </set>
    </array>
   </total>
  </dos>
 </calculation>
 <structure name="finalpos" >
  <crystal>
   <varray name="basis" >
    <v>      19.44187800       0.00000000       0.00000000 </v>
    <v>       0.00000000      19.44187800       0.00000000 </v>
    <v>       0.00000000       0.00000000      19.44187800 </v>
   </varray>
   <i name="volume">   7348.76975492 </i>
   <varray name="rec_basis" >
    <v>       0.05143536       0.00000000       0.00000000 </v>
    <v>       0.00000000       0.05143536       0.00000000 </v>
    <v>       0.00000000       0.00000000       0.05143536 </v>
   </varray>
  </crystal>
  <varray name="positions" >
   <v>       0.59229470       0.40722390       0.62454548 </v>
   <v>       0.46199674       0.61512474       0.38147411 </v>
   <v>       0.38981194       0.65089298       0.50000000 </v>
   <v>       0.34976616       0.52871064       0.42748811 </v>
   <v>       0.64610823       0.46215273       0.50000000 </v>
   <v>       0.34976616       0.52871064       0.57251189 </v>
   <v>       0.47878343       0.52828872       0.50000000 </v>
   <v>       0.45703614       0.33600344       0.61141614 </v>
   <v>       0.46667322       0.47316383       0.63513878 </v>
   <v>       0.58897898       0.54971897       0.39958941 </v>
   <v>       0.46199674       0.61512474       0.61852589 </v>
   <v>       0.45703614       0.33600344       0.38858386 </v>
   <v>       0.59229470       0.40722390       0.37545452 </v>
   <v>       0.46667322       0.47316383       0.36486122 </v>
   <v>       0.54268196       0.65525364       0.50000000 </v>
   <v>       0.39613052       0.40860879       0.50000000 </v>
   <v>       0.67736020       0.60278519       0.50000000 </v>
   <v>       0.58897898       0.54971897       0.60041059 </v>
   <v>       0.53563183       0.37212692       0.50000000 </v>
  </varray>
 </structure>
</modeling>
