unknown system                          
           1
    22.402747    0.000000    0.000000
     0.000000   22.402747    0.000000
     0.000000    0.000000   22.402747
   Ag
  22
Direct configuration=     1
   0.56648854  0.38420134  0.46541098
   0.46795866  0.46076178  0.50565275
   0.69608492  0.55366315  0.48750403
   0.55784219  0.42755554  0.59482998
   0.67185169  0.43561834  0.52513888
   0.46943272  0.34241272  0.54476907
   0.62918715  0.54002732  0.60669250
   0.43440398  0.44137411  0.62566321
   0.35194552  0.41650707  0.51388638
   0.37770964  0.53716290  0.55319317
   0.38745728  0.49802591  0.41434243
   0.35293201  0.61549843  0.45549394
   0.44444123  0.37589053  0.41634312
   0.27637090  0.51334385  0.47844818
   0.47652301  0.58297924  0.45138909
   0.51469297  0.47879894  0.38306291
   0.57900857  0.51281695  0.49595769
   0.64225947  0.46642769  0.39720051
   0.50098992  0.54817423  0.60355936
   0.59585003  0.58837318  0.40016957
   0.43885598  0.64826615  0.55165349
   0.56771361  0.63212063  0.52963878
Direct configuration=     2
   0.56643439  0.38433722  0.46545654
   0.46795513  0.46073843  0.50564976
   0.69598042  0.55358469  0.48751879
   0.55778057  0.42762956  0.59472030
   0.67173270  0.43570907  0.52508709
   0.46944785  0.34256211  0.54472614
   0.62911240  0.53999910  0.60658382
   0.43447056  0.44142036  0.62552238
   0.35204292  0.41662142  0.51385314
   0.37778857  0.53712079  0.55310243
   0.38752346  0.49804061  0.41447246
   0.35299904  0.61538497  0.45555475
   0.44449397  0.37600084  0.41642202
   0.27650301  0.51333923  0.47845195
   0.47653866  0.58290683  0.45146474
   0.51468377  0.47879750  0.38320815
   0.57901550  0.51281686  0.49595552
   0.64216557  0.46647890  0.39731381
   0.50099605  0.54812504  0.60343883
   0.59581936  0.58826719  0.40027194
   0.43887966  0.64813546  0.55159635
   0.56763645  0.63198384  0.52962908
Direct configuration=     3
   0.56627195  0.38474486  0.46559320
   0.46794453  0.46066840  0.50564080
   0.69566691  0.55334929  0.48756306
   0.55759570  0.42785163  0.59439127
   0.67137574  0.43598126  0.52493170
   0.46949322  0.34301028  0.54459736
   0.62888816  0.53991443  0.60625780
   0.43467028  0.44155910  0.62509990
   0.35233510  0.41696447  0.51375341
   0.37802535  0.53699447  0.55283021
   0.38772201  0.49808470  0.41486257
   0.35320016  0.61504459  0.45573718
   0.44465217  0.37633175  0.41665871
   0.27689931  0.51332534  0.47846325
   0.47658561  0.58268958  0.45169169
   0.51465616  0.47879320  0.38364388
   0.57903630  0.51281659  0.49594904
   0.64188386  0.46663255  0.39765372
   0.50101445  0.54797746  0.60307727
   0.59572737  0.58794920  0.40057907
   0.43895072  0.64774339  0.55142492
   0.56740495  0.63157346  0.52959998
Direct configuration=     4
   0.56594706  0.38556014  0.46586652
   0.46792334  0.46052834  0.50562287
   0.69503988  0.55287851  0.48765160
   0.55722597  0.42829577  0.59373320
   0.67066182  0.43652564  0.52462092
   0.46958398  0.34390661  0.54433981
   0.62843967  0.53974510  0.60560576
   0.43506974  0.44183658  0.62425493
   0.35291947  0.41765056  0.51355396
   0.37849891  0.53674184  0.55228578
   0.38811909  0.49817288  0.41564280
   0.35360238  0.61436383  0.45610204
   0.44496858  0.37699357  0.41713211
   0.27769192  0.51329756  0.47848585
   0.47667951  0.58225508  0.45214560
   0.51460093  0.47878459  0.38451532
   0.57907789  0.51281603  0.49593608
   0.64132045  0.46693984  0.39833354
   0.50105125  0.54768232  0.60235414
   0.59554338  0.58731324  0.40119332
   0.43909282  0.64695926  0.55108207
   0.56694195  0.63075271  0.52954178
Direct configuration=     5
   0.56529728  0.38719069  0.46641317
   0.46788097  0.46024821  0.50558702
   0.69378583  0.55193693  0.48782869
   0.55648650  0.42918406  0.59241706
   0.66923398  0.43761441  0.52399937
   0.46976548  0.34569929  0.54382471
   0.62754270  0.53940643  0.60430168
   0.43586865  0.44239154  0.62256500
   0.35408820  0.41902275  0.51315505
   0.37944604  0.53623657  0.55119691
   0.38891326  0.49834924  0.41720324
   0.35440683  0.61300233  0.45683176
   0.44560139  0.37831722  0.41807889
   0.27927713  0.51324202  0.47853106
   0.47686730  0.58138609  0.45305342
   0.51449049  0.47876736  0.38625821
   0.57916108  0.51281493  0.49591014
   0.64019363  0.46755441  0.39969318
   0.50112485  0.54709204  0.60090789
   0.59517541  0.58604131  0.40242181
   0.43937704  0.64539100  0.55039636
   0.56601596  0.62911120  0.52942539
Direct configuration=     6
   0.56546543  0.38676872  0.46627170
   0.46789193  0.46032070  0.50559629
   0.69411036  0.55218060  0.48778286
   0.55667786  0.42895418  0.59275765
   0.66960348  0.43733265  0.52416022
   0.46971851  0.34523537  0.54395801
   0.62777482  0.53949407  0.60463915
   0.43566190  0.44224792  0.62300233
   0.35378575  0.41866765  0.51325828
   0.37920094  0.53636732  0.55147869
   0.38870774  0.49830360  0.41679942
   0.35419865  0.61335466  0.45664292
   0.44543763  0.37797468  0.41783388
   0.27886690  0.51325639  0.47851936
   0.47681870  0.58161097  0.45281849
   0.51451907  0.47877182  0.38580717
   0.57913955  0.51281521  0.49591686
   0.64048524  0.46739537  0.39934133
   0.50110580  0.54724479  0.60128216
   0.59527063  0.58637046  0.40210390
   0.43930349  0.64579685  0.55057381
   0.56625560  0.62953600  0.52945551
Direct configuration=     7
   0.56542708  0.38691900  0.46634268
   0.46829513  0.46072914  0.50551565
   0.69412856  0.55231677  0.48776741
   0.55672098  0.42908872  0.59255037
   0.66947011  0.43712331  0.52422741
   0.46971425  0.34522745  0.54393916
   0.62772833  0.53946735  0.60455060
   0.43560553  0.44234611  0.62294406
   0.35383199  0.41864955  0.51323441
   0.37939643  0.53630669  0.55147674
   0.38884807  0.49831351  0.41690030
   0.35432784  0.61329143  0.45667376
   0.44545237  0.37800318  0.41784582
   0.27898304  0.51324009  0.47849481
   0.47692474  0.58138419  0.45289111
   0.51447779  0.47885819  0.38605879
   0.57852351  0.51269701  0.49604909
   0.64046250  0.46734144  0.39935670
   0.50106234  0.54714076  0.60103087
   0.59515326  0.58640210  0.40212041
   0.43931663  0.64566695  0.55056221
   0.56614951  0.62948708  0.52946764
Direct configuration=     8
   0.56539252  0.38705443  0.46640664
   0.46865850  0.46109723  0.50544297
   0.69414495  0.55243948  0.48775348
   0.55675985  0.42920996  0.59236357
   0.66934992  0.43693465  0.52428796
   0.46971040  0.34522031  0.54392217
   0.62768642  0.53944327  0.60447079
   0.43555473  0.44243460  0.62289154
   0.35387366  0.41863325  0.51321290
   0.37957260  0.53625204  0.55147498
   0.38897454  0.49832244  0.41699122
   0.35444428  0.61323444  0.45670156
   0.44546567  0.37802886  0.41785658
   0.27908771  0.51322540  0.47847269
   0.47702031  0.58117982  0.45295655
   0.51444059  0.47893603  0.38628556
   0.57796831  0.51259048  0.49616826
   0.64044200  0.46729283  0.39937055
   0.50102316  0.54704701  0.60080441
   0.59504747  0.58643062  0.40213529
   0.43932848  0.64554988  0.55055176
   0.56605391  0.62944298  0.52947857
Direct configuration=     9
   0.56539664  0.38702190  0.46640389
   0.46860532  0.46114960  0.50544928
   0.69400760  0.55246715  0.48776412
   0.55682417  0.42921591  0.59233747
   0.66925637  0.43682996  0.52432380
   0.46967944  0.34524470  0.54390006
   0.62771053  0.53943692  0.60442020
   0.43547295  0.44246363  0.62288168
   0.35400294  0.41856854  0.51320118
   0.37964969  0.53620214  0.55152793
   0.38902168  0.49829261  0.41698814
   0.35454080  0.61325415  0.45668486
   0.44544783  0.37801844  0.41787286
   0.27913586  0.51320383  0.47844744
   0.47704341  0.58115318  0.45296201
   0.51444405  0.47898712  0.38629959
   0.57798717  0.51265857  0.49619593
   0.64044165  0.46726976  0.39940116
   0.50098690  0.54701936  0.60072273
   0.59497775  0.58647147  0.40214132
   0.43932406  0.64554950  0.55057741
   0.56604320  0.62952156  0.52949695
Direct configuration=    10
   0.56540755  0.38693572  0.46639660
   0.46846439  0.46128835  0.50546599
   0.69364363  0.55254045  0.48779230
   0.55699462  0.42923167  0.59226832
   0.66900847  0.43655256  0.52441877
   0.46959740  0.34530936  0.54384147
   0.62777440  0.53942010  0.60428616
   0.43525626  0.44254054  0.62285553
   0.35434554  0.41839706  0.51317012
   0.37985397  0.53606991  0.55166825
   0.38914659  0.49821356  0.41697996
   0.35479656  0.61330638  0.45664060
   0.44540057  0.37799083  0.41791599
   0.27926345  0.51314668  0.47838055
   0.47710463  0.58108261  0.45297647
   0.51445320  0.47912252  0.38633680
   0.57803713  0.51283900  0.49626924
   0.64044071  0.46720861  0.39948230
   0.50089080  0.54694611  0.60050628
   0.59479298  0.58657972  0.40215730
   0.43931234  0.64554849  0.55064536
   0.56601483  0.62972977  0.52954564
Direct configuration=    11
   0.56535314  0.38693220  0.46638597
   0.46864132  0.46129667  0.50545324
   0.69349878  0.55257240  0.48782299
   0.55696769  0.42923050  0.59223548
   0.66887939  0.43643139  0.52444634
   0.46955852  0.34537154  0.54382341
   0.62782745  0.53943330  0.60426220
   0.43520686  0.44252955  0.62286397
   0.35443019  0.41826693  0.51314081
   0.37981927  0.53608730  0.55170189
   0.38915682  0.49819633  0.41693316
   0.35494368  0.61328470  0.45664573
   0.44541244  0.37799499  0.41793477
   0.27942595  0.51309467  0.47835548
   0.47712854  0.58111670  0.45302779
   0.51447812  0.47914298  0.38636564
   0.57796031  0.51284899  0.49625740
   0.64041261  0.46719215  0.39955171
   0.50091558  0.54691928  0.60040903
   0.59469523  0.58664470  0.40213463
   0.43930075  0.64555987  0.55066848
   0.56598735  0.62985287  0.52957989
Direct configuration=    12
   0.56528657  0.38692790  0.46637295
   0.46885783  0.46130685  0.50543764
   0.69332153  0.55261149  0.48786055
   0.55693473  0.42922908  0.59219530
   0.66872143  0.43628311  0.52448008
   0.46951095  0.34544762  0.54380130
   0.62789237  0.53944945  0.60423287
   0.43514642  0.44251610  0.62287430
   0.35453377  0.41810768  0.51310494
   0.37977680  0.53610858  0.55174306
   0.38916934  0.49817525  0.41687590
   0.35512370  0.61325817  0.45665200
   0.44542697  0.37800009  0.41795775
   0.27962480  0.51303103  0.47832482
   0.47715779  0.58115842  0.45309058
   0.51450862  0.47916802  0.38640092
   0.57786632  0.51286121  0.49624291
   0.64037823  0.46717200  0.39963665
   0.50094591  0.54688646  0.60029003
   0.59457562  0.58672421  0.40210688
   0.43928657  0.64557379  0.55069676
   0.56595373  0.63000349  0.52962179
Direct configuration=    13
   0.56523151  0.38687294  0.46632101
   0.46882610  0.46130816  0.50543342
   0.69312885  0.55261095  0.48792790
   0.55687418  0.42920601  0.59222530
   0.66855021  0.43619165  0.52449606
   0.46943360  0.34548928  0.54380636
   0.62795874  0.53947599  0.60418240
   0.43511298  0.44251295  0.62285173
   0.35471981  0.41796867  0.51305840
   0.37974824  0.53606208  0.55176432
   0.38925125  0.49813531  0.41683566
   0.35529849  0.61324189  0.45664698
   0.44544201  0.37801949  0.41796369
   0.27984772  0.51292950  0.47828779
   0.47717597  0.58122089  0.45316428
   0.51452832  0.47918630  0.38638653
   0.57788799  0.51297752  0.49623419
   0.64034478  0.46717753  0.39973106
   0.50099357  0.54687267  0.60018921
   0.59444441  0.58679963  0.40207511
   0.43926461  0.64561489  0.55075395
   0.56593665  0.63012570  0.52966463
Direct configuration=    14
   0.56521983  0.38686127  0.46630998
   0.46881937  0.46130844  0.50543253
   0.69308796  0.55261083  0.48794219
   0.55686133  0.42920111  0.59223167
   0.66851388  0.43617225  0.52449944
   0.46941719  0.34549812  0.54380744
   0.62797282  0.53948163  0.60417168
   0.43510588  0.44251228  0.62284695
   0.35475929  0.41793917  0.51304853
   0.37974217  0.53605221  0.55176884
   0.38926864  0.49812683  0.41682712
   0.35533558  0.61323844  0.45664591
   0.44544520  0.37802361  0.41796495
   0.27989503  0.51290795  0.47827994
   0.47717982  0.58123415  0.45317992
   0.51453250  0.47919018  0.38638348
   0.57789259  0.51300220  0.49623233
   0.64033768  0.46717870  0.39975109
   0.50100369  0.54686975  0.60016782
   0.59441657  0.58681563  0.40206837
   0.43925995  0.64562362  0.55076608
   0.56593302  0.63015164  0.52967372
