 vasp.5.3.5 31Mar14 (build Feb 01 2018 12:10:03) gamma-only                     
  
 executed on             LinuxIFC date 2019.03.21  15:30:00
 running on   32 total cores
 distrk:  each k-point on   32 cores,    1 groups
 distr:  one band on NCORES_PER_BAND=   8 cores,    4 groups


--------------------------------------------------------------------------------------------------------


 INCAR:
 POTCAR:    PAW_PBE Ag 02Apr2005                  
 POTCAR:    PAW_PBE Ag 02Apr2005                  
   VRHFIN =Ag : s1 d10                                                          
   LEXCH  = PE                                                                  
   EATOM  =  1037.2675 eV,   76.2370 Ry                                         
                                                                                
   TITEL  = PAW_PBE Ag 02Apr2005                                                
   LULTRA =        F    use ultrasoft PP ?                                      
   IUNSCR =        1    unscreen: 0-lin 1-nonlin 2-no                           
   RPACOR =    2.000    partial core radius                                     
   POMASS =  107.868; ZVAL   =   11.000    mass and valenz                      
   RCORE  =    2.500    outmost cutoff radius                                   
   RWIGS  =    2.840; RWIGS  =    1.503    wigner-seitz radius (au A)           
   ENMAX  =  249.844; ENMIN  =  187.383 eV                                      
   ICORE  =        3    local potential                                         
   LCOR   =        T    correct aug charges                                     
   LPAW   =        T    paw PP                                                  
   EAUG   =  412.496                                                            
   DEXC   =    0.000                                                            
   RMAX   =    2.560    core radius for proj-oper                               
   RAUG   =    1.300    factor for augmentation sphere                          
   RDEP   =    2.576    radius for radial grids                                 
   RDEPT  =    2.072    core radius for aug-charge                              
                                                                                
   Atomic configuration                                                         
   12 entries                                                                   
     n  l   j            E        occ.                                          
     1  0  0.50    -25324.9161   2.0000                                         
     2  0  0.50     -3728.5341   2.0000                                         
     2  1  1.50     -3344.0404   6.0000                                         
     3  0  0.50      -683.5581   2.0000                                         
     3  1  1.50      -557.3225   6.0000                                         
     3  2  2.50      -358.3853  10.0000                                         
     4  0  0.50       -95.0341   2.0000                                         
     4  1  1.50       -58.5511   6.0000                                         
     4  2  2.50        -7.4440  10.0000                                         
     5  0  0.50        -4.4045   1.0000                                         
     5  1  0.50        -1.3606   0.0000                                         
     4  3  2.50        -1.3606   0.0000                                         
   Description                                                                  
     l       E           TYP  RCUT    TYP  RCUT                                 
     2     -7.4439781     23  2.400                                             
     2     -8.8045607     23  2.400                                             
     0     -4.4044681     23  2.400                                             
     0      1.9520038     23  2.400                                             
     1     -1.3605826     23  2.500                                             
     1     27.2116520     23  2.500                                             
     3     -4.0817478     23  2.400                                             
  local pseudopotential read in
  partial core-charges read in
  partial kinetic energy density read in
  atomic valenz-charges read in
  non local Contribution for L=           2  read in
    real space projection operators read in
  non local Contribution for L=           2  read in
    real space projection operators read in
  non local Contribution for L=           0  read in
    real space projection operators read in
  non local Contribution for L=           0  read in
    real space projection operators read in
  non local Contribution for L=           1  read in
    real space projection operators read in
  non local Contribution for L=           1  read in
    real space projection operators read in
    PAW grid and wavefunctions read in
 
   number of l-projection  operators is LMAX  =           6
   number of lm-projection operators is LMMAX =          18
 
  PAW_PBE Ag 02Apr2005                  :
 energy of atom  1       EATOM=-1037.2675
 kinetic energy error for atom=    0.0689 (will be added to EATOM!!)
 
 
 POSCAR: Ti11, -65.47539081 <s> Ag </s>          
  positions in direct lattice
  No initial velocities read in
 exchange correlation table for  LEXCH =        8
   RHO(1)=    0.500       N(1)  =     2000
   RHO(2)=  100.500       N(2)  =     4000
 


--------------------------------------------------------------------------------------------------------


 ion  position               nearest neighbor table
   1  0.609  0.510  0.529-   4 2.40   6 2.49   3 2.52   5 2.70   2 2.71   7 3.05  11 3.13
   2  0.537  0.563  0.408-   1 2.71   4 2.71  10 2.72  11 2.72   3 2.93   8 2.93
   3  0.611  0.649  0.524-  11 2.45   1 2.52   6 2.74   2 2.93
   4  0.540  0.421  0.458-   1 2.40   9 2.49   8 2.52   5 2.69   2 2.71   7 3.05  10 3.13
   5  0.538  0.404  0.606-   7 2.36   4 2.69   1 2.70   9 3.09   6 3.10
   6  0.562  0.569  0.643-   1 2.49  11 2.70   7 2.71   3 2.74   5 3.10
   7  0.449  0.495  0.579-   5 2.36  11 2.52  10 2.53   6 2.71   9 2.71   1 3.05   4 3.05
   8  0.447  0.439  0.356-  10 2.44   4 2.52   9 2.75   2 2.93
   9  0.414  0.379  0.492-   4 2.49  10 2.70   7 2.71   8 2.75   5 3.09
  10  0.399  0.522  0.451-   8 2.44   7 2.53   9 2.70   2 2.72  11 2.75   4 3.13
  11  0.478  0.623  0.533-   3 2.45   7 2.52   6 2.70   2 2.72  10 2.75   1 3.13
 
  LATTYP: Found a simple cubic cell.
 ALAT       =    18.1117640401
  
  Lattice vectors:
  
 A1 = (  18.1117640401,   0.0000000000,   0.0000000000)
 A2 = (   0.0000000000,  18.1117640401,   0.0000000000)
 A3 = (   0.0000000000,   0.0000000000,  18.1117640401)


Analysis of symmetry for initial positions (statically):
=====================================================================
 Subroutine PRICEL returns:
 Original cell was already a primitive cell.
 

 Routine SETGRP: Setting up the symmetry group for a 
 simple cubic supercell.


 Subroutine GETGRP returns: Found  1 space group operations
 (whereof  1 operations were pure point group operations)
 out of a pool of 48 trial point group operations.


The static configuration has the point symmetry C_1 .


Analysis of symmetry for dynamics (positions and initial velocities):
=====================================================================
 Subroutine PRICEL returns:
 Original cell was already a primitive cell.
 

 Routine SETGRP: Setting up the symmetry group for a 
 simple cubic supercell.


 Subroutine GETGRP returns: Found  1 space group operations
 (whereof  1 operations were pure point group operations)
 out of a pool of 48 trial point group operations.


The dynamic configuration has the point symmetry C_1 .


Analysis of magnetic symmetry:
=====================================================================
 Subroutine PRICEL returns:
 Original cell was already a primitive cell.
 

 Subroutine MAGSYM returns: Found  1 space group operations
 (whereof  1 operations were pure point group operations)
 out of a pool of  1 trial space group operations
 (whereof  1 operations were pure point group operations)
 and found also     1 'primitive' translations


The magnetic configuration has the point symmetry C_1 .
 
 
 KPOINTS: Gamma-point only                        
  k-points in reciprocal lattice
Space group operators:
 irot       det(A)        alpha          n_x          n_y          n_z        tau_x        tau_y        tau_z
    1     1.000000     0.000000     1.000000     0.000000     0.000000     0.000000     0.000000     0.000000


--------------------------------------------------------------------------------------------------------




 Dimension of arrays:
   k-points           NKPTS =      1   k-points in BZ     NKDIM =      1   number of bands    NBANDS=     80
   number of dos      NEDOS =    301   number of ions     NIONS =     11
   non local maximal  LDIM  =      6   non local SUM 2l+1 LMDIM =     18
   total plane-waves  NPLWV = 343000
   max r-space proj   IRMAX =      1   max aug-charges    IRDMAX=   3038
   dimension x,y,z NGX =    70 NGY =   70 NGZ =   70
   dimension x,y,z NGXF=   140 NGYF=  140 NGZF=  140
   support grid    NGXF=   140 NGYF=  140 NGZF=  140
   ions per type =              11
 NGX,Y,Z   is equivalent  to a cutoff of   6.43,  6.43,  6.43 a.u.
 NGXF,Y,Z  is equivalent  to a cutoff of  12.85, 12.85, 12.85 a.u.


 I would recommend the setting:
   dimension x,y,z NGX =    70 NGY =   70 NGZ =   70
 SYSTEM =  unknown system                          
 POSCAR =  Ti11, -65.47539081 <s> Ag </s>          

 Startparameter for this run:
   NWRITE =      2    write-flag & timer
   PREC   = normal    normal or accurate (medium, high low for compatibility)
   ISTART =      0    job   : 0-new  1-cont  2-samecut
   ICHARG =      2    charge: 1-file 2-atom 10-const
   ISPIN  =      2    spin polarized calculation?
   LNONCOLLINEAR =      F non collinear calculations
   LSORBIT =      F    spin-orbit coupling
   INIWAV =      1    electr: 0-lowe 1-rand  2-diag
   LASPH  =      F    aspherical Exc in radial PAW
   METAGGA=      F    non-selfconsistent MetaGGA calc.

 Electronic Relaxation 1
   ENCUT  =  249.8 eV  18.36 Ry    4.29 a.u.  23.34 23.34 23.34*2*pi/ulx,y,z
   ENINI  =  249.8     initial cutoff
   ENAUG  =  412.5 eV  augmentation charge cutoff
   NELM   =     60;   NELMIN=  2; NELMDL= -5     # of ELM steps 
   EDIFF  = 0.1E-03   stopping-criterion for ELM
   LREAL  =      F    real-space projection
   NLSPLINE    = F    spline interpolate recip. space projectors
   LCOMPAT=      F    compatible to vasp.4.4
   GGA_COMPAT  = T    GGA compatible to vasp.4.4-vasp.4.6
   LMAXPAW     = -100 max onsite density
   LMAXMIX     =    2 max onsite mixed and CHGCAR
   VOSKOWN=      0    Vosko Wilk Nusair interpolation
   ROPT   =    0.00000
 Ionic relaxation
   EDIFFG = 0.1E-02   stopping-criterion for IOM
   NSW    =   1000    number of steps for IOM
   NBLOCK =      1;   KBLOCK =   1000    inner block; outer block 
   IBRION =      2    ionic relax: 0-MD 1-quasi-New 2-CG
   NFREE  =      1    steps in history (QN), initial steepest desc. (CG)
   ISIF   =      2    stress and relaxation
   IWAVPR =     11    prediction:  0-non 1-charg 2-wave 3-comb
   ISYM   =      2    0-nonsym 1-usesym 2-fastsym
   LCORR  =      T    Harris-Foulkes like correction to forces

   POTIM  = 0.1000    time-step for ionic-motion
   TEIN   =    0.0    initial temperature
   TEBEG  =    0.0;   TEEND  =   0.0 temperature during run
   SMASS  =  -3.00    Nose mass-parameter (am)
   estimated Nose-frequenzy (Omega)   =  0.10E-29 period in steps =****** mass=  -0.750E-26a.u.
   SCALEE = 1.0000    scale energy and forces
   NPACO  =    256;   APACO  = 16.0  distance and # of slots for P.C.
   PSTRESS=    0.0 pullay stress

  Mass of Ions in am
   POMASS = 107.87
  Ionic Valenz
   ZVAL   =  11.00
  Atomic Wigner-Seitz radii
   RWIGS  =  -1.00
  virtual crystal weights 
   VCA    =   1.00
   NELECT =     121.0000    total number of electrons
   NUPDOWN=      -1.0000    fix difference up-down

 DOS related values:
   EMIN   =  10.00;   EMAX   =-10.00  energy-range for DOS
   EFERMI =   0.00
   ISMEAR =     0;   SIGMA  =   0.00  broadening in eV -4-tet -1-fermi 0-gaus

 Electronic relaxation 2 (details)
   IALGO  =     38    algorithm
   LDIAG  =      T    sub-space diagonalisation (order eigenvalues)
   LSUBROT=      F    optimize rotation matrix (better conditioning)
   TURBO    =      0    0=normal 1=particle mesh
   IRESTART =      0    0=no restart 2=restart with 2 vectors
   NREBOOT  =      0    no. of reboots
   NMIN     =      0    reboot dimension
   EREF     =   0.00    reference energy to select bands
   IMIX   =      4    mixing-type and parameters
     AMIX     =   0.40;   BMIX     =  1.00
     AMIX_MAG =   1.60;   BMIX_MAG =  1.00
     AMIN     =   0.10
     WC   =   100.;   INIMIX=   1;  MIXPRE=   1;  MAXMIX= -45

 Intra band minimization:
   WEIMIN = 0.0010     energy-eigenvalue tresh-hold
   EBREAK =  0.31E-06  absolut break condition
   DEPER  =   0.30     relativ break condition  

   TIME   =   0.40     timestep for ELM

  volume/ion in A,a.u.               =     540.12      3644.90
  Fermi-wavevector in a.u.,A,eV,Ry     =   0.447070  0.844840  2.719422  0.199872
  Thomas-Fermi vector in A             =   1.425745
 
 Write flags
   LWAVE  =      F    write WAVECAR
   LCHARG =      F    write CHGCAR
   LVTOT  =      F    write LOCPOT, total local potential
   LVHAR  =      F    write LOCPOT, Hartree potential only
   LELF   =      F    write electronic localiz. function (ELF)
   LORBIT =      0    0 simple, 1 ext, 2 COOP (PROOUT)


 Dipole corrections
   LMONO  =      F    monopole corrections only (constant potential shift)
   LDIPOL =      F    correct potential (dipole corrections)
   IDIPOL =      0    1-x, 2-y, 3-z, 4-all directions 
   EPSILON=  1.0000000 bulk dielectric constant

 Exchange correlation treatment:
   GGA     =    PE    GGA type
   LEXCH   =     8    internal setting for exchange type
   VOSKOWN=      0    Vosko Wilk Nusair interpolation
   LHFCALC =     F    Hartree Fock is set to
   LHFONE  =     F    Hartree Fock one center treatment
   AEXX    =    0.0000 exact exchange contribution

 Linear response parameters
   LEPSILON=     F    determine dielectric tensor
   LRPA    =     F    only Hartree local field effects (RPA)
   LNABLA  =     F    use nabla operator in PAW spheres
   LVEL    =     F    velocity operator in full k-point grid
   LINTERFAST=   F  fast interpolation
   KINTER  =     0    interpolate to denser k-point grid
   CSHIFT  =0.1000    complex shift for real part using Kramers Kronig
   OMEGAMAX=  -1.0    maximum frequency
   DEG_THRESHOLD= 0.2000000E-02 threshold for treating states as degnerate
   RTIME   =    0.100 relaxation time in fs

 Orbital magnetization related:
   ORBITALMAG=     F  switch on orbital magnetization
   LCHIMAG   =     F  perturbation theory with respect to B field
   DQ        =  0.001000  dq finite difference perturbation B field



--------------------------------------------------------------------------------------------------------


 conjugate gradient relaxation of ions
 charge density and potential will be updated during run
 spin polarized calculation
 Variant of blocked Davidson
 Davidson routine will perform the subspace rotation
 perform sub-space diagonalisation
    after iterative eigenvector-optimisation
 modified Broyden-mixing scheme, WC =      100.0
 initial mixing is a Kerker type mixing with AMIX =  0.4000 and BMIX =      1.0000
 Hartree-type preconditioning will be used
 using additional bands           19
 reciprocal scheme for non local part
 use partial core corrections
 calculate Harris-corrections to forces 
   (improved forces if not selfconsistent)
 use gradient corrections 
 use of overlap-Matrix (Vanderbilt PP)
 Gauss-broadening in eV      SIGMA  =   0.00


--------------------------------------------------------------------------------------------------------


  energy-cutoff  :      249.84
  volume of cell :     5941.31
      direct lattice vectors                 reciprocal lattice vectors
    18.111764040  0.000000000  0.000000000     0.055212733  0.000000000  0.000000000
     0.000000000 18.111764040  0.000000000     0.000000000  0.055212733  0.000000000
     0.000000000  0.000000000 18.111764040     0.000000000  0.000000000  0.055212733

  length of vectors
    18.111764040 18.111764040 18.111764040     0.055212733  0.055212733  0.055212733


 
 k-points in units of 2pi/SCALE and weight: Gamma-point only                        
   0.00000000  0.00000000  0.00000000       1.000
 
 k-points in reciprocal lattice and weights: Gamma-point only                        
   0.00000000  0.00000000  0.00000000       1.000
 
 position of ions in fractional coordinates (direct lattice) 
   0.60893725  0.50984269  0.52858378
   0.53712073  0.56275080  0.40847544
   0.61074072  0.64879702  0.52406838
   0.53998488  0.42144761  0.45800771
   0.53841382  0.40383335  0.60566485
   0.56218722  0.56895462  0.64329261
   0.44914883  0.49512116  0.57903699
   0.44681967  0.43886711  0.35625630
   0.41375087  0.37910782  0.49158950
   0.39934722  0.52180535  0.45145133
   0.47829067  0.62316909  0.53258463
 
 position of ions in cartesian coordinates  (Angst):
  11.02892786  9.23415059  9.57358462
   9.72820397 10.19240964  7.39821087
  11.06159186 11.75085850  9.49180289
   9.78007865  7.63315974  8.29532750
   9.75162413  7.31413429 10.96965887
  10.18220235 10.30477183 11.65116388
   8.13487756  8.96751756 10.48738140
   8.09269243  7.94865754  6.45243009
   7.49375819  6.86631135  8.90355305
   7.23288269  9.45081534  8.17658000
   8.66268772 11.28669143  9.64604713
 


--------------------------------------------------------------------------------------------------------


 use parallel FFT for wavefunctions z direction half grid
 k-point  1 :   0.0000 0.0000 0.0000  plane waves:   26486

 maximum and minimum number of plane-waves per node :      3315     3307

 maximum number of plane-waves:     26486
 maximum index in each direction: 
   IXMAX=   23   IYMAX=   23   IZMAX=   23
   IXMIN=  -23   IYMIN=  -23   IZMIN=    0

 WARNING: aliasing errors must be expected set NGX to  94 to avoid them
 WARNING: aliasing errors must be expected set NGY to  94 to avoid them
 WARNING: aliasing errors must be expected set NGZ to  94 to avoid them
 aliasing errors are usually negligible using standard VASP settings
 and one can safely disregard these warnings

 parallel 3D FFT for wavefunctions:
    minimum data exchange during FFTs selected (reduces bandwidth)
 parallel 3D FFT for charge:
    minimum data exchange during FFTs selected (reduces bandwidth)


 total amount of memory used by VASP on root node    48111. kBytes
========================================================================

   base      :      30000. kBytes
   nonl-proj :       1059. kBytes
   fftplans  :       4208. kBytes
   grid      :      10682. kBytes
   one-center:         31. kBytes
   wavefun   :       2131. kBytes
 
     INWAV:  cpu time    0.00: real time    0.00
 Broyden mixing: mesh for mixing (old mesh)
   NGX = 47   NGY = 47   NGZ = 47
  (NGX  =140   NGY  =140   NGZ  =140)
  gives a total of 103823 points

 initial charge density was supplied:
 charge density of overlapping atoms calculated
 number of electron     121.0000000 magnetization      11.0000000
 keeping initial charge density in first step


--------------------------------------------------------------------------------------------------------


 Maximum index for augmentation-charges          232 (set IRDMAX)


--------------------------------------------------------------------------------------------------------


 First call to EWALD:  gamma=   0.098
 Maximum number of real-space cells 3x 3x 3
 Maximum number of reciprocal cells 3x 3x 3

 FEWALD executed in parallel
    FEWALD:  cpu time    0.00: real time    0.00


----------------------------------------- Iteration    1(   1)  ---------------------------------------


    POTLOK:  cpu time    0.16: real time    0.16
    SETDIJ:  cpu time    0.00: real time    0.01
     EDDAV:  cpu time    0.55: real time    0.55
       DOS:  cpu time    0.00: real time    0.00
    --------------------------------------------
      LOOP:  cpu time    0.71: real time    4.16

 eigenvalue-minimisations  :   320
 total energy-change (2. order) : 0.1101936E+04  (-0.1947873E+04)
 number of electron     121.0000000 magnetization      11.0000000
 augmentation part      121.0000000 magnetization      11.0000000

 Free energy of the ion-electron system (eV)
  ---------------------------------------------------
  alpha Z        PSCENC =        17.32276830
  Ewald energy   TEWEN  =     13103.53638987
  -Hartree energ DENC   =    -23988.13067316
  -exchange      EXHF   =         0.00000000
  -V(xc)+E(xc)   XCENC  =      -119.70597504
  PAW double counting   =     11037.09395877   -10529.91069767
  entropy T*S    EENTRO =         0.00000000
  eigenvalues    EBANDS =       172.54508350
  atomic energy  EATOM  =     11409.18493095
  ---------------------------------------------------
  free energy    TOTEN  =      1101.93578550 eV

  energy without entropy =     1101.93578550  energy(sigma->0) =     1101.93578550


--------------------------------------------------------------------------------------------------------




----------------------------------------- Iteration    1(   2)  ---------------------------------------


     EDDAV:  cpu time    0.92: real time    0.92
       DOS:  cpu time    0.00: real time    0.00
    --------------------------------------------
      LOOP:  cpu time    0.92: real time    0.93

 eigenvalue-minimisations  :   608
 total energy-change (2. order) :-0.7509866E+03  (-0.6691898E+03)
 number of electron     121.0000000 magnetization      11.0000000
 augmentation part      121.0000000 magnetization      11.0000000

 Free energy of the ion-electron system (eV)
  ---------------------------------------------------
  alpha Z        PSCENC =        17.32276830
  Ewald energy   TEWEN  =     13103.53638987
  -Hartree energ DENC   =    -23988.13067316
  -exchange      EXHF   =         0.00000000
  -V(xc)+E(xc)   XCENC  =      -119.70597504
  PAW double counting   =     11037.09395877   -10529.91069767
  entropy T*S    EENTRO =        -0.00000000
  eigenvalues    EBANDS =      -578.44152266
  atomic energy  EATOM  =     11409.18493095
  ---------------------------------------------------
  free energy    TOTEN  =       350.94917935 eV

  energy without entropy =      350.94917935  energy(sigma->0) =      350.94917935


--------------------------------------------------------------------------------------------------------




----------------------------------------- Iteration    1(   3)  ---------------------------------------


     EDDAV:  cpu time    0.72: real time    0.72
       DOS:  cpu time    0.00: real time    0.00
    --------------------------------------------
      LOOP:  cpu time    0.72: real time    0.96

 eigenvalue-minimisations  :   456
 total energy-change (2. order) :-0.3363428E+03  (-0.3144200E+03)
 number of electron     121.0000000 magnetization      11.0000000
 augmentation part      121.0000000 magnetization      11.0000000

 Free energy of the ion-electron system (eV)
  ---------------------------------------------------
  alpha Z        PSCENC =        17.32276830
  Ewald energy   TEWEN  =     13103.53638987
  -Hartree energ DENC   =    -23988.13067316
  -exchange      EXHF   =         0.00000000
  -V(xc)+E(xc)   XCENC  =      -119.70597504
  PAW double counting   =     11037.09395877   -10529.91069767
  entropy T*S    EENTRO =         0.00000000
  eigenvalues    EBANDS =      -914.78436312
  atomic energy  EATOM  =     11409.18493095
  ---------------------------------------------------
  free energy    TOTEN  =        14.60633889 eV

  energy without entropy =       14.60633889  energy(sigma->0) =       14.60633889


--------------------------------------------------------------------------------------------------------




----------------------------------------- Iteration    1(   4)  ---------------------------------------


     EDDAV:  cpu time    0.65: real time    0.65
       DOS:  cpu time    0.00: real time    0.00
    --------------------------------------------
      LOOP:  cpu time    0.65: real time    0.66

 eigenvalue-minimisations  :   400
 total energy-change (2. order) :-0.3167421E+02  (-0.3045629E+02)
 number of electron     121.0000000 magnetization      11.0000000
 augmentation part      121.0000000 magnetization      11.0000000

 Free energy of the ion-electron system (eV)
  ---------------------------------------------------
  alpha Z        PSCENC =        17.32276830
  Ewald energy   TEWEN  =     13103.53638987
  -Hartree energ DENC   =    -23988.13067316
  -exchange      EXHF   =         0.00000000
  -V(xc)+E(xc)   XCENC  =      -119.70597504
  PAW double counting   =     11037.09395877   -10529.91069767
  entropy T*S    EENTRO =         0.00000000
  eigenvalues    EBANDS =      -946.45857138
  atomic energy  EATOM  =     11409.18493095
  ---------------------------------------------------
  free energy    TOTEN  =       -17.06786937 eV

  energy without entropy =      -17.06786937  energy(sigma->0) =      -17.06786937


--------------------------------------------------------------------------------------------------------




----------------------------------------- Iteration    1(   5)  ---------------------------------------


     EDDAV:  cpu time    0.59: real time    0.59
       DOS:  cpu time    0.00: real time    0.00
    CHARGE:  cpu time    0.04: real time    0.04
    MIXING:  cpu time    0.01: real time    0.00
    --------------------------------------------
      LOOP:  cpu time    0.63: real time    0.64

 eigenvalue-minimisations  :   352
 total energy-change (2. order) :-0.5200335E+00  (-0.5194969E+00)
 number of electron     120.9999685 magnetization       9.2812792
 augmentation part       56.9749598 magnetization       8.5327389

 Broyden mixing:
  rms(total) = 0.23060E+01    rms(broyden)= 0.23057E+01
  rms(prec ) = 0.23442E+01
  weight for this iteration     100.00

 Free energy of the ion-electron system (eV)
  ---------------------------------------------------
  alpha Z        PSCENC =        17.32276830
  Ewald energy   TEWEN  =     13103.53638987
  -Hartree energ DENC   =    -23988.13067316
  -exchange      EXHF   =         0.00000000
  -V(xc)+E(xc)   XCENC  =      -119.70597504
  PAW double counting   =     11037.09395877   -10529.91069767
  entropy T*S    EENTRO =         0.00000000
  eigenvalues    EBANDS =      -946.97860483
  atomic energy  EATOM  =     11409.18493095
  ---------------------------------------------------
  free energy    TOTEN  =       -17.58790283 eV

  energy without entropy =      -17.58790283  energy(sigma->0) =      -17.58790283


--------------------------------------------------------------------------------------------------------




----------------------------------------- Iteration    1(   6)  ---------------------------------------


    POTLOK:  cpu time    0.15: real time    0.15
    SETDIJ:  cpu time    0.00: real time    0.01
     EDDAV:  cpu time    0.54: real time    0.54
       DOS:  cpu time    0.00: real time    0.00
    CHARGE:  cpu time    0.04: real time    0.04
    MIXING:  cpu time    0.00: real time    0.00
    --------------------------------------------
      LOOP:  cpu time    0.73: real time    0.88

 eigenvalue-minimisations  :   320
 total energy-change (2. order) : 0.1508144E+02  (-0.4016889E+01)
 number of electron     120.9999682 magnetization       8.1044585
 augmentation part       58.0473702 magnetization       4.3171660

 Broyden mixing:
  rms(total) = 0.12134E+01    rms(broyden)= 0.12133E+01
  rms(prec ) = 0.12292E+01
  weight for this iteration     100.00

 eigenvalues of (default mixing * dielectric matrix)
  average eigenvalue GAMMA=   0.9095
  0.9095

 Free energy of the ion-electron system (eV)
  ---------------------------------------------------
  alpha Z        PSCENC =        17.32276830
  Ewald energy   TEWEN  =     13103.53638987
  -Hartree energ DENC   =    -23954.79926681
  -exchange      EXHF   =         0.00000000
  -V(xc)+E(xc)   XCENC  =      -112.21102304
  PAW double counting   =     11619.90438979   -11123.23198775
  entropy T*S    EENTRO =        -0.00000000
  eigenvalues    EBANDS =      -962.21266189
  atomic energy  EATOM  =     11409.18493095
  ---------------------------------------------------
  free energy    TOTEN  =        -2.50646059 eV

  energy without entropy =       -2.50646059  energy(sigma->0) =       -2.50646059


--------------------------------------------------------------------------------------------------------




----------------------------------------- Iteration    1(   7)  ---------------------------------------


    POTLOK:  cpu time    0.15: real time    0.15
    SETDIJ:  cpu time    0.01: real time    0.01
     EDDAV:  cpu time    0.57: real time    0.57
       DOS:  cpu time    0.00: real time    0.00
    CHARGE:  cpu time    0.04: real time    0.04
    MIXING:  cpu time    0.00: real time    0.00
    --------------------------------------------
      LOOP:  cpu time    0.78: real time    1.36

 eigenvalue-minimisations  :   344
 total energy-change (2. order) : 0.1664893E+01  (-0.3553860E+00)
 number of electron     120.9999680 magnetization       6.7402774
 augmentation part       58.0309093 magnetization       3.1408260

 Broyden mixing:
  rms(total) = 0.66062E+00    rms(broyden)= 0.66058E+00
  rms(prec ) = 0.67260E+00
  weight for this iteration     100.00

 eigenvalues of (default mixing * dielectric matrix)
  average eigenvalue GAMMA=   1.0882
  0.7484  1.4281

 Free energy of the ion-electron system (eV)
  ---------------------------------------------------
  alpha Z        PSCENC =        17.32276830
  Ewald energy   TEWEN  =     13103.53638987
  -Hartree energ DENC   =    -23976.97302696
  -exchange      EXHF   =         0.00000000
  -V(xc)+E(xc)   XCENC  =      -110.54219322
  PAW double counting   =     11988.87311342   -11499.44878465
  entropy T*S    EENTRO =         0.00000000
  eigenvalues    EBANDS =      -932.79476510
  atomic energy  EATOM  =     11409.18493095
  ---------------------------------------------------
  free energy    TOTEN  =        -0.84156739 eV

  energy without entropy =       -0.84156739  energy(sigma->0) =       -0.84156739


--------------------------------------------------------------------------------------------------------




----------------------------------------- Iteration    1(   8)  ---------------------------------------


    POTLOK:  cpu time    0.15: real time    0.15
    SETDIJ:  cpu time    0.00: real time    0.01
     EDDAV:  cpu time    0.58: real time    0.57
       DOS:  cpu time    0.00: real time    0.00
    CHARGE:  cpu time    0.04: real time    0.04
    MIXING:  cpu time    0.00: real time    0.00
    --------------------------------------------
      LOOP:  cpu time    0.77: real time    0.78

 eigenvalue-minimisations  :   344
 total energy-change (2. order) :-0.3294435E+01  (-0.2107237E+00)
 number of electron     120.9999680 magnetization       5.9597204
 augmentation part       57.9460208 magnetization       2.4796874

 Broyden mixing:
  rms(total) = 0.26196E+00    rms(broyden)= 0.26194E+00
  rms(prec ) = 0.26942E+00
  weight for this iteration     100.00

 eigenvalues of (default mixing * dielectric matrix)
  average eigenvalue GAMMA=   1.2178
  2.1214  0.9083  0.6238

 Free energy of the ion-electron system (eV)
  ---------------------------------------------------
  alpha Z        PSCENC =        17.32276830
  Ewald energy   TEWEN  =     13103.53638987
  -Hartree energ DENC   =    -23996.23341477
  -exchange      EXHF   =         0.00000000
  -V(xc)+E(xc)   XCENC  =      -112.90619894
  PAW double counting   =     12315.63506578   -11832.01134065
  entropy T*S    EENTRO =         0.00000000
  eigenvalues    EBANDS =      -908.66420252
  atomic energy  EATOM  =     11409.18493095
  ---------------------------------------------------
  free energy    TOTEN  =        -4.13600198 eV

  energy without entropy =       -4.13600198  energy(sigma->0) =       -4.13600198


--------------------------------------------------------------------------------------------------------




----------------------------------------- Iteration    1(   9)  ---------------------------------------


    POTLOK:  cpu time    0.15: real time    0.15
    SETDIJ:  cpu time    0.01: real time    0.01
     EDDAV:  cpu time    0.57: real time    0.57
       DOS:  cpu time    0.00: real time    0.00
    CHARGE:  cpu time    0.04: real time    0.04
    MIXING:  cpu time    0.01: real time    0.00
    --------------------------------------------
      LOOP:  cpu time    0.78: real time    0.78

 eigenvalue-minimisations  :   344
 total energy-change (2. order) :-0.2808226E+01  (-0.1120812E+00)
 number of electron     120.9999678 magnetization       5.6820783
 augmentation part       57.9331305 magnetization       4.2440115

 Broyden mixing:
  rms(total) = 0.25895E+00    rms(broyden)= 0.25883E+00
  rms(prec ) = 0.27234E+00
  weight for this iteration     100.00

 eigenvalues of (default mixing * dielectric matrix)
  average eigenvalue GAMMA=   0.9830
  2.1602  0.8983  0.6024  0.2710

 Free energy of the ion-electron system (eV)
  ---------------------------------------------------
  alpha Z        PSCENC =        17.32276830
  Ewald energy   TEWEN  =     13103.53638987
  -Hartree energ DENC   =    -23998.02938495
  -exchange      EXHF   =         0.00000000
  -V(xc)+E(xc)   XCENC  =      -115.02585234
  PAW double counting   =     12406.29540175   -11924.19490832
  entropy T*S    EENTRO =         0.00000000
  eigenvalues    EBANDS =      -906.03357373
  atomic energy  EATOM  =     11409.18493095
  ---------------------------------------------------
  free energy    TOTEN  =        -6.94422848 eV

  energy without entropy =       -6.94422848  energy(sigma->0) =       -6.94422848


--------------------------------------------------------------------------------------------------------




----------------------------------------- Iteration    1(  10)  ---------------------------------------


    POTLOK:  cpu time    0.15: real time    0.15
    SETDIJ:  cpu time    0.00: real time    0.01
     EDDAV:  cpu time    0.64: real time    0.64
       DOS:  cpu time    0.00: real time    0.00
    CHARGE:  cpu time    0.04: real time    0.04
    MIXING:  cpu time    0.00: real time    0.00
    --------------------------------------------
      LOOP:  cpu time    0.84: real time    0.84

 eigenvalue-minimisations  :   392
 total energy-change (2. order) : 0.2082984E+00  (-0.7445052E-02)
 number of electron     120.9999678 magnetization       4.9496430
 augmentation part       57.9278183 magnetization       3.5429338

 Broyden mixing:
  rms(total) = 0.21922E+00    rms(broyden)= 0.21922E+00
  rms(prec ) = 0.23101E+00
  weight for this iteration     100.00

 eigenvalues of (default mixing * dielectric matrix)
  average eigenvalue GAMMA=   1.0141
  2.1884  0.9274  0.6384  0.6581  0.6581

 Free energy of the ion-electron system (eV)
  ---------------------------------------------------
  alpha Z        PSCENC =        17.32276830
  Ewald energy   TEWEN  =     13103.53638987
  -Hartree energ DENC   =    -23999.57545900
  -exchange      EXHF   =         0.00000000
  -V(xc)+E(xc)   XCENC  =      -114.77599172
  PAW double counting   =     12419.33387918   -11937.51596207
  entropy T*S    EENTRO =         0.00000000
  eigenvalues    EBANDS =      -904.24648560
  atomic energy  EATOM  =     11409.18493095
  ---------------------------------------------------
  free energy    TOTEN  =        -6.73593011 eV

  energy without entropy =       -6.73593011  energy(sigma->0) =       -6.73593011


--------------------------------------------------------------------------------------------------------




----------------------------------------- Iteration    1(  11)  ---------------------------------------


    POTLOK:  cpu time    0.15: real time    0.15
    SETDIJ:  cpu time    0.00: real time    0.01
     EDDAV:  cpu time    0.56: real time    0.56
       DOS:  cpu time    0.00: real time    0.00
    CHARGE:  cpu time    0.04: real time    0.04
    MIXING:  cpu time    0.00: real time    0.01
    --------------------------------------------
      LOOP:  cpu time    0.76: real time    0.77

 eigenvalue-minimisations  :   336
 total energy-change (2. order) :-0.1889997E+01  (-0.5824910E-01)
 number of electron     120.9999679 magnetization       3.3360402
 augmentation part       57.9124864 magnetization       2.0080230

 Broyden mixing:
  rms(total) = 0.16999E+00    rms(broyden)= 0.16998E+00
  rms(prec ) = 0.17735E+00
  weight for this iteration     100.00

 eigenvalues of (default mixing * dielectric matrix)
  average eigenvalue GAMMA=   1.1454
  2.0681  1.5738  0.9833  0.9833  0.6320  0.6320

 Free energy of the ion-electron system (eV)
  ---------------------------------------------------
  alpha Z        PSCENC =        17.32276830
  Ewald energy   TEWEN  =     13103.53638987
  -Hartree energ DENC   =    -24002.69887378
  -exchange      EXHF   =         0.00000000
  -V(xc)+E(xc)   XCENC  =      -116.06267156
  PAW double counting   =     12425.36772337   -11943.87690034
  entropy T*S    EENTRO =         0.00000000
  eigenvalues    EBANDS =      -901.39929429
  atomic energy  EATOM  =     11409.18493095
  ---------------------------------------------------
  free energy    TOTEN  =        -8.62592748 eV

  energy without entropy =       -8.62592748  energy(sigma->0) =       -8.62592748


--------------------------------------------------------------------------------------------------------




----------------------------------------- Iteration    1(  12)  ---------------------------------------


    POTLOK:  cpu time    0.15: real time    0.15
    SETDIJ:  cpu time    0.00: real time    0.01
     EDDAV:  cpu time    0.56: real time    0.56
       DOS:  cpu time    0.00: real time    0.00
    CHARGE:  cpu time    0.04: real time    0.04
    MIXING:  cpu time    0.01: real time    0.01
    --------------------------------------------
      LOOP:  cpu time    0.76: real time    0.77

 eigenvalue-minimisations  :   336
 total energy-change (2. order) :-0.3911945E+01  (-0.2044247E+00)
 number of electron     120.9999679 magnetization       2.3153511
 augmentation part       57.9184743 magnetization       1.1515814

 Broyden mixing:
  rms(total) = 0.79721E-01    rms(broyden)= 0.79706E-01
  rms(prec ) = 0.83051E-01
  weight for this iteration     100.00

 eigenvalues of (default mixing * dielectric matrix)
  average eigenvalue GAMMA=   1.3140
  3.0944  2.1298  0.9368  0.9368  0.8039  0.6761  0.6205

 Free energy of the ion-electron system (eV)
  ---------------------------------------------------
  alpha Z        PSCENC =        17.32276830
  Ewald energy   TEWEN  =     13103.53638987
  -Hartree energ DENC   =    -24004.32348129
  -exchange      EXHF   =         0.00000000
  -V(xc)+E(xc)   XCENC  =      -119.00741799
  PAW double counting   =     12418.72617182   -11937.51444839
  entropy T*S    EENTRO =         0.00000000
  eigenvalues    EBANDS =      -900.46278586
  atomic energy  EATOM  =     11409.18493095
  ---------------------------------------------------
  free energy    TOTEN  =       -12.53787260 eV

  energy without entropy =      -12.53787260  energy(sigma->0) =      -12.53787260


--------------------------------------------------------------------------------------------------------




----------------------------------------- Iteration    1(  13)  ---------------------------------------


    POTLOK:  cpu time    0.15: real time    0.15
    SETDIJ:  cpu time    0.00: real time    0.01
     EDDAV:  cpu time    0.56: real time    0.56
       DOS:  cpu time    0.00: real time    0.00
    CHARGE:  cpu time    0.04: real time    0.04
    MIXING:  cpu time    0.01: real time    0.01
    --------------------------------------------
      LOOP:  cpu time    0.76: real time    0.77

 eigenvalue-minimisations  :   336
 total energy-change (2. order) :-0.2155390E+01  (-0.7464919E-01)
 number of electron     120.9999679 magnetization       1.9956352
 augmentation part       57.9307768 magnetization       0.9148797

 Broyden mixing:
  rms(total) = 0.57155E-01    rms(broyden)= 0.57145E-01
  rms(prec ) = 0.61875E-01
  weight for this iteration     100.00

 eigenvalues of (default mixing * dielectric matrix)
  average eigenvalue GAMMA=   1.3159
  3.1563  1.7552  1.3315  1.3315  0.7902  0.7902  0.7359  0.6364

 Free energy of the ion-electron system (eV)
  ---------------------------------------------------
  alpha Z        PSCENC =        17.32276830
  Ewald energy   TEWEN  =     13103.53638987
  -Hartree energ DENC   =    -24001.80725877
  -exchange      EXHF   =         0.00000000
  -V(xc)+E(xc)   XCENC  =      -120.81061247
  PAW double counting   =     12410.85725062   -11929.71572429
  entropy T*S    EENTRO =         0.00000000
  eigenvalues    EBANDS =      -903.26100726
  atomic energy  EATOM  =     11409.18493095
  ---------------------------------------------------
  free energy    TOTEN  =       -14.69326307 eV

  energy without entropy =      -14.69326307  energy(sigma->0) =      -14.69326307


--------------------------------------------------------------------------------------------------------




----------------------------------------- Iteration    1(  14)  ---------------------------------------


    POTLOK:  cpu time    0.15: real time    0.15
    SETDIJ:  cpu time    0.00: real time    0.01
     EDDAV:  cpu time    0.54: real time    0.54
       DOS:  cpu time    0.00: real time    0.00
    CHARGE:  cpu time    0.04: real time    0.04
    MIXING:  cpu time    0.01: real time    0.01
    --------------------------------------------
      LOOP:  cpu time    0.74: real time    0.90

 eigenvalue-minimisations  :   320
 total energy-change (2. order) :-0.1227685E+01  (-0.3091933E-01)
 number of electron     120.9999679 magnetization       1.5785380
 augmentation part       57.9237873 magnetization       0.5042797

 Broyden mixing:
  rms(total) = 0.36177E-01    rms(broyden)= 0.36162E-01
  rms(prec ) = 0.40939E-01
  weight for this iteration     100.00

 eigenvalues of (default mixing * dielectric matrix)
  average eigenvalue GAMMA=   1.4355
  3.1228  3.1228  1.5857  1.3767  0.8690  0.8690  0.6632  0.6632  0.6473

 Free energy of the ion-electron system (eV)
  ---------------------------------------------------
  alpha Z        PSCENC =        17.32276830
  Ewald energy   TEWEN  =     13103.53638987
  -Hartree energ DENC   =    -23995.33525190
  -exchange      EXHF   =         0.00000000
  -V(xc)+E(xc)   XCENC  =      -121.94261955
  PAW double counting   =     12387.98795964   -11906.51556804
  entropy T*S    EENTRO =         0.00000000
  eigenvalues    EBANDS =      -910.15955746
  atomic energy  EATOM  =     11409.18493095
  ---------------------------------------------------
  free energy    TOTEN  =       -15.92094820 eV

  energy without entropy =      -15.92094820  energy(sigma->0) =      -15.92094820


--------------------------------------------------------------------------------------------------------




----------------------------------------- Iteration    1(  15)  ---------------------------------------


    POTLOK:  cpu time    0.15: real time    0.15
    SETDIJ:  cpu time    0.00: real time    0.01
     EDDAV:  cpu time    0.56: real time    0.56
       DOS:  cpu time    0.00: real time    0.00
    CHARGE:  cpu time    0.04: real time    0.04
    MIXING:  cpu time    0.01: real time    0.01
    --------------------------------------------
      LOOP:  cpu time    0.76: real time    0.77

 eigenvalue-minimisations  :   336
 total energy-change (2. order) :-0.7732463E+00  (-0.1196954E-01)
 number of electron     120.9999679 magnetization       1.3126406
 augmentation part       57.9495571 magnetization       0.2560763

 Broyden mixing:
  rms(total) = 0.25928E-01    rms(broyden)= 0.25908E-01
  rms(prec ) = 0.28231E-01
  weight for this iteration     100.00

 eigenvalues of (default mixing * dielectric matrix)
  average eigenvalue GAMMA=   1.4834
  4.3321  2.3633  2.3633  1.0469  1.0469  0.9783  0.7189  0.7189  0.6069  0.6584

 Free energy of the ion-electron system (eV)
  ---------------------------------------------------
  alpha Z        PSCENC =        17.32276830
  Ewald energy   TEWEN  =     13103.53638987
  -Hartree energ DENC   =    -23987.48394806
  -exchange      EXHF   =         0.00000000
  -V(xc)+E(xc)   XCENC  =      -122.77601283
  PAW double counting   =     12363.18309086   -11881.34557760
  entropy T*S    EENTRO =         0.00000000
  eigenvalues    EBANDS =      -918.31583604
  atomic energy  EATOM  =     11409.18493095
  ---------------------------------------------------
  free energy    TOTEN  =       -16.69419455 eV

  energy without entropy =      -16.69419455  energy(sigma->0) =      -16.69419455


--------------------------------------------------------------------------------------------------------




----------------------------------------- Iteration    1(  16)  ---------------------------------------


    POTLOK:  cpu time    0.15: real time    0.15
    SETDIJ:  cpu time    0.01: real time    0.01
     EDDAV:  cpu time    0.56: real time    0.57
       DOS:  cpu time    0.00: real time    0.00
    CHARGE:  cpu time    0.04: real time    0.04
    MIXING:  cpu time    0.01: real time    0.01
    --------------------------------------------
      LOOP:  cpu time    0.77: real time    0.77

 eigenvalue-minimisations  :   336
 total energy-change (2. order) :-0.2306277E+00  (-0.1676422E-02)
 number of electron     120.9999679 magnetization       1.1659269
 augmentation part       57.9514968 magnetization       0.1236166

 Broyden mixing:
  rms(total) = 0.13077E-01    rms(broyden)= 0.13068E-01
  rms(prec ) = 0.15625E-01
  weight for this iteration     100.00

 eigenvalues of (default mixing * dielectric matrix)
  average eigenvalue GAMMA=   1.5084
  4.6328  2.5064  2.5064  1.2276  1.2276  0.8144  0.8144  0.8336  0.7069  0.7069
  0.6154

 Free energy of the ion-electron system (eV)
  ---------------------------------------------------
  alpha Z        PSCENC =        17.32276830
  Ewald energy   TEWEN  =     13103.53638987
  -Hartree energ DENC   =    -23985.03517684
  -exchange      EXHF   =         0.00000000
  -V(xc)+E(xc)   XCENC  =      -123.02857818
  PAW double counting   =     12366.10640319   -11884.34209001
  entropy T*S    EENTRO =         0.00000000
  eigenvalues    EBANDS =      -920.66946950
  atomic energy  EATOM  =     11409.18493095
  ---------------------------------------------------
  free energy    TOTEN  =       -16.92482222 eV

  energy without entropy =      -16.92482222  energy(sigma->0) =      -16.92482222


--------------------------------------------------------------------------------------------------------




----------------------------------------- Iteration    1(  17)  ---------------------------------------


    POTLOK:  cpu time    0.15: real time    0.15
    SETDIJ:  cpu time    0.00: real time    0.01
     EDDAV:  cpu time    0.57: real time    0.57
       DOS:  cpu time    0.00: real time    0.00
    CHARGE:  cpu time    0.04: real time    0.04
    MIXING:  cpu time    0.00: real time    0.01
    --------------------------------------------
      LOOP:  cpu time    0.76: real time    0.81

 eigenvalue-minimisations  :   336
 total energy-change (2. order) :-0.1580182E+00  (-0.6503018E-03)
 number of electron     120.9999679 magnetization       1.0663033
 augmentation part       57.9490315 magnetization       0.0276615

 Broyden mixing:
  rms(total) = 0.70773E-02    rms(broyden)= 0.70730E-02
  rms(prec ) = 0.91872E-02
  weight for this iteration     100.00

 eigenvalues of (default mixing * dielectric matrix)
  average eigenvalue GAMMA=   1.5279
  4.9189  2.8627  1.9608  1.9608  1.2480  0.9543  0.9543  0.7353  0.7353  0.7569
  0.6235  0.6235

 Free energy of the ion-electron system (eV)
  ---------------------------------------------------
  alpha Z        PSCENC =        17.32276830
  Ewald energy   TEWEN  =     13103.53638987
  -Hartree energ DENC   =    -23982.73957911
  -exchange      EXHF   =         0.00000000
  -V(xc)+E(xc)   XCENC  =      -123.20559728
  PAW double counting   =     12369.69552162   -11887.93894584
  entropy T*S    EENTRO =         0.00000000
  eigenvalues    EBANDS =      -922.93832892
  atomic energy  EATOM  =     11409.18493095
  ---------------------------------------------------
  free energy    TOTEN  =       -17.08284042 eV

  energy without entropy =      -17.08284042  energy(sigma->0) =      -17.08284042


--------------------------------------------------------------------------------------------------------




----------------------------------------- Iteration    1(  18)  ---------------------------------------


    POTLOK:  cpu time    0.15: real time    0.15
    SETDIJ:  cpu time    0.00: real time    0.01
     EDDAV:  cpu time    0.56: real time    0.56
       DOS:  cpu time    0.00: real time    0.00
    CHARGE:  cpu time    0.04: real time    0.04
    MIXING:  cpu time    0.01: real time    0.01
    --------------------------------------------
      LOOP:  cpu time    0.76: real time    0.76

 eigenvalue-minimisations  :   328
 total energy-change (2. order) :-0.5253064E-01  (-0.2615875E-03)
 number of electron     120.9999679 magnetization       1.0034889
 augmentation part       57.9511887 magnetization      -0.0321936

 Broyden mixing:
  rms(total) = 0.35348E-02    rms(broyden)= 0.35330E-02
  rms(prec ) = 0.54882E-02
  weight for this iteration     100.00

 eigenvalues of (default mixing * dielectric matrix)
  average eigenvalue GAMMA=   1.5811
  5.5592  2.4996  2.4996  2.4285  1.1398  1.1398  0.9629  0.8166  0.8166  0.7268
  0.7268  0.6192  0.6192

 Free energy of the ion-electron system (eV)
  ---------------------------------------------------
  alpha Z        PSCENC =        17.32276830
  Ewald energy   TEWEN  =     13103.53638987
  -Hartree energ DENC   =    -23980.86766736
  -exchange      EXHF   =         0.00000000
  -V(xc)+E(xc)   XCENC  =      -123.27814786
  PAW double counting   =     12371.12511576   -11889.35426715
  entropy T*S    EENTRO =         0.00000000
  eigenvalues    EBANDS =      -924.80449356
  atomic energy  EATOM  =     11409.18493095
  ---------------------------------------------------
  free energy    TOTEN  =       -17.13537106 eV

  energy without entropy =      -17.13537106  energy(sigma->0) =      -17.13537106


--------------------------------------------------------------------------------------------------------




----------------------------------------- Iteration    1(  19)  ---------------------------------------


    POTLOK:  cpu time    0.15: real time    0.15
    SETDIJ:  cpu time    0.00: real time    0.01
     EDDAV:  cpu time    0.50: real time    0.50
       DOS:  cpu time    0.00: real time    0.00
    CHARGE:  cpu time    0.04: real time    0.04
    MIXING:  cpu time    0.01: real time    0.01
    --------------------------------------------
      LOOP:  cpu time    0.70: real time    0.70

 eigenvalue-minimisations  :   280
 total energy-change (2. order) :-0.1760635E-01  (-0.1451748E-03)
 number of electron     120.9999679 magnetization       1.0075234
 augmentation part       57.9523200 magnetization      -0.0262616

 Broyden mixing:
  rms(total) = 0.30075E-02    rms(broyden)= 0.30068E-02
  rms(prec ) = 0.43144E-02
  weight for this iteration     100.00

 eigenvalues of (default mixing * dielectric matrix)
  average eigenvalue GAMMA=   1.5889
  5.6263  2.7174  2.7174  2.2534  1.3958  1.3958  0.9477  0.9477  0.8591  0.7342
  0.7342  0.6191  0.6485  0.6485

 Free energy of the ion-electron system (eV)
  ---------------------------------------------------
  alpha Z        PSCENC =        17.32276830
  Ewald energy   TEWEN  =     13103.53638987
  -Hartree energ DENC   =    -23979.52721807
  -exchange      EXHF   =         0.00000000
  -V(xc)+E(xc)   XCENC  =      -123.30765545
  PAW double counting   =     12373.50979976   -11891.75441024
  entropy T*S    EENTRO =         0.00000000
  eigenvalues    EBANDS =      -926.11758251
  atomic energy  EATOM  =     11409.18493095
  ---------------------------------------------------
  free energy    TOTEN  =       -17.15297740 eV

  energy without entropy =      -17.15297740  energy(sigma->0) =      -17.15297740


--------------------------------------------------------------------------------------------------------




----------------------------------------- Iteration    1(  20)  ---------------------------------------


    POTLOK:  cpu time    0.15: real time    0.15
    SETDIJ:  cpu time    0.00: real time    0.01
     EDDAV:  cpu time    0.43: real time    0.43
       DOS:  cpu time    0.00: real time    0.00
    CHARGE:  cpu time    0.04: real time    0.04
    MIXING:  cpu time    0.01: real time    0.01
    --------------------------------------------
      LOOP:  cpu time    0.63: real time    0.63

 eigenvalue-minimisations  :   224
 total energy-change (2. order) :-0.2292990E-02  (-0.6898376E-04)
 number of electron     120.9999679 magnetization       1.0030154
 augmentation part       57.9515566 magnetization      -0.0316951

 Broyden mixing:
  rms(total) = 0.15442E-02    rms(broyden)= 0.15439E-02
  rms(prec ) = 0.25285E-02
  weight for this iteration     100.00

 eigenvalues of (default mixing * dielectric matrix)
  average eigenvalue GAMMA=   1.6040
  5.7149  3.3842  2.4511  2.4511  1.5671  1.5671  0.9847  0.9847  0.7540  0.7540
  0.7722  0.7722  0.6086  0.6467  0.6467

 Free energy of the ion-electron system (eV)
  ---------------------------------------------------
  alpha Z        PSCENC =        17.32276830
  Ewald energy   TEWEN  =     13103.53638987
  -Hartree energ DENC   =    -23978.48442746
  -exchange      EXHF   =         0.00000000
  -V(xc)+E(xc)   XCENC  =      -123.31484568
  PAW double counting   =     12375.21751877   -11893.46971207
  entropy T*S    EENTRO =        -0.00000000
  eigenvalues    EBANDS =      -927.14789306
  atomic energy  EATOM  =     11409.18493095
  ---------------------------------------------------
  free energy    TOTEN  =       -17.15527039 eV

  energy without entropy =      -17.15527039  energy(sigma->0) =      -17.15527039


--------------------------------------------------------------------------------------------------------




----------------------------------------- Iteration    1(  21)  ---------------------------------------


    POTLOK:  cpu time    0.15: real time    0.15
    SETDIJ:  cpu time    0.00: real time    0.01
     EDDAV:  cpu time    0.46: real time    0.46
       DOS:  cpu time    0.00: real time    0.00
    CHARGE:  cpu time    0.04: real time    0.04
    MIXING:  cpu time    0.01: real time    0.01
    --------------------------------------------
      LOOP:  cpu time    0.66: real time    0.66

 eigenvalue-minimisations  :   248
 total energy-change (2. order) :-0.1724510E-03  (-0.2100241E-04)
 number of electron     120.9999679 magnetization       1.0009292
 augmentation part       57.9524716 magnetization      -0.0337865

 Broyden mixing:
  rms(total) = 0.91229E-03    rms(broyden)= 0.91193E-03
  rms(prec ) = 0.16792E-02
  weight for this iteration     100.00

 eigenvalues of (default mixing * dielectric matrix)
  average eigenvalue GAMMA=   1.6030
  5.7490  3.7430  2.5376  2.0962  2.0962  1.4771  0.9889  0.9889  0.9831  0.8912
  0.7459  0.7459  0.7177  0.6113  0.6279  0.6483

 Free energy of the ion-electron system (eV)
  ---------------------------------------------------
  alpha Z        PSCENC =        17.32276830
  Ewald energy   TEWEN  =     13103.53638987
  -Hartree energ DENC   =    -23977.74639667
  -exchange      EXHF   =         0.00000000
  -V(xc)+E(xc)   XCENC  =      -123.32151749
  PAW double counting   =     12375.02826964   -11893.27307450
  entropy T*S    EENTRO =         0.00000000
  eigenvalues    EBANDS =      -927.88681293
  atomic energy  EATOM  =     11409.18493095
  ---------------------------------------------------
  free energy    TOTEN  =       -17.15544284 eV

  energy without entropy =      -17.15544284  energy(sigma->0) =      -17.15544284


--------------------------------------------------------------------------------------------------------




----------------------------------------- Iteration    1(  22)  ---------------------------------------


    POTLOK:  cpu time    0.15: real time    0.15
    SETDIJ:  cpu time    0.01: real time    0.01
     EDDAV:  cpu time    0.43: real time    0.43
       DOS:  cpu time    0.00: real time    0.00
    CHARGE:  cpu time    0.04: real time    0.04
    MIXING:  cpu time    0.01: real time    0.01
    --------------------------------------------
      LOOP:  cpu time    0.63: real time    0.64

 eigenvalue-minimisations  :   224
 total energy-change (2. order) :-0.1414197E-02  (-0.1003269E-04)
 number of electron     120.9999679 magnetization       1.0017287
 augmentation part       57.9528553 magnetization      -0.0329098

 Broyden mixing:
  rms(total) = 0.62954E-03    rms(broyden)= 0.62946E-03
  rms(prec ) = 0.11237E-02
  weight for this iteration     100.00

 eigenvalues of (default mixing * dielectric matrix)
  average eigenvalue GAMMA=   1.6573
  5.6796  4.4984  2.7102  2.2980  2.2980  1.4623  1.4623  0.9694  0.9694  0.7479
  0.7479  0.8516  0.8516  0.7490  0.6157  0.6267  0.6368

 Free energy of the ion-electron system (eV)
  ---------------------------------------------------
  alpha Z        PSCENC =        17.32276830
  Ewald energy   TEWEN  =     13103.53638987
  -Hartree energ DENC   =    -23977.16483497
  -exchange      EXHF   =         0.00000000
  -V(xc)+E(xc)   XCENC  =      -123.32745752
  PAW double counting   =     12374.81464780   -11893.05905769
  entropy T*S    EENTRO =         0.00000000
  eigenvalues    EBANDS =      -928.46424377
  atomic energy  EATOM  =     11409.18493095
  ---------------------------------------------------
  free energy    TOTEN  =       -17.15685704 eV

  energy without entropy =      -17.15685704  energy(sigma->0) =      -17.15685704


--------------------------------------------------------------------------------------------------------




----------------------------------------- Iteration    1(  23)  ---------------------------------------


    POTLOK:  cpu time    0.15: real time    0.15
    SETDIJ:  cpu time    0.01: real time    0.01
     EDDAV:  cpu time    0.46: real time    0.46
       DOS:  cpu time    0.00: real time    0.00
    CHARGE:  cpu time    0.04: real time    0.04
    MIXING:  cpu time    0.01: real time    0.01
    --------------------------------------------
      LOOP:  cpu time    0.66: real time    0.67

 eigenvalue-minimisations  :   248
 total energy-change (2. order) :-0.1527328E-02  (-0.1036213E-04)
 number of electron     120.9999679 magnetization       1.0006191
 augmentation part       57.9533081 magnetization      -0.0340006

 Broyden mixing:
  rms(total) = 0.48206E-03    rms(broyden)= 0.48196E-03
  rms(prec ) = 0.70235E-03
  weight for this iteration     100.00

 eigenvalues of (default mixing * dielectric matrix)
  average eigenvalue GAMMA=   1.6980
  5.5595  5.5595  2.8326  2.4094  2.4094  1.5772  1.5772  1.0636  0.9892  0.9892
  0.7503  0.7503  0.7859  0.7859  0.6581  0.6325  0.6325  0.6024

 Free energy of the ion-electron system (eV)
  ---------------------------------------------------
  alpha Z        PSCENC =        17.32276830
  Ewald energy   TEWEN  =     13103.53638987
  -Hartree energ DENC   =    -23976.62906607
  -exchange      EXHF   =         0.00000000
  -V(xc)+E(xc)   XCENC  =      -123.33245499
  PAW double counting   =     12374.47831979   -11892.72064336
  entropy T*S    EENTRO =        -0.00000000
  eigenvalues    EBANDS =      -928.99862885
  atomic energy  EATOM  =     11409.18493095
  ---------------------------------------------------
  free energy    TOTEN  =       -17.15838437 eV

  energy without entropy =      -17.15838437  energy(sigma->0) =      -17.15838437


--------------------------------------------------------------------------------------------------------




----------------------------------------- Iteration    1(  24)  ---------------------------------------


    POTLOK:  cpu time    0.15: real time    0.15
    SETDIJ:  cpu time    0.00: real time    0.01
     EDDAV:  cpu time    0.44: real time    0.43
       DOS:  cpu time    0.00: real time    0.00
    --------------------------------------------
      LOOP:  cpu time    0.59: real time    0.59

 eigenvalue-minimisations  :   224
 total energy-change (2. order) :-0.4015994E-04  (-0.1300922E-05)
 number of electron     120.9999679 magnetization       1.0006191
 augmentation part       57.9533081 magnetization      -0.0340006

 Free energy of the ion-electron system (eV)
  ---------------------------------------------------
  alpha Z        PSCENC =        17.32276830
  Ewald energy   TEWEN  =     13103.53638987
  -Hartree energ DENC   =    -23976.52613259
  -exchange      EXHF   =         0.00000000
  -V(xc)+E(xc)   XCENC  =      -123.33276163
  PAW double counting   =     12374.58382236   -11892.82783974
  entropy T*S    EENTRO =         0.00000000
  eigenvalues    EBANDS =      -929.09960204
  atomic energy  EATOM  =     11409.18493095
  ---------------------------------------------------
  free energy    TOTEN  =       -17.15842453 eV

  energy without entropy =      -17.15842453  energy(sigma->0) =      -17.15842453


--------------------------------------------------------------------------------------------------------




 average (electrostatic) potential at core
  the test charge radii are     1.1249
  (the norm of the test charge is              1.0000)
       1 -82.7566       2 -82.4742       3 -82.4127       4 -82.7568       5 -82.7469
       6 -82.3764       7 -82.7276       8 -82.4132       9 -82.3789      10 -82.6134
      11 -82.6123
 
 
 
 E-fermi :  -3.7099     XC(G=0):  -0.7895     alpha+bet : -0.4250


 spin component 1

 k-point     1 :       0.0000    0.0000    0.0000
  band No.  band energies     occupation 
      1      -9.9678      1.00000
      2      -9.8108      1.00000
      3      -9.7402      1.00000
      4      -9.7020      1.00000
      5      -9.6871      1.00000
      6      -9.5438      1.00000
      7      -9.5180      1.00000
      8      -9.4810      1.00000
      9      -9.2950      1.00000
     10      -9.2810      1.00000
     11      -9.1761      1.00000
     12      -9.1300      1.00000
     13      -9.0687      1.00000
     14      -8.9643      1.00000
     15      -8.9548      1.00000
     16      -8.7702      1.00000
     17      -8.7541      1.00000
     18      -8.6537      1.00000
     19      -8.6482      1.00000
     20      -8.3276      1.00000
     21      -8.2072      1.00000
     22      -8.1354      1.00000
     23      -8.0956      1.00000
     24      -7.9145      1.00000
     25      -7.8725      1.00000
     26      -7.8620      1.00000
     27      -7.8368      1.00000
     28      -7.7638      1.00000
     29      -7.6838      1.00000
     30      -7.5778      1.00000
     31      -7.5452      1.00000
     32      -7.4728      1.00000
     33      -7.3900      1.00000
     34      -7.3462      1.00000
     35      -7.2793      1.00000
     36      -7.2455      1.00000
     37      -7.2135      1.00000
     38      -7.1975      1.00000
     39      -7.1591      1.00000
     40      -7.1412      1.00000
     41      -7.0740      1.00000
     42      -6.9343      1.00000
     43      -6.8803      1.00000
     44      -6.8661      1.00000
     45      -6.8492      1.00000
     46      -6.8339      1.00000
     47      -6.7817      1.00000
     48      -6.7171      1.00000
     49      -6.7133      1.00000
     50      -6.6335      1.00000
     51      -6.6234      1.00000
     52      -6.5578      1.00000
     53      -6.4219      1.00000
     54      -6.3896      1.00000
     55      -6.3471      1.00000
     56      -6.2600      1.00000
     57      -5.9720      1.00000
     58      -5.5229      1.00000
     59      -4.8122      1.00000
     60      -3.8980      1.00000
     61      -3.7189      1.00000
     62      -3.0055      0.00000
     63      -2.8956      0.00000
     64      -2.5406      0.00000
     65      -1.8937      0.00000
     66      -1.5681      0.00000
     67      -1.5094      0.00000
     68      -0.9506      0.00000
     69      -0.8911      0.00000
     70      -0.7306      0.00000
     71      -0.3922      0.00000
     72      -0.1336      0.00000
     73      -0.0685      0.00000
     74       0.0565      0.00000
     75       0.1571      0.00000
     76       0.3617      0.00000
     77       0.4356      0.00000
     78       0.6140      0.00000
     79       0.6246      0.00000
     80       0.6688      0.00000

 spin component 2

 k-point     1 :       0.0000    0.0000    0.0000
  band No.  band energies     occupation 
      1      -9.9503      1.00000
      2      -9.7970      1.00000
      3      -9.7232      1.00000
      4      -9.6797      1.00000
      5      -9.6774      1.00000
      6      -9.5105      1.00000
      7      -9.5093      1.00000
      8      -9.4529      1.00000
      9      -9.2701      1.00000
     10      -9.2485      1.00000
     11      -9.1469      1.00000
     12      -9.1023      1.00000
     13      -9.0497      1.00000
     14      -8.9375      1.00000
     15      -8.9240      1.00000
     16      -8.7434      1.00000
     17      -8.7270      1.00000
     18      -8.6289      1.00000
     19      -8.6209      1.00000
     20      -8.2939      1.00000
     21      -8.1812      1.00000
     22      -8.0929      1.00000
     23      -8.0557      1.00000
     24      -7.8824      1.00000
     25      -7.8571      1.00000
     26      -7.8381      1.00000
     27      -7.8073      1.00000
     28      -7.7312      1.00000
     29      -7.6617      1.00000
     30      -7.5552      1.00000
     31      -7.5276      1.00000
     32      -7.4583      1.00000
     33      -7.3587      1.00000
     34      -7.3234      1.00000
     35      -7.2491      1.00000
     36      -7.2171      1.00000
     37      -7.1890      1.00000
     38      -7.1714      1.00000
     39      -7.1384      1.00000
     40      -7.1152      1.00000
     41      -7.0395      1.00000
     42      -6.9176      1.00000
     43      -6.8510      1.00000
     44      -6.8476      1.00000
     45      -6.8331      1.00000
     46      -6.8203      1.00000
     47      -6.7632      1.00000
     48      -6.7008      1.00000
     49      -6.6826      1.00000
     50      -6.6004      1.00000
     51      -6.5906      1.00000
     52      -6.5322      1.00000
     53      -6.3940      1.00000
     54      -6.3736      1.00000
     55      -6.3278      1.00000
     56      -6.2208      1.00000
     57      -5.9224      1.00000
     58      -5.4291      1.00000
     59      -4.7732      1.00000
     60      -3.8540      1.00000
     61      -3.4922      0.00000
     62      -2.9144      0.00000
     63      -2.8275      0.00000
     64      -2.4762      0.00000
     65      -1.8504      0.00000
     66      -1.4129      0.00000
     67      -1.4077      0.00000
     68      -0.8873      0.00000
     69      -0.6802      0.00000
     70      -0.6663      0.00000
     71      -0.2724      0.00000
     72      -0.0799      0.00000
     73       0.0690      0.00000
     74       0.1392      0.00000
     75       0.2209      0.00000
     76       0.3570      0.00000
     77       0.4533      0.00000
     78       0.6312      0.00000
     79       0.6434      0.00000
     80       0.7083      0.00000


--------------------------------------------------------------------------------------------------------


 soft charge-density along one line, spin component           1
         0         1         2         3         4         5         6         7         8         9
 total charge-density along one line
 
 soft charge-density along one line, spin component           2
         0         1         2         3         4         5         6         7         8         9
 total charge-density along one line
 
 pseudopotential strength for first ion, spin component:           1
-10.598  -0.004   0.016  -0.008   0.004 -10.560  -0.003   0.015
 -0.004 -10.623  -0.007  -0.010   0.002  -0.003 -10.584  -0.007
  0.016  -0.007 -10.609   0.002  -0.021   0.015  -0.007 -10.570
 -0.008  -0.010   0.002 -10.589   0.000  -0.008  -0.010   0.002
  0.004   0.002  -0.021   0.000 -10.600   0.004   0.002  -0.020
-10.560  -0.003   0.015  -0.008   0.004 -10.499  -0.003   0.015
 -0.003 -10.584  -0.007  -0.010   0.002  -0.003 -10.522  -0.007
  0.015  -0.007 -10.570   0.002  -0.020   0.015  -0.007 -10.509
 -0.008  -0.010   0.002 -10.551   0.000  -0.007  -0.009   0.002
  0.004   0.002  -0.020   0.000 -10.562   0.004   0.002  -0.019
  0.007   0.003   0.003   0.000  -0.011   0.007   0.003   0.003
  0.011   0.006   0.005   0.000  -0.019   0.011   0.006   0.005
  0.011   0.002   0.001  -0.003  -0.001   0.010   0.002   0.000
 -0.003  -0.002   0.007   0.010   0.000  -0.003  -0.001   0.007
 -0.003  -0.003  -0.009   0.003   0.015  -0.003  -0.003  -0.009
  0.013   0.002   0.001  -0.003  -0.001   0.011   0.002   0.001
 -0.003  -0.002   0.008   0.012   0.001  -0.003  -0.002   0.008
 -0.004  -0.003  -0.011   0.003   0.018  -0.004  -0.003  -0.010
 pseudopotential strength for first ion, spin component:           2
-10.591  -0.005   0.013  -0.007   0.002 -10.554  -0.004   0.013
 -0.005 -10.616  -0.002  -0.012   0.005  -0.004 -10.577  -0.002
  0.013  -0.002 -10.593  -0.001  -0.016   0.013  -0.002 -10.556
 -0.007  -0.012  -0.001 -10.582  -0.001  -0.007  -0.011  -0.001
  0.002   0.005  -0.016  -0.001 -10.591   0.002   0.005  -0.015
-10.554  -0.004   0.013  -0.007   0.002 -10.493  -0.004   0.012
 -0.004 -10.577  -0.002  -0.011   0.005  -0.004 -10.515  -0.002
  0.013  -0.002 -10.556  -0.001  -0.015   0.012  -0.002 -10.495
 -0.007  -0.011  -0.001 -10.545  -0.001  -0.007  -0.011  -0.001
  0.002   0.005  -0.015  -0.001 -10.553   0.002   0.005  -0.014
  0.006   0.003   0.002   0.001  -0.010   0.006   0.003   0.002
  0.010   0.005   0.004   0.002  -0.017   0.010   0.005   0.004
  0.011   0.002   0.001  -0.003   0.000   0.010   0.002   0.001
 -0.003  -0.003   0.005   0.011   0.000  -0.003  -0.002   0.005
 -0.004  -0.003  -0.009   0.002   0.016  -0.004  -0.003  -0.008
  0.012   0.002   0.002  -0.003   0.001   0.011   0.002   0.002
 -0.003  -0.004   0.005   0.012  -0.000  -0.003  -0.003   0.005
 -0.006  -0.003  -0.010   0.002   0.018  -0.005  -0.003  -0.010
 total augmentation occupancy for first ion, spin component:           1
  3.840   0.023  -0.149   0.276  -0.001  -1.890  -0.053   0.228  -0.320   0.046  -0.442   0.069   0.376   0.055   0.044  -0.020
  0.023   3.649   0.215  -0.011  -0.212  -0.054  -1.896  -0.251  -0.036   0.222  -0.336   0.072  -0.054  -0.124   0.017   0.003
 -0.149   0.215   3.580  -0.006   0.262   0.229  -0.252  -1.670   0.015  -0.363  -0.129  -0.020   0.053  -0.059  -0.046  -0.002
  0.276  -0.011  -0.006   3.838   0.043  -0.320  -0.035   0.014  -1.848  -0.037  -0.070  -0.001   0.066   0.441   0.011  -0.005
 -0.001  -0.212   0.262   0.043   3.838   0.046   0.222  -0.363  -0.037  -1.895   0.811  -0.106   0.206   0.004   0.155  -0.012
 -1.890  -0.054   0.229  -0.320   0.046   1.916   0.084  -0.300   0.363  -0.086   0.411  -0.059  -0.379  -0.060  -0.044   0.025
 -0.053  -1.896  -0.252  -0.035   0.222   0.084   2.090   0.286   0.078  -0.236   0.349  -0.074   0.033   0.111  -0.027  -0.001
  0.228  -0.251  -1.670   0.014  -0.363  -0.300   0.286   1.720  -0.022   0.451   0.117   0.015  -0.049   0.062   0.045   0.002
 -0.320  -0.036   0.015  -1.848  -0.037   0.363   0.078  -0.022   1.838   0.034   0.073   0.001  -0.069  -0.449  -0.015   0.003
  0.046   0.222  -0.363  -0.037  -1.895  -0.086  -0.236   0.451   0.034   1.924  -0.744   0.098  -0.199  -0.002  -0.158   0.011
 -0.442  -0.336  -0.129  -0.070   0.811   0.411   0.349   0.117   0.073  -0.744   2.378  -0.420   0.036  -0.006  -0.256  -0.005
  0.069   0.072  -0.020  -0.001  -0.106  -0.059  -0.074   0.015   0.001   0.098  -0.420   0.092  -0.022  -0.010   0.067   0.001
  0.376  -0.054   0.053   0.066   0.206  -0.379   0.033  -0.049  -0.069  -0.199   0.036  -0.022   0.230   0.037   0.037  -0.013
  0.055  -0.124  -0.059   0.441   0.004  -0.060   0.111   0.062  -0.449  -0.002  -0.006  -0.010   0.037   0.191   0.006  -0.001
  0.044   0.017  -0.046   0.011   0.155  -0.044  -0.027   0.045  -0.015  -0.158  -0.256   0.067   0.037   0.006   0.101  -0.001
 -0.020   0.003  -0.002  -0.005  -0.012   0.025  -0.001   0.002   0.003   0.011  -0.005   0.001  -0.013  -0.001  -0.001   0.001
 -0.005   0.005   0.006  -0.021  -0.000   0.003  -0.005  -0.002   0.027   0.000  -0.000   0.000  -0.001  -0.010  -0.000   0.000
 -0.004  -0.004   0.002   0.002  -0.004   0.003   0.003  -0.004   0.000   0.010   0.023  -0.006  -0.001  -0.000  -0.007   0.000
 total augmentation occupancy for first ion, spin component:           2
  0.018  -0.034  -0.071   0.024  -0.046  -0.013   0.026   0.055  -0.017   0.036   0.001   0.002  -0.009   0.015  -0.003   0.000
 -0.034   0.046   0.126  -0.032   0.079   0.027  -0.037  -0.097   0.025  -0.064   0.005  -0.002   0.017  -0.024   0.004  -0.000
 -0.071   0.126   0.252  -0.077   0.146   0.056  -0.097  -0.199   0.060  -0.114  -0.023  -0.002   0.025  -0.056   0.008  -0.001
  0.024  -0.032  -0.077   0.014  -0.042  -0.018   0.025   0.061  -0.011   0.034   0.009  -0.002  -0.007   0.013  -0.002   0.000
 -0.046   0.079   0.146  -0.042   0.092   0.036  -0.064  -0.114   0.033  -0.071  -0.004  -0.008   0.014  -0.033   0.005  -0.000
 -0.013   0.027   0.056  -0.018   0.036   0.009  -0.021  -0.043   0.012  -0.028  -0.002  -0.001   0.007  -0.012   0.002  -0.000
  0.026  -0.037  -0.097   0.025  -0.064  -0.021   0.030   0.074  -0.019   0.052  -0.006   0.003  -0.013   0.018  -0.003   0.000
  0.055  -0.097  -0.199   0.061  -0.114  -0.043   0.074   0.156  -0.047   0.088   0.018   0.001  -0.019   0.044  -0.007   0.000
 -0.017   0.025   0.060  -0.011   0.033   0.012  -0.019  -0.047   0.009  -0.026  -0.005   0.000   0.006  -0.010   0.002  -0.000
  0.036  -0.064  -0.114   0.034  -0.071  -0.028   0.052   0.088  -0.026   0.054   0.008   0.003  -0.010   0.026  -0.004   0.000
  0.001   0.005  -0.023   0.009  -0.004  -0.002  -0.006   0.018  -0.005   0.008  -0.000  -0.001  -0.003   0.003  -0.001   0.000
  0.002  -0.002  -0.002  -0.002  -0.008  -0.001   0.003   0.001   0.000   0.003  -0.001   0.000  -0.000   0.001  -0.000   0.000
 -0.009   0.017   0.025  -0.007   0.014   0.007  -0.013  -0.019   0.006  -0.010  -0.003  -0.000   0.001  -0.006   0.001  -0.000
  0.015  -0.024  -0.056   0.013  -0.033  -0.012   0.018   0.044  -0.010   0.026   0.003   0.001  -0.006   0.011  -0.002   0.000
 -0.003   0.004   0.008  -0.002   0.005   0.002  -0.003  -0.007   0.002  -0.004  -0.001  -0.000   0.001  -0.002   0.000  -0.000
  0.000  -0.000  -0.001   0.000  -0.000  -0.000   0.000   0.000  -0.000   0.000   0.000   0.000  -0.000   0.000  -0.000   0.000
 -0.000   0.001   0.001  -0.000   0.001   0.000  -0.001  -0.001   0.000  -0.001  -0.000   0.000   0.000  -0.000   0.000  -0.000
  0.000  -0.000  -0.000   0.000  -0.000  -0.000   0.000   0.000  -0.000   0.000   0.000  -0.000  -0.000   0.000  -0.000   0.000


------------------------ aborting loop because EDIFF is reached ----------------------------------------


    CHARGE:  cpu time    0.04: real time    0.04
    FORLOC:  cpu time    0.00: real time    0.00
    FORNL :  cpu time    0.23: real time    0.23
    STRESS:  cpu time    0.26: real time    0.27
    FORCOR:  cpu time    0.15: real time    0.15
    FORHAR:  cpu time    0.02: real time    0.02
    MIXING:  cpu time    0.01: real time    0.01
    OFIELD:  cpu time    0.00: real time    0.00

  FORCE on cell =-STRESS in cart. coord.  units (eV):
  Direction    XX          YY          ZZ          XY          YZ          ZX
  --------------------------------------------------------------------------------------
  Alpha Z    17.32277    17.32277    17.32277
  Ewald    3063.29174  5247.44811  4792.78824  1726.20687   601.80687  1488.61848
  Hartree  6880.95766  8750.50925  8344.89004  1484.80835   552.33015  1268.90913
  E(xc)    -641.23028  -640.44881  -640.39636     0.61941    -0.01166     0.45578
  Local  -11739.35597-15787.71500-14928.49019 -3211.18056 -1157.50615 -2755.03410
  n-local   -91.01337   -89.71248   -92.10430     2.51226     3.61007     2.79283
  augment  1008.89245  1006.86124  1007.57302    -0.85275     0.09885    -1.41471
  Kinetic  1516.23590  1511.99399  1512.03090    -0.95091     2.26754    -1.80015
  Fock        0.00000     0.00000     0.00000     0.00000     0.00000     0.00000
  -------------------------------------------------------------------------------------
  Total      15.10089    16.25907    13.61413     1.16265     2.59569     2.52725
  in kB       4.07222     4.38454     3.67129     0.31353     0.69997     0.68152
  external pressure =        4.04 kB  Pullay stress =        0.00 kB


 VOLUME and BASIS-vectors are now :
 -----------------------------------------------------------------------------
  energy-cutoff  :      249.84
  volume of cell :     5941.31
      direct lattice vectors                 reciprocal lattice vectors
    18.111764040  0.000000000  0.000000000     0.055212733  0.000000000  0.000000000
     0.000000000 18.111764040  0.000000000     0.000000000  0.055212733  0.000000000
     0.000000000  0.000000000 18.111764040     0.000000000  0.000000000  0.055212733

  length of vectors
    18.111764040 18.111764040 18.111764040     0.055212733  0.055212733  0.055212733


 FORCES acting on ions
    electron-ion (+dipol)            ewald-force                    non-local-force                 convergence-correction
 -----------------------------------------------------------------------------------------------
   -.100E+04 0.136E+03 -.487E+02   0.999E+03 -.136E+03 0.477E+02   0.350E+01 0.566E+00 0.113E+01   0.369E-02 -.780E-03 0.125E-02
   -.300E+03 -.479E+03 0.890E+03   0.299E+03 0.476E+03 -.887E+03   0.112E+01 0.287E+01 -.466E+01   0.120E-02 0.350E-02 -.515E-02
   -.672E+03 -.856E+03 0.371E+02   0.670E+03 0.853E+03 -.350E+02   0.415E+01 0.482E+01 -.224E+01   0.142E-02 0.157E-02 -.319E-02
   -.525E+03 0.744E+03 0.438E+03   0.526E+03 -.742E+03 -.438E+03   0.594E+00 -.316E+01 -.183E+01   0.137E-02 -.314E-02 -.536E-03
   -.282E+03 0.805E+03 -.733E+03   0.282E+03 -.802E+03 0.729E+03   0.190E+01 -.571E+01 0.525E+01   0.242E-03 -.478E-02 0.552E-02
   -.279E+03 -.329E+03 -.101E+04   0.279E+03 0.329E+03 0.101E+04   -.111E+00 0.384E+00 0.545E+01   -.847E-03 -.196E-02 0.317E-02
   0.687E+03 0.365E+02 -.717E+03   -.688E+03 -.352E+02 0.716E+03   -.174E+01 -.447E+00 0.228E+01   -.144E-02 -.162E-02 0.329E-02
   0.269E+03 0.346E+03 0.996E+03   -.269E+03 -.346E+03 -.992E+03   -.208E+00 -.668E+00 -.667E+01   0.932E-03 0.164E-02 -.319E-02
   0.665E+03 0.874E+03 -.500E+02   -.664E+03 -.871E+03 0.482E+02   -.330E+01 -.380E+01 0.211E+01   -.110E-02 -.127E-02 0.327E-02
   0.952E+03 -.339E+03 0.340E+03   -.949E+03 0.339E+03 -.337E+03   -.454E+01 0.106E+01 -.188E+01   -.512E-02 0.602E-03 -.200E-02
   0.484E+03 -.938E+03 -.142E+03   -.484E+03 0.935E+03 0.141E+03   -.175E+01 0.471E+01 0.939E+00   -.149E-02 0.473E-02 0.108E-02
[...]
     26      -7.5109      1.00000
     27      -7.4258      1.00000
     28      -7.3742      1.00000
     29      -7.3210      1.00000
     30      -7.2866      1.00000
     31      -7.2333      1.00000
     32      -7.1949      1.00000
     33      -7.1278      1.00000
     34      -7.1115      1.00000
     35      -7.0909      1.00000
     36      -7.0540      1.00000
     37      -7.0456      1.00000
     38      -6.9891      1.00000
     39      -6.9584      1.00000
     40      -6.9352      1.00000
     41      -6.9141      1.00000
     42      -6.8911      1.00000
     43      -6.8618      1.00000
     44      -6.8355      1.00000
     45      -6.8186      1.00000
     46      -6.8007      1.00000
     47      -6.7352      1.00000
     48      -6.6873      1.00000
     49      -6.6714      1.00000
     50      -6.6340      1.00000
     51      -6.6174      1.00000
     52      -6.5845      1.00000
     53      -6.5240      1.00000
     54      -6.4706      1.00000
     55      -6.4567      1.00000
     56      -6.3837      1.00000
     57      -6.0497      1.00000
     58      -5.1761      1.00000
     59      -4.6334      1.00000
     60      -4.2984      1.00000
     61      -3.6802      1.00000
     62      -2.8846      0.00000
     63      -2.5337      0.00000
     64      -2.5187      0.00000
     65      -2.1879      0.00000
     66      -1.8709      0.00000
     67      -1.6982      0.00000
     68      -1.0792      0.00000
     69      -0.9839      0.00000
     70      -0.7057      0.00000
     71      -0.5845      0.00000
     72      -0.3227      0.00000
     73      -0.2361      0.00000
     74      -0.1269      0.00000
     75       0.0270      0.00000
     76       0.2876      0.00000
     77       0.4370      0.00000
     78       0.5258      0.00000
     79       0.5332      0.00000
     80       0.5833      0.00000

 spin component 2

 k-point     1 :       0.0000    0.0000    0.0000
  band No.  band energies     occupation 
      1      -9.0340      1.00000
      2      -8.8892      1.00000
      3      -8.8389      1.00000
      4      -8.7652      1.00000
      5      -8.7017      1.00000
      6      -8.6527      1.00000
      7      -8.5445      1.00000
      8      -8.4965      1.00000
      9      -8.4435      1.00000
     10      -8.3992      1.00000
     11      -8.3442      1.00000
     12      -8.3348      1.00000
     13      -8.3020      1.00000
     14      -8.1862      1.00000
     15      -8.1527      1.00000
     16      -8.0914      1.00000
     17      -8.0324      1.00000
     18      -7.9531      1.00000
     19      -7.9344      1.00000
     20      -7.8149      1.00000
     21      -7.7766      1.00000
     22      -7.7491      1.00000
     23      -7.6350      1.00000
     24      -7.5981      1.00000
     25      -7.5540      1.00000
     26      -7.4882      1.00000
     27      -7.4088      1.00000
     28      -7.3541      1.00000
     29      -7.2978      1.00000
     30      -7.2643      1.00000
     31      -7.2097      1.00000
     32      -7.1712      1.00000
     33      -7.1112      1.00000
     34      -7.0885      1.00000
     35      -7.0609      1.00000
     36      -7.0255      1.00000
     37      -7.0117      1.00000
     38      -6.9734      1.00000
     39      -6.9308      1.00000
     40      -6.9187      1.00000
     41      -6.8929      1.00000
     42      -6.8803      1.00000
     43      -6.8441      1.00000
     44      -6.8074      1.00000
     45      -6.7986      1.00000
     46      -6.7792      1.00000
     47      -6.7086      1.00000
     48      -6.6673      1.00000
     49      -6.6550      1.00000
     50      -6.6049      1.00000
     51      -6.6027      1.00000
     52      -6.5621      1.00000
     53      -6.4962      1.00000
     54      -6.4485      1.00000
     55      -6.4320      1.00000
     56      -6.3695      1.00000
     57      -5.9890      1.00000
     58      -5.0894      1.00000
     59      -4.5893      1.00000
     60      -4.2570      1.00000
     61      -3.4490      0.00000
     62      -2.8147      0.00000
     63      -2.4811      0.00000
     64      -2.4373      0.00000
     65      -2.1323      0.00000
     66      -1.7151      0.00000
     67      -1.6401      0.00000
     68      -0.9893      0.00000
     69      -0.8250      0.00000
     70      -0.6062      0.00000
     71      -0.5163      0.00000
     72      -0.2197      0.00000
     73      -0.1505      0.00000
     74      -0.0380      0.00000
     75       0.0950      0.00000
     76       0.3187      0.00000
     77       0.4913      0.00000
     78       0.5553      0.00000
     79       0.6057      0.00000
     80       0.6606      0.00000


--------------------------------------------------------------------------------------------------------


 soft charge-density along one line, spin component           1
         0         1         2         3         4         5         6         7         8         9
 total charge-density along one line
 
 soft charge-density along one line, spin component           2
         0         1         2         3         4         5         6         7         8         9
 total charge-density along one line
 
 pseudopotential strength for first ion, spin component:           1
-10.391  -0.004   0.001   0.002   0.003 -10.362  -0.004   0.001
 -0.004 -10.394   0.004  -0.000  -0.004  -0.004 -10.365   0.004
  0.001   0.004 -10.399   0.002  -0.004   0.001   0.004 -10.370
  0.002  -0.000   0.002 -10.389   0.000   0.001  -0.000   0.002
  0.003  -0.004  -0.004   0.000 -10.386   0.003  -0.004  -0.004
-10.362  -0.004   0.001   0.001   0.003 -10.310  -0.004   0.000
 -0.004 -10.365   0.004  -0.000  -0.004  -0.004 -10.312   0.004
  0.001   0.004 -10.370   0.002  -0.004   0.000   0.004 -10.317
  0.001  -0.000   0.002 -10.361   0.000   0.001  -0.000   0.002
  0.003  -0.004  -0.004   0.000 -10.358   0.003  -0.004  -0.004
  0.002   0.000   0.001   0.001  -0.005   0.002   0.000   0.001
  0.003   0.001   0.002   0.002  -0.008   0.003   0.001   0.002
  0.023   0.003   0.001  -0.000   0.002   0.022   0.003   0.001
 -0.000  -0.003   0.004   0.023   0.000  -0.000  -0.003   0.004
 -0.002  -0.000  -0.013   0.003   0.023  -0.002  -0.000  -0.013
  0.028   0.004   0.001  -0.000   0.003   0.027   0.004   0.001
 -0.000  -0.003   0.005   0.028  -0.000  -0.000  -0.003   0.004
 -0.003  -0.000  -0.016   0.003   0.028  -0.003  -0.000  -0.016
 pseudopotential strength for first ion, spin component:           2
-10.391  -0.004  -0.000   0.002   0.003 -10.362  -0.004  -0.000
 -0.004 -10.394   0.004  -0.001  -0.004  -0.004 -10.365   0.004
 -0.000   0.004 -10.396  -0.001  -0.003  -0.000   0.004 -10.367
  0.002  -0.001  -0.001 -10.387  -0.001   0.002  -0.001  -0.001
  0.003  -0.004  -0.003  -0.001 -10.385   0.003  -0.004  -0.003
-10.362  -0.004  -0.000   0.002   0.003 -10.309  -0.004  -0.000
 -0.004 -10.365   0.004  -0.001  -0.004  -0.004 -10.312   0.004
 -0.000   0.004 -10.367  -0.001  -0.003  -0.000   0.004 -10.314
  0.002  -0.001  -0.001 -10.359  -0.001   0.002  -0.001  -0.001
  0.003  -0.004  -0.003  -0.001 -10.357   0.003  -0.003  -0.002
  0.001   0.000   0.002   0.002  -0.004   0.001   0.000   0.002
  0.002   0.000   0.003   0.003  -0.007   0.002   0.001   0.003
  0.023   0.003   0.001  -0.000   0.003   0.021   0.003   0.001
 -0.000  -0.003   0.003   0.023  -0.000  -0.000  -0.003   0.003
 -0.003  -0.000  -0.013   0.003   0.023  -0.003  -0.000  -0.012
  0.028   0.004   0.002  -0.000   0.004   0.026   0.004   0.002
 -0.000  -0.004   0.004   0.028  -0.000  -0.000  -0.004   0.004
 -0.003  -0.000  -0.016   0.003   0.029  -0.003  -0.000  -0.015
 total augmentation occupancy for first ion, spin component:           1
  2.977  -0.170   0.078  -0.014  -0.039  -0.999   0.118  -0.062  -0.011   0.085  -0.110  -0.010   0.232   0.001  -0.025  -0.002
 -0.170   2.799   0.030  -0.001  -0.171   0.118  -0.829  -0.006  -0.018   0.172  -0.153   0.020  -0.154  -0.047  -0.039   0.010
  0.078   0.030   2.679   0.010  -0.010  -0.062  -0.006  -0.716   0.002  -0.034  -0.031   0.000   0.052  -0.009  -0.023  -0.001
 -0.014  -0.001   0.010   3.020   0.061  -0.010  -0.018   0.002  -0.962  -0.053  -0.102  -0.008  -0.000   0.242   0.001  -0.001
 -0.039  -0.171  -0.010   0.061   2.898   0.085   0.172  -0.034  -0.053  -0.840   0.336  -0.008   0.060   0.059   0.094  -0.001
 -0.999   0.118  -0.062  -0.010   0.085   0.989  -0.075   0.050   0.031  -0.124   0.100   0.004  -0.242   0.000   0.031   0.015
  0.118  -0.829  -0.006  -0.018   0.172  -0.075   0.822  -0.014   0.033  -0.175   0.151  -0.030   0.142   0.041   0.031  -0.007
 -0.062  -0.006  -0.716   0.002  -0.034   0.050  -0.014   0.713  -0.012   0.068   0.022   0.002  -0.051   0.005   0.035   0.002
 -0.011  -0.018   0.002  -0.962  -0.053   0.031   0.033  -0.012   0.885   0.048   0.090   0.008   0.001  -0.251  -0.003   0.000
  0.085   0.172  -0.034  -0.053  -0.840  -0.124  -0.175   0.068   0.048   0.761  -0.299   0.016  -0.058  -0.058  -0.104   0.003
 -0.110  -0.153  -0.031  -0.102   0.336   0.100   0.151   0.022   0.090  -0.299   1.844  -0.293   0.031   0.008  -0.194  -0.003
 -0.010   0.020   0.000  -0.008  -0.008   0.004  -0.030   0.002   0.008   0.016  -0.293   0.061  -0.011  -0.013   0.049   0.001
  0.232  -0.154   0.052  -0.000   0.060  -0.242   0.142  -0.051   0.001  -0.058   0.031  -0.011   0.133   0.019   0.013  -0.007
  0.001  -0.047  -0.009   0.242   0.059   0.000   0.041   0.005  -0.251  -0.058   0.008  -0.013   0.019   0.111   0.008  -0.001
 -0.025  -0.039  -0.023   0.001   0.094   0.031   0.031   0.035  -0.003  -0.104  -0.194   0.049   0.013   0.008   0.069  -0.000
 -0.002   0.010  -0.001  -0.001  -0.001   0.015  -0.007   0.002   0.000   0.003  -0.003   0.001  -0.007  -0.001  -0.000   0.001
 -0.001   0.001   0.002  -0.002  -0.003   0.000  -0.002  -0.000   0.015   0.003  -0.002   0.001  -0.001  -0.006  -0.000   0.000
  0.000   0.000  -0.005   0.003   0.008  -0.001  -0.001  -0.002  -0.000   0.005   0.019  -0.004  -0.000  -0.000  -0.005   0.000
 total augmentation occupancy for first ion, spin component:           2
 -0.014   0.008  -0.020   0.016  -0.012   0.006  -0.006   0.015  -0.012   0.009  -0.017  -0.002  -0.003   0.006  -0.002   0.000
  0.008  -0.029   0.004  -0.004   0.002  -0.006   0.016  -0.002   0.003  -0.002   0.006   0.001   0.001   0.000  -0.000  -0.000
 -0.020   0.004   0.050  -0.052   0.044   0.015  -0.002  -0.046   0.040  -0.034   0.052   0.010   0.010  -0.024   0.008  -0.000
  0.016  -0.004  -0.052  -0.002  -0.022  -0.012   0.003   0.040  -0.004   0.017  -0.034  -0.007  -0.006   0.013  -0.007   0.000
 -0.012   0.002   0.044  -0.022   0.005   0.009  -0.002  -0.034   0.017  -0.009   0.032   0.004   0.006  -0.013   0.006  -0.000
  0.006  -0.006   0.015  -0.012   0.009   0.002   0.004  -0.012   0.008  -0.007   0.014   0.001   0.003  -0.005   0.002  -0.000
 -0.006   0.016  -0.002   0.003  -0.002   0.004  -0.005   0.000  -0.003   0.002  -0.006   0.000  -0.002   0.001   0.000   0.000
  0.015  -0.002  -0.046   0.040  -0.034  -0.012   0.000   0.044  -0.031   0.025  -0.042  -0.006  -0.008   0.017  -0.006   0.000
 -0.012   0.003   0.040  -0.004   0.017   0.008  -0.003  -0.031   0.010  -0.014   0.028   0.003   0.005  -0.009   0.004  -0.000
  0.009  -0.002  -0.034   0.017  -0.009  -0.007   0.002   0.025  -0.014   0.013  -0.025  -0.002  -0.005   0.010  -0.004   0.000
 -0.017   0.006   0.052  -0.034   0.032   0.014  -0.006  -0.042   0.028  -0.025   0.053   0.002   0.008  -0.020   0.007  -0.000
 -0.002   0.001   0.010  -0.007   0.004   0.001   0.000  -0.006   0.003  -0.002   0.002   0.001   0.000  -0.002   0.001  -0.000
 -0.003   0.001   0.010  -0.006   0.006   0.003  -0.002  -0.008   0.005  -0.005   0.008   0.000   0.001  -0.003   0.001  -0.000
  0.006   0.000  -0.024   0.013  -0.013  -0.005   0.001   0.017  -0.009   0.010  -0.020  -0.002  -0.003   0.006  -0.002   0.000
 -0.002  -0.000   0.008  -0.007   0.006   0.002   0.000  -0.006   0.004  -0.004   0.007   0.001   0.001  -0.002   0.001  -0.000
  0.000  -0.000  -0.000   0.000  -0.000  -0.000   0.000   0.000  -0.000   0.000  -0.000  -0.000  -0.000   0.000  -0.000   0.000
 -0.000   0.000   0.000  -0.000   0.000   0.000  -0.000  -0.000   0.000  -0.000   0.001   0.000   0.000  -0.000   0.000  -0.000
  0.000   0.000  -0.000  -0.000  -0.000  -0.000  -0.000   0.000  -0.000   0.000  -0.000  -0.000  -0.000   0.000  -0.000   0.000


------------------------ aborting loop because EDIFF is reached ----------------------------------------


    CHARGE:  cpu time    0.04: real time    0.04
    FORLOC:  cpu time    0.01: real time    0.01
    FORNL :  cpu time    0.24: real time    0.24
    STRESS:  cpu time    0.27: real time    0.27
    FORCOR:  cpu time    0.15: real time    0.15
    FORHAR:  cpu time    0.02: real time    0.02
    MIXING:  cpu time    0.00: real time    0.00
    OFIELD:  cpu time    0.00: real time    0.00

  FORCE on cell =-STRESS in cart. coord.  units (eV):
  Direction    XX          YY          ZZ          XY          YZ          ZX
  --------------------------------------------------------------------------------------
  Alpha Z    17.32277    17.32277    17.32277
  Ewald    2712.82590  3616.61367  4728.51324  2098.39321  1144.51004  1453.34754
  Hartree  6485.98702  7260.01221  8237.63922  1798.90878  1022.93177  1281.18523
  E(xc)    -637.85359  -637.45924  -637.09357     0.85499     0.27080     0.37881
  Local  -10978.87407-12654.90435-14741.20792 -3892.79304 -2168.42920 -2732.30143
  n-local  -125.01044  -124.67667  -125.21597     0.33630     0.90297     0.46233
  augment  1010.69153  1009.93809  1009.03555    -1.74715    -0.15239    -0.99812
  Kinetic  1510.95762  1509.21948  1507.10220    -4.11774    -0.17542    -2.21534
  Fock        0.00000     0.00000     0.00000     0.00000     0.00000     0.00000
  -------------------------------------------------------------------------------------
  Total      -3.95326    -3.93405    -3.90448    -0.16465    -0.14143    -0.14098
  in kB      -1.06607    -1.06088    -1.05291    -0.04440    -0.03814    -0.03802
  external pressure =       -1.06 kB  Pullay stress =        0.00 kB


 VOLUME and BASIS-vectors are now :
 -----------------------------------------------------------------------------
  energy-cutoff  :      249.84
  volume of cell :     5941.31
      direct lattice vectors                 reciprocal lattice vectors
    18.111764040  0.000000000  0.000000000     0.055212733  0.000000000  0.000000000
     0.000000000 18.111764040  0.000000000     0.000000000  0.055212733  0.000000000
     0.000000000  0.000000000 18.111764040     0.000000000  0.000000000  0.055212733

  length of vectors
    18.111764040 18.111764040 18.111764040     0.055212733  0.055212733  0.055212733


 FORCES acting on ions
    electron-ion (+dipol)            ewald-force                    non-local-force                 convergence-correction
 -----------------------------------------------------------------------------------------------
   -.878E+03 0.362E+02 0.491E+02   0.875E+03 -.360E+02 -.500E+02   0.317E+01 -.116E+00 0.935E+00   0.345E-01 -.571E-01 0.758E-02
   -.432E+03 -.286E+03 0.798E+03   0.429E+03 0.284E+03 -.794E+03   0.264E+01 0.210E+01 -.453E+01   -.280E-02 -.971E-02 -.178E-01
   -.517E+03 -.690E+03 -.198E+03   0.513E+03 0.684E+03 0.197E+03   0.399E+01 0.550E+01 0.301E+00   0.245E-01 0.227E-01 0.207E-01
   -.330E+03 0.735E+03 0.161E+03   0.330E+03 -.733E+03 -.160E+03   -.182E+00 -.201E+01 -.115E+01   -.360E-01 0.737E-01 -.712E-02
   -.308E+03 0.653E+03 -.640E+03   0.306E+03 -.648E+03 0.636E+03   0.192E+01 -.459E+01 0.404E+01   0.122E-01 -.149E-01 0.655E-02
   -.228E+02 -.280E+03 -.877E+03   0.235E+02 0.279E+03 0.873E+03   -.795E+00 0.947E+00 0.377E+01   0.537E-01 0.817E-02 0.490E-01
   0.675E+03 0.528E+02 -.587E+03   -.673E+03 -.520E+02 0.585E+03   -.226E+01 -.797E+00 0.277E+01   -.150E-01 -.975E-02 -.175E-01
   0.152E+03 0.397E+03 0.825E+03   -.152E+03 -.395E+03 -.820E+03   -.985E-01 -.201E+01 -.501E+01   -.288E-01 0.653E-02 0.237E-02
   0.692E+03 0.634E+03 -.181E+02   -.688E+03 -.631E+03 0.166E+02   -.430E+01 -.364E+01 0.150E+01   -.622E-02 -.609E-01 -.219E-01
   0.733E+03 -.411E+03 0.403E+03   -.730E+03 0.410E+03 -.400E+03   -.370E+01 0.558E+00 -.311E+01   -.119E-01 0.302E-01 0.212E-01
   0.235E+03 -.841E+03 0.843E+02   -.234E+03 0.837E+03 -.848E+02   -.392E-01 0.373E+01 0.473E+00   -.437E-01 0.345E-01 -.338E-01
 -----------------------------------------------------------------------------------------------
   -.383E+00 0.240E+00 0.735E-01   0.767E-12 0.000E+00 0.227E-12   0.354E+00 -.334E+00 -.634E-02   -.197E-01 0.235E-01 0.934E-02
 
 
 POSITION                                       TOTAL-FORCE (eV/Angst)
 -----------------------------------------------------------------------------------
     11.23508      9.51659      9.50471        -0.007910      0.005489     -0.001745
      9.99459      9.68679      6.95693         0.003967      0.000281      0.015094
     11.40370     12.09004     10.57363        -0.005046      0.013559     -0.009119
      9.48485      7.53266      8.58904         0.011769     -0.023672      0.002840
     10.11074      7.60564     11.26388         0.003643      0.005940      0.012779
      9.81479     10.30679     11.87064        -0.021913      0.001199     -0.004408
      7.77433      8.90089     10.47762         0.002735     -0.010434     -0.010455
      8.13672      7.54204      6.15304         0.023686     -0.002041     -0.000200
      6.77913      6.96169      8.53340        -0.007477      0.020381      0.004715
      7.35754      9.60202      7.84884         0.010974     -0.002896     -0.008588
      9.05805     11.20433      9.27402        -0.014430     -0.007808     -0.000913
 -----------------------------------------------------------------------------------
    total drift:                               -0.048270     -0.070741      0.076551


--------------------------------------------------------------------------------------------------------



  FREE ENERGIE OF THE ION-ELECTRON SYSTEM (eV)
  ---------------------------------------------------
  free  energy   TOTEN  =       -19.85556146 eV

  energy  without entropy=      -19.85556146  energy(sigma->0) =      -19.85556146
 
 d Force = 0.1641325E-03[-0.287E-03, 0.616E-03]  d Energy = 0.1136129E-03 0.505E-04
 d Force = 0.7400937E+01[ 0.740E+01, 0.741E+01]  d Ewald  = 0.7400930E+01 0.627E-05


--------------------------------------------------------------------------------------------------------


    POTLOK:  cpu time    0.16: real time    0.16


--------------------------------------------------------------------------------------------------------




--------------------------------------------------------------------------------------------------------


  
 reached required accuracy - stopping structural energy minimisation
     LOOP+:  cpu time    3.06: real time    7.65
    4ORBIT:  cpu time    0.00: real time    0.00

 total amount of memory used by VASP on root node    48111. kBytes
========================================================================

   base      :      30000. kBytes
   nonl-proj :       1059. kBytes
   fftplans  :       4208. kBytes
   grid      :      10682. kBytes
   one-center:         31. kBytes
   wavefun   :       2131. kBytes
 
  
  
 General timing and accounting informations for this job:
 ========================================================
  
                  Total CPU time used (sec):      387.012
                            User time (sec):      379.696
                          System time (sec):        7.316
                         Elapsed time (sec):      463.243
  
                   Maximum memory used (kb):       52828.
                   Average memory used (kb):           0.
  
                          Minor page faults:      1171626
                          Major page faults:            0
                 Voluntary context switches:        12064
