54
Energy = -172.26880362 eV
Al 17.35134484788498 14.72217177524375 11.003096382078972
Al 16.66750917405509 12.576699273231252 12.470223565417797
Al 15.636534642219873 15.02628407777709 13.384412705109147
Al 15.658710952621465 13.029024664919614 15.203028808030432
Al 15.480486437696227 10.606273377710329 13.906761178369939
Al 15.751596244963949 16.846621132473377 11.383690724140498
Al 16.21563564545604 12.587069919940557 9.583607870291537
Al 15.480594931489442 10.490314879094006 11.132147859570281
Al 14.551022097009861 8.363062881170887 12.392017366272231
Al 14.461486195973446 16.367509140865725 9.028065535786048
Al 14.674533209558149 14.357761090253325 10.838381156268275
Al 13.363150847162617 8.285912109098097 7.895488362429081
Al 13.95129355199942 12.816778344103048 13.038822145148114
Al 13.887383100564746 8.907213759933246 15.095226209938174
Al 13.941443522643892 17.276047007577947 13.61588704699957
Al 13.55551865405496 15.058668782180206 15.180198556120486
Al 13.340352807056965 11.509617829554399 15.599264064149843
Al 12.569854413112258 6.933622804290035 11.102492661104304
Al 13.898416508695293 13.654548761678578 8.264714993625466
Al 14.450901634895581 10.821737268687093 8.437148057978746
Al 12.795124139858473 10.478389820482416 12.87878584952894
Al 12.84715387839183 17.484321527419254 11.15043400026809
Al 13.117069259745962 12.206107186199866 10.514621026096226
Al 12.373811246081855 7.184314995686576 13.815193756895045
Al 13.120394888352203 9.438353108286947 10.355125864818532
Al 12.219187173236586 13.56985264494196 16.964161618217734
Al 12.66814186695104 15.094754279282462 12.49021008826515
Al 12.119706414661048 15.258792182493675 9.703068521238388
Al 10.652595209405558 13.491720309372907 11.310900391580335
Al 10.73566413785306 10.926039136813376 10.461026652773185
Al 11.649217810994958 10.425549754261306 7.923127846265706
Al 9.76985755031741 7.061145779066625 14.051017424209864
Al 11.136468644365955 9.39847379965985 14.859174438503993
Al 10.561831619624703 11.589065989890878 16.14814786133327
Al 11.590039850731603 13.289810825728734 14.218645548792487
Al 10.914852940370702 8.190367909114864 9.26099062327754
Al 10.61729756385804 8.834684158120467 12.13781743724307
Al 11.017260372070062 16.09133226617413 14.503925461984611
Al 9.576500765906934 15.024911664874686 8.99219217703393
Al 9.960948692191176 6.286337766932118 11.16107577828864
Al 8.399652565273037 9.669848277454934 14.085323202843838
Al 11.203530705087228 12.996521255768222 8.426845118560463
Al 10.306711619316975 16.344401367024425 11.598002471934992
Al 9.63896265483708 14.207811267519672 16.09490384990809
Al 10.076409636614802 11.472119876784532 13.062162508979497
Al 8.889443545489527 10.171645432867988 8.51411678711715
Al 8.099712242212952 12.200421152042018 14.950500370672714
Al 7.813162622238198 7.663594298821834 12.368041781209126
Al 8.267324756623397 7.8675719303324625 9.707212192868699
Al 9.105530072236009 14.348391353093316 13.477688518342646
Al 8.195141778999378 10.137861687078757 11.290024255901303
Al 8.06158885534627 14.745994960745005 11.132549898456276
Al 8.582847252469836 12.50545064724931 9.710997810281892
Al 7.3852039092768065 12.456284794091484 12.387365114222643
