   36   36 1000    2
  0.3468566E+03  0.2319980E-08  0.2319980E-08  0.2319980E-08  0.1000000E-15
  1.000000000000000E-004
  CAR 
 unknown system                          
    396      1    256
 
  0.0000000E+00  0.0000000E+00  0.0000000E+00  0.1000000E+01
    1       -9.493954     -9.493954
    2       -9.213855     -9.213855
    3       -9.181611     -9.181611
    4       -9.086593     -9.086593
    5       -9.027842     -9.027842
    6       -8.993490     -8.993490
    7       -8.967582     -8.967582
    8       -8.929301     -8.929301
    9       -8.925470     -8.925470
   10       -8.863537     -8.863537
   11       -8.812317     -8.812317
   12       -8.794108     -8.794108
   13       -8.781523     -8.781523
   14       -8.773234     -8.773234
   15       -8.698535     -8.698535
   16       -8.694682     -8.694682
   17       -8.672453     -8.672453
   18       -8.663181     -8.663181
   19       -8.623730     -8.623730
   20       -8.594025     -8.594025
   21       -8.572075     -8.572075
   22       -8.560861     -8.560861
   23       -8.545042     -8.545042
   24       -8.521640     -8.521640
   25       -8.501435     -8.501435
   26       -8.497546     -8.497546
   27       -8.473245     -8.473245
   28       -8.452695     -8.452695
   29       -8.448433     -8.448433
   30       -8.433186     -8.433186
   31       -8.410736     -8.410736
   32       -8.384355     -8.384355
   33       -8.372901     -8.372901
   34       -8.360396     -8.360396
   35       -8.339763     -8.339763
   36       -8.327810     -8.327810
   37       -8.310823     -8.310823
   38       -8.304608     -8.304608
   39       -8.298676     -8.298676
   40       -8.253017     -8.253017
   41       -8.241475     -8.241475
   42       -8.225706     -8.225706
   43       -8.214915     -8.214915
   44       -8.206350     -8.206350
   45       -8.184673     -8.184673
   46       -8.158952     -8.158952
   47       -8.117282     -8.117282
   48       -8.100323     -8.100323
   49       -8.066394     -8.066394
   50       -8.060412     -8.060412
   51       -8.045559     -8.045559
   52       -8.034314     -8.034314
   53       -8.024303     -8.024303
   54       -7.993636     -7.993636
   55       -7.983774     -7.983774
   56       -7.978055     -7.978055
   57       -7.928383     -7.928383
   58       -7.916616     -7.916616
   59       -7.902539     -7.902539
   60       -7.879766     -7.879766
   61       -7.869281     -7.869281
   62       -7.846397     -7.846397
   63       -7.827742     -7.827742
   64       -7.808959     -7.808959
   65       -7.791236     -7.791236
   66       -7.763716     -7.763716
   67       -7.748742     -7.748742
   68       -7.730300     -7.730300
   69       -7.713215     -7.713215
   70       -7.694551     -7.694551
   71       -7.684275     -7.684275
   72       -7.672493     -7.672493
   73       -7.636028     -7.636028
   74       -7.630745     -7.630745
   75       -7.605791     -7.605791
   76       -7.588691     -7.588691
   77       -7.569511     -7.569511
   78       -7.548625     -7.548625
   79       -7.536166     -7.536166
   80       -7.509274     -7.509274
   81       -7.483025     -7.483025
   82       -7.462979     -7.462979
   83       -7.444992     -7.444992
   84       -7.430265     -7.430265
   85       -7.412544     -7.412544
   86       -7.405344     -7.405344
   87       -7.385389     -7.385389
   88       -7.360848     -7.360848
   89       -7.355729     -7.355729
   90       -7.344059     -7.344059
   91       -7.326609     -7.326609
   92       -7.320919     -7.320919
   93       -7.280220     -7.280220
   94       -7.266876     -7.266876
   95       -7.245832     -7.245832
   96       -7.243624     -7.243624
   97       -7.240154     -7.240154
   98       -7.211729     -7.211729
   99       -7.186322     -7.186322
  100       -7.182398     -7.182398
  101       -7.179877     -7.179877
  102       -7.160912     -7.160912
  103       -7.145170     -7.145170
  104       -7.136576     -7.136576
  105       -7.121964     -7.121964
  106       -7.111625     -7.111625
  107       -7.085089     -7.085089
  108       -7.069717     -7.069717
  109       -7.064236     -7.064236
  110       -7.046068     -7.046068
  111       -7.037604     -7.037604
  112       -7.024298     -7.024298
  113       -7.020338     -7.020338
  114       -7.009993     -7.009993
  115       -6.984868     -6.984868
  116       -6.975323     -6.975323
  117       -6.966902     -6.966902
  118       -6.959089     -6.959089
  119       -6.945860     -6.945860
  120       -6.940459     -6.940459
  121       -6.932893     -6.932893
  122       -6.912899     -6.912899
  123       -6.909457     -6.909457
  124       -6.891622     -6.891622
  125       -6.884354     -6.884354
  126       -6.875575     -6.875575
  127       -6.858825     -6.858825
  128       -6.848979     -6.848979
  129       -6.840013     -6.840013
  130       -6.833253     -6.833253
  131       -6.807693     -6.807693
  132       -6.806656     -6.806656
  133       -6.799563     -6.799563
  134       -6.784081     -6.784081
  135       -6.778847     -6.778847
  136       -6.756483     -6.756483
  137       -6.752449     -6.752449
  138       -6.746938     -6.746938
  139       -6.736375     -6.736375
  140       -6.735238     -6.735238
  141       -6.716691     -6.716691
  142       -6.710886     -6.710886
  143       -6.697050     -6.697050
  144       -6.691344     -6.691344
  145       -6.672759     -6.672759
  146       -6.668562     -6.668562
  147       -6.646757     -6.646757
  148       -6.640273     -6.640273
  149       -6.631170     -6.631170
  150       -6.617581     -6.617581
  151       -6.610211     -6.610211
  152       -6.593713     -6.593713
  153       -6.583931     -6.583931
  154       -6.572965     -6.572965
  155       -6.566681     -6.566681
  156       -6.552453     -6.552452
  157       -6.539619     -6.539619
  158       -6.530997     -6.530997
  159       -6.518947     -6.518947
  160       -6.509898     -6.509898
  161       -6.490774     -6.490774
  162       -6.473259     -6.473259
  163       -6.467469     -6.467469
  164       -6.454199     -6.454199
  165       -6.450274     -6.450274
  166       -6.439226     -6.439226
  167       -6.417396     -6.417396
  168       -6.410032     -6.410032
  169       -6.392755     -6.392755
  170       -6.377734     -6.377734
  171       -6.370156     -6.370156
  172       -6.357107     -6.357107
  173       -6.342624     -6.342624
  174       -6.333686     -6.333686
  175       -6.305274     -6.305274
  176       -6.285563     -6.285563
  177       -6.257773     -6.257773
  178       -6.235526     -6.235526
  179       -6.215732     -6.215732
  180       -6.187527     -6.187527
  181       -6.169832     -6.169832
  182       -6.165514     -6.165514
  183       -6.108440     -6.108440
  184       -6.105636     -6.105635
  185       -6.056963     -6.056963
  186       -5.945726     -5.945726
  187       -5.873912     -5.873912
  188       -5.507379     -5.507379
  189       -5.239647     -5.239647
  190       -5.073518     -5.073518
  191       -4.783967     -4.783967
  192       -4.562218     -4.562218
  193       -4.553173     -4.553173
  194       -4.132904     -4.132904
  195       -4.014689     -4.014689
  196       -3.963442     -3.963442
  197       -3.815633     -3.815633
  198       -3.666942     -3.666942
  199       -3.261370     -3.261370
  200       -3.035692     -3.035692
  201       -2.906152     -2.906152
  202       -2.838499     -2.838499
  203       -2.658442     -2.658442
  204       -2.600050     -2.600051
  205       -2.451613     -2.451613
  206       -2.379779     -2.379779
  207       -2.076181     -2.076181
  208       -1.996800     -1.996800
  209       -1.934589     -1.934589
  210       -1.860552     -1.860552
  211       -1.676152     -1.676152
  212       -1.569390     -1.569390
  213       -1.514088     -1.514088
  214       -1.456537     -1.456537
  215       -1.219872     -1.219872
  216       -1.169292     -1.169292
  217       -1.125550     -1.125550
  218       -1.101062     -1.101062
  219       -0.955028     -0.955028
  220       -0.902704     -0.902704
  221       -0.827262     -0.827262
  222       -0.707705     -0.707706
  223       -0.667052     -0.667052
  224       -0.604179     -0.604179
  225       -0.503947     -0.503947
  226       -0.480792     -0.480792
  227       -0.311467     -0.311467
  228       -0.205713     -0.205713
  229       -0.096441     -0.096441
  230       -0.033302     -0.033301
  231        0.151581      0.151580
  232        0.261147      0.261148
  233        0.332106      0.332105
  234        0.338714      0.338714
  235        0.406470      0.406466
  236        0.459798      0.459798
  237        0.485442      0.485442
  238        0.578159      0.578156
  239        0.642429      0.642427
  240        0.668204      0.668200
  241        0.708457      0.708458
  242        0.719305      0.719305
  243        0.735574      0.735576
  244        0.765173      0.765173
  245        0.794011      0.794010
  246        0.870268      0.870268
  247        0.894064      0.894065
  248        0.924749      0.924751
  249        0.945806      0.945805
  250        0.961884      0.961884
  251        0.970798      0.970795
  252        0.977020      0.977024
  253        0.985949      0.985948
  254        0.998597      0.998596
  255        1.052460      1.052462
  256        1.063473      1.063472
