  22  22   0   0
  0.4709987E+03  0.2180122E-08  0.2180122E-08  0.2180122E-08  0.1000000E-15
  1.000000000000000E-004
  CAR 
 unknown system                          
      1.27117471    -10.08777992  301     -3.79302590      1.00000000
    -10.088  0.0000E+00  0.0000E+00  0.0000E+00  0.0000E+00
    -10.050  0.0000E+00  0.0000E+00  0.0000E+00  0.0000E+00
    -10.012  0.0000E+00  0.0000E+00  0.0000E+00  0.0000E+00
     -9.974  0.0000E+00  0.0000E+00  0.0000E+00  0.0000E+00
     -9.936  0.0000E+00  0.0000E+00  0.0000E+00  0.0000E+00
     -9.898  0.0000E+00  0.0000E+00  0.0000E+00  0.0000E+00
     -9.861  0.0000E+00  0.0000E+00  0.0000E+00  0.0000E+00
     -9.823  0.0000E+00  0.0000E+00  0.0000E+00  0.0000E+00
     -9.785  0.0000E+00  0.0000E+00  0.0000E+00  0.0000E+00
     -9.747  0.0000E+00  0.0000E+00  0.0000E+00  0.0000E+00
     -9.709  0.0000E+00  0.0000E+00  0.0000E+00  0.0000E+00
     -9.671  0.0000E+00  0.0000E+00  0.0000E+00  0.0000E+00
     -9.633  0.0000E+00  0.0000E+00  0.0000E+00  0.0000E+00
     -9.596  0.0000E+00  0.0000E+00  0.0000E+00  0.0000E+00
     -9.558  0.0000E+00  0.0000E+00  0.1000E-02  0.1000E-02
     -9.520  0.0000E+00  0.0000E+00  0.1000E-02  0.1000E-02
     -9.482  0.0000E+00  0.0000E+00  0.1000E-02  0.1000E-02
     -9.444  0.0000E+00  0.0000E+00  0.1000E-02  0.1000E-02
     -9.406  0.0000E+00  0.0000E+00  0.1000E-02  0.1000E-02
     -9.368  0.0000E+00  0.0000E+00  0.1000E-02  0.1000E-02
     -9.331  0.0000E+00  0.0000E+00  0.1000E-02  0.1000E-02
     -9.293  0.0000E+00  0.0000E+00  0.1000E-02  0.1000E-02
     -9.255  0.0000E+00  0.0000E+00  0.1000E-02  0.1000E-02
     -9.217  0.0000E+00  0.0000E+00  0.2000E-02  0.2000E-02
     -9.179  0.0000E+00  0.0000E+00  0.2000E-02  0.2000E-02
     -9.141  0.0000E+00  0.0000E+00  0.2000E-02  0.2000E-02
     -9.103  0.0000E+00  0.0000E+00  0.4000E-02  0.4000E-02
     -9.065  0.0000E+00  0.0000E+00  0.5000E-02  0.5000E-02
     -9.028  0.0000E+00  0.0000E+00  0.5000E-02  0.5000E-02
     -8.990  0.0000E+00  0.0000E+00  0.8000E-02  0.8000E-02
     -8.952  0.0000E+00  0.0000E+00  0.8000E-02  0.8000E-02
     -8.914  0.0000E+00  0.0000E+00  0.9000E-02  0.9000E-02
     -8.876  0.0000E+00  0.0000E+00  0.9000E-02  0.9000E-02
     -8.838  0.0000E+00  0.0000E+00  0.1000E-01  0.1000E-01
     -8.800  0.0000E+00  0.0000E+00  0.1100E-01  0.1100E-01
     -8.763  0.0000E+00  0.0000E+00  0.1200E-01  0.1200E-01
     -8.725  0.0000E+00  0.0000E+00  0.1200E-01  0.1200E-01
     -8.687  0.0000E+00  0.0000E+00  0.1300E-01  0.1300E-01
     -8.649  0.2641E-01  0.2641E-01  0.1500E-01  0.1500E-01
     -8.611  0.0000E+00  0.0000E+00  0.1700E-01  0.1700E-01
     -8.573  0.0000E+00  0.0000E+00  0.1900E-01  0.1900E-01
     -8.535  0.0000E+00  0.0000E+00  0.1900E-01  0.1900E-01
     -8.498  0.0000E+00  0.0000E+00  0.2000E-01  0.2000E-01
     -8.460  0.0000E+00  0.0000E+00  0.2200E-01  0.2200E-01
     -8.422  0.0000E+00  0.0000E+00  0.2300E-01  0.2300E-01
     -8.384  0.0000E+00  0.0000E+00  0.2400E-01  0.2400E-01
     -8.346  0.0000E+00  0.0000E+00  0.2600E-01  0.2600E-01
     -8.308  0.0000E+00  0.0000E+00  0.2800E-01  0.2800E-01
     -8.270  0.0000E+00  0.0000E+00  0.2900E-01  0.2900E-01
     -8.232  0.0000E+00  0.0000E+00  0.3000E-01  0.3000E-01
     -8.195  0.0000E+00  0.0000E+00  0.3100E-01  0.3100E-01
     -8.157  0.0000E+00  0.0000E+00  0.3200E-01  0.3200E-01
     -8.119  0.0000E+00  0.0000E+00  0.3300E-01  0.3300E-01
     -8.081  0.0000E+00  0.0000E+00  0.3500E-01  0.3500E-01
     -8.043  0.0000E+00  0.0000E+00  0.3600E-01  0.3600E-01
     -8.005  0.0000E+00  0.0000E+00  0.3800E-01  0.3800E-01
     -7.967  0.0000E+00  0.0000E+00  0.3900E-01  0.3900E-01
     -7.930  0.0000E+00  0.0000E+00  0.4000E-01  0.4000E-01
     -7.892  0.0000E+00  0.0000E+00  0.4100E-01  0.4100E-01
     -7.854  0.0000E+00  0.0000E+00  0.4300E-01  0.4300E-01
     -7.816  0.0000E+00  0.0000E+00  0.4400E-01  0.4400E-01
     -7.778  0.0000E+00  0.0000E+00  0.4600E-01  0.4600E-01
     -7.740  0.0000E+00  0.0000E+00  0.4800E-01  0.4800E-01
     -7.702  0.0000E+00  0.0000E+00  0.4800E-01  0.4800E-01
     -7.665  0.0000E+00  0.0000E+00  0.5100E-01  0.5100E-01
     -7.627  0.0000E+00  0.0000E+00  0.5200E-01  0.5200E-01
     -7.589  0.0000E+00  0.0000E+00  0.5200E-01  0.5200E-01
     -7.551  0.0000E+00  0.0000E+00  0.5300E-01  0.5300E-01
     -7.513  0.0000E+00  0.0000E+00  0.5400E-01  0.5400E-01
     -7.475  0.1516E-05  0.1518E-05  0.5400E-01  0.5400E-01
     -7.437  0.0000E+00  0.0000E+00  0.5800E-01  0.5800E-01
     -7.399  0.0000E+00  0.0000E+00  0.5800E-01  0.5800E-01
     -7.362  0.0000E+00  0.0000E+00  0.6000E-01  0.6000E-01
     -7.324  0.0000E+00  0.0000E+00  0.6100E-01  0.6100E-01
     -7.286  0.0000E+00  0.0000E+00  0.6300E-01  0.6300E-01
     -7.248  0.5982E-15  0.6040E-15  0.6400E-01  0.6400E-01
     -7.210  0.2641E-01  0.2641E-01  0.6700E-01  0.6700E-01
     -7.172  0.0000E+00  0.0000E+00  0.6900E-01  0.6900E-01
     -7.134  0.0000E+00  0.0000E+00  0.7000E-01  0.7000E-01
     -7.097  0.0000E+00  0.0000E+00  0.7200E-01  0.7200E-01
     -7.059  0.0000E+00  0.0000E+00  0.7500E-01  0.7500E-01
     -7.021  0.0000E+00  0.0000E+00  0.7600E-01  0.7600E-01
     -6.983  0.0000E+00  0.0000E+00  0.7800E-01  0.7800E-01
     -6.945  0.0000E+00  0.0000E+00  0.8100E-01  0.8100E-01
     -6.907  0.0000E+00  0.0000E+00  0.8400E-01  0.8400E-01
     -6.869  0.0000E+00  0.0000E+00  0.8500E-01  0.8500E-01
     -6.832  0.0000E+00  0.0000E+00  0.8800E-01  0.8800E-01
     -6.794  0.0000E+00  0.0000E+00  0.9000E-01  0.9000E-01
     -6.756  0.0000E+00  0.0000E+00  0.9200E-01  0.9200E-01
     -6.718  0.0000E+00  0.0000E+00  0.9400E-01  0.9400E-01
     -6.680  0.0000E+00  0.0000E+00  0.9700E-01  0.9700E-01
     -6.642  0.0000E+00  0.0000E+00  0.9900E-01  0.9900E-01
     -6.604  0.0000E+00  0.0000E+00  0.1010E+00  0.1010E+00
     -6.567  0.0000E+00  0.0000E+00  0.1030E+00  0.1030E+00
     -6.529  0.0000E+00  0.0000E+00  0.1050E+00  0.1050E+00
     -6.491  0.0000E+00  0.0000E+00  0.1070E+00  0.1070E+00
     -6.453  0.0000E+00  0.0000E+00  0.1080E+00  0.1080E+00
     -6.415  0.0000E+00  0.0000E+00  0.1090E+00  0.1090E+00
     -6.377  0.2641E-01  0.2641E-01  0.1110E+00  0.1110E+00
     -6.339  0.0000E+00  0.0000E+00  0.1110E+00  0.1110E+00
     -6.301  0.0000E+00  0.0000E+00  0.1120E+00  0.1120E+00
     -6.264  0.0000E+00  0.0000E+00  0.1120E+00  0.1120E+00
     -6.226  0.4410E-10  0.4404E-10  0.1120E+00  0.1120E+00
     -6.188  0.0000E+00  0.0000E+00  0.1130E+00  0.1130E+00
     -6.150  0.0000E+00  0.0000E+00  0.1130E+00  0.1130E+00
     -6.112  0.1980E-03  0.1978E-03  0.1130E+00  0.1130E+00
     -6.074  0.0000E+00  0.0000E+00  0.1140E+00  0.1140E+00
     -6.036  0.0000E+00  0.0000E+00  0.1140E+00  0.1140E+00
     -5.999  0.0000E+00  0.0000E+00  0.1140E+00  0.1140E+00
     -5.961  0.0000E+00  0.0000E+00  0.1140E+00  0.1140E+00
     -5.923  0.0000E+00  0.0000E+00  0.1140E+00  0.1140E+00
     -5.885  0.0000E+00  0.0000E+00  0.1140E+00  0.1140E+00
     -5.847  0.0000E+00  0.0000E+00  0.1140E+00  0.1140E+00
     -5.809  0.0000E+00  0.0000E+00  0.1140E+00  0.1140E+00
     -5.771  0.0000E+00  0.0000E+00  0.1140E+00  0.1140E+00
     -5.734  0.0000E+00  0.0000E+00  0.1140E+00  0.1140E+00
     -5.696  0.0000E+00  0.0000E+00  0.1140E+00  0.1140E+00
     -5.658  0.0000E+00  0.0000E+00  0.1150E+00  0.1150E+00
     -5.620  0.0000E+00  0.0000E+00  0.1150E+00  0.1150E+00
     -5.582  0.0000E+00  0.0000E+00  0.1150E+00  0.1150E+00
     -5.544  0.0000E+00  0.0000E+00  0.1150E+00  0.1150E+00
     -5.506  0.0000E+00  0.0000E+00  0.1150E+00  0.1150E+00
     -5.468  0.0000E+00  0.0000E+00  0.1150E+00  0.1150E+00
     -5.431  0.0000E+00  0.0000E+00  0.1150E+00  0.1150E+00
     -5.393  0.0000E+00  0.0000E+00  0.1150E+00  0.1150E+00
     -5.355  0.0000E+00  0.0000E+00  0.1150E+00  0.1150E+00
     -5.317  0.0000E+00  0.0000E+00  0.1150E+00  0.1150E+00
     -5.279  0.0000E+00  0.0000E+00  0.1160E+00  0.1160E+00
     -5.241  0.0000E+00  0.0000E+00  0.1160E+00  0.1160E+00
     -5.203  0.0000E+00  0.0000E+00  0.1160E+00  0.1160E+00
     -5.166  0.0000E+00  0.0000E+00  0.1160E+00  0.1160E+00
     -5.128  0.0000E+00  0.0000E+00  0.1160E+00  0.1160E+00
     -5.090  0.0000E+00  0.0000E+00  0.1160E+00  0.1160E+00
     -5.052  0.0000E+00  0.0000E+00  0.1160E+00  0.1160E+00
     -5.014  0.0000E+00  0.0000E+00  0.1160E+00  0.1160E+00
     -4.976  0.0000E+00  0.0000E+00  0.1160E+00  0.1160E+00
     -4.938  0.0000E+00  0.0000E+00  0.1160E+00  0.1160E+00
     -4.901  0.0000E+00  0.0000E+00  0.1160E+00  0.1160E+00
     -4.863  0.0000E+00  0.0000E+00  0.1160E+00  0.1160E+00
     -4.825  0.0000E+00  0.0000E+00  0.1160E+00  0.1160E+00
     -4.787  0.0000E+00  0.0000E+00  0.1160E+00  0.1160E+00
     -4.749  0.0000E+00  0.0000E+00  0.1160E+00  0.1160E+00
     -4.711  0.0000E+00  0.0000E+00  0.1160E+00  0.1160E+00
     -4.673  0.0000E+00  0.0000E+00  0.1160E+00  0.1160E+00
     -4.635  0.0000E+00  0.0000E+00  0.1170E+00  0.1170E+00
     -4.598  0.0000E+00  0.0000E+00  0.1170E+00  0.1170E+00
     -4.560  0.0000E+00  0.0000E+00  0.1170E+00  0.1170E+00
     -4.522  0.0000E+00  0.0000E+00  0.1180E+00  0.1180E+00
     -4.484  0.0000E+00  0.0000E+00  0.1180E+00  0.1180E+00
     -4.446  0.0000E+00  0.0000E+00  0.1180E+00  0.1180E+00
     -4.408  0.0000E+00  0.0000E+00  0.1180E+00  0.1180E+00
     -4.370  0.0000E+00  0.0000E+00  0.1180E+00  0.1180E+00
     -4.333  0.0000E+00  0.0000E+00  0.1180E+00  0.1180E+00
     -4.295  0.0000E+00  0.0000E+00  0.1180E+00  0.1180E+00
     -4.257  0.0000E+00  0.0000E+00  0.1180E+00  0.1180E+00
     -4.219  0.0000E+00  0.0000E+00  0.1180E+00  0.1180E+00
     -4.181  0.0000E+00  0.0000E+00  0.1190E+00  0.1190E+00
     -4.143  0.0000E+00  0.0000E+00  0.1190E+00  0.1190E+00
     -4.105  0.0000E+00  0.0000E+00  0.1190E+00  0.1190E+00
     -4.068  0.0000E+00  0.0000E+00  0.1190E+00  0.1190E+00
     -4.030  0.0000E+00  0.0000E+00  0.1200E+00  0.1200E+00
     -3.992  0.0000E+00  0.0000E+00  0.1200E+00  0.1200E+00
     -3.954  0.0000E+00  0.0000E+00  0.1200E+00  0.1200E+00
     -3.916  0.0000E+00  0.0000E+00  0.1200E+00  0.1200E+00
     -3.878  0.0000E+00  0.0000E+00  0.1200E+00  0.1200E+00
     -3.840  0.0000E+00  0.0000E+00  0.1200E+00  0.1200E+00
     -3.802  0.0000E+00  0.0000E+00  0.1210E+00  0.1210E+00
     -3.765  0.0000E+00  0.0000E+00  0.1210E+00  0.1210E+00
     -3.727  0.0000E+00  0.0000E+00  0.1210E+00  0.1210E+00
     -3.689  0.0000E+00  0.0000E+00  0.1210E+00  0.1210E+00
     -3.651  0.0000E+00  0.0000E+00  0.1210E+00  0.1210E+00
     -3.613  0.0000E+00  0.0000E+00  0.1210E+00  0.1210E+00
     -3.575  0.0000E+00  0.0000E+00  0.1210E+00  0.1210E+00
     -3.537  0.0000E+00  0.0000E+00  0.1210E+00  0.1210E+00
     -3.500  0.0000E+00  0.0000E+00  0.1210E+00  0.1210E+00
     -3.462  0.0000E+00  0.0000E+00  0.1220E+00  0.1220E+00
     -3.424  0.0000E+00  0.0000E+00  0.1220E+00  0.1220E+00
     -3.386  0.0000E+00  0.0000E+00  0.1220E+00  0.1220E+00
     -3.348  0.0000E+00  0.0000E+00  0.1220E+00  0.1220E+00
     -3.310  0.0000E+00  0.0000E+00  0.1220E+00  0.1220E+00
     -3.272  0.0000E+00  0.0000E+00  0.1220E+00  0.1220E+00
     -3.235  0.0000E+00  0.0000E+00  0.1220E+00  0.1220E+00
     -3.197  0.0000E+00  0.0000E+00  0.1220E+00  0.1220E+00
     -3.159  0.0000E+00  0.0000E+00  0.1220E+00  0.1220E+00
     -3.121  0.0000E+00  0.0000E+00  0.1220E+00  0.1220E+00
     -3.083  0.0000E+00  0.0000E+00  0.1230E+00  0.1230E+00
     -3.045  0.0000E+00  0.0000E+00  0.1230E+00  0.1230E+00
     -3.007  0.0000E+00  0.0000E+00  0.1230E+00  0.1230E+00
     -2.970  0.0000E+00  0.0000E+00  0.1230E+00  0.1230E+00
     -2.932  0.0000E+00  0.0000E+00  0.1230E+00  0.1230E+00
     -2.894  0.0000E+00  0.0000E+00  0.1230E+00  0.1230E+00
     -2.856  0.0000E+00  0.0000E+00  0.1230E+00  0.1230E+00
     -2.818  0.0000E+00  0.0000E+00  0.1240E+00  0.1240E+00
     -2.780  0.0000E+00  0.0000E+00  0.1240E+00  0.1240E+00
     -2.742  0.0000E+00  0.0000E+00  0.1240E+00  0.1240E+00
     -2.704  0.0000E+00  0.0000E+00  0.1240E+00  0.1240E+00
     -2.667  0.0000E+00  0.0000E+00  0.1240E+00  0.1240E+00
     -2.629  0.0000E+00  0.0000E+00  0.1240E+00  0.1240E+00
     -2.591  0.0000E+00  0.0000E+00  0.1240E+00  0.1240E+00
     -2.553  0.0000E+00  0.0000E+00  0.1250E+00  0.1250E+00
     -2.515  0.0000E+00  0.0000E+00  0.1250E+00  0.1250E+00
     -2.477  0.0000E+00  0.0000E+00  0.1250E+00  0.1250E+00
     -2.439  0.0000E+00  0.0000E+00  0.1260E+00  0.1260E+00
     -2.402  0.0000E+00  0.0000E+00  0.1260E+00  0.1260E+00
     -2.364  0.0000E+00  0.0000E+00  0.1260E+00  0.1260E+00
     -2.326  0.0000E+00  0.0000E+00  0.1270E+00  0.1270E+00
     -2.288  0.0000E+00  0.0000E+00  0.1270E+00  0.1270E+00
     -2.250  0.0000E+00  0.0000E+00  0.1270E+00  0.1270E+00
     -2.212  0.0000E+00  0.0000E+00  0.1270E+00  0.1270E+00
     -2.174  0.0000E+00  0.0000E+00  0.1280E+00  0.1280E+00
     -2.137  0.0000E+00  0.0000E+00  0.1280E+00  0.1280E+00
     -2.099  0.0000E+00  0.0000E+00  0.1280E+00  0.1280E+00
     -2.061  0.0000E+00  0.0000E+00  0.1280E+00  0.1280E+00
     -2.023  0.0000E+00  0.0000E+00  0.1280E+00  0.1280E+00
     -1.985  0.0000E+00  0.0000E+00  0.1290E+00  0.1290E+00
     -1.947  0.0000E+00  0.0000E+00  0.1290E+00  0.1290E+00
     -1.909  0.0000E+00  0.0000E+00  0.1300E+00  0.1300E+00
     -1.871  0.0000E+00  0.0000E+00  0.1300E+00  0.1300E+00
     -1.834  0.0000E+00  0.0000E+00  0.1300E+00  0.1300E+00
     -1.796  0.0000E+00  0.0000E+00  0.1300E+00  0.1300E+00
     -1.758  0.0000E+00  0.0000E+00  0.1300E+00  0.1300E+00
     -1.720  0.0000E+00  0.0000E+00  0.1300E+00  0.1300E+00
     -1.682  0.0000E+00  0.0000E+00  0.1300E+00  0.1300E+00
     -1.644  0.0000E+00  0.0000E+00  0.1310E+00  0.1310E+00
     -1.606  0.0000E+00  0.0000E+00  0.1310E+00  0.1310E+00
     -1.569  0.0000E+00  0.0000E+00  0.1310E+00  0.1310E+00
     -1.531  0.0000E+00  0.0000E+00  0.1320E+00  0.1320E+00
     -1.493  0.0000E+00  0.0000E+00  0.1320E+00  0.1320E+00
     -1.455  0.0000E+00  0.0000E+00  0.1320E+00  0.1320E+00
     -1.417  0.0000E+00  0.0000E+00  0.1320E+00  0.1320E+00
     -1.379  0.0000E+00  0.0000E+00  0.1320E+00  0.1320E+00
     -1.341  0.0000E+00  0.0000E+00  0.1330E+00  0.1330E+00
     -1.304  0.0000E+00  0.0000E+00  0.1330E+00  0.1330E+00
     -1.266  0.0000E+00  0.0000E+00  0.1330E+00  0.1330E+00
     -1.228  0.0000E+00  0.0000E+00  0.1330E+00  0.1330E+00
     -1.190  0.0000E+00  0.0000E+00  0.1330E+00  0.1330E+00
     -1.152  0.0000E+00  0.0000E+00  0.1340E+00  0.1340E+00
     -1.114  0.0000E+00  0.0000E+00  0.1340E+00  0.1340E+00
     -1.076  0.0000E+00  0.0000E+00  0.1340E+00  0.1340E+00
     -1.038  0.0000E+00  0.0000E+00  0.1340E+00  0.1340E+00
     -1.001  0.0000E+00  0.0000E+00  0.1350E+00  0.1350E+00
     -0.963  0.0000E+00  0.0000E+00  0.1360E+00  0.1360E+00
     -0.925  0.0000E+00  0.0000E+00  0.1360E+00  0.1360E+00
     -0.887  0.0000E+00  0.0000E+00  0.1360E+00  0.1360E+00
     -0.849  0.0000E+00  0.0000E+00  0.1360E+00  0.1360E+00
     -0.811  0.0000E+00  0.0000E+00  0.1370E+00  0.1370E+00
     -0.773  0.0000E+00  0.0000E+00  0.1370E+00  0.1370E+00
     -0.736  0.0000E+00  0.0000E+00  0.1370E+00  0.1370E+00
     -0.698  0.0000E+00  0.0000E+00  0.1370E+00  0.1370E+00
     -0.660  0.0000E+00  0.0000E+00  0.1370E+00  0.1370E+00
     -0.622  0.0000E+00  0.0000E+00  0.1380E+00  0.1380E+00
     -0.584  0.0000E+00  0.0000E+00  0.1380E+00  0.1380E+00
     -0.546  0.0000E+00  0.0000E+00  0.1390E+00  0.1390E+00
     -0.508  0.0000E+00  0.0000E+00  0.1390E+00  0.1390E+00
     -0.471  0.0000E+00  0.0000E+00  0.1400E+00  0.1400E+00
     -0.433  0.0000E+00  0.0000E+00  0.1400E+00  0.1400E+00
     -0.395  0.0000E+00  0.0000E+00  0.1400E+00  0.1400E+00
     -0.357  0.0000E+00  0.0000E+00  0.1400E+00  0.1400E+00
     -0.319  0.0000E+00  0.0000E+00  0.1410E+00  0.1410E+00
     -0.281  0.0000E+00  0.0000E+00  0.1410E+00  0.1410E+00
     -0.243  0.0000E+00  0.0000E+00  0.1410E+00  0.1410E+00
     -0.205  0.0000E+00  0.0000E+00  0.1410E+00  0.1410E+00
     -0.168  0.0000E+00  0.0000E+00  0.1410E+00  0.1410E+00
     -0.130  0.0000E+00  0.0000E+00  0.1420E+00  0.1420E+00
     -0.092  0.0000E+00  0.0000E+00  0.1420E+00  0.1420E+00
     -0.054  0.0000E+00  0.0000E+00  0.1420E+00  0.1420E+00
     -0.016  0.0000E+00  0.0000E+00  0.1420E+00  0.1420E+00
      0.022  0.0000E+00  0.0000E+00  0.1430E+00  0.1430E+00
      0.060  0.0000E+00  0.0000E+00  0.1430E+00  0.1430E+00
      0.097  0.0000E+00  0.0000E+00  0.1430E+00  0.1430E+00
      0.135  0.7163E-05  0.6871E-05  0.1430E+00  0.1430E+00
      0.173  0.0000E+00  0.0000E+00  0.1440E+00  0.1440E+00
      0.211  0.0000E+00  0.0000E+00  0.1440E+00  0.1440E+00
      0.249  0.0000E+00  0.0000E+00  0.1440E+00  0.1440E+00
      0.287  0.0000E+00  0.0000E+00  0.1450E+00  0.1450E+00
      0.325  0.0000E+00  0.0000E+00  0.1450E+00  0.1450E+00
      0.362  0.0000E+00  0.0000E+00  0.1460E+00  0.1460E+00
      0.400  0.0000E+00  0.0000E+00  0.1460E+00  0.1460E+00
      0.438  0.0000E+00  0.0000E+00  0.1460E+00  0.1460E+00
      0.476  0.0000E+00  0.0000E+00  0.1480E+00  0.1480E+00
      0.514  0.0000E+00  0.0000E+00  0.1490E+00  0.1490E+00
      0.552  0.0000E+00  0.0000E+00  0.1500E+00  0.1500E+00
      0.590  0.0000E+00  0.0000E+00  0.1500E+00  0.1500E+00
      0.628  0.0000E+00  0.0000E+00  0.1500E+00  0.1500E+00
      0.665  0.0000E+00  0.0000E+00  0.1530E+00  0.1530E+00
      0.703  0.0000E+00  0.0000E+00  0.1540E+00  0.1540E+00
      0.741  0.0000E+00  0.0000E+00  0.1550E+00  0.1550E+00
      0.779  0.0000E+00  0.0000E+00  0.1560E+00  0.1560E+00
      0.817  0.0000E+00  0.0000E+00  0.1560E+00  0.1560E+00
      0.855  0.0000E+00  0.0000E+00  0.1560E+00  0.1560E+00
      0.893  0.0000E+00  0.0000E+00  0.1560E+00  0.1560E+00
      0.930  0.0000E+00  0.0000E+00  0.1560E+00  0.1560E+00
      0.968  0.0000E+00  0.0000E+00  0.1560E+00  0.1560E+00
      1.006  0.0000E+00  0.0000E+00  0.1560E+00  0.1560E+00
      1.044  0.0000E+00  0.0000E+00  0.1560E+00  0.1560E+00
      1.082  0.0000E+00  0.0000E+00  0.1560E+00  0.1560E+00
      1.120  0.0000E+00  0.0000E+00  0.1560E+00  0.1560E+00
      1.158  0.0000E+00  0.0000E+00  0.1560E+00  0.1560E+00
      1.195  0.0000E+00  0.0000E+00  0.1560E+00  0.1560E+00
      1.233  0.0000E+00  0.0000E+00  0.1560E+00  0.1560E+00
      1.271  0.0000E+00  0.0000E+00  0.1560E+00  0.1560E+00
