<?xml version="1.0" encoding="ISO-8859-1"?>
<modeling>
 <generator>
  <i name="program" type="string">vasp </i>
  <i name="version" type="string">5.3.5  </i>
  <i name="subversion" type="string">31Mar14 (build Feb 01 2018 12:10:03) gamma-only                       parallel </i>
  <i name="platform" type="string">LinuxIFC </i>
  <i name="date" type="string">2019 03 23 </i>
  <i name="time" type="string">03:10:32 </i>
 </generator>
 <incar>
  <i type="string" name="PREC">normal</i>
  <i type="int" name="ISPIN">     2</i>
  <i type="int" name="IBRION">     2</i>
  <i type="int" name="NSW">  1000</i>
  <i type="int" name="ISIF">     2</i>
  <i name="POTIM">      0.10000000</i>
  <i type="logical" name="LPLANE"> T  </i>
  <i type="int" name="ISMEAR">     0</i>
  <i name="SIGMA">      0.00010000</i>
  <i type="logical" name="LWAVE"> F  </i>
  <i type="logical" name="LCHARG"> F  </i>
  <i type="logical" name="LVTOT"> F  </i>
  <i type="string" name="GGA"> PE</i>
 </incar>
 <kpoints>
  <varray name="kpointlist" >
   <v>       0.00000000       0.00000000       0.00000000 </v>
  </varray>
  <varray name="weights" >
   <v>       1.00000000 </v>
  </varray>
 </kpoints>
 <parameters>
  <separator name="general" >
   <i type="string" name="SYSTEM">unknown system</i>
   <i type="logical" name="LCOMPAT"> F  </i>
  </separator>
  <separator name="electronic" >
   <i type="string" name="PREC">normal</i>
   <i name="ENMAX">    249.84400000</i>
   <i name="ENAUG">    412.49600000</i>
   <i name="EDIFF">      0.00010000</i>
   <i type="int" name="IALGO">    38</i>
   <i type="int" name="IWAVPR">    11</i>
   <i type="int" name="NBANDS">   264</i>
   <i name="NELECT">    407.00000000</i>
   <i type="int" name="TURBO">     0</i>
   <i type="int" name="IRESTART">     0</i>
   <i type="int" name="NREBOOT">     0</i>
   <i type="int" name="NMIN">     0</i>
   <i name="EREF">      0.00000000</i>
   <separator name="electronic smearing" >
    <i type="int" name="ISMEAR">     0</i>
    <i name="SIGMA">      0.00010000</i>
    <i name="KSPACING">      0.50000000</i>
    <i type="logical" name="KGAMMA"> T  </i>
   </separator>
   <separator name="electronic projectors" >
    <i type="logical" name="LREAL"> F  </i>
    <v name="ROPT">      0.00000000</v>
    <i type="int" name="LMAXPAW">  -100</i>
    <i type="int" name="LMAXMIX">     2</i>
    <i type="logical" name="NLSPLINE"> F  </i>
   </separator>
   <separator name="electronic startup" >
    <i type="int" name="ISTART">     0</i>
    <i type="int" name="ICHARG">     2</i>
    <i type="int" name="INIWAV">     1</i>
   </separator>
   <separator name="electronic spin" >
    <i type="int" name="ISPIN">     2</i>
    <i type="logical" name="LNONCOLLINEAR"> F  </i>
    <v name="MAGMOM">      1.00000000      1.00000000      1.00000000      1.00000000      1.00000000      1.00000000      1.00000000      1.00000000      1.00000000      1.00000000      1.00000000      1.00000000      1.00000000      1.00000000      1.00000000      1.00000000      1.00000000      1.00000000      1.00000000      1.00000000
      1.00000000      1.00000000      1.00000000      1.00000000      1.00000000      1.00000000      1.00000000      1.00000000      1.00000000      1.00000000      1.00000000      1.00000000      1.00000000      1.00000000      1.00000000      1.00000000      1.00000000</v>
    <i name="NUPDOWN">     -1.00000000</i>
    <i type="logical" name="LSORBIT"> F  </i>
    <v name="SAXIS">      0.00000000      0.00000000      1.00000000</v>
    <i type="logical" name="LSPIRAL"> F  </i>
    <v name="QSPIRAL">      0.00000000      0.00000000      0.00000000</v>
    <i type="logical" name="LZEROZ"> F  </i>
   </separator>
   <separator name="electronic exchange-correlation" >
    <i type="logical" name="LASPH"> F  </i>
    <i type="logical" name="LMETAGGA"> F  </i>
   </separator>
   <separator name="electronic convergence" >
    <i type="int" name="NELM">    60</i>
    <i type="int" name="NELMDL">    -5</i>
    <i type="int" name="NELMIN">     2</i>
    <i name="ENINI">    249.84400000</i>
    <separator name="electronic convergence detail" >
     <i type="logical" name="LDIAG"> T  </i>
     <i type="logical" name="LSUBROT"> F  </i>
     <i name="WEIMIN">      0.00100000</i>
     <i name="EBREAK">      0.00000009</i>
     <i name="DEPER">      0.30000000</i>
     <i type="int" name="NRMM">     4</i>
     <i name="TIME">      0.40000000</i>
    </separator>
   </separator>
   <separator name="electronic mixer" >
    <i name="AMIX">      0.40000000</i>
    <i name="BMIX">      1.00000000</i>
    <i name="AMIN">      0.10000000</i>
    <i name="AMIX_MAG">      1.60000000</i>
    <i name="BMIX_MAG">      1.00000000</i>
    <separator name="electronic mixer details" >
     <i type="int" name="IMIX">     4</i>
     <i type="int" name="MAXMIX">   -45</i>
     <i name="WC">    100.00000000</i>
     <i type="int" name="INIMIX">     1</i>
     <i type="int" name="MIXPRE">     1</i>
     <i type="int" name="MREMOVE">     5</i>
    </separator>
   </separator>
   <separator name="electronic dipolcorrection" >
    <i type="logical" name="LDIPOL"> F  </i>
    <i type="logical" name="LMONO"> F  </i>
    <i type="int" name="IDIPOL">     0</i>
    <i name="EPSILON">      1.00000000</i>
    <v name="DIPOL">   -100.00000000   -100.00000000   -100.00000000</v>
    <i name="EFIELD">      0.00000000</i>
   </separator>
  </separator>
  <separator name="grids" >
   <i type="int" name="NGX">    90</i>
   <i type="int" name="NGY">    90</i>
   <i type="int" name="NGZ">    90</i>
   <i type="int" name="NGXF">   180</i>
   <i type="int" name="NGYF">   180</i>
   <i type="int" name="NGZF">   180</i>
   <i type="logical" name="ADDGRID"> F  </i>
  </separator>
  <separator name="ionic" >
   <i type="int" name="NSW">  1000</i>
   <i type="int" name="IBRION">     2</i>
   <i type="int" name="ISIF">     2</i>
   <i name="PSTRESS">      0.00000000</i>
   <i name="EDIFFG">      0.00100000</i>
   <i type="int" name="NFREE">     1</i>
   <i name="POTIM">      0.10000000</i>
   <i name="SMASS">     -3.00000000</i>
   <i name="SCALEE">      1.00000000</i>
  </separator>
  <separator name="ionic md" >
   <i name="TEBEG">      0.00010000</i>
   <i name="TEEND">      0.00010000</i>
   <i type="int" name="NBLOCK">     1</i>
   <i type="int" name="KBLOCK">  1000</i>
   <i type="int" name="NPACO">   256</i>
   <i name="APACO">     16.00000000</i>
  </separator>
  <separator name="symmetry" >
   <i type="int" name="ISYM">     2</i>
   <i name="SYMPREC">      0.00001000</i>
  </separator>
  <separator name="dos" >
   <i type="logical" name="LORBIT"> F  </i>
   <v name="RWIGS">     -1.00000000</v>
   <i type="int" name="NEDOS">   301</i>
   <i name="EMIN">     10.00000000</i>
   <i name="EMAX">    -10.00000000</i>
   <i name="EFERMI">      0.00000000</i>
  </separator>
  <separator name="writing" >
   <i type="int" name="NWRITE">     2</i>
   <i type="logical" name="LWAVE"> F  </i>
   <i type="logical" name="LCHARG"> F  </i>
   <i type="logical" name="LPARD"> F  </i>
   <i type="logical" name="LVTOT"> F  </i>
   <i type="logical" name="LVHAR"> F  </i>
   <i type="logical" name="LELF"> F  </i>
   <i type="logical" name="LOPTICS"> F  </i>
   <v name="STM">      0.00000000      0.00000000      0.00000000      0.00000000      0.00000000      0.00000000      0.00000000</v>
  </separator>
  <separator name="performance" >
   <i type="int" name="NPAR">     4</i>
   <i type="int" name="NSIM">     4</i>
   <i type="int" name="NBLK">    -1</i>
   <i type="logical" name="LPLANE"> T  </i>
   <i type="logical" name="LSCALAPACK"> T  </i>
   <i type="logical" name="LSCAAWARE"> F  </i>
   <i type="logical" name="LSCALU"> F  </i>
   <i type="logical" name="LASYNC"> F  </i>
   <i type="logical" name="LORBITALREAL"> F  </i>
  </separator>
  <separator name="miscellaneous" >
   <i type="int" name="IDIOT">     3</i>
   <i type="logical" name="LMUSIC"> F  </i>
   <v name="POMASS">    107.86800000</v>
   <v name="DARWINR">      0.00000000</v>
   <v name="DARWINV">      1.00000000</v>
   <i type="logical" name="LCORR"> T  </i>
  </separator>
  <i type="logical" name="GGA_COMPAT"> T  </i>
  <i type="logical" name="LBERRY"> F  </i>
  <i type="int" name="ICORELEVEL">     0</i>
  <i type="logical" name="LDAU"> F  </i>
  <i type="int" name="I_CONSTRAINED_M">     0</i>
  <separator name="electronic exchange-correlation" >
   <i type="string" name="GGA">PE</i>
   <i type="int" name="VOSKOWN">     0</i>
   <i type="logical" name="LHFCALC"> F  </i>
   <i type="string" name="PRECFOCK"></i>
   <i type="logical" name="LSYMGRAD"> F  </i>
   <i type="logical" name="LHFONE"> F  </i>
   <i type="logical" name="LRHFCALC"> F  </i>
   <i type="logical" name="LTHOMAS"> F  </i>
   <i type="logical" name="LMODELHF"> F  </i>
   <i name="ENCUT4O">     -1.00000000</i>
   <i type="int" name="EXXOEP">     0</i>
   <i type="int" name="FOURORBIT">     0</i>
   <i name="AEXX">      0.00000000</i>
   <i name="HFALPHA">      0.00000000</i>
   <i name="MCALPHA">      0.00000000</i>
   <i name="ALDAX">      1.00000000</i>
   <i name="AGGAX">      1.00000000</i>
   <i name="ALDAC">      1.00000000</i>
   <i name="AGGAC">      1.00000000</i>
   <i type="int" name="NKREDX">     1</i>
   <i type="int" name="NKREDY">     1</i>
   <i type="int" name="NKREDZ">     1</i>
   <i type="logical" name="SHIFTRED"> F  </i>
   <i type="logical" name="ODDONLY"> F  </i>
   <i type="logical" name="EVENONLY"> F  </i>
   <i type="int" name="LMAXFOCK">     0</i>
   <i type="int" name="NMAXFOCKAE">     0</i>
   <i type="logical" name="LFOCKAEDFT"> F  </i>
   <i name="HFSCREEN">      0.00000000</i>
   <i name="HFSCREENC">      0.00000000</i>
   <i type="int" name="NBANDSGWLOW">     0</i>
  </separator>
  <separator name="vdW DFT" >
   <i type="logical" name="LUSE_VDW"> F  </i>
   <i name="Zab_VDW">     -0.84910000</i>
   <i name="PARAM1">      0.12340000</i>
   <i name="PARAM2">      1.00000000</i>
   <i name="PARAM3">      0.00000000</i>
  </separator>
  <separator name="model GW" >
   <i type="int" name="MODEL_GW">     0</i>
   <i name="MODEL_EPS0">    199.02619527</i>
   <i name="MODEL_ALPHA">      1.00000000</i>
  </separator>
  <separator name="linear response parameters" >
   <i type="logical" name="LEPSILON"> F  </i>
   <i type="logical" name="LRPA"> F  </i>
   <i type="logical" name="LNABLA"> F  </i>
   <i type="logical" name="LVEL"> F  </i>
   <i type="int" name="KINTER">     0</i>
   <i name="CSHIFT">      0.10000000</i>
   <i name="OMEGAMAX">     -1.00000000</i>
   <i name="DEG_THRESHOLD">      0.00200000</i>
  </separator>
  <separator name="orbital magnetization" >
   <i type="logical" name="NUCIND"> F  </i>
   <v name="MAGPOS">      0.00000000      0.00000000      0.00000000</v>
   <i type="logical" name="LNICSALL"> T  </i>
   <i type="logical" name="ORBITALMAG"> F  </i>
   <i type="logical" name="LMAGBLOCH"> F  </i>
   <i type="logical" name="LCHIMAG"> F  </i>
   <i type="logical" name="LGAUGE"> T  </i>
   <i type="int" name="MAGATOM">     0</i>
   <v name="MAGDIPOL">      0.00000000      0.00000000      0.00000000</v>
   <v name="AVECCONST">      0.00000000      0.00000000      0.00000000</v>
  </separator>
  <separator name="response functions" >
   <i type="logical" name="LADDER"> F  </i>
   <i type="logical" name="LFXC"> F  </i>
   <i type="logical" name="LHARTREE"> T  </i>
   <i type="int" name="IBSE">     0</i>
   <i type="logical" name="LTCTE"> F  </i>
   <i type="logical" name="LTETE"> F  </i>
   <i type="logical" name="LTRIPLET"> F  </i>
   <i type="logical" name="LFXCEPS"> F  </i>
   <i type="logical" name="LFXHEG"> F  </i>
   <i type="logical" name="L2ORDER"> F  </i>
   <i type="logical" name="LUSEW"> F  </i>
   <i name="ENCUTGW">     -2.00000000</i>
   <i name="ENCUTGWSOFT">     -2.00000000</i>
   <i name="ENCUTLF">     -1.00000000</i>
   <i type="int" name="LMAXMP2">    -1</i>
   <i name="SCISSOR">      0.00000000</i>
   <i type="int" name="NOMEGA">     0</i>
   <i type="int" name="NOMEGAR">     0</i>
   <i type="int" name="NBANDSGW">    -1</i>
   <i type="int" name="NBANDSO">    -1</i>
   <i type="int" name="NBANDSV">    -1</i>
   <i type="int" name="NELM">     1</i>
   <i type="int" name="DIM">     3</i>
   <i type="int" name="ANTIRES">     0</i>
   <i name="OMEGAMAX">    -30.00000000</i>
   <i name="OMEGAMIN">    -30.00000000</i>
   <i name="OMEGATL">   -200.00000000</i>
   <i type="int" name="OMEGAGRID">     0</i>
   <i name="CSHIFT">     -0.10000000</i>
   <i type="logical" name="SELFENERGY"> F  </i>
   <i type="logical" name="LSPECTRAL"> F  </i>
   <i type="logical" name="ODDONLYGW"> F  </i>
   <i type="logical" name="EVENONLYGW"> F  </i>
   <i type="int" name="NKREDLFX">     1</i>
   <i type="int" name="NKREDLFY">     1</i>
   <i type="int" name="NKREDLFZ">     1</i>
   <i type="int" name="MAXMEM">  1800</i>
   <i type="int" name="TELESCOPE">     0</i>
   <i type="int" name="TAUPAR">     1</i>
  </separator>
  <separator name="External order field" >
   <i name="OFIELD_KAPPA">      0.00000000</i>
   <v name="OFIELD_K">      0.00000000      0.00000000      0.00000000</v>
   <i name="OFIELD_Q6_NEAR">      0.00000000</i>
   <i name="OFIELD_Q6_FAR">      0.00000000</i>
   <i name="OFIELD_A">      0.00000000</i>
  </separator>
 </parameters>
 <atominfo>
  <atoms>      37 </atoms>
  <types>       1 </types>
  <array name="atoms" >
   <dimension dim="1">ion</dimension>
   <field type="string">element</field>
   <field type="int">atomtype</field>
   <set>
    <rc><c>Ag</c><c>   1</c></rc>
    <rc><c>Ag</c><c>   1</c></rc>
    <rc><c>Ag</c><c>   1</c></rc>
    <rc><c>Ag</c><c>   1</c></rc>
    <rc><c>Ag</c><c>   1</c></rc>
    <rc><c>Ag</c><c>   1</c></rc>
    <rc><c>Ag</c><c>   1</c></rc>
    <rc><c>Ag</c><c>   1</c></rc>
    <rc><c>Ag</c><c>   1</c></rc>
    <rc><c>Ag</c><c>   1</c></rc>
    <rc><c>Ag</c><c>   1</c></rc>
    <rc><c>Ag</c><c>   1</c></rc>
    <rc><c>Ag</c><c>   1</c></rc>
    <rc><c>Ag</c><c>   1</c></rc>
    <rc><c>Ag</c><c>   1</c></rc>
    <rc><c>Ag</c><c>   1</c></rc>
    <rc><c>Ag</c><c>   1</c></rc>
    <rc><c>Ag</c><c>   1</c></rc>
    <rc><c>Ag</c><c>   1</c></rc>
    <rc><c>Ag</c><c>   1</c></rc>
    <rc><c>Ag</c><c>   1</c></rc>
    <rc><c>Ag</c><c>   1</c></rc>
    <rc><c>Ag</c><c>   1</c></rc>
    <rc><c>Ag</c><c>   1</c></rc>
    <rc><c>Ag</c><c>   1</c></rc>
    <rc><c>Ag</c><c>   1</c></rc>
    <rc><c>Ag</c><c>   1</c></rc>
    <rc><c>Ag</c><c>   1</c></rc>
    <rc><c>Ag</c><c>   1</c></rc>
    <rc><c>Ag</c><c>   1</c></rc>
    <rc><c>Ag</c><c>   1</c></rc>
    <rc><c>Ag</c><c>   1</c></rc>
    <rc><c>Ag</c><c>   1</c></rc>
    <rc><c>Ag</c><c>   1</c></rc>
    <rc><c>Ag</c><c>   1</c></rc>
    <rc><c>Ag</c><c>   1</c></rc>
    <rc><c>Ag</c><c>   1</c></rc>
   </set>
  </array>
  <array name="atomtypes" >
   <dimension dim="1">type</dimension>
   <field type="int">atomspertype</field>
   <field type="string">element</field>
   <field>mass</field>
   <field>valence</field>
   <field type="string">pseudopotential</field>
   <set>
    <rc><c>  37</c><c>Ag</c><c>    107.86800000</c><c>     11.00000000</c><c>  PAW_PBE Ag 02Apr2005                  </c></rc>
   </set>
  </array>
 </atominfo>
 <structure name="initialpos" >
  <crystal>
   <varray name="basis" >
    <v>      23.06677635       0.00000000       0.00000000 </v>
    <v>       0.00000000      23.06677635       0.00000000 </v>
    <v>       0.00000000       0.00000000      23.06677635 </v>
   </varray>
   <i name="volume">  12273.28204167 </i>
   <varray name="rec_basis" >
    <v>       0.04335240       0.00000000       0.00000000 </v>
    <v>       0.00000000       0.04335240       0.00000000 </v>
    <v>       0.00000000       0.00000000       0.04335240 </v>
   </varray>
  </crystal>
  <varray name="positions" >
   <v>       0.62683971       0.61646035       0.29726832 </v>
   <v>       0.66896124       0.58103621       0.40049300 </v>
   <v>       0.66166476       0.46656061       0.43576238 </v>
   <v>       0.60226395       0.51043963       0.33276003 </v>
   <v>       0.60608486       0.39548201       0.35828839 </v>
   <v>       0.65642966       0.44195375       0.55508368 </v>
   <v>       0.66709018       0.55711628       0.51513606 </v>
   <v>       0.60305526       0.36777129       0.47320375 </v>
   <v>       0.67124423       0.53708218       0.63128796 </v>
   <v>       0.58704247       0.35002468       0.58961910 </v>
   <v>       0.54601942       0.66622299       0.36260838 </v>
   <v>       0.51618111       0.44356944       0.29354728 </v>
   <v>       0.58799448       0.63648913       0.46717975 </v>
   <v>       0.52258790       0.55860844       0.40512120 </v>
   <v>       0.59621919       0.44812370       0.65755711 </v>
   <v>       0.50589430       0.41534994       0.41473359 </v>
   <v>       0.56413858       0.49213599       0.50048228 </v>
   <v>       0.58495260       0.60845613       0.58535913 </v>
   <v>       0.57364511       0.55722587       0.69833822 </v>
   <v>       0.52085212       0.45835282       0.74955679 </v>
   <v>       0.49374193       0.39383872       0.53099787 </v>
   <v>       0.49474734       0.38631479       0.65219869 </v>
   <v>       0.50883935       0.51435059       0.60031287 </v>
   <v>       0.50351434       0.65116137       0.65786196 </v>
   <v>       0.49083974       0.66319581       0.53624091 </v>
   <v>       0.44931051       0.65612257       0.42279847 </v>
   <v>       0.43569595       0.49426860       0.36067610 </v>
   <v>       0.45686174       0.55581713       0.50527153 </v>
   <v>       0.40994211       0.45494914       0.47342535 </v>
   <v>       0.40702418       0.44703943       0.59186145 </v>
   <v>       0.41010823       0.44343272       0.71105981 </v>
   <v>       0.45398409       0.55143083       0.70057274 </v>
   <v>       0.40611307       0.60649131       0.60795809 </v>
   <v>       0.36942068       0.56545892       0.42472977 </v>
   <v>       0.36584207       0.65376404       0.50712892 </v>
   <v>       0.33764314       0.53518659       0.53827211 </v>
   <v>       0.33829306       0.51979866       0.65632965 </v>
  </varray>
 </structure>
 <calculation>
  <scstep>
   <time name="dav">    3.64    3.65</time>
   <time name="total">    3.90    6.20</time>
   <energy>
    <i name="alphaZ">     94.87611973 </i>
    <i name="ewald">  97697.45782459 </i>
    <i name="hartreedc">-134498.92108971 </i>
    <i name="XCdc">   -402.49891810 </i>
    <i name="pawpsdc">  37124.77058858 </i>
    <i name="pawaedc"> -35418.79052852 </i>
    <i name="eentropy">     -0.00000000 </i>
    <i name="bandstr">    564.57528601 </i>
    <i name="atom">  38376.34931319 </i>
    <i name="e_fr_energy">   3537.81859578 </i>
    <i name="e_wo_entrp">   3537.81859578 </i>
    <i name="e_0_energy">   3537.81859578 </i>
   </energy>
  </scstep>
  <scstep>
   <time name="dav">    5.51    5.51</time>
   <time name="total">    5.51    5.52</time>
   <energy>
    <i name="e_fr_energy">    705.76708940 </i>
    <i name="e_wo_entrp">    705.76708940 </i>
    <i name="e_0_energy">    705.76708940 </i>
   </energy>
  </scstep>
  <scstep>
   <time name="dav">    4.35    4.36</time>
   <time name="total">    4.35    4.36</time>
   <energy>
    <i name="e_fr_energy">    -40.60159004 </i>
    <i name="e_wo_entrp">    -40.60159004 </i>
    <i name="e_0_energy">    -40.60159004 </i>
   </energy>
  </scstep>
  <scstep>
   <time name="dav">    3.89    3.89</time>
   <time name="total">    3.89    3.90</time>
   <energy>
    <i name="e_fr_energy">    -77.20076499 </i>
    <i name="e_wo_entrp">    -77.20076499 </i>
    <i name="e_0_energy">    -77.20076499 </i>
   </energy>
  </scstep>
  <scstep>
   <time name="dav">    3.96    3.96</time>
   <time name="total">    4.08    4.08</time>
   <energy>
    <i name="e_fr_energy">    -77.72625408 </i>
    <i name="e_wo_entrp">    -77.72625408 </i>
    <i name="e_0_energy">    -77.72625408 </i>
   </energy>
  </scstep>
  <scstep>
   <time name="dav">    3.67    3.67</time>
   <time name="total">    4.00    4.01</time>
   <energy>
    <i name="e_fr_energy">    -33.50092047 </i>
    <i name="e_wo_entrp">    -33.50092047 </i>
    <i name="e_0_energy">    -33.50092047 </i>
   </energy>
  </scstep>
  <scstep>
   <time name="dav">    3.86    3.86</time>
   <time name="total">    4.19    4.26</time>
   <energy>
    <i name="e_fr_energy">    -26.08464070 </i>
    <i name="e_wo_entrp">    -26.08464070 </i>
    <i name="e_0_energy">    -26.08464070 </i>
   </energy>
  </scstep>
  <scstep>
   <time name="dav">    3.81    3.81</time>
   <time name="total">    4.15    4.17</time>
   <energy>
    <i name="e_fr_energy">    -24.99901981 </i>
    <i name="e_wo_entrp">    -24.99901981 </i>
    <i name="e_0_energy">    -24.99901981 </i>
   </energy>
  </scstep>
  <scstep>
   <time name="dav">    3.89    3.89</time>
   <time name="total">    4.23    4.59</time>
   <energy>
    <i name="e_fr_energy">    -28.49935916 </i>
    <i name="e_wo_entrp">    -28.49935916 </i>
    <i name="e_0_energy">    -28.49935916 </i>
   </energy>
  </scstep>
  <scstep>
   <time name="dav">    3.69    3.69</time>
   <time name="total">    4.02    4.05</time>
   <energy>
    <i name="e_fr_energy">    -39.30804499 </i>
    <i name="e_wo_entrp">    -39.30804499 </i>
    <i name="e_0_energy">    -39.30804499 </i>
   </energy>
  </scstep>
  <scstep>
   <time name="dav">    3.77    3.77</time>
   <time name="total">    4.11    4.12</time>
   <energy>
    <i name="e_fr_energy">    -44.90092899 </i>
    <i name="e_wo_entrp">    -44.90092899 </i>
    <i name="e_0_energy">    -44.90092899 </i>
   </energy>
  </scstep>
  <scstep>
   <time name="dav">    3.81    3.81</time>
   <time name="total">    4.14    4.16</time>
   <energy>
    <i name="e_fr_energy">    -48.15482052 </i>
    <i name="e_wo_entrp">    -48.15482052 </i>
    <i name="e_0_energy">    -48.15482052 </i>
   </energy>
  </scstep>
  <scstep>
   <time name="dav">    3.64    3.64</time>
   <time name="total">    3.98    5.24</time>
   <energy>
    <i name="e_fr_energy">    -59.99827490 </i>
    <i name="e_wo_entrp">    -59.99827490 </i>
    <i name="e_0_energy">    -59.99827490 </i>
   </energy>
  </scstep>
  <scstep>
   <time name="dav">    3.87    3.87</time>
   <time name="total">    4.20    4.48</time>
   <energy>
    <i name="e_fr_energy">    -63.19637113 </i>
    <i name="e_wo_entrp">    -63.19637113 </i>
    <i name="e_0_energy">    -63.19637113 </i>
   </energy>
  </scstep>
  <scstep>
   <time name="dav">    3.85    3.86</time>
   <time name="total">    4.19    5.91</time>
   <energy>
    <i name="e_fr_energy">    -64.29448883 </i>
    <i name="e_wo_entrp">    -64.29448883 </i>
    <i name="e_0_energy">    -64.29448883 </i>
   </energy>
  </scstep>
  <scstep>
   <time name="dav">    3.70    3.71</time>
   <time name="total">    4.05    4.07</time>
   <energy>
    <i name="e_fr_energy">    -67.82543106 </i>
    <i name="e_wo_entrp">    -67.82543106 </i>
    <i name="e_0_energy">    -67.82543106 </i>
   </energy>
  </scstep>
  <scstep>
   <time name="dav">    3.68    3.69</time>
   <time name="total">    4.03    4.20</time>
   <energy>
    <i name="e_fr_energy">    -71.28785842 </i>
    <i name="e_wo_entrp">    -71.28785842 </i>
    <i name="e_0_energy">    -71.28785842 </i>
   </energy>
  </scstep>
  <scstep>
   <time name="dav">    3.74    3.75</time>
   <time name="total">    4.08    4.11</time>
   <energy>
    <i name="e_fr_energy">    -72.98222059 </i>
    <i name="e_wo_entrp">    -72.98222059 </i>
    <i name="e_0_energy">    -72.98222059 </i>
   </energy>
  </scstep>
  <scstep>
   <time name="dav">    3.66    3.66</time>
   <time name="total">    4.00    4.00</time>
   <energy>
    <i name="e_fr_energy">    -75.09466221 </i>
    <i name="e_wo_entrp">    -75.09466221 </i>
    <i name="e_0_energy">    -75.09466221 </i>
   </energy>
  </scstep>
  <scstep>
   <time name="dav">    3.84    3.85</time>
   <time name="total">    4.19    4.20</time>
   <energy>
    <i name="e_fr_energy">    -75.84835074 </i>
    <i name="e_wo_entrp">    -75.84835074 </i>
    <i name="e_0_energy">    -75.84835074 </i>
   </energy>
  </scstep>
  <scstep>
   <time name="dav">    3.76    3.77</time>
   <time name="total">    4.11    4.11</time>
   <energy>
    <i name="e_fr_energy">    -76.21736002 </i>
    <i name="e_wo_entrp">    -76.21736002 </i>
    <i name="e_0_energy">    -76.21736002 </i>
   </energy>
  </scstep>
  <scstep>
   <time name="dav">    3.70    3.70</time>
   <time name="total">    4.04    5.16</time>
   <energy>
    <i name="e_fr_energy">    -76.46039724 </i>
    <i name="e_wo_entrp">    -76.46039724 </i>
    <i name="e_0_energy">    -76.46039724 </i>
   </energy>
  </scstep>
  <scstep>
   <time name="dav">    3.77    3.77</time>
   <time name="total">    4.11    4.14</time>
   <energy>
    <i name="e_fr_energy">    -76.53605364 </i>
    <i name="e_wo_entrp">    -76.53605364 </i>
    <i name="e_0_energy">    -76.53605364 </i>
   </energy>
  </scstep>
  <scstep>
   <time name="dav">    3.20    3.20</time>
   <time name="total">    3.55    3.56</time>
   <energy>
    <i name="e_fr_energy">    -76.58084593 </i>
    <i name="e_wo_entrp">    -76.58084593 </i>
    <i name="e_0_energy">    -76.58084593 </i>
   </energy>
  </scstep>
  <scstep>
   <time name="dav">    2.90    2.90</time>
   <time name="total">    3.24    3.42</time>
   <energy>
    <i name="e_fr_energy">    -76.59104793 </i>
    <i name="e_wo_entrp">    -76.59104793 </i>
    <i name="e_0_energy">    -76.59104793 </i>
   </energy>
  </scstep>
  <scstep>
   <time name="dav">    2.90    2.90</time>
   <time name="total">    3.24    3.27</time>
   <energy>
    <i name="e_fr_energy">    -76.59653465 </i>
    <i name="e_wo_entrp">    -76.59653465 </i>
    <i name="e_0_energy">    -76.59653465 </i>
   </energy>
  </scstep>
  <scstep>
   <time name="dav">    2.81    2.81</time>
   <time name="total">    3.16    3.17</time>
   <energy>
    <i name="e_fr_energy">    -76.60099983 </i>
    <i name="e_wo_entrp">    -76.60099983 </i>
    <i name="e_0_energy">    -76.60099983 </i>
   </energy>
  </scstep>
  <scstep>
   <time name="dav">    2.88    2.89</time>
   <time name="total">    3.23    3.25</time>
   <energy>
    <i name="e_fr_energy">    -76.60394716 </i>
    <i name="e_wo_entrp">    -76.60394716 </i>
    <i name="e_0_energy">    -76.60394716 </i>
   </energy>
  </scstep>
  <scstep>
   <time name="dav">    2.82    2.83</time>
   <time name="total">    3.17    3.19</time>
   <energy>
    <i name="e_fr_energy">    -76.60683773 </i>
    <i name="e_wo_entrp">    -76.60683773 </i>
    <i name="e_0_energy">    -76.60683773 </i>
   </energy>
  </scstep>
  <scstep>
   <time name="dav">    2.82    2.82</time>
   <time name="total">    3.17    3.19</time>
   <energy>
    <i name="e_fr_energy">    -76.60795723 </i>
    <i name="e_wo_entrp">    -76.60795723 </i>
    <i name="e_0_energy">    -76.60795723 </i>
   </energy>
  </scstep>
  <scstep>
   <time name="dav">    2.78    2.78</time>
   <time name="total">    3.13    3.40</time>
   <energy>
    <i name="e_fr_energy">    -76.60852734 </i>
    <i name="e_wo_entrp">    -76.60852734 </i>
    <i name="e_0_energy">    -76.60852734 </i>
   </energy>
  </scstep>
  <scstep>
   <time name="dav">    2.72    2.72</time>
   <time name="total">    3.06    3.09</time>
   <energy>
    <i name="e_fr_energy">    -76.60864817 </i>
    <i name="e_wo_entrp">    -76.60864817 </i>
    <i name="e_0_energy">    -76.60864817 </i>
   </energy>
  </scstep>
  <scstep>
   <time name="dav">    2.76    2.76</time>
   <time name="total">    2.99    2.99</time>
   <energy>
    <i name="alphaZ">     94.87611973 </i>
    <i name="ewald">  97697.45782459 </i>
    <i name="hartreedc">-134425.87546721 </i>
    <i name="XCdc">   -417.03969925 </i>
    <i name="pawpsdc">  40454.72329525 </i>
    <i name="pawaedc"> -38824.49526575 </i>
    <i name="eentropy">      0.00000000 </i>
    <i name="bandstr">  -3032.60481410 </i>
    <i name="atom">  38376.34931319 </i>
    <i name="e_fr_energy">    -76.60869354 </i>
    <i name="e_wo_entrp">    -76.60869354 </i>
    <i name="e_0_energy">    -76.60869354 </i>
   </energy>
  </scstep>
  <structure>
   <crystal>
    <varray name="basis" >
     <v>      23.06677635       0.00000000       0.00000000 </v>
     <v>       0.00000000      23.06677635       0.00000000 </v>
     <v>       0.00000000       0.00000000      23.06677635 </v>
    </varray>
    <i name="volume">  12273.28204167 </i>
    <varray name="rec_basis" >
     <v>       0.04335240       0.00000000       0.00000000 </v>
     <v>       0.00000000       0.04335240       0.00000000 </v>
     <v>       0.00000000       0.00000000       0.04335240 </v>
    </varray>
   </crystal>
   <varray name="positions" >
    <v>       0.62683971       0.61646035       0.29726832 </v>
    <v>       0.66896124       0.58103621       0.40049300 </v>
    <v>       0.66166476       0.46656061       0.43576238 </v>
    <v>       0.60226395       0.51043963       0.33276003 </v>
    <v>       0.60608486       0.39548201       0.35828839 </v>
    <v>       0.65642966       0.44195375       0.55508368 </v>
    <v>       0.66709018       0.55711628       0.51513606 </v>
    <v>       0.60305526       0.36777129       0.47320375 </v>
    <v>       0.67124423       0.53708218       0.63128796 </v>
    <v>       0.58704247       0.35002468       0.58961910 </v>
    <v>       0.54601942       0.66622299       0.36260838 </v>
    <v>       0.51618111       0.44356944       0.29354728 </v>
    <v>       0.58799448       0.63648913       0.46717975 </v>
    <v>       0.52258790       0.55860844       0.40512120 </v>
    <v>       0.59621919       0.44812370       0.65755711 </v>
    <v>       0.50589430       0.41534994       0.41473359 </v>
    <v>       0.56413858       0.49213599       0.50048228 </v>
    <v>       0.58495260       0.60845613       0.58535913 </v>
    <v>       0.57364511       0.55722587       0.69833822 </v>
    <v>       0.52085212       0.45835282       0.74955679 </v>
    <v>       0.49374193       0.39383872       0.53099787 </v>
    <v>       0.49474734       0.38631479       0.65219869 </v>
    <v>       0.50883935       0.51435059       0.60031287 </v>
    <v>       0.50351434       0.65116137       0.65786196 </v>
    <v>       0.49083974       0.66319581       0.53624091 </v>
    <v>       0.44931051       0.65612257       0.42279847 </v>
    <v>       0.43569595       0.49426860       0.36067610 </v>
    <v>       0.45686174       0.55581713       0.50527153 </v>
    <v>       0.40994211       0.45494914       0.47342535 </v>
    <v>       0.40702418       0.44703943       0.59186145 </v>
    <v>       0.41010823       0.44343272       0.71105981 </v>
    <v>       0.45398409       0.55143083       0.70057274 </v>
    <v>       0.40611307       0.60649131       0.60795809 </v>
    <v>       0.36942068       0.56545892       0.42472977 </v>
    <v>       0.36584207       0.65376404       0.50712892 </v>
    <v>       0.33764314       0.53518659       0.53827211 </v>
    <v>       0.33829306       0.51979866       0.65632965 </v>
   </varray>
  </structure>
  <varray name="forces" >
   <v>       0.26813872       0.32738518      -0.57726741 </v>
   <v>       0.02369318       0.11577391      -0.05802431 </v>
   <v>       0.47970833      -0.05054338      -0.22225907 </v>
   <v>       0.30624533      -0.22900256      -0.13259170 </v>
   <v>       0.32884894      -0.30392991      -0.35612368 </v>
   <v>       0.68875753      -0.15665445       0.14476413 </v>
   <v>       0.25345513       0.09813999      -0.02191964 </v>
   <v>      -0.23297559      -0.06390569       0.15462795 </v>
   <v>       0.10628004      -0.07250658       0.12122142 </v>
   <v>       0.22836149      -0.39358193       0.09497710 </v>
   <v>       0.14010307       0.41429639      -0.31116925 </v>
   <v>      -0.17230877      -0.33847208      -0.12563161 </v>
   <v>      -0.12033370       0.13926984       0.58650049 </v>
   <v>      -0.01766641      -0.10047366      -0.05878555 </v>
   <v>       0.43721914      -0.30285029       0.23858085 </v>
   <v>      -0.00046917       0.01872536      -0.14438107 </v>
   <v>      -0.29431430       0.20680811      -0.39602549 </v>
   <v>       0.29456114       0.10597543      -0.08359463 </v>
   <v>       0.08214702       0.28069904       0.09568807 </v>
   <v>       0.10616024      -0.03417481       0.08707196 </v>
   <v>       0.09835800      -0.23978254       0.05369404 </v>
   <v>      -0.18838114      -0.00036513      -0.01727977 </v>
   <v>      -0.00930795      -0.12587355       0.47745111 </v>
   <v>       0.03244821       0.20775302       0.05409885 </v>
   <v>      -0.06077575       0.61560195       0.23053146 </v>
   <v>      -0.16740706       0.06042357       0.01091199 </v>
   <v>      -0.41555180      -0.13623455      -0.12317086 </v>
   <v>       0.02218712       0.19460070      -0.17681759 </v>
   <v>      -0.55739194      -0.24764317      -0.32044281 </v>
   <v>      -0.26316347      -0.07408066      -0.05515949 </v>
   <v>      -0.39812316      -0.38816559       0.47563453 </v>
   <v>      -0.20275405      -0.02691779       0.48886999 </v>
   <v>      -0.09264130       0.23565685      -0.04810320 </v>
   <v>      -0.38953512       0.07387264      -0.15446448 </v>
   <v>      -0.03979722       0.10101748       0.05092734 </v>
   <v>      -0.06549305      -0.13056711      -0.19307949 </v>
   <v>      -0.20828166       0.21972598       0.21073982 </v>
  </varray>
  <varray name="stress" >
   <v>       0.25911221      -0.02262849      -0.21996100 </v>
   <v>      -0.02262849       0.00258727      -0.01891062 </v>
   <v>      -0.21996099      -0.01891062       0.35575962 </v>
  </varray>
  <energy>
   <i name="e_fr_energy">    -76.60869354 </i>
   <i name="e_wo_entrp">    -76.60869354 </i>
   <i name="e_0_energy">      0.00000000 </i>
  </energy>
  <time name="totalsc">  134.23  143.13</time>
 </calculation>
 <calculation>
  <scstep>
   <time name="dav">    3.74    3.75</time>
   <time name="total">    4.08    4.10</time>
   <energy>
    <i name="alphaZ">     94.87611973 </i>
    <i name="ewald">  97540.68886692 </i>
    <i name="hartreedc">-134270.02403304 </i>
    <i name="XCdc">   -417.21278064 </i>
    <i name="pawpsdc">  40454.76767077 </i>
    <i name="pawaedc"> -38824.54001667 </i>
    <i name="eentropy">      0.00000000 </i>
    <i name="bandstr">  -3031.57660674 </i>
    <i name="atom">  38376.34931319 </i>
    <i name="e_fr_energy">    -76.67146647 </i>
    <i name="e_wo_entrp">    -76.67146647 </i>
    <i name="e_0_energy">    -76.67146647 </i>
   </energy>
  </scstep>
  <scstep>
   <time name="dav">    3.93    3.93</time>
   <time name="total">    4.27    4.28</time>
   <energy>
    <i name="e_fr_energy">    -76.67354470 </i>
    <i name="e_wo_entrp">    -76.67354470 </i>
    <i name="e_0_energy">    -76.67354470 </i>
   </energy>
  </scstep>
  <scstep>
   <time name="dav">    3.92    3.93</time>
   <time name="total">    4.14    4.17</time>
   <energy>
    <i name="alphaZ">     94.87611973 </i>
    <i name="ewald">  97540.68886692 </i>
    <i name="hartreedc">-134270.94641830 </i>
    <i name="XCdc">   -417.18919735 </i>
    <i name="pawpsdc">  40439.57294704 </i>
    <i name="pawaedc"> -38809.10692149 </i>
    <i name="eentropy">      0.00000000 </i>
    <i name="bandstr">  -3030.91818819 </i>
    <i name="atom">  38376.34931319 </i>
    <i name="e_fr_energy">    -76.67347845 </i>
    <i name="e_wo_entrp">    -76.67347845 </i>
    <i name="e_0_energy">    -76.67347845 </i>
   </energy>
  </scstep>
  <structure>
   <crystal>
    <varray name="basis" >
     <v>      23.06677635       0.00000000       0.00000000 </v>
     <v>       0.00000000      23.06677635       0.00000000 </v>
     <v>       0.00000000       0.00000000      23.06677635 </v>
    </varray>
    <i name="volume">  12273.28204167 </i>
    <varray name="rec_basis" >
     <v>       0.04335240       0.00000000       0.00000000 </v>
     <v>       0.00000000       0.04335240       0.00000000 </v>
     <v>       0.00000000       0.00000000       0.04335240 </v>
    </varray>
   </crystal>
   <varray name="positions" >
    <v>       0.62695187       0.61659729       0.29702686 </v>
    <v>       0.66897115       0.58108464       0.40046873 </v>
    <v>       0.66186542       0.46653946       0.43566941 </v>
    <v>       0.60239205       0.51034384       0.33270457 </v>
    <v>       0.60622242       0.39535488       0.35813942 </v>
    <v>       0.65671775       0.44188822       0.55514423 </v>
    <v>       0.66719620       0.55715733       0.51512689 </v>
    <v>       0.60295781       0.36774456       0.47326843 </v>
    <v>       0.67128868       0.53705185       0.63133866 </v>
    <v>       0.58713799       0.34986004       0.58965883 </v>
    <v>       0.54607803       0.66639628       0.36247822 </v>
    <v>       0.51610904       0.44342787       0.29349473 </v>
    <v>       0.58794414       0.63654739       0.46742507 </v>
    <v>       0.52258051       0.55856641       0.40509661 </v>
    <v>       0.59640207       0.44799702       0.65765690 </v>
    <v>       0.50589410       0.41535778       0.41467319 </v>
    <v>       0.56401547       0.49222250       0.50031662 </v>
    <v>       0.58507581       0.60850046       0.58532416 </v>
    <v>       0.57367948       0.55734329       0.69837825 </v>
    <v>       0.52089653       0.45833852       0.74959322 </v>
    <v>       0.49378307       0.39373843       0.53102033 </v>
    <v>       0.49466855       0.38631463       0.65219146 </v>
    <v>       0.50883546       0.51429794       0.60051258 </v>
    <v>       0.50352791       0.65124827       0.65788459 </v>
    <v>       0.49081432       0.66345331       0.53633734 </v>
    <v>       0.44924049       0.65614784       0.42280303 </v>
    <v>       0.43552213       0.49421161       0.36062457 </v>
    <v>       0.45687102       0.55589853       0.50519757 </v>
    <v>       0.40970896       0.45484556       0.47329131 </v>
    <v>       0.40691411       0.44700845       0.59183838 </v>
    <v>       0.40994170       0.44327036       0.71125876 </v>
    <v>       0.45389928       0.55141957       0.70077723 </v>
    <v>       0.40607432       0.60658988       0.60793797 </v>
    <v>       0.36925775       0.56548982       0.42466516 </v>
    <v>       0.36582542       0.65380630       0.50715023 </v>
    <v>       0.33761575       0.53513198       0.53819135 </v>
    <v>       0.33820594       0.51989056       0.65641780 </v>
   </varray>
  </structure>
  <varray name="forces" >
   <v>       0.25804127       0.30328048      -0.54154192 </v>
   <v>       0.00315224       0.12219310      -0.06331333 </v>
   <v>       0.45831995      -0.05511903      -0.20363463 </v>
   <v>       0.29500914      -0.20654720      -0.13648716 </v>
   <v>       0.31584109      -0.29629689      -0.32920414 </v>
   <v>       0.64563240      -0.14486028       0.12308972 </v>
   <v>       0.24494201       0.08237480      -0.02322055 </v>
   <v>      -0.22325053      -0.04440210       0.13989764 </v>
   <v>       0.10254242      -0.07102097       0.11445977 </v>
   <v>       0.21805281      -0.37422080       0.09907068 </v>
   <v>       0.13601584       0.37814652      -0.27271286 </v>
   <v>      -0.16300766      -0.32255755      -0.11125864 </v>
   <v>      -0.12678166       0.13196022       0.53367099 </v>
   <v>      -0.01243177      -0.07792938      -0.07934041 </v>
   <v>       0.41956076      -0.29397304       0.23383366 </v>
   <v>       0.00421549       0.02101838      -0.14161100 </v>
   <v>      -0.25516217       0.18733534      -0.36115358 </v>
   <v>       0.27193468       0.10253200      -0.06649763 </v>
   <v>       0.07557151       0.26032439       0.08708055 </v>
   <v>       0.09679526      -0.03141543       0.07477434 </v>
   <v>       0.08439694      -0.22003896       0.04522779 </v>
   <v>      -0.17639220       0.00953630      -0.01963358 </v>
   <v>      -0.00872809      -0.12040075       0.44536875 </v>
   <v>       0.03050557       0.18858671       0.04914822 </v>
   <v>      -0.06427379       0.58995592       0.22467005 </v>
   <v>      -0.14380905       0.05539317       0.00320132 </v>
   <v>      -0.39680891      -0.13458854      -0.12093032 </v>
   <v>       0.01734668       0.18074435      -0.15825934 </v>
   <v>      -0.52485855      -0.23505585      -0.29936803 </v>
   <v>      -0.25397605      -0.06831395      -0.04721917 </v>
   <v>      -0.38201825      -0.36575574       0.45320255 </v>
   <v>      -0.19886176      -0.02459755       0.46458194 </v>
   <v>      -0.08371237       0.21900227      -0.03496406 </v>
   <v>      -0.37452104       0.07352774      -0.14686732 </v>
   <v>      -0.04025240       0.09558934       0.04723651 </v>
   <v>      -0.05956713      -0.12396759      -0.17977198 </v>
   <v>      -0.18946268       0.20956055       0.19847519 </v>
  </varray>
  <varray name="stress" >
   <v>       0.15000986      -0.02488615      -0.22177151 </v>
   <v>      -0.02488615      -0.10292438      -0.01737008 </v>
   <v>      -0.22177151      -0.01737007       0.25037308 </v>
  </varray>
  <energy>
   <i name="e_fr_energy">    -76.67347845 </i>
   <i name="e_wo_entrp">    -76.67347845 </i>
   <i name="e_0_energy">      0.00000000 </i>
  </energy>
  <time name="totalsc">   19.23   19.46</time>
 </calculation>
 <calculation>
  <scstep>
   <time name="dav">    3.61    3.61</time>
   <time name="total">    3.96    3.97</time>
   <energy>
    <i name="alphaZ">     94.87611973 </i>
    <i name="ewald">  97071.94231988 </i>
    <i name="hartreedc">-133805.29474661 </i>
    <i name="XCdc">   -417.69544250 </i>
    <i name="pawpsdc">  40430.48128346 </i>
    <i name="pawaedc"> -38799.86955175 </i>
    <i name="eentropy">      0.00000000 </i>
    <i name="bandstr">  -3027.61746167 </i>
    <i name="atom">  38376.34931319 </i>
    <i name="e_fr_energy">    -76.82816628 </i>
    <i name="e_wo_entrp">    -76.82816628 </i>
    <i name="e_0_energy">    -76.82816628 </i>
   </energy>
  </scstep>
  <scstep>
   <time name="dav">    3.83    3.84</time>
   <time name="total">    4.17    4.18</time>
   <energy>
    <i name="e_fr_energy">    -76.84679444 </i>
    <i name="e_wo_entrp">    -76.84679444 </i>
    <i name="e_0_energy">    -76.84679444 </i>
   </energy>
  </scstep>
  <scstep>
   <time name="dav">    3.92    3.92</time>
   <time name="total">    4.25    4.27</time>
   <energy>
    <i name="e_fr_energy">    -76.84625228 </i>
    <i name="e_wo_entrp">    -76.84625228 </i>
    <i name="e_0_energy">    -76.84625228 </i>
   </energy>
  </scstep>
  <scstep>
   <time name="dav">    3.82    3.83</time>
   <time name="total">    4.16    5.06</time>
   <energy>
    <i name="e_fr_energy">    -76.84588988 </i>
    <i name="e_wo_entrp">    -76.84588988 </i>
    <i name="e_0_energy">    -76.84588988 </i>
   </energy>
  </scstep>
  <scstep>
   <time name="dav">    2.71    2.72</time>
   <time name="total">    2.94    2.97</time>
   <energy>
    <i name="alphaZ">     94.87611973 </i>
    <i name="ewald">  97071.94231988 </i>
    <i name="hartreedc">-133808.81533352 </i>
    <i name="XCdc">   -417.60518160 </i>
    <i name="pawpsdc">  40357.42504139 </i>
    <i name="pawaedc"> -38725.63695272 </i>
    <i name="eentropy">     -0.00000000 </i>
    <i name="bandstr">  -3025.38120282 </i>
    <i name="atom">  38376.34931319 </i>
    <i name="e_fr_energy">    -76.84587647 </i>
    <i name="e_wo_entrp">    -76.84587647 </i>
    <i name="e_0_energy">    -76.84587647 </i>
   </energy>
  </scstep>
  <structure>
   <crystal>
    <varray name="basis" >
     <v>      23.06677635       0.00000000       0.00000000 </v>
     <v>       0.00000000      23.06677635       0.00000000 </v>
     <v>       0.00000000       0.00000000      23.06677635 </v>
    </varray>
    <i name="volume">  12273.28204167 </i>
    <varray name="rec_basis" >
     <v>       0.04335240       0.00000000       0.00000000 </v>
     <v>       0.00000000       0.04335240       0.00000000 </v>
     <v>       0.00000000       0.00000000       0.04335240 </v>
    </varray>
   </crystal>
   <varray name="positions" >
    <v>       0.62728835       0.61700811       0.29630247 </v>
    <v>       0.66900088       0.58122992       0.40039592 </v>
    <v>       0.66246738       0.46647604       0.43539050 </v>
    <v>       0.60277635       0.51005647       0.33253819 </v>
    <v>       0.60663508       0.39497349       0.35769254 </v>
    <v>       0.65758205       0.44169164       0.55532589 </v>
    <v>       0.66751425       0.55728048       0.51509939 </v>
    <v>       0.60266546       0.36766437       0.47346246 </v>
    <v>       0.67142205       0.53696087       0.63149078 </v>
    <v>       0.58742455       0.34936615       0.58977801 </v>
    <v>       0.54625384       0.66691617       0.36208775 </v>
    <v>       0.51589281       0.44300313       0.29333708 </v>
    <v>       0.58779314       0.63672215       0.46816105 </v>
    <v>       0.52255834       0.55844033       0.40502284 </v>
    <v>       0.59695072       0.44761699       0.65795629 </v>
    <v>       0.50589351       0.41538127       0.41449202 </v>
    <v>       0.56364615       0.49248201       0.49981967 </v>
    <v>       0.58544544       0.60863344       0.58521926 </v>
    <v>       0.57378256       0.55769553       0.69849832 </v>
    <v>       0.52102975       0.45829564       0.74970248 </v>
    <v>       0.49390650       0.39343753       0.53108771 </v>
    <v>       0.49443215       0.38631418       0.65216978 </v>
    <v>       0.50882378       0.51413999       0.60111172 </v>
    <v>       0.50356863       0.65150897       0.65795248 </v>
    <v>       0.49073805       0.66422580       0.53662663 </v>
    <v>       0.44903041       0.65622367       0.42281672 </v>
    <v>       0.43500067       0.49404066       0.36047001 </v>
    <v>       0.45689886       0.55614272       0.50497569 </v>
    <v>       0.40900951       0.45453480       0.47288920 </v>
    <v>       0.40658387       0.44691549       0.59176916 </v>
    <v>       0.40944211       0.44278327       0.71185562 </v>
    <v>       0.45364485       0.55138579       0.70139069 </v>
    <v>       0.40595807       0.60688560       0.60787761 </v>
    <v>       0.36876893       0.56558252       0.42447132 </v>
    <v>       0.36577548       0.65393306       0.50721413 </v>
    <v>       0.33753357       0.53496813       0.53794906 </v>
    <v>       0.33794457       0.52016629       0.65668225 </v>
   </varray>
  </structure>
  <varray name="forces" >
   <v>       0.23969707       0.24745380      -0.45510791 </v>
   <v>      -0.05117726       0.14046631      -0.07865643 </v>
   <v>       0.40099172      -0.06747585      -0.15289093 </v>
   <v>       0.26969082      -0.14782721      -0.14733976 </v>
   <v>       0.28470796      -0.27906111      -0.25976813 </v>
   <v>       0.53293489      -0.11530535       0.06794160 </v>
   <v>       0.22551965       0.03936059      -0.02654411 </v>
   <v>      -0.19841583       0.00744069       0.10171019 </v>
   <v>       0.09506029      -0.06909160       0.09841012 </v>
   <v>       0.19222387      -0.32502380       0.11139239 </v>
   <v>       0.12669366       0.28474786      -0.18072272 </v>
   <v>      -0.14035264      -0.28375747      -0.07278586 </v>
   <v>      -0.14395573       0.11268216       0.38992907 </v>
   <v>       0.00252309      -0.01753282      -0.13656356 </v>
   <v>       0.37181295      -0.27084181       0.22117966 </v>
   <v>       0.01728785       0.02749384      -0.13484850 </v>
   <v>      -0.15722376       0.13930426      -0.27266733 </v>
   <v>       0.21259076       0.09347159      -0.01530572 </v>
   <v>       0.05904351       0.20793388       0.06481807 </v>
   <v>       0.07333983      -0.02450926       0.04302281 </v>
   <v>       0.04871009      -0.16843638       0.02359802 </v>
   <v>      -0.15535154       0.03749465      -0.02558819 </v>
   <v>      -0.00765143      -0.10836678       0.36606449 </v>
   <v>       0.02681071       0.13896866       0.03586590 </v>
   <v>      -0.07354808       0.52213680       0.21176836 </v>
   <v>      -0.07990022       0.04252465      -0.01815539 </v>
   <v>      -0.34876428      -0.13329164      -0.11568508 </v>
   <v>       0.00456698       0.14687824      -0.10795518 </v>
   <v>      -0.44124701      -0.20344893      -0.24554403 </v>
   <v>      -0.23580785      -0.05336935      -0.02672056 </v>
   <v>      -0.34098003      -0.30803286       0.39834851 </v>
   <v>      -0.19017091      -0.01962125       0.40377036 </v>
   <v>      -0.05967061       0.17627289       0.00179327 </v>
   <v>      -0.33658254       0.07322041      -0.12738142 </v>
   <v>      -0.04140908       0.08178255       0.03840318 </v>
   <v>      -0.04330847      -0.10808614      -0.14656338 </v>
   <v>      -0.13868843       0.18344579       0.16877819 </v>
  </varray>
  <varray name="stress" >
   <v>      -0.12668800      -0.02601499      -0.22240999 </v>
   <v>      -0.02601499      -0.36864181      -0.01604382 </v>
   <v>      -0.22240999      -0.01604382      -0.01668053 </v>
  </varray>
  <energy>
   <i name="e_fr_energy">    -76.84587647 </i>
   <i name="e_wo_entrp">    -76.84587647 </i>
   <i name="e_0_energy">     -0.00000000 </i>
  </energy>
  <time name="totalsc">   26.22   27.21</time>
 </calculation>
 <calculation>
  <scstep>
   <time name="dav">    3.62    3.63</time>
   <time name="total">    3.96    3.98</time>
   <energy>
    <i name="alphaZ">     94.87611973 </i>
    <i name="ewald">  96141.42694815 </i>
    <i name="hartreedc">-132883.41438450 </i>
    <i name="XCdc">   -418.59253591 </i>
    <i name="pawpsdc">  40358.35515157 </i>
    <i name="pawaedc"> -38726.57834964 </i>
    <i name="eentropy">      0.00000000 </i>
    <i name="bandstr">  -3019.45011352 </i>
    <i name="atom">  38376.34931319 </i>
    <i name="e_fr_energy">    -77.02785093 </i>
    <i name="e_wo_entrp">    -77.02785093 </i>
    <i name="e_0_energy">    -77.02785093 </i>
   </energy>
  </scstep>
  <scstep>
   <time name="dav">    3.79    3.79</time>
   <time name="total">    4.13    4.83</time>
   <energy>
    <i name="e_fr_energy">    -77.10216371 </i>
    <i name="e_wo_entrp">    -77.10216371 </i>
    <i name="e_0_energy">    -77.10216371 </i>
   </energy>
  </scstep>
  <scstep>
   <time name="dav">    3.76    3.77</time>
   <time name="total">    4.12    4.13</time>
   <energy>
    <i name="e_fr_energy">    -77.10057865 </i>
    <i name="e_wo_entrp">    -77.10057865 </i>
    <i name="e_0_energy">    -77.10057865 </i>
   </energy>
  </scstep>
  <scstep>
   <time name="dav">    3.81    3.81</time>
   <time name="total">    4.15    4.19</time>
   <energy>
    <i name="e_fr_energy">    -77.09875160 </i>
    <i name="e_wo_entrp">    -77.09875160 </i>
    <i name="e_0_energy">    -77.09875160 </i>
   </energy>
  </scstep>
  <scstep>
   <time name="dav">    2.82    2.82</time>
   <time name="total">    3.04    3.05</time>
   <energy>
    <i name="alphaZ">     94.87611973 </i>
    <i name="ewald">  96141.42694815 </i>
    <i name="hartreedc">-132890.54464737 </i>
    <i name="XCdc">   -418.41731849 </i>
    <i name="pawpsdc">  40222.52198590 </i>
    <i name="pawaedc"> -38588.51764906 </i>
    <i name="eentropy">      0.00000000 </i>
    <i name="bandstr">  -3014.79352474 </i>
    <i name="atom">  38376.34931319 </i>
    <i name="e_fr_energy">    -77.09877268 </i>
    <i name="e_wo_entrp">    -77.09877268 </i>
    <i name="e_0_energy">    -77.09877268 </i>
   </energy>
  </scstep>
  <structure>
   <crystal>
    <varray name="basis" >
     <v>      23.06677635       0.00000000       0.00000000 </v>
     <v>       0.00000000      23.06677635       0.00000000 </v>
     <v>       0.00000000       0.00000000      23.06677635 </v>
    </varray>
    <i name="volume">  12273.28204167 </i>
    <varray name="rec_basis" >
     <v>       0.04335240       0.00000000       0.00000000 </v>
     <v>       0.00000000       0.04335240       0.00000000 </v>
     <v>       0.00000000       0.00000000       0.04335240 </v>
    </varray>
   </crystal>
   <varray name="positions" >
    <v>       0.62796130       0.61782976       0.29485369 </v>
    <v>       0.66906035       0.58152048       0.40025029 </v>
    <v>       0.66367132       0.46634919       0.43483270 </v>
    <v>       0.60354494       0.50948174       0.33220542 </v>
    <v>       0.60746039       0.39421071       0.35679877 </v>
    <v>       0.65931064       0.44129848       0.55568921 </v>
    <v>       0.66815035       0.55752679       0.51504437 </v>
    <v>       0.60208076       0.36750398       0.47385054 </v>
    <v>       0.67168878       0.53677890       0.63179501 </v>
    <v>       0.58799767       0.34837837       0.59001638 </v>
    <v>       0.54660546       0.66795593       0.36130680 </v>
    <v>       0.51546037       0.44215366       0.29302178 </v>
    <v>       0.58749114       0.63707168       0.46963300 </v>
    <v>       0.52251401       0.55818817       0.40487530 </v>
    <v>       0.59804802       0.44685692       0.65855506 </v>
    <v>       0.50589233       0.41542827       0.41412966 </v>
    <v>       0.56290750       0.49300104       0.49882575 </v>
    <v>       0.58618471       0.60889941       0.58500946 </v>
    <v>       0.57398872       0.55840000       0.69873847 </v>
    <v>       0.52129618       0.45820987       0.74992100 </v>
    <v>       0.49415335       0.39283574       0.53122247 </v>
    <v>       0.49395937       0.38631326       0.65212641 </v>
    <v>       0.50880042       0.51382408       0.60230999 </v>
    <v>       0.50365007       0.65203037       0.65808825 </v>
    <v>       0.49058552       0.66577079       0.53720520 </v>
    <v>       0.44861027       0.65637531       0.42284411 </v>
    <v>       0.43395775       0.49369874       0.36016089 </v>
    <v>       0.45695454       0.55663112       0.50453193 </v>
    <v>       0.40761061       0.45391328       0.47208498 </v>
    <v>       0.40592340       0.44672956       0.59163073 </v>
    <v>       0.40844293       0.44180908       0.71304933 </v>
    <v>       0.45313600       0.55131824       0.70261762 </v>
    <v>       0.40572557       0.60747703       0.60775688 </v>
    <v>       0.36779131       0.56576792       0.42408366 </v>
    <v>       0.36567560       0.65418659       0.50734195 </v>
    <v>       0.33736920       0.53464044       0.53746448 </v>
    <v>       0.33742184       0.52071774       0.65721115 </v>
   </varray>
  </structure>
  <varray name="forces" >
   <v>       0.22000634       0.12039851      -0.30815533 </v>
   <v>      -0.15248863       0.17077322      -0.10499104 </v>
   <v>       0.27501029      -0.08773944      -0.05500542 </v>
   <v>       0.21793139      -0.04180556      -0.15967843 </v>
   <v>       0.20989110      -0.24244149      -0.12350002 </v>
   <v>       0.33393509      -0.06805204      -0.02441090 </v>
   <v>       0.18790544      -0.04251387      -0.03322522 </v>
   <v>      -0.14214353       0.10341005       0.02689868 </v>
   <v>       0.07699679      -0.06331135       0.06630525 </v>
   <v>       0.14151307      -0.21861008       0.13738355 </v>
   <v>       0.10934041       0.11233051      -0.01678365 </v>
   <v>      -0.09626826      -0.21031004       0.00274847 </v>
   <v>      -0.16919109       0.07790310       0.09829320 </v>
   <v>       0.02692336       0.09805489      -0.24969582 </v>
   <v>       0.27289724      -0.22513471       0.19561835 </v>
   <v>       0.03951081       0.04048251      -0.11896220 </v>
   <v>       0.01303814       0.05167575      -0.10275535 </v>
   <v>       0.09605268       0.07026209       0.10360356 </v>
   <v>       0.02804607       0.10993567       0.02524585 </v>
   <v>       0.02851069      -0.01023492      -0.01962465 </v>
   <v>      -0.01765290      -0.07085515      -0.01370638 </v>
   <v>      -0.10394044       0.09057442      -0.03207544 </v>
   <v>      -0.00454394      -0.08500760       0.21088335 </v>
   <v>       0.02032992       0.04014376       0.01118508 </v>
   <v>      -0.09372938       0.39831119       0.18954788 </v>
   <v>       0.04278060       0.01943324      -0.05692091 </v>
   <v>      -0.25040934      -0.12644111      -0.10307557 </v>
   <v>      -0.02642949       0.09096711      -0.01000961 </v>
   <v>      -0.29235136      -0.14155575      -0.14843835 </v>
   <v>      -0.19751565      -0.02492731       0.00822782 </v>
   <v>      -0.25493478      -0.19243700       0.28988203 </v>
   <v>      -0.16864868      -0.01306783       0.27729757 </v>
   <v>      -0.01371847       0.08772520       0.07413218 </v>
   <v>      -0.26206501       0.07299140      -0.08923302 </v>
   <v>      -0.04404332       0.05531654       0.02023249 </v>
   <v>      -0.01189144      -0.07503274      -0.07881986 </v>
   <v>      -0.03865369       0.12878882       0.11158185 </v>
  </varray>
  <varray name="stress" >
   <v>      -0.66389556      -0.03399025      -0.22034625 </v>
   <v>      -0.03399025      -0.88653795      -0.01902589 </v>
   <v>      -0.22034625      -0.01902589      -0.52940948 </v>
  </varray>
  <energy>
   <i name="e_fr_energy">    -77.09877268 </i>
   <i name="e_wo_entrp">    -77.09877268 </i>
   <i name="e_0_energy">      0.00000000 </i>
  </energy>
  <time name="totalsc">   26.14   26.95</time>
 </calculation>
 <calculation>
  <scstep>
   <time name="dav">    3.64    3.64</time>
   <time name="total">    3.98    4.00</time>
   <energy>
    <i name="alphaZ">     94.87611973 </i>
    <i name="ewald">  94307.94887127 </i>
    <i name="hartreedc">-131066.27221712 </i>
    <i name="XCdc">   -420.25861635 </i>
    <i name="pawpsdc">  40224.17210794 </i>
    <i name="pawaedc"> -38590.18279490 </i>
    <i name="eentropy">      0.00000000 </i>
    <i name="bandstr">  -3003.62396631 </i>
    <i name="atom">  38376.34931319 </i>
    <i name="e_fr_energy">    -76.99118256 </i>
    <i name="e_wo_entrp">    -76.99118256 </i>
    <i name="e_0_energy">    -76.99118256 </i>
   </energy>
  </scstep>
  <scstep>
   <time name="dav">    3.85    3.86</time>
   <time name="total">    4.20    4.20</time>
   <energy>
    <i name="e_fr_energy">    -77.29738548 </i>
    <i name="e_wo_entrp">    -77.29738548 </i>
    <i name="e_0_energy">    -77.29738548 </i>
   </energy>
  </scstep>
  <scstep>
   <time name="dav">    3.81    3.82</time>
   <time name="total">    4.15    4.17</time>
   <energy>
    <i name="e_fr_energy">    -77.29518858 </i>
    <i name="e_wo_entrp">    -77.29518858 </i>
    <i name="e_0_energy">    -77.29518858 </i>
   </energy>
  </scstep>
  <scstep>
   <time name="dav">    3.81    3.81</time>
   <time name="total">    4.15    4.15</time>
   <energy>
    <i name="e_fr_energy">    -77.28586930 </i>
    <i name="e_wo_entrp">    -77.28586930 </i>
    <i name="e_0_energy">    -77.28586930 </i>
   </energy>
  </scstep>
  <scstep>
   <time name="dav">    3.84    3.84</time>
   <time name="total">    4.18    4.20</time>
   <energy>
    <i name="e_fr_energy">    -77.28621271 </i>
    <i name="e_wo_entrp">    -77.28621271 </i>
    <i name="e_0_energy">    -77.28621271 </i>
   </energy>
  </scstep>
  <scstep>
   <time name="dav">    3.81    3.82</time>
   <time name="total">    4.15    4.18</time>
   <energy>
    <i name="e_fr_energy">    -77.28609462 </i>
    <i name="e_wo_entrp">    -77.28609462 </i>
    <i name="e_0_energy">    -77.28609462 </i>
   </energy>
  </scstep>
  <scstep>
   <time name="dav">    2.88    2.89</time>
   <time name="total">    3.11    3.12</time>
   <energy>
    <i name="alphaZ">     94.87611973 </i>
    <i name="ewald">  94307.94887127 </i>
    <i name="hartreedc">-131079.19186722 </i>
    <i name="XCdc">   -419.91662340 </i>
    <i name="pawpsdc">  39990.10339992 </i>
    <i name="pawaedc"> -38352.08293225 </i>
    <i name="eentropy">      0.00000000 </i>
    <i name="bandstr">  -2995.37247283 </i>
    <i name="atom">  38376.34931319 </i>
    <i name="e_fr_energy">    -77.28619158 </i>
    <i name="e_wo_entrp">    -77.28619158 </i>
    <i name="e_0_energy">    -77.28619158 </i>
   </energy>
  </scstep>
  <structure>
   <crystal>
    <varray name="basis" >
     <v>      23.06677635       0.00000000       0.00000000 </v>
     <v>       0.00000000      23.06677635       0.00000000 </v>
     <v>       0.00000000       0.00000000      23.06677635 </v>
    </varray>
    <i name="volume">  12273.28204167 </i>
    <varray name="rec_basis" >
     <v>       0.04335240       0.00000000       0.00000000 </v>
     <v>       0.00000000       0.04335240       0.00000000 </v>
     <v>       0.00000000       0.00000000       0.04335240 </v>
    </varray>
   </crystal>
   <varray name="positions" >
    <v>       0.62930721       0.61947305       0.29195613 </v>
    <v>       0.66917927       0.58210160       0.39995904 </v>
    <v>       0.66607919       0.46609549       0.43371708 </v>
    <v>       0.60508212       0.50833228       0.33153988 </v>
    <v>       0.60911103       0.39268515       0.35501122 </v>
    <v>       0.66276782       0.44051216       0.55641584 </v>
    <v>       0.66942255       0.55801940       0.51493435 </v>
    <v>       0.60091135       0.36718321       0.47462668 </v>
    <v>       0.67222225       0.53641495       0.63240347 </v>
    <v>       0.58914392       0.34640281       0.59049311 </v>
    <v>       0.54730870       0.67003547       0.35974490 </v>
    <v>       0.51459547       0.44045472       0.29239118 </v>
    <v>       0.58688713       0.63777074       0.47257691 </v>
    <v>       0.52242533       0.55768385       0.40458023 </v>
    <v>       0.60024262       0.44533678       0.65975260 </v>
    <v>       0.50588998       0.41552226       0.41340495 </v>
    <v>       0.56143020       0.49403910       0.49683792 </v>
    <v>       0.58766324       0.60943135       0.58458986 </v>
    <v>       0.57440106       0.55980896       0.69921877 </v>
    <v>       0.52182904       0.45803833       0.75035806 </v>
    <v>       0.49464705       0.39163217       0.53149198 </v>
    <v>       0.49301380       0.38631143       0.65203968 </v>
    <v>       0.50875370       0.51319226       0.60470653 </v>
    <v>       0.50381294       0.65307318       0.65835979 </v>
    <v>       0.49028046       0.66886077       0.53836234 </v>
    <v>       0.44776998       0.65667861       0.42289888 </v>
    <v>       0.43187191       0.49301492       0.35954264 </v>
    <v>       0.45706591       0.55760790       0.50364440 </v>
    <v>       0.40481281       0.45267025       0.47047653 </v>
    <v>       0.40460247       0.44635772       0.59135386 </v>
    <v>       0.40644457       0.43986070       0.71543675 </v>
    <v>       0.45211828       0.55118312       0.70507147 </v>
    <v>       0.40526056       0.60865990       0.60751543 </v>
    <v>       0.36583606       0.56613872       0.42330834 </v>
    <v>       0.36547584       0.65469364       0.50759757 </v>
    <v>       0.33704046       0.53398507       0.53649533 </v>
    <v>       0.33637638       0.52182064       0.65826895 </v>
   </varray>
  </structure>
  <varray name="forces" >
   <v>       0.15100644      -0.09368605      -0.03723127 </v>
   <v>      -0.32301028       0.20896209      -0.14917303 </v>
   <v>       0.03747822      -0.10889192       0.09534208 </v>
   <v>       0.14269453       0.12261269      -0.16181746 </v>
   <v>       0.05484895      -0.15195065       0.08977672 </v>
   <v>       0.10856012      -0.00729044      -0.15502825 </v>
   <v>       0.11470842      -0.19200292      -0.05117080 </v>
   <v>      -0.01425388       0.26333575      -0.11502206 </v>
   <v>       0.03786608      -0.05236410       0.00126282 </v>
   <v>       0.05359335       0.00356322       0.17551076 </v>
   <v>       0.06951472      -0.18410983       0.22200182 </v>
   <v>      -0.00489450      -0.08229051       0.14033636 </v>
   <v>      -0.18326279       0.04058713      -0.43118677 </v>
   <v>       0.05338746       0.30641292      -0.47911064 </v>
   <v>       0.09551693      -0.14657087       0.14117167 </v>
   <v>       0.06872327       0.06289972      -0.08780122 </v>
   <v>       0.26190031      -0.10419951       0.21252226 </v>
   <v>      -0.10588113       0.00529501       0.40090944 </v>
   <v>      -0.02909664      -0.04940845      -0.04263475 </v>
   <v>      -0.04895464       0.01688233      -0.13981538 </v>
   <v>      -0.12042073       0.09597392      -0.07007070 </v>
   <v>      -0.00309142       0.18357836      -0.03316628 </v>
   <v>      -0.00505160      -0.04827032      -0.02986736 </v>
   <v>       0.01040732      -0.14656599      -0.03657361 </v>
   <v>      -0.12759971       0.20082130       0.14441897 </v>
   <v>       0.25913660      -0.01816692      -0.12710757 </v>
   <v>      -0.07282440      -0.11408417      -0.08638180 </v>
   <v>      -0.10849923       0.02172574       0.16480325 </v>
   <v>      -0.09682720      -0.03608825       0.02422233 </v>
   <v>      -0.13039146       0.02266448       0.04867579 </v>
   <v>      -0.11017066      -0.00581158       0.09443434 </v>
   <v>      -0.12318370      -0.01708629       0.06542863 </v>
   <v>       0.06483817      -0.09031815       0.20089895 </v>
   <v>      -0.12422670       0.06928522      -0.01752006 </v>
   <v>      -0.05202990       0.00736477      -0.02277085 </v>
   <v>       0.04705454      -0.01108331       0.04212748 </v>
   <v>       0.15243511       0.02827556       0.00960620 </v>
  </varray>
  <varray name="stress" >
   <v>      -1.55615564      -0.06186065      -0.19222795 </v>
   <v>      -0.06186065      -1.74953498      -0.04667196 </v>
   <v>      -0.19222794      -0.04667196      -1.35266566 </v>
  </varray>
  <energy>
   <i name="e_fr_energy">    -77.28619158 </i>
   <i name="e_wo_entrp">    -77.28619158 </i>
   <i name="e_0_energy">      0.00000000 </i>
  </energy>
  <time name="totalsc">   34.64   34.91</time>
 </calculation>
 <calculation>
  <scstep>
   <time name="dav">    3.62    3.62</time>
   <time name="total">    3.96    3.98</time>
   <energy>
    <i name="alphaZ">     94.87611973 </i>
    <i name="ewald">  94020.25724004 </i>
    <i name="hartreedc">-130793.13085173 </i>
    <i name="XCdc">   -420.17066988 </i>
    <i name="pawpsdc">  39991.09449565 </i>
    <i name="pawaedc"> -38353.07077444 </i>
    <i name="eentropy">      0.00000000 </i>
    <i name="bandstr">  -2993.55887467 </i>
    <i name="atom">  38376.34931319 </i>
    <i name="e_fr_energy">    -77.35400210 </i>
    <i name="e_wo_entrp">    -77.35400210 </i>
    <i name="e_0_energy">    -77.35400210 </i>
   </energy>
  </scstep>
  <scstep>
   <time name="dav">    3.84    3.85</time>
   <time name="total">    4.18    4.20</time>
   <energy>
    <i name="e_fr_energy">    -77.37622883 </i>
    <i name="e_wo_entrp">    -77.37622883 </i>
    <i name="e_0_energy">    -77.37622883 </i>
   </energy>
  </scstep>
  <scstep>
   <time name="dav">    3.89    3.89</time>
   <time name="total">    4.23    4.25</time>
   <energy>
    <i name="e_fr_energy">    -77.37586903 </i>
    <i name="e_wo_entrp">    -77.37586903 </i>
    <i name="e_0_energy">    -77.37586903 </i>
   </energy>
  </scstep>
  <scstep>
   <time name="dav">    3.84    3.84</time>
   <time name="total">    4.18    5.20</time>
   <energy>
    <i name="e_fr_energy">    -77.37537323 </i>
    <i name="e_wo_entrp">    -77.37537323 </i>
    <i name="e_0_energy">    -77.37537323 </i>
   </energy>
  </scstep>
  <scstep>
   <time name="dav">    2.79    2.79</time>
   <time name="total">    3.01    3.13</time>
   <energy>
    <i name="alphaZ">     94.87611973 </i>
    <i name="ewald">  94020.25724004 </i>
    <i name="hartreedc">-130795.71959087 </i>
    <i name="XCdc">   -420.12592700 </i>
    <i name="pawpsdc">  39955.27704977 </i>
    <i name="pawaedc"> -38316.65445260 </i>
    <i name="eentropy">      0.00000000 </i>
    <i name="bandstr">  -2991.63517905 </i>
    <i name="atom">  38376.34931319 </i>
    <i name="e_fr_energy">    -77.37542679 </i>
    <i name="e_wo_entrp">    -77.37542679 </i>
    <i name="e_0_energy">    -77.37542679 </i>
   </energy>
  </scstep>
  <structure>
   <crystal>
    <varray name="basis" >
     <v>      23.06677635       0.00000000       0.00000000 </v>
     <v>       0.00000000      23.06677635       0.00000000 </v>
     <v>       0.00000000       0.00000000      23.06677635 </v>
    </varray>
    <i name="volume">  12273.28204167 </i>
    <varray name="rec_basis" >
     <v>       0.04335240       0.00000000       0.00000000 </v>
     <v>       0.00000000       0.04335240       0.00000000 </v>
     <v>       0.00000000       0.00000000       0.04335240 </v>
    </varray>
   </crystal>
   <varray name="positions" >
    <v>       0.62981253       0.61948523       0.29149436 </v>
    <v>       0.66849232       0.58263248       0.39959630 </v>
    <v>       0.66647713       0.46582530       0.43377785 </v>
    <v>       0.60559450       0.50844791       0.33110045 </v>
    <v>       0.60944725       0.39215417       0.35497159 </v>
    <v>       0.66345827       0.44039297       0.55617413 </v>
    <v>       0.66983924       0.55766651       0.51480859 </v>
    <v>       0.60072667       0.36771383       0.47447850 </v>
    <v>       0.67237472       0.53625323       0.63248618 </v>
    <v>       0.58941112       0.34615094       0.59093751 </v>
    <v>       0.54755231       0.66990830       0.36002252 </v>
    <v>       0.51447117       0.44005246       0.29261355 </v>
    <v>       0.58640914       0.63795088       0.47202591 </v>
    <v>       0.52252980       0.55828405       0.40349935 </v>
    <v>       0.60073877       0.44481821       0.66021704 </v>
    <v>       0.50603915       0.41567142       0.41311873 </v>
    <v>       0.56180572       0.49394888       0.49703895 </v>
    <v>       0.58762724       0.60951277       0.58540674 </v>
    <v>       0.57439196       0.55988664       0.69918916 </v>
    <v>       0.52179259       0.45805251       0.75011138 </v>
    <v>       0.49445001       0.39168275       0.53137499 </v>
    <v>       0.49288282       0.38671049       0.65195614 </v>
    <v>       0.50873657       0.51300424       0.60495650 </v>
    <v>       0.50385698       0.65289142       0.65831593 </v>
    <v>       0.48996283       0.66970365       0.53882852 </v>
    <v>       0.44822320       0.65667895       0.42262961 </v>
    <v>       0.43143941       0.49267692       0.35927350 </v>
    <v>       0.45684455       0.55778352       0.50388623 </v>
    <v>       0.40423453       0.45242841       0.47031784 </v>
    <v>       0.40414527       0.44635815       0.59142335 </v>
    <v>       0.40594233       0.43959202       0.71595589 </v>
    <v>       0.45171661       0.55112820       0.70553626 </v>
    <v>       0.40534048       0.60861889       0.60792068 </v>
    <v>       0.36530891       0.56633815       0.42316834 </v>
    <v>       0.36533642       0.65477629       0.50758164 </v>
    <v>       0.33709960       0.53387484       0.53645960 </v>
    <v>       0.33657056       0.52202708       0.65842885 </v>
   </varray>
  </structure>
  <varray name="forces" >
   <v>       0.12487798      -0.06948433      -0.03436938 </v>
   <v>      -0.30695117       0.18502096      -0.08659669 </v>
   <v>       0.02583600      -0.05979059       0.05207190 </v>
   <v>       0.13442481       0.03271293      -0.15273838 </v>
   <v>       0.03564510      -0.08676101       0.07379750 </v>
   <v>       0.07638772      -0.01906840      -0.10979697 </v>
   <v>       0.04255137      -0.11579306      -0.05308943 </v>
   <v>      -0.01496728       0.23026236      -0.05141824 </v>
   <v>       0.02798664      -0.06027873      -0.00888019 </v>
   <v>       0.02320233       0.04609183       0.10918601 </v>
   <v>       0.12020999      -0.13891169       0.12930901 </v>
   <v>       0.02984350      -0.07342474       0.13826979 </v>
   <v>      -0.16439140      -0.01078690      -0.23321938 </v>
   <v>       0.01300902       0.17141846      -0.35380489 </v>
   <v>       0.09918334      -0.11435317       0.11354638 </v>
   <v>       0.04851069       0.07865663      -0.05425199 </v>
   <v>       0.20014960      -0.03622372       0.14464649 </v>
   <v>      -0.05718122       0.00766416       0.18754701 </v>
   <v>      -0.02688978      -0.07799384      -0.02898190 </v>
   <v>      -0.05843993       0.02250750      -0.13585311 </v>
   <v>      -0.11192053       0.09386630      -0.05514804 </v>
   <v>      -0.00055467       0.17656440      -0.04704144 </v>
   <v>      -0.01007495      -0.05422910      -0.02969902 </v>
   <v>      -0.00695292      -0.12300777       0.00631225 </v>
   <v>      -0.10443410       0.14644172       0.11209424 </v>
   <v>       0.18419806      -0.03652830      -0.05240697 </v>
   <v>      -0.06480845      -0.08278082      -0.04303018 </v>
   <v>      -0.04201445       0.00955873       0.09129480 </v>
   <v>      -0.06292306      -0.01433498       0.02439060 </v>
   <v>      -0.09948916       0.00769116       0.03965964 </v>
   <v>      -0.10195879      -0.00146661       0.08255740 </v>
   <v>      -0.09740684      -0.02736671       0.05801389 </v>
   <v>       0.04754390      -0.07303964       0.13825689 </v>
   <v>      -0.06672555       0.05609038      -0.01089348 </v>
   <v>      -0.00661371      -0.01163911      -0.02343519 </v>
   <v>       0.04136753       0.00696786       0.04336066 </v>
   <v>       0.12977038       0.01574785       0.02034040 </v>
  </varray>
  <varray name="stress" >
   <v>      -1.69134551      -0.02947661      -0.17885854 </v>
   <v>      -0.02947661      -1.85853731      -0.03290189 </v>
   <v>      -0.17885855      -0.03290188      -1.52470779 </v>
  </varray>
  <energy>
   <i name="e_fr_energy">    -77.37542679 </i>
   <i name="e_wo_entrp">    -77.37542679 </i>
   <i name="e_0_energy">      0.00000000 </i>
  </energy>
  <time name="totalsc">   26.30   27.53</time>
 </calculation>
 <calculation>
  <scstep>
   <time name="dav">    3.63    3.64</time>
   <time name="total">    3.97    3.99</time>
   <energy>
    <i name="alphaZ">     94.87611973 </i>
    <i name="ewald">  93298.24787261 </i>
    <i name="hartreedc">-130076.87370943 </i>
    <i name="XCdc">   -420.71202595 </i>
    <i name="pawpsdc">  39955.49867753 </i>
    <i name="pawaedc"> -38316.87700138 </i>
    <i name="eentropy">      0.00000000 </i>
    <i name="bandstr">  -2987.83933693 </i>
    <i name="atom">  38376.34931319 </i>
    <i name="e_fr_energy">    -77.33009063 </i>
    <i name="e_wo_entrp">    -77.33009063 </i>
    <i name="e_0_energy">    -77.33009063 </i>
   </energy>
  </scstep>
  <scstep>
   <time name="dav">    3.80    3.81</time>
   <time name="total">    4.14    4.15</time>
   <energy>
    <i name="e_fr_energy">    -77.47304663 </i>
    <i name="e_wo_entrp">    -77.47304663 </i>
    <i name="e_0_energy">    -77.47304663 </i>
   </energy>
  </scstep>
  <scstep>
   <time name="dav">    3.97    3.97</time>
   <time name="total">    4.31    4.33</time>
   <energy>
    <i name="e_fr_energy">    -77.47147907 </i>
    <i name="e_wo_entrp">    -77.47147907 </i>
    <i name="e_0_energy">    -77.47147907 </i>
   </energy>
  </scstep>
  <scstep>
   <time name="dav">    3.82    3.83</time>
   <time name="total">    4.16    4.17</time>
   <energy>
    <i name="e_fr_energy">    -77.46759932 </i>
    <i name="e_wo_entrp">    -77.46759932 </i>
    <i name="e_0_energy">    -77.46759932 </i>
   </energy>
  </scstep>
  <scstep>
   <time name="dav">    3.88    3.88</time>
   <time name="total">    4.22    4.24</time>
   <energy>
    <i name="e_fr_energy">    -77.46768544 </i>
    <i name="e_wo_entrp">    -77.46768544 </i>
    <i name="e_0_energy">    -77.46768544 </i>
   </energy>
  </scstep>
  <scstep>
   <time name="dav">    2.84    2.84</time>
   <time name="total">    3.06    3.06</time>
   <energy>
    <i name="alphaZ">     94.87611973 </i>
    <i name="ewald">  93298.24787261 </i>
    <i name="hartreedc">-130081.54121291 </i>
    <i name="XCdc">   -420.61180503 </i>
    <i name="pawpsdc">  39881.20739939 </i>
    <i name="pawaedc"> -38241.27391602 </i>
    <i name="eentropy">      0.00000000 </i>
    <i name="bandstr">  -2984.72138815 </i>
    <i name="atom">  38376.34931319 </i>
    <i name="e_fr_energy">    -77.46761718 </i>
    <i name="e_wo_entrp">    -77.46761718 </i>
    <i name="e_0_energy">    -77.46761718 </i>
   </energy>
  </scstep>
  <structure>
   <crystal>
    <varray name="basis" >
     <v>      23.06677635       0.00000000       0.00000000 </v>
     <v>       0.00000000      23.06677635       0.00000000 </v>
     <v>       0.00000000       0.00000000      23.06677635 </v>
    </varray>
    <i name="volume">  12273.28204167 </i>
    <varray name="rec_basis" >
     <v>       0.04335240       0.00000000       0.00000000 </v>
     <v>       0.00000000       0.04335240       0.00000000 </v>
     <v>       0.00000000       0.00000000       0.04335240 </v>
    </varray>
   </crystal>
   <varray name="positions" >
    <v>       0.63109173       0.61951605       0.29032544 </v>
    <v>       0.66675337       0.58397636       0.39867805 </v>
    <v>       0.66748451       0.46514133       0.43393168 </v>
    <v>       0.60689156       0.50874064       0.32998807 </v>
    <v>       0.61029837       0.39081001       0.35487125 </v>
    <v>       0.66520610       0.44009125       0.55556226 </v>
    <v>       0.67089405       0.55677320       0.51449024 </v>
    <v>       0.60025916       0.36905707       0.47410337 </v>
    <v>       0.67276068       0.53584384       0.63269555 </v>
    <v>       0.59008753       0.34551336       0.59206248 </v>
    <v>       0.54816901       0.66958636       0.36072529 </v>
    <v>       0.51415650       0.43903419       0.29317648 </v>
    <v>       0.58519915       0.63840691       0.47063110 </v>
    <v>       0.52279426       0.55980342       0.40076316 </v>
    <v>       0.60199477       0.44350548       0.66139273 </v>
    <v>       0.50641676       0.41604902       0.41239421 </v>
    <v>       0.56275632       0.49372047       0.49754783 </v>
    <v>       0.58753611       0.60971888       0.58747459 </v>
    <v>       0.57436892       0.56008331       0.69911419 </v>
    <v>       0.52170031       0.45808840       0.74948694 </v>
    <v>       0.49395120       0.39181081       0.53107883 </v>
    <v>       0.49255124       0.38772067       0.65174467 </v>
    <v>       0.50869321       0.51252828       0.60558930 </v>
    <v>       0.50396847       0.65243132       0.65820489 </v>
    <v>       0.48915877       0.67183732       0.54000865 </v>
    <v>       0.44937049       0.65667982       0.42194797 </v>
    <v>       0.43034454       0.49182127       0.35859221 </v>
    <v>       0.45628419       0.55822809       0.50449840 </v>
    <v>       0.40277066       0.45181619       0.46991614 </v>
    <v>       0.40298789       0.44635924       0.59159925 </v>
    <v>       0.40467093       0.43891186       0.71727007 </v>
    <v>       0.45069979       0.55098918       0.70671283 </v>
    <v>       0.40554279       0.60851509       0.60894652 </v>
    <v>       0.36397446       0.56684299       0.42281395 </v>
    <v>       0.36498348       0.65498552       0.50754130 </v>
    <v>       0.33724933       0.53359579       0.53636915 </v>
    <v>       0.33706209       0.52254967       0.65883364 </v>
   </varray>
  </structure>
  <varray name="forces" >
   <v>       0.03921603      -0.01689416      -0.02540433 </v>
   <v>      -0.24336342       0.13497081       0.07558519 </v>
   <v>      -0.01192887       0.05085895      -0.05340655 </v>
   <v>       0.07556711      -0.17149662      -0.12703515 </v>
   <v>      -0.01343453       0.07124237       0.03987190 </v>
   <v>      -0.02528114      -0.05262860      -0.00545759 </v>
   <v>      -0.10033141       0.05154185      -0.06232498 </v>
[...]
       <r>     0.0270     0.0000   234.0000 </r>
       <r>     0.0664     0.0000   235.0000 </r>
       <r>     0.1059     0.0000   236.0000 </r>
       <r>     0.1454     0.0000   236.0000 </r>
       <r>     0.1849     0.0000   236.0000 </r>
       <r>     0.2244     0.0000   236.0000 </r>
       <r>     0.2638     0.0000   237.0000 </r>
       <r>     0.3033     0.0001   237.0000 </r>
       <r>     0.3428     0.0000   239.0000 </r>
       <r>     0.3823     0.0659   239.0026 </r>
       <r>     0.4217     0.0000   241.0000 </r>
       <r>     0.4612    25.3309   242.0000 </r>
       <r>     0.5007     0.0000   242.0000 </r>
       <r>     0.5402     0.0000   242.0000 </r>
       <r>     0.5796     0.0000   243.0000 </r>
       <r>     0.6191     0.0000   243.0000 </r>
       <r>     0.6586     0.0000   244.0000 </r>
       <r>     0.6981     0.0000   245.0000 </r>
       <r>     0.7376     0.0000   246.0000 </r>
       <r>     0.7770     0.0000   247.0000 </r>
       <r>     0.8165     0.0000   250.0000 </r>
       <r>     0.8560     0.0000   250.0000 </r>
       <r>     0.8955     0.0000   252.0000 </r>
       <r>     0.9349     0.0000   252.0000 </r>
       <r>     0.9744     0.0000   255.0000 </r>
       <r>     1.0139     0.0000   257.0000 </r>
       <r>     1.0534     0.0000   259.0000 </r>
       <r>     1.0929     0.0000   260.0000 </r>
       <r>     1.1323     0.0000   262.0000 </r>
       <r>     1.1718     0.0000   263.0000 </r>
       <r>     1.2113     0.0000   264.0000 </r>
       <r>     1.2508     0.0000   264.0000 </r>
       <r>     1.2902     0.0000   264.0000 </r>
       <r>     1.3297     0.0000   264.0000 </r>
       <r>     1.3692     0.0000   264.0000 </r>
       <r>     1.4087     0.0000   264.0000 </r>
       <r>     1.4482     0.0000   264.0000 </r>
       <r>     1.4876     0.0000   264.0000 </r>
       <r>     1.5271     0.0000   264.0000 </r>
       <r>     1.5666     0.0000   264.0000 </r>
       <r>     1.6061     0.0000   264.0000 </r>
       <r>     1.6455     0.0000   264.0000 </r>
       <r>     1.6850     0.0000   264.0000 </r>
       <r>     1.7245     0.0000   264.0000 </r>
      </set>
      <set comment="spin 2">
       <r>   -10.1187     0.0000     0.0000 </r>
       <r>   -10.0793     0.0000     0.0000 </r>
       <r>   -10.0398     0.0000     0.0000 </r>
       <r>   -10.0003     0.0000     0.0000 </r>
       <r>    -9.9608     0.0000     0.0000 </r>
       <r>    -9.9213     0.0000     0.0000 </r>
       <r>    -9.8819     0.0000     0.0000 </r>
       <r>    -9.8424     0.0000     0.0000 </r>
       <r>    -9.8029     0.0000     0.0000 </r>
       <r>    -9.7634     0.0000     0.0000 </r>
       <r>    -9.7240     0.0000     0.0000 </r>
       <r>    -9.6845     0.0000     0.0000 </r>
       <r>    -9.6450     0.0000     0.0000 </r>
       <r>    -9.6055     0.0000     0.0000 </r>
       <r>    -9.5661     0.0000     0.0000 </r>
       <r>    -9.5266     0.0000     1.0000 </r>
       <r>    -9.4871     0.0000     1.0000 </r>
       <r>    -9.4476     0.0000     1.0000 </r>
       <r>    -9.4081     0.0000     1.0000 </r>
       <r>    -9.3687     0.0000     1.0000 </r>
       <r>    -9.3292     0.0000     1.0000 </r>
       <r>    -9.2897     0.0000     1.0000 </r>
       <r>    -9.2502     0.0000     1.0000 </r>
       <r>    -9.2108     0.0000     1.0000 </r>
       <r>    -9.1713     0.0000     1.0000 </r>
       <r>    -9.1318     0.0000     2.0000 </r>
       <r>    -9.0923     0.0000     2.0000 </r>
       <r>    -9.0528     0.0000     2.0000 </r>
       <r>    -9.0134     0.0000     4.0000 </r>
       <r>    -8.9739     0.0000     6.0000 </r>
       <r>    -8.9344     0.0000     7.0000 </r>
       <r>    -8.8949     0.0000    11.0000 </r>
       <r>    -8.8555     0.0000    13.0000 </r>
       <r>    -8.8160     0.0000    15.0000 </r>
       <r>    -8.7765     0.0000    18.0000 </r>
       <r>    -8.7370     0.0000    20.0000 </r>
       <r>    -8.6975    25.3309    22.0000 </r>
       <r>    -8.6581     0.0000    24.0000 </r>
       <r>    -8.6186     0.0000    27.0000 </r>
       <r>    -8.5791     0.0000    29.0000 </r>
       <r>    -8.5396     0.0000    33.0000 </r>
       <r>    -8.5002     0.0000    34.0000 </r>
       <r>    -8.4607     0.0000    36.0000 </r>
       <r>    -8.4212     0.0000    40.0000 </r>
       <r>    -8.3817     0.0000    41.0000 </r>
       <r>    -8.3422     0.0000    44.0000 </r>
       <r>    -8.3028     0.0000    46.0000 </r>
       <r>    -8.2633     0.0000    48.0000 </r>
       <r>    -8.2238     0.0000    50.0000 </r>
       <r>    -8.1843     0.0000    53.0000 </r>
       <r>    -8.1449     0.0000    55.0000 </r>
       <r>    -8.1054     0.0000    57.0000 </r>
       <r>    -8.0659    25.3309    59.0000 </r>
       <r>    -8.0264     0.0000    61.0000 </r>
       <r>    -7.9870     0.0000    63.0000 </r>
       <r>    -7.9475     0.0000    65.0000 </r>
       <r>    -7.9080     0.0000    67.0000 </r>
       <r>    -7.8685     0.0000    69.0000 </r>
       <r>    -7.8290     0.0000    73.0000 </r>
       <r>    -7.7896     0.0000    74.0000 </r>
       <r>    -7.7501     0.0000    76.0000 </r>
       <r>    -7.7106     0.0000    78.0000 </r>
       <r>    -7.6711     0.0000    81.0000 </r>
       <r>    -7.6317     0.0000    82.0000 </r>
       <r>    -7.5922     0.0000    85.0000 </r>
       <r>    -7.5527     0.0000    88.0000 </r>
       <r>    -7.5132     0.0000    90.0000 </r>
       <r>    -7.4737     0.0000    91.0000 </r>
       <r>    -7.4343    25.3309    95.0000 </r>
       <r>    -7.3948     0.0000    98.0000 </r>
       <r>    -7.3553     0.0000   100.0000 </r>
       <r>    -7.3158     0.0000   103.0000 </r>
       <r>    -7.2764     0.0000   105.0000 </r>
       <r>    -7.2369     0.0000   108.0000 </r>
       <r>    -7.1974     0.0000   111.0000 </r>
       <r>    -7.1579     0.0000   114.0000 </r>
       <r>    -7.1184     0.0000   116.0000 </r>
       <r>    -7.0790     0.0000   119.0000 </r>
       <r>    -7.0395    25.3309   123.0000 </r>
       <r>    -7.0000     0.0000   125.0000 </r>
       <r>    -6.9605     0.0000   130.0000 </r>
       <r>    -6.9211     0.0000   133.0000 </r>
       <r>    -6.8816     0.0000   137.0000 </r>
       <r>    -6.8421    24.2081   139.9557 </r>
       <r>    -6.8026     0.0000   143.0000 </r>
       <r>    -6.7632     0.0000   146.0000 </r>
       <r>    -6.7237     0.0000   150.0000 </r>
       <r>    -6.6842     0.0000   154.0000 </r>
       <r>    -6.6447     0.0000   158.0000 </r>
       <r>    -6.6052     0.0000   162.0000 </r>
       <r>    -6.5658     0.0000   166.0000 </r>
       <r>    -6.5263     0.0000   169.0000 </r>
       <r>    -6.4868     0.0000   172.0000 </r>
       <r>    -6.4473     0.0000   175.0000 </r>
       <r>    -6.4079     0.0000   177.0000 </r>
       <r>    -6.3684     0.0000   180.0000 </r>
       <r>    -6.3289     0.0000   182.0000 </r>
       <r>    -6.2894     0.0000   185.0000 </r>
       <r>    -6.2499     0.0000   186.0000 </r>
       <r>    -6.2105     0.0000   188.0000 </r>
       <r>    -6.1710     0.0000   189.0000 </r>
       <r>    -6.1315     0.0000   190.0000 </r>
       <r>    -6.0920     0.0000   190.0000 </r>
       <r>    -6.0526     0.0000   190.0000 </r>
       <r>    -6.0131     0.0000   190.0000 </r>
       <r>    -5.9736     0.0000   190.0000 </r>
       <r>    -5.9341     0.0000   191.0000 </r>
       <r>    -5.8946     0.0000   191.0000 </r>
       <r>    -5.8552     0.0000   192.0000 </r>
       <r>    -5.8157     0.0000   192.0000 </r>
       <r>    -5.7762     0.0000   192.0000 </r>
       <r>    -5.7367     0.0000   192.0000 </r>
       <r>    -5.6973     0.0000   192.0000 </r>
       <r>    -5.6578     0.0000   192.0000 </r>
       <r>    -5.6183     0.0000   192.0000 </r>
       <r>    -5.5788     0.0000   192.0000 </r>
       <r>    -5.5394     0.0000   193.0000 </r>
       <r>    -5.4999     0.0000   194.0000 </r>
       <r>    -5.4604     0.0000   194.0000 </r>
       <r>    -5.4209     0.0000   194.0000 </r>
       <r>    -5.3814     0.0000   194.0000 </r>
       <r>    -5.3420     0.0000   194.0000 </r>
       <r>    -5.3025     0.0000   194.0000 </r>
       <r>    -5.2630     0.0000   194.0000 </r>
       <r>    -5.2235     0.0000   194.0000 </r>
       <r>    -5.1841     0.0000   195.0000 </r>
       <r>    -5.1446     0.0000   195.0000 </r>
       <r>    -5.1051     0.0000   195.0000 </r>
       <r>    -5.0656     0.0000   195.0000 </r>
       <r>    -5.0261     0.0000   195.0000 </r>
       <r>    -4.9867     0.0000   195.0000 </r>
       <r>    -4.9472     0.0000   195.0000 </r>
       <r>    -4.9077     0.0000   195.0000 </r>
       <r>    -4.8682     0.0000   195.0000 </r>
       <r>    -4.8288     0.0000   195.0000 </r>
       <r>    -4.7893     0.0000   196.0000 </r>
       <r>    -4.7498     0.0000   197.0000 </r>
       <r>    -4.7103     0.0000   197.0000 </r>
       <r>    -4.6708     0.0000   197.0000 </r>
       <r>    -4.6314     0.0000   197.0000 </r>
       <r>    -4.5919     0.0000   197.0000 </r>
       <r>    -4.5524     0.0000   197.0000 </r>
       <r>    -4.5129     0.0000   197.0000 </r>
       <r>    -4.4735     0.0000   198.0000 </r>
       <r>    -4.4340     0.0000   198.0000 </r>
       <r>    -4.3945     0.0000   198.0000 </r>
       <r>    -4.3550     0.0000   198.0000 </r>
       <r>    -4.3156     0.0000   198.0000 </r>
       <r>    -4.2761     0.0000   198.0000 </r>
       <r>    -4.2366     0.0000   199.0000 </r>
       <r>    -4.1971     0.0000   199.0000 </r>
       <r>    -4.1576     0.0000   199.0000 </r>
       <r>    -4.1182     0.0000   199.0000 </r>
       <r>    -4.0787     0.0000   199.0000 </r>
       <r>    -4.0392     0.0000   200.0000 </r>
       <r>    -3.9997     0.0000   200.0000 </r>
       <r>    -3.9603     0.0000   201.0000 </r>
       <r>    -3.9208     0.0000   201.0000 </r>
       <r>    -3.8813     0.0000   201.0000 </r>
       <r>    -3.8418     0.0000   201.0000 </r>
       <r>    -3.8023     0.0000   201.0000 </r>
       <r>    -3.7629     0.0000   202.0000 </r>
       <r>    -3.7234     0.0000   202.0000 </r>
       <r>    -3.6839     0.0000   203.0000 </r>
       <r>    -3.6444     0.0000   203.0000 </r>
       <r>    -3.6050     0.0000   203.0000 </r>
       <r>    -3.5655     0.0000   203.0000 </r>
       <r>    -3.5260     0.0000   203.0000 </r>
       <r>    -3.4865     0.0000   204.0000 </r>
       <r>    -3.4470     0.0000   204.0000 </r>
       <r>    -3.4076     0.0000   204.0000 </r>
       <r>    -3.3681     0.0000   204.0000 </r>
       <r>    -3.3286     0.0000   204.0000 </r>
       <r>    -3.2891     0.0000   204.0000 </r>
       <r>    -3.2497     0.0000   205.0000 </r>
       <r>    -3.2102     0.0000   205.0000 </r>
       <r>    -3.1707     0.0000   205.0000 </r>
       <r>    -3.1312     0.0000   206.0000 </r>
       <r>    -3.0918     0.0000   207.0000 </r>
       <r>    -3.0523     0.0000   207.0000 </r>
       <r>    -3.0128     0.0000   207.0000 </r>
       <r>    -2.9733     0.0000   207.0000 </r>
       <r>    -2.9338     0.0000   207.0000 </r>
       <r>    -2.8944     0.0000   207.0000 </r>
       <r>    -2.8549     0.0000   207.0000 </r>
       <r>    -2.8154     0.0000   208.0000 </r>
       <r>    -2.7759     0.0000   208.0000 </r>
       <r>    -2.7365     0.0000   208.0000 </r>
       <r>    -2.6970     0.0000   209.0000 </r>
       <r>    -2.6575     0.0000   209.0000 </r>
       <r>    -2.6180     0.0000   209.0000 </r>
       <r>    -2.5785     0.0000   209.0000 </r>
       <r>    -2.5391     0.0000   209.0000 </r>
       <r>    -2.4996     0.0000   209.0000 </r>
       <r>    -2.4601     0.0000   209.0000 </r>
       <r>    -2.4206     0.0000   210.0000 </r>
       <r>    -2.3812     0.0000   210.0000 </r>
       <r>    -2.3417     0.0000   211.0000 </r>
       <r>    -2.3022     0.0000   211.0000 </r>
       <r>    -2.2627     0.0000   212.0000 </r>
       <r>    -2.2232     0.0000   212.0000 </r>
       <r>    -2.1838     0.3968   212.0157 </r>
       <r>    -2.1443     0.0000   213.0000 </r>
       <r>    -2.1048     0.0000   214.0000 </r>
       <r>    -2.0653     0.0000   214.0000 </r>
       <r>    -2.0259     0.0000   214.0000 </r>
       <r>    -1.9864     0.0000   215.0000 </r>
       <r>    -1.9469     0.0000   215.0000 </r>
       <r>    -1.9074     0.0000   215.0000 </r>
       <r>    -1.8680     0.0000   216.0000 </r>
       <r>    -1.8285     0.0000   216.0000 </r>
       <r>    -1.7890     0.0000   216.0000 </r>
       <r>    -1.7495     0.0000   216.0000 </r>
       <r>    -1.7100     0.0000   217.0000 </r>
       <r>    -1.6706     0.0000   218.0000 </r>
       <r>    -1.6311     0.0000   219.0000 </r>
       <r>    -1.5916     0.0000   219.0000 </r>
       <r>    -1.5521     0.0000   219.0000 </r>
       <r>    -1.5127     0.0000   219.0000 </r>
       <r>    -1.4732     0.0000   220.0000 </r>
       <r>    -1.4337     0.0000   220.0000 </r>
       <r>    -1.3942     0.0000   220.0000 </r>
       <r>    -1.3547     0.0000   220.0000 </r>
       <r>    -1.3153     0.0000   221.0000 </r>
       <r>    -1.2758     0.0000   221.0000 </r>
       <r>    -1.2363     0.0000   221.0000 </r>
       <r>    -1.1968     0.0000   222.0000 </r>
       <r>    -1.1574     0.0000   222.0000 </r>
       <r>    -1.1179     0.0000   223.0000 </r>
       <r>    -1.0784     0.0000   223.0000 </r>
       <r>    -1.0389     0.0000   224.0000 </r>
       <r>    -0.9994     0.0000   224.0000 </r>
       <r>    -0.9600     0.0000   224.0000 </r>
       <r>    -0.9205     0.0000   224.0000 </r>
       <r>    -0.8810     0.0000   225.0000 </r>
       <r>    -0.8415     0.0000   225.0000 </r>
       <r>    -0.8021     0.0000   226.0000 </r>
       <r>    -0.7626     0.0000   226.0000 </r>
       <r>    -0.7231     0.0000   226.0000 </r>
       <r>    -0.6836     0.0000   226.0000 </r>
       <r>    -0.6442     0.0000   226.0000 </r>
       <r>    -0.6047     0.0000   227.0000 </r>
       <r>    -0.5652     0.0000   228.0000 </r>
       <r>    -0.5257     0.0000   228.0000 </r>
       <r>    -0.4862     0.0000   228.0000 </r>
       <r>    -0.4468     0.0000   228.0000 </r>
       <r>    -0.4073     0.0000   229.0000 </r>
       <r>    -0.3678     0.0000   229.0000 </r>
       <r>    -0.3283     0.0000   230.0000 </r>
       <r>    -0.2889     0.0000   230.0000 </r>
       <r>    -0.2494     0.0000   230.0000 </r>
       <r>    -0.2099     0.0000   231.0000 </r>
       <r>    -0.1704     0.0000   232.0000 </r>
       <r>    -0.1309     0.0000   233.0000 </r>
       <r>    -0.0915     0.0000   233.0000 </r>
       <r>    -0.0520     0.7289   233.0288 </r>
       <r>    -0.0125     0.0000   234.0000 </r>
       <r>     0.0270     0.0000   234.0000 </r>
       <r>     0.0664     0.0000   234.0000 </r>
       <r>     0.1059     0.0000   235.0000 </r>
       <r>     0.1454     0.0000   236.0000 </r>
       <r>     0.1849     0.0000   236.0000 </r>
       <r>     0.2244     0.0000   236.0000 </r>
       <r>     0.2638     0.0000   236.0000 </r>
       <r>     0.3033     0.0000   237.0000 </r>
       <r>     0.3428     0.0000   238.0000 </r>
       <r>     0.3823     0.0000   239.0000 </r>
       <r>     0.4217     0.0000   240.0000 </r>
       <r>     0.4612     0.0000   241.0000 </r>
       <r>     0.5007     0.0000   242.0000 </r>
       <r>     0.5402     0.0000   242.0000 </r>
       <r>     0.5796     0.0000   242.0000 </r>
       <r>     0.6191     0.0000   243.0000 </r>
       <r>     0.6586     0.0000   244.0000 </r>
       <r>     0.6981     0.0000   245.0000 </r>
       <r>     0.7376     0.0000   246.0000 </r>
       <r>     0.7770     0.0000   247.0000 </r>
       <r>     0.8165     0.0000   248.0000 </r>
       <r>     0.8560     0.0000   250.0000 </r>
       <r>     0.8955     0.0000   250.0000 </r>
       <r>     0.9349     0.0000   252.0000 </r>
       <r>     0.9744     0.0000   254.0000 </r>
       <r>     1.0139     0.0000   257.0000 </r>
       <r>     1.0534     0.0000   258.0000 </r>
       <r>     1.0929     0.0000   259.0000 </r>
       <r>     1.1323     0.0000   261.0000 </r>
       <r>     1.1718     0.0000   262.0000 </r>
       <r>     1.2113     0.0000   264.0000 </r>
       <r>     1.2508     0.0000   264.0000 </r>
       <r>     1.2902     0.0000   264.0000 </r>
       <r>     1.3297     0.0000   264.0000 </r>
       <r>     1.3692     0.0000   264.0000 </r>
       <r>     1.4087     0.0000   264.0000 </r>
       <r>     1.4482     0.0000   264.0000 </r>
       <r>     1.4876     0.0000   264.0000 </r>
       <r>     1.5271     0.0000   264.0000 </r>
       <r>     1.5666     0.0000   264.0000 </r>
       <r>     1.6061     0.0000   264.0000 </r>
       <r>     1.6455     0.0000   264.0000 </r>
       <r>     1.6850     0.0000   264.0000 </r>
       <r>     1.7245     0.0000   264.0000 </r>
      </set>
     </set>
    </array>
   </total>
  </dos>
 </calculation>
 <structure name="finalpos" >
  <crystal>
   <varray name="basis" >
    <v>      23.06677635       0.00000000       0.00000000 </v>
    <v>       0.00000000      23.06677635       0.00000000 </v>
    <v>       0.00000000       0.00000000      23.06677635 </v>
   </varray>
   <i name="volume">  12273.28204167 </i>
   <varray name="rec_basis" >
    <v>       0.04335240       0.00000000       0.00000000 </v>
    <v>       0.00000000       0.04335240       0.00000000 </v>
    <v>       0.00000000       0.00000000       0.04335240 </v>
   </varray>
  </crystal>
  <varray name="positions" >
   <v>       0.63542128       0.61312121       0.27957552 </v>
   <v>       0.64822079       0.58739181       0.39710673 </v>
   <v>       0.66974503       0.46993052       0.43138848 </v>
   <v>       0.62037471       0.50294465       0.31991338 </v>
   <v>       0.60964190       0.39119277       0.35733863 </v>
   <v>       0.66436439       0.44366602       0.55489518 </v>
   <v>       0.66966559       0.56357987       0.51279189 </v>
   <v>       0.59985319       0.37710098       0.47548338 </v>
   <v>       0.67386169       0.53517101       0.63136160 </v>
   <v>       0.58978356       0.34961857       0.59109205 </v>
   <v>       0.55778556       0.66073237       0.35668157 </v>
   <v>       0.51602713       0.44672770       0.29870007 </v>
   <v>       0.56741309       0.63042616       0.47416697 </v>
   <v>       0.51549173       0.55002258       0.38739884 </v>
   <v>       0.61144205       0.43829588       0.66848589 </v>
   <v>       0.50552287       0.42343924       0.41450898 </v>
   <v>       0.56701258       0.50259643       0.49282755 </v>
   <v>       0.58626993       0.60935132       0.58855114 </v>
   <v>       0.57537872       0.55159953       0.69906577 </v>
   <v>       0.52178806       0.45418417       0.75170834 </v>
   <v>       0.49526972       0.40255440       0.53191228 </v>
   <v>       0.49568915       0.39515601       0.65117700 </v>
   <v>       0.51052418       0.51089933       0.60126457 </v>
   <v>       0.50280064       0.64317772       0.66630366 </v>
   <v>       0.48491259       0.67677362       0.55081677 </v>
   <v>       0.45755157       0.65739117       0.42348843 </v>
   <v>       0.41793373       0.48445520       0.35651638 </v>
   <v>       0.46161098       0.56368000       0.50323390 </v>
   <v>       0.40302663       0.45708481       0.47297150 </v>
   <v>       0.40158646       0.44813922       0.59446890 </v>
   <v>       0.40109678       0.43317464       0.71976902 </v>
   <v>       0.44978073       0.54035613       0.70412110 </v>
   <v>       0.40458702       0.60497154       0.61070313 </v>
   <v>       0.36814315       0.56926379       0.42326127 </v>
   <v>       0.36918051       0.65543127       0.50801589 </v>
   <v>       0.33728139       0.53699886       0.53731552 </v>
   <v>       0.33504360       0.52048218       0.66270140 </v>
  </varray>
 </structure>
</modeling>
