       N       E                     dE             d eps       ncg     rms          rms(c)
DAV:   1     0.861795520133E+03    0.86180E+03   -0.22924E+04   352   0.604E+02
DAV:   2     0.140524643168E+03   -0.72127E+03   -0.63799E+03   384   0.217E+02
DAV:   3    -0.114883072831E+02   -0.15201E+03   -0.14000E+03   424   0.123E+02
DAV:   4    -0.322134137769E+02   -0.20725E+02   -0.19662E+02   400   0.744E+01
DAV:   5    -0.328206331039E+02   -0.60722E+00   -0.60553E+00   400   0.101E+01    0.267E+01
DAV:   6    -0.156280231043E+02    0.17193E+02   -0.11545E+02   368   0.812E+01    0.118E+01
DAV:   7    -0.841149386199E+01    0.72165E+01   -0.28551E+01   400   0.581E+01    0.487E+00
DAV:   8    -0.763860942619E+01    0.77288E+00   -0.55858E+00   424   0.430E+01    0.436E+00
DAV:   9    -0.944369541964E+01   -0.18051E+01   -0.12972E+00   472   0.255E+01    0.281E+00
DAV:  10    -0.165852019162E+02   -0.71415E+01   -0.44152E+00   440   0.119E+01    0.196E+00
DAV:  11    -0.203677091696E+02   -0.37825E+01   -0.16586E+00   456   0.105E+01    0.143E+00
DAV:  12    -0.228070031725E+02   -0.24393E+01   -0.88363E-01   504   0.713E+00    0.944E-01
DAV:  13    -0.256352126107E+02   -0.28282E+01   -0.10757E+00   440   0.350E+00    0.675E-01
DAV:  14    -0.269324639591E+02   -0.12973E+01   -0.31963E-01   456   0.428E+00    0.466E-01
DAV:  15    -0.277094060127E+02   -0.77694E+00   -0.12413E-01   456   0.355E+00    0.382E-01
DAV:  16    -0.283752600508E+02   -0.66585E+00   -0.60352E-02   456   0.225E+00    0.196E-01
DAV:  17    -0.287300042226E+02   -0.35474E+00   -0.18493E-02   464   0.861E-01    0.140E-01
DAV:  18    -0.288756203116E+02   -0.14562E+00   -0.53086E-03   488   0.101E+00    0.110E-01
DAV:  19    -0.289293607729E+02   -0.53740E-01   -0.17812E-03   480   0.577E-01    0.586E-02
DAV:  20    -0.289621412989E+02   -0.32781E-01   -0.16992E-03   432   0.260E-01    0.307E-02
DAV:  21    -0.289685702778E+02   -0.64290E-02   -0.27953E-04   312   0.257E-01    0.239E-02
DAV:  22    -0.289705067397E+02   -0.19365E-02   -0.37268E-04   336   0.160E-01    0.124E-02
DAV:  23    -0.289714230695E+02   -0.91633E-03   -0.23595E-04   296   0.826E-02    0.914E-03
DAV:  24    -0.289722944864E+02   -0.87142E-03   -0.10200E-04   272   0.806E-02    0.882E-03
DAV:  25    -0.289729961926E+02   -0.70171E-03   -0.54773E-05   256   0.797E-02    0.626E-03
DAV:  26    -0.289734941534E+02   -0.49796E-03   -0.40456E-05   264   0.576E-02    0.463E-03
DAV:  27    -0.289737655261E+02   -0.27137E-03   -0.27178E-05   256   0.427E-02    0.404E-03
DAV:  28    -0.289738627541E+02   -0.97228E-04   -0.14050E-05   264   0.322E-02
   1 F= -.28973863E+02 E0= -.28973863E+02  d E =-.289739E+02  mag=     2.0002
       N       E                     dE             d eps       ncg     rms          rms(c)
DAV:   1    -0.290084087725E+02   -0.34643E-01   -0.22112E+00   400   0.505E+00    0.113E-01
DAV:   2    -0.290115876644E+02   -0.31789E-02   -0.34140E-02   536   0.161E+00    0.136E-01
DAV:   3    -0.290115012073E+02    0.86457E-04   -0.26030E-03   408   0.911E-01    0.683E-02
DAV:   4    -0.290115170383E+02   -0.15831E-04   -0.43439E-04   328   0.201E-01
   2 F= -.29011517E+02 E0= -.29011517E+02  d E =-.376543E-01  mag=     2.0001
       N       E                     dE             d eps       ncg     rms          rms(c)
DAV:   1    -0.290713133302E+02   -0.59812E-01   -0.19953E+01   384   0.153E+01    0.388E-01
DAV:   2    -0.291044982720E+02   -0.33185E-01   -0.36643E-01   552   0.518E+00    0.486E-01
DAV:   3    -0.291021987561E+02    0.22995E-02   -0.23746E-02   424   0.303E+00    0.253E-01
DAV:   4    -0.291021986100E+02    0.14611E-06   -0.47337E-03   432   0.630E-01    0.207E-01
DAV:   5    -0.291019454496E+02    0.25316E-03   -0.95626E-04   408   0.542E-01    0.151E-01
DAV:   6    -0.291017671816E+02    0.17827E-03   -0.15809E-03   544   0.704E-01    0.698E-02
DAV:   7    -0.291016968765E+02    0.70305E-04   -0.38074E-04   400   0.520E-01
   3 F= -.29101697E+02 E0= -.29101697E+02  d E =-.127834E+00  mag=     2.0000
       N       E                     dE             d eps       ncg     rms          rms(c)
DAV:   1    -0.290486825262E+02    0.53085E-01   -0.80603E+01   384   0.318E+01    0.801E-01
DAV:   2    -0.291949126208E+02   -0.14623E+00   -0.16058E+00   528   0.106E+01    0.918E-01
DAV:   3    -0.291858142177E+02    0.90984E-02   -0.86439E-02   408   0.628E+00    0.456E-01
DAV:   4    -0.291859923796E+02   -0.17816E-03   -0.19469E-02   424   0.132E+00    0.374E-01
DAV:   5    -0.291852745105E+02    0.71787E-03   -0.32794E-03   416   0.968E-01    0.283E-01
DAV:   6    -0.291847600963E+02    0.51441E-03   -0.52834E-03   536   0.135E+00    0.137E-01
DAV:   7    -0.291845379585E+02    0.22214E-03   -0.15991E-03   480   0.968E-01    0.584E-02
DAV:   8    -0.291846492487E+02   -0.11129E-03   -0.10466E-03   400   0.320E-01    0.512E-02
DAV:   9    -0.291846678473E+02   -0.18599E-04   -0.11226E-04   272   0.156E-01
   4 F= -.29184668E+02 E0= -.29184668E+02  d E =-.210805E+00  mag=     2.0000
       N       E                     dE             d eps       ncg     rms          rms(c)
DAV:   1    -0.291830768457E+02    0.15724E-02   -0.24299E+00   384   0.531E+00    0.137E-01
DAV:   2    -0.291868610617E+02   -0.37842E-02   -0.41179E-02   544   0.194E+00    0.162E-01
DAV:   3    -0.291866575445E+02    0.20352E-03   -0.34126E-03   408   0.121E+00    0.735E-02
DAV:   4    -0.291866953086E+02   -0.37764E-04   -0.64310E-04   368   0.229E-01
   5 F= -.29186695E+02 E0= -.29186695E+02  d E =-.212833E+00  mag=     2.0000
       N       E                     dE             d eps       ncg     rms          rms(c)
DAV:   1    -0.292141626693E+02   -0.27505E-01   -0.74898E+00   376   0.931E+00    0.214E+00
DAV:   2    -0.284336093318E+02    0.78055E+00   -0.95977E-01   544   0.961E+00    0.209E+00
DAV:   3    -0.288903764783E+02   -0.45677E+00   -0.21514E-01   448   0.948E+00    0.140E+00
DAV:   4    -0.286149508037E+02    0.27543E+00   -0.45928E-02   472   0.192E+00    0.101E+00
DAV:   5    -0.284459749586E+02    0.16898E+00   -0.15509E-02   632   0.232E+00    0.704E-01
DAV:   6    -0.283059066268E+02    0.14007E+00   -0.33251E-02   456   0.137E+00    0.289E-01
DAV:   7    -0.286055078906E+02   -0.29960E+00   -0.35811E-02   408   0.159E+00    0.250E-01
DAV:   8    -0.289043108131E+02   -0.29880E+00   -0.30791E-02   472   0.154E+00    0.251E-01
DAV:   9    -0.290786950603E+02   -0.17438E+00   -0.16237E-02   488   0.590E-01    0.153E-01
DAV:  10    -0.291523968300E+02   -0.73702E-01   -0.52263E-03   520   0.531E-01    0.817E-02
DAV:  11    -0.292322034645E+02   -0.79807E-01   -0.37137E-03   448   0.579E-01    0.470E-02
DAV:  12    -0.292633612726E+02   -0.31158E-01   -0.13634E-03   400   0.319E-01    0.362E-02
DAV:  13    -0.292779560230E+02   -0.14595E-01   -0.43489E-04   280   0.254E-01    0.199E-02
DAV:  14    -0.292827056998E+02   -0.47497E-02   -0.19104E-04   328   0.149E-01    0.128E-02
DAV:  15    -0.292869246362E+02   -0.42189E-02   -0.16357E-04   280   0.122E-01    0.113E-02
DAV:  16    -0.292875230565E+02   -0.59842E-03   -0.83916E-05   272   0.924E-02    0.667E-03
DAV:  17    -0.292875616394E+02   -0.38583E-04   -0.51821E-05   264   0.522E-02
   6 F= -.29287562E+02 E0= -.29287562E+02  d E =-.100866E+00  mag=     0.0006
       N       E                     dE             d eps       ncg     rms          rms(c)
DAV:   1    -0.292912096783E+02   -0.36866E-02   -0.68004E+01   384   0.290E+01    0.715E-01
DAV:   2    -0.294103670904E+02   -0.11916E+00   -0.12939E+00   536   0.105E+01    0.864E-01
DAV:   3    -0.294020353478E+02    0.83317E-02   -0.77156E-02   408   0.613E+00    0.444E-01
DAV:   4    -0.294019027051E+02    0.13264E-03   -0.16750E-02   408   0.133E+00    0.370E-01
DAV:   5    -0.294009829238E+02    0.91978E-03   -0.32910E-03   400   0.756E-01    0.257E-01
DAV:   6    -0.294007309681E+02    0.25196E-03   -0.57322E-03   584   0.148E+00    0.127E-01
DAV:   7    -0.294005512052E+02    0.17976E-03   -0.13707E-03   432   0.103E+00    0.350E-02
DAV:   8    -0.294006347118E+02   -0.83507E-04   -0.73553E-04   400   0.332E-01
   7 F= -.29400635E+02 E0= -.29400635E+02  d E =-.213939E+00  mag=     0.0002
       N       E                     dE             d eps       ncg     rms          rms(c)
DAV:   1    -0.289592863117E+02    0.44126E+00   -0.28275E+02   384   0.649E+01    0.152E+00
DAV:   2    -0.294969272759E+02   -0.53764E+00   -0.58361E+00   552   0.252E+01    0.190E+00
DAV:   3    -0.294494641392E+02    0.47463E-01   -0.34197E-01   408   0.141E+01    0.847E-01
DAV:   4    -0.294518970503E+02   -0.24329E-02   -0.91400E-02   400   0.254E+00    0.700E-01
DAV:   5    -0.294491441729E+02    0.27529E-02   -0.10191E-02   416   0.159E+00    0.547E-01
DAV:   6    -0.294470601854E+02    0.20840E-02   -0.21379E-02   624   0.290E+00    0.281E-01
DAV:   7    -0.294458839596E+02    0.11762E-02   -0.55961E-03   480   0.191E+00    0.114E-01
DAV:   8    -0.294459491680E+02   -0.65208E-04   -0.40139E-03   512   0.828E-01    0.944E-02
DAV:   9    -0.294459689111E+02   -0.19743E-04   -0.98647E-04   392   0.402E-01
   8 F= -.29445969E+02 E0= -.29445969E+02  d E =-.259274E+00  mag=     0.0000
       N       E                     dE             d eps       ncg     rms          rms(c)
DAV:   1    -0.294051853635E+02    0.40764E-01   -0.34992E+01   384   0.206E+01    0.449E-01
DAV:   2    -0.294646898410E+02   -0.59504E-01   -0.62709E-01   528   0.567E+00    0.554E-01
DAV:   3    -0.294616538940E+02    0.30359E-02   -0.29913E-02   416   0.318E+00    0.323E-01
DAV:   4    -0.294613483476E+02    0.30555E-03   -0.56311E-03   448   0.935E-01    0.266E-01
DAV:   5    -0.294609534621E+02    0.39489E-03   -0.14138E-03   432   0.507E-01    0.193E-01
DAV:   6    -0.294607638641E+02    0.18960E-03   -0.28859E-03   552   0.668E-01    0.707E-02
DAV:   7    -0.294607085806E+02    0.55283E-04   -0.50584E-04   416   0.539E-01
   9 F= -.29460709E+02 E0= -.29460709E+02  d E =-.274013E+00  mag=     0.0000
       N       E                     dE             d eps       ncg     rms          rms(c)
DAV:   1    -0.294429963291E+02    0.17768E-01   -0.37805E+01   384   0.213E+01    0.530E-01
DAV:   2    -0.295065880774E+02   -0.63592E-01   -0.69753E-01   552   0.747E+00    0.646E-01
DAV:   3    -0.295023710971E+02    0.42170E-02   -0.44913E-02   392   0.427E+00    0.348E-01
DAV:   4    -0.295019957490E+02    0.37535E-03   -0.91939E-03   424   0.113E+00    0.287E-01
DAV:   5    -0.295012980184E+02    0.69773E-03   -0.23255E-03   416   0.591E-01    0.182E-01
DAV:   6    -0.295011273884E+02    0.17063E-03   -0.26901E-03   608   0.898E-01    0.927E-02
DAV:   7    -0.295010064946E+02    0.12089E-03   -0.71268E-04   416   0.762E-01    0.252E-02
DAV:   8    -0.295010559618E+02   -0.49467E-04   -0.49613E-04   384   0.226E-01
  10 F= -.29501056E+02 E0= -.29501056E+02  d E =-.403474E-01  mag=     0.0000
       N       E                     dE             d eps       ncg     rms          rms(c)
DAV:   1    -0.294729846990E+02    0.28022E-01   -0.25591E+01   384   0.174E+01    0.433E-01
DAV:   2    -0.295152287580E+02   -0.42244E-01   -0.46129E-01   544   0.600E+00    0.525E-01
DAV:   3    -0.295126243011E+02    0.26045E-02   -0.31432E-02   384   0.346E+00    0.282E-01
DAV:   4    -0.295123552236E+02    0.26908E-03   -0.60553E-03   416   0.969E-01    0.230E-01
DAV:   5    -0.295119550824E+02    0.40014E-03   -0.16134E-03   416   0.467E-01    0.145E-01
DAV:   6    -0.295118980013E+02    0.57081E-04   -0.16568E-03   552   0.680E-01    0.731E-02
DAV:   7    -0.295118309504E+02    0.67051E-04   -0.44051E-04   416   0.590E-01
  11 F= -.29511831E+02 E0= -.29511831E+02  d E =-.511224E-01  mag=     0.0000
       N       E                     dE             d eps       ncg     rms          rms(c)
DAV:   1    -0.295024230788E+02    0.94749E-02   -0.28465E+01   384   0.184E+01    0.415E-01
DAV:   2    -0.295506573449E+02   -0.48234E-01   -0.51577E-01   528   0.525E+00    0.521E-01
DAV:   3    -0.295478928481E+02    0.27645E-02   -0.24830E-02   384   0.272E+00    0.303E-01
DAV:   4    -0.295474852177E+02    0.40763E-03   -0.48742E-03   480   0.102E+00    0.245E-01
DAV:   5    -0.295470778329E+02    0.40738E-03   -0.14439E-03   432   0.521E-01    0.160E-01
DAV:   6    -0.295469882359E+02    0.89597E-04   -0.20360E-03   576   0.574E-01    0.605E-02
DAV:   7    -0.295469574561E+02    0.30780E-04   -0.42704E-04   400   0.520E-01
  12 F= -.29546957E+02 E0= -.29546957E+02  d E =-.351265E-01  mag=     0.0000
       N       E                     dE             d eps       ncg     rms          rms(c)
DAV:   1    -0.295286990125E+02    0.18289E-01   -0.17657E+01   384   0.144E+01    0.327E-01
DAV:   2    -0.295575351309E+02   -0.28836E-01   -0.30926E-01   528   0.400E+00    0.404E-01
DAV:   3    -0.295557785787E+02    0.17566E-02   -0.14258E-02   384   0.198E+00    0.232E-01
DAV:   4    -0.295555451334E+02    0.23345E-03   -0.28679E-03   464   0.804E-01    0.186E-01
DAV:   5    -0.295553282176E+02    0.21692E-03   -0.83979E-04   384   0.439E-01    0.122E-01
DAV:   6    -0.295553058968E+02    0.22321E-04   -0.13005E-03   544   0.435E-01    0.471E-02
DAV:   7    -0.295552891996E+02    0.16697E-04   -0.23471E-04   272   0.390E-01
  13 F= -.29555289E+02 E0= -.29555289E+02  d E =-.434582E-01  mag=     0.0000
       N       E                     dE             d eps       ncg     rms          rms(c)
DAV:   1    -0.295208840846E+02    0.34422E-01   -0.34901E+01   384   0.201E+01    0.485E-01
DAV:   2    -0.295827438217E+02   -0.61860E-01   -0.66378E-01   528   0.701E+00    0.583E-01
DAV:   3    -0.295787385166E+02    0.40053E-02   -0.32230E-02   416   0.404E+00    0.302E-01
DAV:   4    -0.295786579009E+02    0.80616E-04   -0.81392E-03   416   0.875E-01    0.251E-01
DAV:   5    -0.295781981971E+02    0.45970E-03   -0.17173E-03   432   0.641E-01    0.163E-01
DAV:   6    -0.295780815014E+02    0.11670E-03   -0.24298E-03   528   0.723E-01    0.588E-02
DAV:   7    -0.295780553775E+02    0.26124E-04   -0.45687E-04   400   0.541E-01
  14 F= -.29578055E+02 E0= -.29578055E+02  d E =-.227662E-01  mag=     0.0000
       N       E                     dE             d eps       ncg     rms          rms(c)
DAV:   1    -0.295148178213E+02    0.63264E-01   -0.39199E+01   384   0.214E+01    0.518E-01
DAV:   2    -0.295850426986E+02   -0.70225E-01   -0.75113E-01   544   0.756E+00    0.613E-01
DAV:   3    -0.295805738681E+02    0.44688E-02   -0.36358E-02   400   0.438E+00    0.312E-01
DAV:   4    -0.295805696753E+02    0.41928E-05   -0.94634E-03   416   0.926E-01    0.261E-01
DAV:   5    -0.295801260478E+02    0.44363E-03   -0.19547E-03   448   0.680E-01    0.170E-01
DAV:   6    -0.295800271580E+02    0.98890E-04   -0.24938E-03   528   0.786E-01    0.615E-02
DAV:   7    -0.295800014695E+02    0.25689E-04   -0.50506E-04   400   0.560E-01
  15 F= -.29580001E+02 E0= -.29580001E+02  d E =-.247123E-01  mag=     0.0000
       N       E                     dE             d eps       ncg     rms          rms(c)
DAV:   1    -0.295581178935E+02    0.21909E-01   -0.28798E+01   384   0.184E+01    0.566E-01
DAV:   2    -0.296070960841E+02   -0.48978E-01   -0.57157E-01   528   0.814E+00    0.630E-01
DAV:   3    -0.296020780807E+02    0.50180E-02   -0.47073E-02   384   0.490E+00    0.276E-01
DAV:   4    -0.296022873754E+02   -0.20929E-03   -0.10128E-02   416   0.930E-01    0.219E-01
DAV:   5    -0.296020504747E+02    0.23690E-03   -0.13779E-03   400   0.572E-01    0.162E-01
DAV:   6    -0.296019545788E+02    0.95896E-04   -0.17683E-03   448   0.947E-01    0.850E-02
DAV:   7    -0.296019364578E+02    0.18121E-04   -0.10097E-03   512   0.603E-01    0.276E-02
DAV:   8    -0.296019538582E+02   -0.17400E-04   -0.24526E-04   304   0.200E-01
  16 F= -.29601954E+02 E0= -.29601954E+02  d E =-.219524E-01  mag=     0.0000
       N       E                     dE             d eps       ncg     rms          rms(c)
DAV:   1    -0.296019589239E+02   -0.22466E-04   -0.18819E-02   400   0.476E-01    0.199E-02
DAV:   2    -0.296019915888E+02   -0.32665E-04   -0.35777E-04   352   0.248E-01
  17 F= -.29601992E+02 E0= -.29601992E+02  d E =-.219901E-01  mag=     0.0000
       N       E                     dE             d eps       ncg     rms          rms(c)
DAV:   1    -0.295868163120E+02    0.15143E-01   -0.16264E+01   384   0.137E+01    0.330E-01
DAV:   2    -0.296145910519E+02   -0.27775E-01   -0.29786E-01   528   0.493E+00    0.419E-01
DAV:   3    -0.296126500132E+02    0.19410E-02   -0.17578E-02   384   0.292E+00    0.213E-01
DAV:   4    -0.296126065689E+02    0.43444E-04   -0.36729E-03   448   0.573E-01    0.178E-01
DAV:   5    -0.296124120273E+02    0.19454E-03   -0.65118E-04   400   0.346E-01    0.123E-01
DAV:   6    -0.296123559453E+02    0.56082E-04   -0.13353E-03   528   0.605E-01    0.531E-02
DAV:   7    -0.296123202220E+02    0.35723E-04   -0.25475E-04   288   0.457E-01
  18 F= -.29612320E+02 E0= -.29612320E+02  d E =-.103286E-01  mag=     0.0000
       N       E                     dE             d eps       ncg     rms          rms(c)
DAV:   1    -0.296100922485E+02    0.22637E-02   -0.19066E+00   384   0.465E+00    0.971E-02
DAV:   2    -0.296125924243E+02   -0.25002E-02   -0.26221E-02   544   0.134E+00    0.103E-01
DAV:   3    -0.296125760058E+02    0.16419E-04   -0.20127E-03   400   0.838E-01    0.590E-02
DAV:   4    -0.296125672633E+02    0.87425E-05   -0.23842E-04   256   0.227E-01
  19 F= -.29612567E+02 E0= -.29612567E+02  d E =-.105757E-01  mag=     0.0000
       N       E                     dE             d eps       ncg     rms          rms(c)
DAV:   1    -0.295941356990E+02    0.18440E-01   -0.17632E+01   384   0.141E+01    0.319E-01
DAV:   2    -0.296249383955E+02   -0.30803E-01   -0.32368E-01   528   0.497E+00    0.438E-01
DAV:   3    -0.296226285790E+02    0.23098E-02   -0.15137E-02   384   0.281E+00    0.235E-01
DAV:   4    -0.296225007330E+02    0.12785E-03   -0.33244E-03   464   0.466E-01    0.200E-01
DAV:   5    -0.296221798759E+02    0.32086E-03   -0.64167E-04   432   0.355E-01    0.133E-01
DAV:   6    -0.296220274906E+02    0.15239E-03   -0.15926E-03   528   0.535E-01    0.383E-02
DAV:   7    -0.296220196117E+02    0.78789E-05   -0.22961E-04   288   0.391E-01
  20 F= -.29622020E+02 E0= -.29622020E+02  d E =-.945235E-02  mag=     0.0000
       N       E                     dE             d eps       ncg     rms          rms(c)
DAV:   1    -0.295377845881E+02    0.84243E-01   -0.50259E+01   384   0.243E+01    0.562E-01
DAV:   2    -0.296335549624E+02   -0.95770E-01   -0.10089E+00   528   0.904E+00    0.733E-01
DAV:   3    -0.296261768285E+02    0.73781E-02   -0.40652E-02   400   0.501E+00    0.373E-01
DAV:   4    -0.296259673083E+02    0.20952E-03   -0.10312E-02   400   0.753E-01    0.310E-01
DAV:   5    -0.296253062681E+02    0.66104E-03   -0.14410E-03   528   0.532E-01    0.229E-01
DAV:   6    -0.296246972684E+02    0.60900E-03   -0.32696E-03   560   0.897E-01    0.730E-02
DAV:   7    -0.296246457813E+02    0.51487E-04   -0.85920E-04   400   0.702E-01
  21 F= -.29624646E+02 E0= -.29624646E+02  d E =-.120785E-01  mag=     0.0000
       N       E                     dE             d eps       ncg     rms          rms(c)
DAV:   1    -0.296191271851E+02    0.55701E-02   -0.48379E+00   384   0.729E+00    0.168E-01
DAV:   2    -0.296263061739E+02   -0.71790E-02   -0.77165E-02   528   0.239E+00    0.221E-01
DAV:   3    -0.296257564819E+02    0.54969E-03   -0.48475E-03   416   0.155E+00    0.115E-01
DAV:   4    -0.296257530858E+02    0.33961E-05   -0.91803E-04   384   0.246E-01
  22 F= -.29625753E+02 E0= -.29625753E+02  d E =-.131858E-01  mag=     0.0000
       N       E                     dE             d eps       ncg     rms          rms(c)
DAV:   1    -0.296144684665E+02    0.11288E-01   -0.12308E+01   384   0.119E+01    0.272E-01
DAV:   2    -0.296338500619E+02   -0.19382E-01   -0.20571E-01   528   0.332E+00    0.319E-01
DAV:   3    -0.296327702096E+02    0.10799E-02   -0.10229E-02   432   0.199E+00    0.173E-01
DAV:   4    -0.296326526075E+02    0.11760E-03   -0.18871E-03   448   0.612E-01    0.138E-01
DAV:   5    -0.296325564196E+02    0.96188E-04   -0.47463E-04   352   0.271E-01
  23 F= -.29632556E+02 E0= -.29632556E+02  d E =-.680333E-02  mag=     0.0000
       N       E                     dE             d eps       ncg     rms          rms(c)
DAV:   1    -0.296304275523E+02    0.22251E-02   -0.16040E+00   384   0.431E+00    0.794E-02
DAV:   2    -0.296326159196E+02   -0.21884E-02   -0.22444E-02   528   0.972E-01    0.791E-02
DAV:   3    -0.296325740585E+02    0.41861E-04   -0.55873E-04   400   0.493E-01
  24 F= -.29632574E+02 E0= -.29632574E+02  d E =-.682097E-02  mag=     0.0000
       N       E                     dE             d eps       ncg     rms          rms(c)
DAV:   1    -0.296223353627E+02    0.10281E-01   -0.71189E+00   384   0.893E+00    0.177E-01
DAV:   2    -0.296337305621E+02   -0.11395E-01   -0.11845E-01   528   0.228E+00    0.230E-01
DAV:   3    -0.296331602262E+02    0.57034E-03   -0.34918E-03   384   0.125E+00    0.134E-01
DAV:   4    -0.296330872351E+02    0.72991E-04   -0.89099E-04   416   0.446E-01
  25 F= -.29633087E+02 E0= -.29633087E+02  d E =-.513177E-03  mag=     0.0000
       N       E                     dE             d eps       ncg     rms          rms(c)
DAV:   1    -0.296324617371E+02    0.69849E-03   -0.14093E+00   384   0.397E+00    0.936E-02
DAV:   2    -0.296346435481E+02   -0.21818E-02   -0.22559E-02   544   0.123E+00    0.915E-02
DAV:   3    -0.296345805270E+02    0.63021E-04   -0.13030E-03   384   0.897E-01    0.311E-02
DAV:   4    -0.296345887047E+02   -0.81777E-05   -0.18770E-04   224   0.189E-01
  26 F= -.29634589E+02 E0= -.29634589E+02  d E =-.201465E-02  mag=     0.0000
       N       E                     dE             d eps       ncg     rms          rms(c)
DAV:   1    -0.296328745936E+02    0.17059E-02   -0.25724E+00   384   0.545E+00    0.102E-01
DAV:   2    -0.296364799444E+02   -0.36054E-02   -0.36950E-02   544   0.144E+00    0.123E-01
DAV:   3    -0.296363894384E+02    0.90506E-04   -0.19372E-03   384   0.779E-01    0.753E-02
DAV:   4    -0.296363684918E+02    0.20947E-04   -0.27641E-04   304   0.232E-01
  27 F= -.29636368E+02 E0= -.29636368E+02  d E =-.177979E-02  mag=     0.0000
       N       E                     dE             d eps       ncg     rms          rms(c)
DAV:   1    -0.296356416199E+02    0.74782E-03   -0.92810E-01   384   0.327E+00    0.672E-02
DAV:   2    -0.296368360368E+02   -0.11944E-02   -0.12557E-02   528   0.734E-01    0.733E-02
DAV:   3    -0.296367960837E+02    0.39953E-04   -0.30145E-04   304   0.236E-01
  28 F= -.29636796E+02 E0= -.29636796E+02  d E =-.220738E-02  mag=     0.0000
       N       E                     dE             d eps       ncg     rms          rms(c)
DAV:   1    -0.296343751604E+02    0.24609E-02   -0.29524E+00   384   0.583E+00    0.124E-01
DAV:   2    -0.296384677427E+02   -0.40926E-02   -0.43406E-02   528   0.145E+00    0.144E-01
DAV:   3    -0.296382661781E+02    0.20156E-03   -0.16480E-03   400   0.809E-01    0.941E-02
DAV:   4    -0.296382120745E+02    0.54104E-04   -0.25688E-04   224   0.295E-01
  29 F= -.29638212E+02 E0= -.29638212E+02  d E =-.141599E-02  mag=     0.0000
       N       E                     dE             d eps       ncg     rms          rms(c)
DAV:   1    -0.296381560338E+02    0.11014E-03   -0.29581E-03   528   0.337E-01    0.222E-02
DAV:   2    -0.296381638651E+02   -0.78313E-05   -0.13626E-04   224   0.383E-01
  30 F= -.29638164E+02 E0= -.29638164E+02  d E =-.136778E-02  mag=     0.0000
       N       E                     dE             d eps       ncg     rms          rms(c)
DAV:   1    -0.296369161937E+02    0.12398E-02   -0.15140E+00   384   0.417E+00    0.739E-02
DAV:   2    -0.296390860467E+02   -0.21699E-02   -0.22248E-02   528   0.972E-01    0.909E-02
DAV:   3    -0.296390038321E+02    0.82215E-04   -0.60615E-04   384   0.499E-01
  31 F= -.29639004E+02 E0= -.29639004E+02  d E =-.839967E-03  mag=     0.0000
       N       E                     dE             d eps       ncg     rms          rms(c)
DAV:   1    -0.296389604658E+02    0.12558E-03   -0.34257E-03   496   0.269E-01    0.466E-02
DAV:   2    -0.296389484462E+02    0.12020E-04   -0.10608E-04   224   0.276E-01
  32 F= -.29638948E+02 E0= -.29638948E+02  d E =-.784581E-03  mag=     0.0000
