   47   47 1000    2
  0.2782392E+03  0.2355983E-08  0.2355983E-08  0.2355983E-08  0.1000000E-15
  1.000000000000000E-004
  CAR 
 unknown system                          
    517      1    336
 
  0.0000000E+00  0.0000000E+00  0.0000000E+00  0.1000000E+01
    1       -9.751077     -9.731683
    2       -9.272234     -9.259010
    3       -9.203329     -9.192698
    4       -9.108246     -9.101585
    5       -9.079570     -9.069478
    6       -9.043512     -9.033610
    7       -9.033042     -9.024592
    8       -9.024719     -9.015457
    9       -9.019308     -9.008125
   10       -8.975157     -8.964622
   11       -8.964891     -8.956728
   12       -8.955043     -8.946651
   13       -8.939206     -8.930896
   14       -8.896931     -8.888770
   15       -8.861450     -8.853350
   16       -8.841528     -8.832877
   17       -8.809619     -8.801862
   18       -8.786378     -8.778017
   19       -8.770786     -8.764446
   20       -8.749896     -8.742898
   21       -8.733965     -8.726828
   22       -8.717572     -8.710907
   23       -8.706739     -8.699806
   24       -8.689342     -8.679626
   25       -8.682195     -8.675726
   26       -8.632239     -8.624096
   27       -8.621126     -8.614011
   28       -8.605393     -8.596294
   29       -8.587312     -8.579906
   30       -8.576844     -8.569759
   31       -8.571625     -8.564103
   32       -8.550077     -8.542787
   33       -8.513824     -8.505756
   34       -8.491647     -8.483074
   35       -8.478292     -8.470624
   36       -8.465049     -8.457138
   37       -8.449105     -8.442477
   38       -8.423271     -8.415845
   39       -8.415265     -8.407467
   40       -8.395034     -8.388262
   41       -8.388355     -8.380682
   42       -8.373592     -8.366647
   43       -8.361808     -8.354485
   44       -8.354591     -8.348196
   45       -8.320839     -8.314319
   46       -8.312024     -8.305783
   47       -8.303657     -8.294519
   48       -8.280074     -8.274109
   49       -8.267845     -8.260784
   50       -8.261874     -8.253819
   51       -8.238410     -8.229647
   52       -8.218694     -8.211240
   53       -8.205160     -8.197190
   54       -8.190163     -8.182722
   55       -8.173496     -8.167516
   56       -8.152555     -8.145553
   57       -8.130796     -8.124458
   58       -8.123199     -8.116370
   59       -8.112451     -8.104690
   60       -8.104290     -8.098131
   61       -8.087043     -8.079649
   62       -8.074750     -8.067529
   63       -8.068020     -8.060539
   64       -8.042279     -8.036144
   65       -8.032540     -8.025976
   66       -8.024472     -8.017287
   67       -8.003985     -7.996576
   68       -7.993855     -7.986551
   69       -7.974638     -7.967358
   70       -7.960241     -7.953177
   71       -7.937737     -7.931532
   72       -7.924539     -7.917640
   73       -7.917576     -7.910840
   74       -7.899103     -7.892231
   75       -7.885462     -7.878981
   76       -7.877016     -7.870882
   77       -7.865369     -7.858918
   78       -7.840044     -7.833254
   79       -7.831337     -7.824397
   80       -7.819458     -7.812043
   81       -7.817316     -7.810001
   82       -7.799249     -7.792372
   83       -7.785514     -7.778894
   84       -7.775132     -7.768197
   85       -7.765689     -7.760122
   86       -7.742434     -7.736282
   87       -7.736401     -7.729857
   88       -7.722580     -7.717075
   89       -7.716576     -7.710490
   90       -7.711654     -7.704500
   91       -7.704188     -7.697644
   92       -7.687608     -7.682055
   93       -7.677724     -7.672433
   94       -7.660729     -7.654357
   95       -7.647557     -7.640274
   96       -7.636764     -7.630522
   97       -7.625039     -7.619157
   98       -7.606809     -7.600253
   99       -7.597404     -7.590899
  100       -7.580869     -7.575417
  101       -7.568992     -7.563179
  102       -7.551300     -7.545491
  103       -7.530247     -7.524304
  104       -7.515453     -7.509359
  105       -7.509584     -7.504309
  106       -7.480337     -7.473480
  107       -7.478772     -7.472837
  108       -7.466417     -7.461070
  109       -7.460772     -7.455093
  110       -7.448716     -7.442913
  111       -7.428300     -7.422800
  112       -7.413076     -7.407567
  113       -7.395829     -7.388977
  114       -7.384204     -7.378432
  115       -7.370739     -7.365454
  116       -7.360617     -7.355171
  117       -7.354358     -7.350357
  118       -7.346575     -7.340150
  119       -7.320251     -7.316040
  120       -7.309138     -7.303112
  121       -7.297505     -7.291420
  122       -7.282597     -7.275753
  123       -7.258795     -7.253880
  124       -7.250591     -7.245471
  125       -7.237393     -7.231654
  126       -7.231658     -7.226085
  127       -7.212394     -7.202324
  128       -7.193744     -7.187558
  129       -7.178842     -7.170524
  130       -7.175333     -7.169349
  131       -7.167839     -7.161090
  132       -7.145686     -7.138943
  133       -7.133808     -7.126147
  134       -7.125068     -7.119038
  135       -7.098871     -7.093352
  136       -7.090281     -7.082921
  137       -7.079543     -7.073220
  138       -7.052756     -7.045341
  139       -7.043346     -7.034639
  140       -7.035900     -7.029618
  141       -7.029060     -7.022872
  142       -7.007246     -7.000905
  143       -7.002408     -6.993970
  144       -6.985621     -6.980054
  145       -6.966546     -6.961229
  146       -6.963998     -6.957603
  147       -6.958925     -6.952508
  148       -6.955480     -6.948502
  149       -6.944009     -6.935930
  150       -6.929121     -6.923797
  151       -6.913144     -6.906010
  152       -6.907802     -6.902060
  153       -6.906837     -6.899732
  154       -6.889210     -6.881578
  155       -6.879112     -6.873345
  156       -6.871021     -6.863371
  157       -6.867561     -6.862273
  158       -6.853281     -6.847735
  159       -6.851175     -6.845339
  160       -6.847968     -6.841249
  161       -6.837007     -6.829550
  162       -6.832307     -6.826966
  163       -6.827644     -6.821461
  164       -6.812619     -6.803885
  165       -6.802505     -6.796095
  166       -6.789480     -6.784052
  167       -6.785461     -6.780229
  168       -6.783126     -6.776776
  169       -6.759497     -6.753281
  170       -6.757850     -6.752139
  171       -6.737638     -6.733417
  172       -6.732441     -6.726521
  173       -6.729510     -6.721829
  174       -6.714749     -6.708963
  175       -6.702415     -6.696256
  176       -6.697812     -6.692642
  177       -6.687174     -6.681535
  178       -6.678882     -6.673628
  179       -6.677512     -6.672967
  180       -6.662167     -6.656600
  181       -6.654986     -6.650113
  182       -6.650026     -6.644508
  183       -6.637547     -6.633911
  184       -6.633154     -6.627637
  185       -6.623100     -6.617711
  186       -6.618267     -6.612754
  187       -6.614565     -6.609063
  188       -6.606455     -6.601362
  189       -6.604415     -6.600128
  190       -6.596266     -6.590734
  191       -6.588146     -6.582681
  192       -6.581746     -6.575102
  193       -6.576042     -6.571270
  194       -6.565673     -6.559932
  195       -6.558771     -6.553821
  196       -6.546617     -6.542031
  197       -6.537839     -6.531997
  198       -6.522283     -6.516920
  199       -6.514424     -6.508837
  200       -6.506479     -6.500318
  201       -6.497377     -6.491994
  202       -6.487793     -6.482118
  203       -6.480527     -6.475132
  204       -6.474706     -6.469147
  205       -6.464013     -6.458232
  206       -6.452375     -6.447020
  207       -6.446584     -6.441337
  208       -6.441213     -6.435577
  209       -6.431540     -6.426161
  210       -6.423916     -6.417283
  211       -6.413605     -6.407898
  212       -6.404188     -6.397702
  213       -6.394170     -6.388620
  214       -6.382120     -6.376883
  215       -6.368252     -6.363386
  216       -6.362952     -6.357141
  217       -6.362840     -6.356983
  218       -6.338823     -6.332357
  219       -6.325761     -6.320996
  220       -6.312766     -6.307491
  221       -6.307716     -6.301882
  222       -6.296394     -6.289474
  223       -6.288868     -6.282090
  224       -6.275820     -6.270399
  225       -6.266282     -6.260537
  226       -6.254837     -6.247925
  227       -6.243529     -6.235692
  228       -6.233671     -6.227965
  229       -6.213041     -6.206381
  230       -6.204898     -6.200327
  231       -6.195359     -6.188916
  232       -6.182157     -6.178563
  233       -6.174010     -6.167538
  234       -6.149447     -6.144479
  235       -6.141117     -6.135637
  236       -6.127668     -6.121719
  237       -6.101732     -6.097299
  238       -6.086044     -6.080600
  239       -6.078364     -6.072217
  240       -6.056774     -6.049575
  241       -6.025402     -6.020752
  242       -5.979314     -5.967295
  243       -5.911743     -5.898331
  244       -5.837754     -5.827072
  245       -5.518014     -5.505707
  246       -5.165424     -5.151489
  247       -5.055314     -5.033638
  248       -4.858649     -4.840433
  249       -4.771271     -4.753481
  250       -4.683670     -4.664590
  251       -4.441224     -4.422496
  252       -4.322216     -4.307530
  253       -4.171654     -4.149242
  254       -3.974849     -3.958798
  255       -3.832656     -3.817739
  256       -3.588449     -3.575368
  257       -3.494080     -3.470164
  258       -3.487816     -3.463069
  259       -3.275816     -3.208215
  260       -3.044809     -3.021661
  261       -2.967496     -2.951305
  262       -2.861832     -2.845674
  263       -2.790646     -2.773610
  264       -2.726961     -2.708878
  265       -2.594086     -2.575208
  266       -2.418780     -2.401638
  267       -2.380908     -2.360521
  268       -2.247365     -2.229427
  269       -2.112752     -2.094103
  270       -1.918540     -1.898736
  271       -1.879240     -1.837920
  272       -1.805955     -1.791595
  273       -1.792180     -1.763344
  274       -1.674743     -1.655822
  275       -1.604863     -1.582360
  276       -1.461654     -1.436622
  277       -1.439463     -1.410474
  278       -1.324772     -1.299107
  279       -1.271572     -1.247194
  280       -1.231359     -1.217356
  281       -1.122649     -1.104218
  282       -1.091904     -1.067318
  283       -1.032977     -1.004773
  284       -0.855625     -0.834175
  285       -0.810660     -0.795114
  286       -0.754161     -0.735461
  287       -0.679866     -0.661113
  288       -0.631977     -0.611414
  289       -0.522994     -0.505474
  290       -0.384739     -0.358841
  291       -0.315420     -0.285258
  292       -0.257297     -0.233612
  293       -0.239691     -0.191748
  294       -0.211081     -0.175899
  295       -0.033505     -0.011628
  296       -0.002644      0.016690
  297        0.101994      0.124038
  298        0.107873      0.128920
  299        0.153998      0.173609
  300        0.262121      0.280388
  301        0.426209      0.442350
  302        0.446770      0.478582
  303        0.533050      0.552122
  304        0.593600      0.603577
  305        0.680299      0.699804
  306        0.704688      0.728196
  307        0.754985      0.767050
  308        0.803153      0.805966
  309        0.860546      0.882308
  310        0.874658      0.901651
  311        0.902796      0.908544
  312        0.924317      0.924543
  313        0.969665      0.985324
  314        0.983265      0.997138
  315        1.003552      1.002741
  316        1.036854      1.050491
  317        1.056716      1.064355
  318        1.086900      1.089308
  319        1.102608      1.125819
  320        1.132695      1.135464
  321        1.152578      1.153459
  322        1.158644      1.185760
  323        1.180024      1.209184
  324        1.225943      1.232035
  325        1.273358      1.277961
  326        1.283866      1.286877
  327        1.304912      1.314643
  328        1.329276      1.350133
  329        1.339814      1.360574
  330        1.365527      1.370914
  331        1.378312      1.379433
  332        1.382541      1.403824
  333        1.415049      1.419979
  334        1.426463      1.432226
  335        1.435637      1.446749
  336        1.472150      1.490545
