   48   48 1000    2
  0.2610412E+03  0.2322648E-08  0.2322648E-08  0.2322648E-08  0.1000000E-15
  1.000000000000000E-004
  CAR 
 unknown system                          
    528      1    340
 
  0.0000000E+00  0.0000000E+00  0.0000000E+00  0.1000000E+01
    1       -9.795036     -9.795036
    2       -9.328230     -9.328230
    3       -9.157568     -9.157568
    4       -9.096677     -9.096677
    5       -9.093233     -9.093233
    6       -9.058302     -9.058302
    7       -9.038866     -9.038866
    8       -9.012783     -9.012783
    9       -8.984049     -8.984049
   10       -8.948145     -8.948145
   11       -8.905608     -8.905608
   12       -8.888160     -8.888160
   13       -8.876343     -8.876343
   14       -8.850950     -8.850950
   15       -8.804390     -8.804390
   16       -8.793604     -8.793604
   17       -8.769966     -8.769966
   18       -8.762320     -8.762320
   19       -8.751195     -8.751195
   20       -8.726767     -8.726767
   21       -8.719383     -8.719383
   22       -8.704131     -8.704131
   23       -8.691355     -8.691355
   24       -8.670431     -8.670431
   25       -8.666581     -8.666581
   26       -8.647315     -8.647315
   27       -8.629452     -8.629452
   28       -8.622720     -8.622720
   29       -8.610993     -8.610993
   30       -8.587028     -8.587028
   31       -8.574881     -8.574881
   32       -8.558670     -8.558670
   33       -8.553888     -8.553888
   34       -8.531169     -8.531169
   35       -8.518516     -8.518516
   36       -8.501976     -8.501976
   37       -8.494145     -8.494145
   38       -8.488151     -8.488151
   39       -8.479992     -8.479992
   40       -8.474031     -8.474031
   41       -8.449802     -8.449802
   42       -8.437772     -8.437772
   43       -8.430055     -8.430055
   44       -8.410928     -8.410928
   45       -8.400906     -8.400906
   46       -8.383329     -8.383329
   47       -8.379129     -8.379129
   48       -8.365561     -8.365561
   49       -8.340230     -8.340230
   50       -8.329470     -8.329470
   51       -8.311700     -8.311700
   52       -8.296101     -8.296102
   53       -8.289808     -8.289808
   54       -8.281567     -8.281567
   55       -8.275692     -8.275692
   56       -8.245392     -8.245392
   57       -8.233258     -8.233258
   58       -8.213804     -8.213804
   59       -8.211072     -8.211072
   60       -8.200464     -8.200464
   61       -8.179851     -8.179851
   62       -8.173022     -8.173022
   63       -8.160594     -8.160594
   64       -8.148448     -8.148448
   65       -8.132627     -8.132627
   66       -8.111375     -8.111375
   67       -8.104838     -8.104838
   68       -8.090829     -8.090829
   69       -8.078416     -8.078416
   70       -8.063609     -8.063609
   71       -8.054978     -8.054978
   72       -8.046417     -8.046417
   73       -8.011165     -8.011165
   74       -8.005627     -8.005627
   75       -7.999683     -7.999683
   76       -7.985626     -7.985626
   77       -7.980904     -7.980904
   78       -7.961033     -7.961033
   79       -7.952834     -7.952834
   80       -7.929744     -7.929744
   81       -7.922058     -7.922059
   82       -7.907359     -7.907359
   83       -7.900831     -7.900831
   84       -7.886175     -7.886175
   85       -7.874096     -7.874096
   86       -7.867459     -7.867460
   87       -7.847936     -7.847936
   88       -7.838149     -7.838149
   89       -7.814450     -7.814450
   90       -7.797019     -7.797019
   91       -7.780022     -7.780023
   92       -7.770779     -7.770779
   93       -7.761214     -7.761214
   94       -7.735978     -7.735978
   95       -7.723550     -7.723550
   96       -7.717142     -7.717142
   97       -7.702167     -7.702167
   98       -7.688114     -7.688114
   99       -7.663661     -7.663661
  100       -7.649067     -7.649067
  101       -7.637442     -7.637442
  102       -7.600271     -7.600271
  103       -7.597803     -7.597803
  104       -7.587440     -7.587440
  105       -7.573511     -7.573511
  106       -7.553569     -7.553569
  107       -7.544831     -7.544831
  108       -7.532741     -7.532741
  109       -7.522461     -7.522461
  110       -7.497974     -7.497974
  111       -7.488806     -7.488806
  112       -7.471703     -7.471703
  113       -7.461082     -7.461082
  114       -7.445978     -7.445979
  115       -7.443922     -7.443922
  116       -7.422826     -7.422826
  117       -7.404179     -7.404179
  118       -7.394779     -7.394779
  119       -7.390858     -7.390858
  120       -7.379326     -7.379326
  121       -7.350622     -7.350622
  122       -7.347014     -7.347014
  123       -7.332703     -7.332703
  124       -7.330715     -7.330715
  125       -7.326810     -7.326810
  126       -7.311049     -7.311049
  127       -7.288098     -7.288098
  128       -7.278849     -7.278849
  129       -7.272808     -7.272808
  130       -7.259674     -7.259674
  131       -7.248087     -7.248087
  132       -7.239457     -7.239457
  133       -7.230314     -7.230314
  134       -7.202056     -7.202056
  135       -7.189080     -7.189080
  136       -7.173577     -7.173577
  137       -7.155871     -7.155871
  138       -7.148350     -7.148350
  139       -7.148119     -7.148119
  140       -7.139782     -7.139782
  141       -7.121524     -7.121524
  142       -7.105664     -7.105664
  143       -7.094963     -7.094963
  144       -7.089670     -7.089670
  145       -7.081995     -7.081995
  146       -7.067008     -7.067008
  147       -7.057010     -7.057010
  148       -7.032186     -7.032186
  149       -7.015832     -7.015832
  150       -7.002620     -7.002620
  151       -6.999579     -6.999579
  152       -6.970269     -6.970269
  153       -6.960604     -6.960604
  154       -6.952733     -6.952733
  155       -6.941661     -6.941661
  156       -6.925720     -6.925720
  157       -6.913128     -6.913128
  158       -6.910584     -6.910584
  159       -6.888506     -6.888506
  160       -6.886478     -6.886478
  161       -6.876351     -6.876351
  162       -6.860765     -6.860765
  163       -6.858156     -6.858156
  164       -6.848155     -6.848155
  165       -6.844842     -6.844842
  166       -6.830421     -6.830421
  167       -6.827026     -6.827026
  168       -6.815358     -6.815358
  169       -6.805926     -6.805926
  170       -6.797243     -6.797243
  171       -6.782751     -6.782751
  172       -6.775568     -6.775568
  173       -6.772984     -6.772984
  174       -6.754213     -6.754213
  175       -6.744998     -6.744998
  176       -6.741943     -6.741943
  177       -6.735981     -6.735981
  178       -6.731609     -6.731609
  179       -6.723893     -6.723893
  180       -6.713472     -6.713472
  181       -6.698048     -6.698048
  182       -6.691462     -6.691462
  183       -6.686482     -6.686482
  184       -6.678708     -6.678708
  185       -6.677455     -6.677455
  186       -6.667298     -6.667298
  187       -6.653148     -6.653148
  188       -6.640701     -6.640701
  189       -6.638893     -6.638894
  190       -6.628946     -6.628946
  191       -6.623411     -6.623411
  192       -6.618785     -6.618785
  193       -6.606661     -6.606661
  194       -6.600126     -6.600126
  195       -6.589052     -6.589052
  196       -6.579692     -6.579692
  197       -6.577802     -6.577802
  198       -6.572889     -6.572889
  199       -6.554814     -6.554814
  200       -6.551045     -6.551045
  201       -6.548475     -6.548475
  202       -6.532264     -6.532264
  203       -6.528333     -6.528333
  204       -6.522863     -6.522863
  205       -6.516277     -6.516277
  206       -6.502507     -6.502507
  207       -6.494467     -6.494467
  208       -6.484112     -6.484112
  209       -6.477181     -6.477181
  210       -6.466185     -6.466185
  211       -6.454545     -6.454545
  212       -6.451015     -6.451015
  213       -6.441310     -6.441310
  214       -6.431060     -6.431061
  215       -6.426257     -6.426257
  216       -6.421446     -6.421446
  217       -6.411193     -6.411193
  218       -6.401792     -6.401792
  219       -6.392032     -6.392032
  220       -6.380686     -6.380686
  221       -6.370148     -6.370148
  222       -6.362840     -6.362841
  223       -6.359910     -6.359910
  224       -6.348560     -6.348560
  225       -6.344866     -6.344866
  226       -6.332859     -6.332859
  227       -6.316653     -6.316653
  228       -6.304796     -6.304796
  229       -6.290794     -6.290794
  230       -6.284011     -6.284011
  231       -6.276222     -6.276222
  232       -6.251307     -6.251307
  233       -6.248836     -6.248836
  234       -6.226293     -6.226293
  235       -6.220810     -6.220810
  236       -6.204286     -6.204286
  237       -6.201363     -6.201363
  238       -6.197020     -6.197020
  239       -6.195808     -6.195808
  240       -6.180906     -6.180906
  241       -6.145967     -6.145967
  242       -6.125110     -6.125110
  243       -6.106826     -6.106826
  244       -6.078085     -6.078085
  245       -6.041775     -6.041775
  246       -6.016974     -6.016974
  247       -6.001359     -6.001359
  248       -5.793259     -5.793259
  249       -5.747656     -5.747656
  250       -5.550779     -5.550779
  251       -5.275774     -5.275774
  252       -5.206710     -5.206710
  253       -5.101555     -5.101555
  254       -4.773077     -4.773077
  255       -4.723304     -4.723304
  256       -4.502941     -4.502941
  257       -4.338540     -4.338540
  258       -4.217160     -4.217160
  259       -4.007707     -4.007707
  260       -3.891749     -3.891749
  261       -3.819337     -3.819337
  262       -3.548554     -3.548554
  263       -3.484972     -3.484972
  264       -3.328924     -3.328924
  265       -3.122663     -3.122662
  266       -3.024257     -3.024257
  267       -2.923944     -2.923944
  268       -2.726900     -2.726899
  269       -2.660552     -2.660552
  270       -2.559980     -2.559980
  271       -2.525368     -2.525368
  272       -2.467256     -2.467256
  273       -2.338401     -2.338401
  274       -2.219005     -2.219005
  275       -2.175228     -2.175228
  276       -2.044596     -2.044596
  277       -1.978567     -1.978567
  278       -1.895610     -1.895610
  279       -1.762543     -1.762543
  280       -1.710532     -1.710531
  281       -1.615360     -1.615360
  282       -1.537479     -1.537478
  283       -1.504597     -1.504597
  284       -1.357337     -1.357337
  285       -1.178354     -1.178354
  286       -1.133114     -1.133114
  287       -1.059103     -1.059103
  288       -0.941677     -0.941677
  289       -0.868710     -0.868710
  290       -0.810102     -0.810101
  291       -0.754368     -0.754367
  292       -0.704364     -0.704364
  293       -0.613037     -0.613037
  294       -0.453740     -0.453739
  295       -0.410215     -0.410215
  296       -0.303267     -0.303267
  297       -0.245597     -0.245596
  298       -0.227326     -0.227325
  299       -0.153325     -0.153324
  300        0.067534      0.067534
  301        0.106614      0.106614
  302        0.171982      0.171985
  303        0.459684      0.459684
  304        0.489131      0.489132
  305        0.522704      0.522703
  306        0.576829      0.576830
  307        0.597938      0.597947
  308        0.637286      0.637289
  309        0.675504      0.675505
  310        0.691712      0.691713
  311        0.734324      0.734326
  312        0.747497      0.747502
  313        0.804752      0.804760
  314        0.825373      0.825378
  315        0.870581      0.870590
  316        0.917368      0.917371
  317        0.940920      0.940925
  318        0.968901      0.968906
  319        0.986083      0.986087
  320        1.016845      1.016849
  321        1.033414      1.033416
  322        1.058381      1.058384
  323        1.096772      1.096775
  324        1.108440      1.108444
  325        1.123963      1.123965
  326        1.138291      1.138291
  327        1.167897      1.167903
  328        1.173679      1.173684
  329        1.196251      1.196248
  330        1.229504      1.229507
  331        1.268525      1.268530
  332        1.293157      1.293161
  333        1.349953      1.349956
  334        1.357598      1.357604
  335        1.371020      1.371020
  336        1.383185      1.383188
  337        1.417689      1.417691
  338        1.432289      1.432291
  339        1.446963      1.446963
  340        1.461985      1.461989
