<?xml version="1.0" encoding="ISO-8859-1"?>
<modeling>
 <generator>
  <i name="program" type="string">vasp </i>
  <i name="version" type="string">5.3.5  </i>
  <i name="subversion" type="string">31Mar14 (build Feb 01 2018 12:10:03) gamma-only                       parallel </i>
  <i name="platform" type="string">LinuxIFC </i>
  <i name="date" type="string">2019 03 21 </i>
  <i name="time" type="string">19:51:56 </i>
 </generator>
 <incar>
  <i type="string" name="PREC">normal</i>
  <i type="int" name="ISPIN">     2</i>
  <i type="int" name="IBRION">     2</i>
  <i type="int" name="NSW">  1000</i>
  <i type="int" name="ISIF">     2</i>
  <i name="POTIM">      0.10000000</i>
  <i type="logical" name="LPLANE"> T  </i>
  <i type="int" name="ISMEAR">     0</i>
  <i name="SIGMA">      0.00010000</i>
  <i type="logical" name="LWAVE"> F  </i>
  <i type="logical" name="LCHARG"> F  </i>
  <i type="logical" name="LVTOT"> F  </i>
  <i type="string" name="GGA"> PE</i>
 </incar>
 <kpoints>
  <varray name="kpointlist" >
   <v>       0.00000000       0.00000000       0.00000000 </v>
  </varray>
  <varray name="weights" >
   <v>       1.00000000 </v>
  </varray>
 </kpoints>
 <parameters>
  <separator name="general" >
   <i type="string" name="SYSTEM">unknown system</i>
   <i type="logical" name="LCOMPAT"> F  </i>
  </separator>
  <separator name="electronic" >
   <i type="string" name="PREC">normal</i>
   <i name="ENMAX">    249.84400000</i>
   <i name="ENAUG">    412.49600000</i>
   <i name="EDIFF">      0.00010000</i>
   <i type="int" name="IALGO">    38</i>
   <i type="int" name="IWAVPR">    11</i>
   <i type="int" name="NBANDS">   108</i>
   <i name="NELECT">    165.00000000</i>
   <i type="int" name="TURBO">     0</i>
   <i type="int" name="IRESTART">     0</i>
   <i type="int" name="NREBOOT">     0</i>
   <i type="int" name="NMIN">     0</i>
   <i name="EREF">      0.00000000</i>
   <separator name="electronic smearing" >
    <i type="int" name="ISMEAR">     0</i>
    <i name="SIGMA">      0.00010000</i>
    <i name="KSPACING">      0.50000000</i>
    <i type="logical" name="KGAMMA"> T  </i>
   </separator>
   <separator name="electronic projectors" >
    <i type="logical" name="LREAL"> F  </i>
    <v name="ROPT">      0.00000000</v>
    <i type="int" name="LMAXPAW">  -100</i>
    <i type="int" name="LMAXMIX">     2</i>
    <i type="logical" name="NLSPLINE"> F  </i>
   </separator>
   <separator name="electronic startup" >
    <i type="int" name="ISTART">     0</i>
    <i type="int" name="ICHARG">     2</i>
    <i type="int" name="INIWAV">     1</i>
   </separator>
   <separator name="electronic spin" >
    <i type="int" name="ISPIN">     2</i>
    <i type="logical" name="LNONCOLLINEAR"> F  </i>
    <v name="MAGMOM">      1.00000000      1.00000000      1.00000000      1.00000000      1.00000000      1.00000000      1.00000000      1.00000000      1.00000000      1.00000000      1.00000000      1.00000000      1.00000000      1.00000000      1.00000000</v>
    <i name="NUPDOWN">     -1.00000000</i>
    <i type="logical" name="LSORBIT"> F  </i>
    <v name="SAXIS">      0.00000000      0.00000000      1.00000000</v>
    <i type="logical" name="LSPIRAL"> F  </i>
    <v name="QSPIRAL">      0.00000000      0.00000000      0.00000000</v>
    <i type="logical" name="LZEROZ"> F  </i>
   </separator>
   <separator name="electronic exchange-correlation" >
    <i type="logical" name="LASPH"> F  </i>
    <i type="logical" name="LMETAGGA"> F  </i>
   </separator>
   <separator name="electronic convergence" >
    <i type="int" name="NELM">    60</i>
    <i type="int" name="NELMDL">    -5</i>
    <i type="int" name="NELMIN">     2</i>
    <i name="ENINI">    249.84400000</i>
    <separator name="electronic convergence detail" >
     <i type="logical" name="LDIAG"> T  </i>
     <i type="logical" name="LSUBROT"> F  </i>
     <i name="WEIMIN">      0.00100000</i>
     <i name="EBREAK">      0.00000023</i>
     <i name="DEPER">      0.30000000</i>
     <i type="int" name="NRMM">     4</i>
     <i name="TIME">      0.40000000</i>
    </separator>
   </separator>
   <separator name="electronic mixer" >
    <i name="AMIX">      0.40000000</i>
    <i name="BMIX">      1.00000000</i>
    <i name="AMIN">      0.10000000</i>
    <i name="AMIX_MAG">      1.60000000</i>
    <i name="BMIX_MAG">      1.00000000</i>
    <separator name="electronic mixer details" >
     <i type="int" name="IMIX">     4</i>
     <i type="int" name="MAXMIX">   -45</i>
     <i name="WC">    100.00000000</i>
     <i type="int" name="INIMIX">     1</i>
     <i type="int" name="MIXPRE">     1</i>
     <i type="int" name="MREMOVE">     5</i>
    </separator>
   </separator>
   <separator name="electronic dipolcorrection" >
    <i type="logical" name="LDIPOL"> F  </i>
    <i type="logical" name="LMONO"> F  </i>
    <i type="int" name="IDIPOL">     0</i>
    <i name="EPSILON">      1.00000000</i>
    <v name="DIPOL">   -100.00000000   -100.00000000   -100.00000000</v>
    <i name="EFIELD">      0.00000000</i>
   </separator>
  </separator>
  <separator name="grids" >
   <i type="int" name="NGX">    80</i>
   <i type="int" name="NGY">    80</i>
   <i type="int" name="NGZ">    80</i>
   <i type="int" name="NGXF">   160</i>
   <i type="int" name="NGYF">   160</i>
   <i type="int" name="NGZF">   160</i>
   <i type="logical" name="ADDGRID"> F  </i>
  </separator>
  <separator name="ionic" >
   <i type="int" name="NSW">  1000</i>
   <i type="int" name="IBRION">     2</i>
   <i type="int" name="ISIF">     2</i>
   <i name="PSTRESS">      0.00000000</i>
   <i name="EDIFFG">      0.00100000</i>
   <i type="int" name="NFREE">     1</i>
   <i name="POTIM">      0.10000000</i>
   <i name="SMASS">     -3.00000000</i>
   <i name="SCALEE">      1.00000000</i>
  </separator>
  <separator name="ionic md" >
   <i name="TEBEG">      0.00010000</i>
   <i name="TEEND">      0.00010000</i>
   <i type="int" name="NBLOCK">     1</i>
   <i type="int" name="KBLOCK">  1000</i>
   <i type="int" name="NPACO">   256</i>
   <i name="APACO">     16.00000000</i>
  </separator>
  <separator name="symmetry" >
   <i type="int" name="ISYM">     2</i>
   <i name="SYMPREC">      0.00001000</i>
  </separator>
  <separator name="dos" >
   <i type="logical" name="LORBIT"> F  </i>
   <v name="RWIGS">     -1.00000000</v>
   <i type="int" name="NEDOS">   301</i>
   <i name="EMIN">     10.00000000</i>
   <i name="EMAX">    -10.00000000</i>
   <i name="EFERMI">      0.00000000</i>
  </separator>
  <separator name="writing" >
   <i type="int" name="NWRITE">     2</i>
   <i type="logical" name="LWAVE"> F  </i>
   <i type="logical" name="LCHARG"> F  </i>
   <i type="logical" name="LPARD"> F  </i>
   <i type="logical" name="LVTOT"> F  </i>
   <i type="logical" name="LVHAR"> F  </i>
   <i type="logical" name="LELF"> F  </i>
   <i type="logical" name="LOPTICS"> F  </i>
   <v name="STM">      0.00000000      0.00000000      0.00000000      0.00000000      0.00000000      0.00000000      0.00000000</v>
  </separator>
  <separator name="performance" >
   <i type="int" name="NPAR">     4</i>
   <i type="int" name="NSIM">     4</i>
   <i type="int" name="NBLK">    -1</i>
   <i type="logical" name="LPLANE"> T  </i>
   <i type="logical" name="LSCALAPACK"> T  </i>
   <i type="logical" name="LSCAAWARE"> F  </i>
   <i type="logical" name="LSCALU"> F  </i>
   <i type="logical" name="LASYNC"> F  </i>
   <i type="logical" name="LORBITALREAL"> F  </i>
  </separator>
  <separator name="miscellaneous" >
   <i type="int" name="IDIOT">     3</i>
   <i type="logical" name="LMUSIC"> F  </i>
   <v name="POMASS">    107.86800000</v>
   <v name="DARWINR">      0.00000000</v>
   <v name="DARWINV">      1.00000000</v>
   <i type="logical" name="LCORR"> T  </i>
  </separator>
  <i type="logical" name="GGA_COMPAT"> T  </i>
  <i type="logical" name="LBERRY"> F  </i>
  <i type="int" name="ICORELEVEL">     0</i>
  <i type="logical" name="LDAU"> F  </i>
  <i type="int" name="I_CONSTRAINED_M">     0</i>
  <separator name="electronic exchange-correlation" >
   <i type="string" name="GGA">PE</i>
   <i type="int" name="VOSKOWN">     0</i>
   <i type="logical" name="LHFCALC"> F  </i>
   <i type="string" name="PRECFOCK"></i>
   <i type="logical" name="LSYMGRAD"> F  </i>
   <i type="logical" name="LHFONE"> F  </i>
   <i type="logical" name="LRHFCALC"> F  </i>
   <i type="logical" name="LTHOMAS"> F  </i>
   <i type="logical" name="LMODELHF"> F  </i>
   <i name="ENCUT4O">     -1.00000000</i>
   <i type="int" name="EXXOEP">     0</i>
   <i type="int" name="FOURORBIT">     0</i>
   <i name="AEXX">      0.00000000</i>
   <i name="HFALPHA">      0.00000000</i>
   <i name="MCALPHA">      0.00000000</i>
   <i name="ALDAX">      1.00000000</i>
   <i name="AGGAX">      1.00000000</i>
   <i name="ALDAC">      1.00000000</i>
   <i name="AGGAC">      1.00000000</i>
   <i type="int" name="NKREDX">     1</i>
   <i type="int" name="NKREDY">     1</i>
   <i type="int" name="NKREDZ">     1</i>
   <i type="logical" name="SHIFTRED"> F  </i>
   <i type="logical" name="ODDONLY"> F  </i>
   <i type="logical" name="EVENONLY"> F  </i>
   <i type="int" name="LMAXFOCK">     0</i>
   <i type="int" name="NMAXFOCKAE">     0</i>
   <i type="logical" name="LFOCKAEDFT"> F  </i>
   <i name="HFSCREEN">      0.00000000</i>
   <i name="HFSCREENC">      0.00000000</i>
   <i type="int" name="NBANDSGWLOW">     0</i>
  </separator>
  <separator name="vdW DFT" >
   <i type="logical" name="LUSE_VDW"> F  </i>
   <i name="Zab_VDW">     -0.84910000</i>
   <i name="PARAM1">      0.12340000</i>
   <i name="PARAM2">      1.00000000</i>
   <i name="PARAM3">      0.00000000</i>
  </separator>
  <separator name="model GW" >
   <i type="int" name="MODEL_GW">     0</i>
   <i name="MODEL_EPS0">    322.78614315</i>
   <i name="MODEL_ALPHA">      1.00000000</i>
  </separator>
  <separator name="linear response parameters" >
   <i type="logical" name="LEPSILON"> F  </i>
   <i type="logical" name="LRPA"> F  </i>
   <i type="logical" name="LNABLA"> F  </i>
   <i type="logical" name="LVEL"> F  </i>
   <i type="int" name="KINTER">     0</i>
   <i name="CSHIFT">      0.10000000</i>
   <i name="OMEGAMAX">     -1.00000000</i>
   <i name="DEG_THRESHOLD">      0.00200000</i>
  </separator>
  <separator name="orbital magnetization" >
   <i type="logical" name="NUCIND"> F  </i>
   <v name="MAGPOS">      0.00000000      0.00000000      0.00000000</v>
   <i type="logical" name="LNICSALL"> T  </i>
   <i type="logical" name="ORBITALMAG"> F  </i>
   <i type="logical" name="LMAGBLOCH"> F  </i>
   <i type="logical" name="LCHIMAG"> F  </i>
   <i type="logical" name="LGAUGE"> T  </i>
   <i type="int" name="MAGATOM">     0</i>
   <v name="MAGDIPOL">      0.00000000      0.00000000      0.00000000</v>
   <v name="AVECCONST">      0.00000000      0.00000000      0.00000000</v>
  </separator>
  <separator name="response functions" >
   <i type="logical" name="LADDER"> F  </i>
   <i type="logical" name="LFXC"> F  </i>
   <i type="logical" name="LHARTREE"> T  </i>
   <i type="int" name="IBSE">     0</i>
   <i type="logical" name="LTCTE"> F  </i>
   <i type="logical" name="LTETE"> F  </i>
   <i type="logical" name="LTRIPLET"> F  </i>
   <i type="logical" name="LFXCEPS"> F  </i>
   <i type="logical" name="LFXHEG"> F  </i>
   <i type="logical" name="L2ORDER"> F  </i>
   <i type="logical" name="LUSEW"> F  </i>
   <i name="ENCUTGW">     -2.00000000</i>
   <i name="ENCUTGWSOFT">     -2.00000000</i>
   <i name="ENCUTLF">     -1.00000000</i>
   <i type="int" name="LMAXMP2">    -1</i>
   <i name="SCISSOR">      0.00000000</i>
   <i type="int" name="NOMEGA">     0</i>
   <i type="int" name="NOMEGAR">     0</i>
   <i type="int" name="NBANDSGW">    -1</i>
   <i type="int" name="NBANDSO">    -1</i>
   <i type="int" name="NBANDSV">    -1</i>
   <i type="int" name="NELM">     1</i>
   <i type="int" name="DIM">     3</i>
   <i type="int" name="ANTIRES">     0</i>
   <i name="OMEGAMAX">    -30.00000000</i>
   <i name="OMEGAMIN">    -30.00000000</i>
   <i name="OMEGATL">   -200.00000000</i>
   <i type="int" name="OMEGAGRID">     0</i>
   <i name="CSHIFT">     -0.10000000</i>
   <i type="logical" name="SELFENERGY"> F  </i>
   <i type="logical" name="LSPECTRAL"> F  </i>
   <i type="logical" name="ODDONLYGW"> F  </i>
   <i type="logical" name="EVENONLYGW"> F  </i>
   <i type="int" name="NKREDLFX">     1</i>
   <i type="int" name="NKREDLFY">     1</i>
   <i type="int" name="NKREDLFZ">     1</i>
   <i type="int" name="MAXMEM">  1800</i>
   <i type="int" name="TELESCOPE">     0</i>
   <i type="int" name="TAUPAR">     1</i>
  </separator>
  <separator name="External order field" >
   <i name="OFIELD_KAPPA">      0.00000000</i>
   <v name="OFIELD_K">      0.00000000      0.00000000      0.00000000</v>
   <i name="OFIELD_Q6_NEAR">      0.00000000</i>
   <i name="OFIELD_Q6_FAR">      0.00000000</i>
   <i name="OFIELD_A">      0.00000000</i>
  </separator>
 </parameters>
 <atominfo>
  <atoms>      15 </atoms>
  <types>       1 </types>
  <array name="atoms" >
   <dimension dim="1">ion</dimension>
   <field type="string">element</field>
   <field type="int">atomtype</field>
   <set>
    <rc><c>Ag</c><c>   1</c></rc>
    <rc><c>Ag</c><c>   1</c></rc>
    <rc><c>Ag</c><c>   1</c></rc>
    <rc><c>Ag</c><c>   1</c></rc>
    <rc><c>Ag</c><c>   1</c></rc>
    <rc><c>Ag</c><c>   1</c></rc>
    <rc><c>Ag</c><c>   1</c></rc>
    <rc><c>Ag</c><c>   1</c></rc>
    <rc><c>Ag</c><c>   1</c></rc>
    <rc><c>Ag</c><c>   1</c></rc>
    <rc><c>Ag</c><c>   1</c></rc>
    <rc><c>Ag</c><c>   1</c></rc>
    <rc><c>Ag</c><c>   1</c></rc>
    <rc><c>Ag</c><c>   1</c></rc>
    <rc><c>Ag</c><c>   1</c></rc>
   </set>
  </array>
  <array name="atomtypes" >
   <dimension dim="1">type</dimension>
   <field type="int">atomspertype</field>
   <field type="string">element</field>
   <field>mass</field>
   <field>valence</field>
   <field type="string">pseudopotential</field>
   <set>
    <rc><c>  15</c><c>Ag</c><c>    107.86800000</c><c>     11.00000000</c><c>  PAW_PBE Ag 02Apr2005                  </c></rc>
   </set>
  </array>
 </atominfo>
 <structure name="initialpos" >
  <crystal>
   <varray name="basis" >
    <v>      20.05787700       0.00000000       0.00000000 </v>
    <v>       0.00000000      20.05787700       0.00000000 </v>
    <v>       0.00000000       0.00000000      20.05787700 </v>
   </varray>
   <i name="volume">   8069.65357870 </i>
   <varray name="rec_basis" >
    <v>       0.04985573       0.00000000       0.00000000 </v>
    <v>       0.00000000       0.04985573       0.00000000 </v>
    <v>       0.00000000       0.00000000       0.04985573 </v>
   </varray>
  </crystal>
  <varray name="positions" >
   <v>       0.37248325       0.44141081       0.56669050 </v>
   <v>       0.47187235       0.55490658       0.40708839 </v>
   <v>       0.50138277       0.44879713       0.63120691 </v>
   <v>       0.59838431       0.58535292       0.41526028 </v>
   <v>       0.61475961       0.44404311       0.44027580 </v>
   <v>       0.49611312       0.43648155       0.35822750 </v>
   <v>       0.60534690       0.40278576       0.56486024 </v>
   <v>       0.47489754       0.59047034       0.62378329 </v>
   <v>       0.57061012       0.53217491       0.54106064 </v>
   <v>       0.48877395       0.41305438       0.49543680 </v>
   <v>       0.51622771       0.64831678       0.50596249 </v>
   <v>       0.37893214       0.44846092       0.42942066 </v>
   <v>       0.40573077       0.55781602       0.51813133 </v>
   <v>       0.61141696       0.49337342       0.31746202 </v>
   <v>       0.39306850       0.50255536       0.68513314 </v>
  </varray>
 </structure>
 <calculation>
  <scstep>
   <time name="dav">    1.14    1.14</time>
   <time name="total">    1.38    1.44</time>
   <energy>
    <i name="alphaZ">     23.71601998 </i>
    <i name="ewald">  21408.39583445 </i>
    <i name="hartreedc"> -36284.68703353 </i>
    <i name="XCdc">   -165.81420999 </i>
    <i name="pawpsdc">  15050.58267104 </i>
    <i name="pawaedc"> -14358.96913318 </i>
    <i name="eentropy">      0.00000000 </i>
    <i name="bandstr">    247.59278279 </i>
    <i name="atom">  15557.97945130 </i>
    <i name="e_fr_energy">   1478.79638285 </i>
    <i name="e_wo_entrp">   1478.79638285 </i>
    <i name="e_0_energy">   1478.79638285 </i>
   </energy>
  </scstep>
  <scstep>
   <time name="dav">    1.87    1.87</time>
   <time name="total">    1.88    1.88</time>
   <energy>
    <i name="e_fr_energy">    494.78513897 </i>
    <i name="e_wo_entrp">    494.78513897 </i>
    <i name="e_0_energy">    494.78513897 </i>
   </energy>
  </scstep>
  <scstep>
   <time name="dav">    1.54    1.54</time>
   <time name="total">    1.54    1.55</time>
   <energy>
    <i name="e_fr_energy">     17.65372398 </i>
    <i name="e_wo_entrp">     17.65372398 </i>
    <i name="e_0_energy">     17.65372398 </i>
   </energy>
  </scstep>
  <scstep>
   <time name="dav">    1.26    1.26</time>
   <time name="total">    1.26    1.27</time>
   <energy>
    <i name="e_fr_energy">    -26.41895661 </i>
    <i name="e_wo_entrp">    -26.41895661 </i>
    <i name="e_0_energy">    -26.41895661 </i>
   </energy>
  </scstep>
  <scstep>
   <time name="dav">    1.26    1.26</time>
   <time name="total">    1.34    1.35</time>
   <energy>
    <i name="e_fr_energy">    -27.49579798 </i>
    <i name="e_wo_entrp">    -27.49579798 </i>
    <i name="e_0_energy">    -27.49579798 </i>
   </energy>
  </scstep>
  <scstep>
   <time name="dav">    1.16    1.16</time>
   <time name="total">    1.46    1.49</time>
   <energy>
    <i name="e_fr_energy">     -7.21502980 </i>
    <i name="e_wo_entrp">     -7.21502980 </i>
    <i name="e_0_energy">     -7.21502980 </i>
   </energy>
  </scstep>
  <scstep>
   <time name="dav">    1.25    1.25</time>
   <time name="total">    1.55    1.57</time>
   <energy>
    <i name="e_fr_energy">     -7.60507116 </i>
    <i name="e_wo_entrp">     -7.60507116 </i>
    <i name="e_0_energy">     -7.60507116 </i>
   </energy>
  </scstep>
  <scstep>
   <time name="dav">    1.23    1.23</time>
   <time name="total">    1.54    1.54</time>
   <energy>
    <i name="e_fr_energy">    -10.26667053 </i>
    <i name="e_wo_entrp">    -10.26667053 </i>
    <i name="e_0_energy">    -10.26667053 </i>
   </energy>
  </scstep>
  <scstep>
   <time name="dav">    1.26    1.26</time>
   <time name="total">    1.57    1.78</time>
   <energy>
    <i name="e_fr_energy">    -12.89600995 </i>
    <i name="e_wo_entrp">    -12.89600995 </i>
    <i name="e_0_energy">    -12.89600995 </i>
   </energy>
  </scstep>
  <scstep>
   <time name="dav">    1.16    1.16</time>
   <time name="total">    1.47    1.47</time>
   <energy>
    <i name="e_fr_energy">    -16.80361466 </i>
    <i name="e_wo_entrp">    -16.80361466 </i>
    <i name="e_0_energy">    -16.80361466 </i>
   </energy>
  </scstep>
  <scstep>
   <time name="dav">    1.30    1.30</time>
   <time name="total">    1.60    1.61</time>
   <energy>
    <i name="e_fr_energy">    -16.72577001 </i>
    <i name="e_wo_entrp">    -16.72577001 </i>
    <i name="e_0_energy">    -16.72577001 </i>
   </energy>
  </scstep>
  <scstep>
   <time name="dav">    1.23    1.23</time>
   <time name="total">    1.54    1.54</time>
   <energy>
    <i name="e_fr_energy">    -17.08429109 </i>
    <i name="e_wo_entrp">    -17.08429109 </i>
    <i name="e_0_energy">    -17.08429109 </i>
   </energy>
  </scstep>
  <scstep>
   <time name="dav">    1.22    1.22</time>
   <time name="total">    1.52    1.53</time>
   <energy>
    <i name="e_fr_energy">    -17.51452051 </i>
    <i name="e_wo_entrp">    -17.51452051 </i>
    <i name="e_0_energy">    -17.51452051 </i>
   </energy>
  </scstep>
  <scstep>
   <time name="dav">    1.17    1.17</time>
   <time name="total">    1.48    1.49</time>
   <energy>
    <i name="e_fr_energy">    -21.88019384 </i>
    <i name="e_wo_entrp">    -21.88019384 </i>
    <i name="e_0_energy">    -21.88019384 </i>
   </energy>
  </scstep>
  <scstep>
   <time name="dav">    1.28    1.28</time>
   <time name="total">    1.59    1.59</time>
   <energy>
    <i name="e_fr_energy">    -22.37990501 </i>
    <i name="e_wo_entrp">    -22.37990501 </i>
    <i name="e_0_energy">    -22.37990501 </i>
   </energy>
  </scstep>
  <scstep>
   <time name="dav">    1.18    1.19</time>
   <time name="total">    1.50    1.51</time>
   <energy>
    <i name="e_fr_energy">    -23.38539968 </i>
    <i name="e_wo_entrp">    -23.38539968 </i>
    <i name="e_0_energy">    -23.38539968 </i>
   </energy>
  </scstep>
  <scstep>
   <time name="dav">    1.26    1.26</time>
   <time name="total">    1.56    1.57</time>
   <energy>
    <i name="e_fr_energy">    -23.36752179 </i>
    <i name="e_wo_entrp">    -23.36752179 </i>
    <i name="e_0_energy">    -23.36752179 </i>
   </energy>
  </scstep>
  <scstep>
   <time name="dav">    1.19    1.19</time>
   <time name="total">    1.50    1.50</time>
   <energy>
    <i name="e_fr_energy">    -23.62990622 </i>
    <i name="e_wo_entrp">    -23.62990622 </i>
    <i name="e_0_energy">    -23.62990622 </i>
   </energy>
  </scstep>
  <scstep>
   <time name="dav">    1.17    1.17</time>
   <time name="total">    1.48    1.48</time>
   <energy>
    <i name="e_fr_energy">    -24.92219327 </i>
    <i name="e_wo_entrp">    -24.92219327 </i>
    <i name="e_0_energy">    -24.92219327 </i>
   </energy>
  </scstep>
  <scstep>
   <time name="dav">    1.22    1.22</time>
   <time name="total">    1.54    1.54</time>
   <energy>
    <i name="e_fr_energy">    -25.57814980 </i>
    <i name="e_wo_entrp">    -25.57814980 </i>
    <i name="e_0_energy">    -25.57814980 </i>
   </energy>
  </scstep>
  <scstep>
   <time name="dav">    1.20    1.20</time>
   <time name="total">    1.51    2.21</time>
   <energy>
    <i name="e_fr_energy">    -25.85456014 </i>
    <i name="e_wo_entrp">    -25.85456014 </i>
    <i name="e_0_energy">    -25.85456014 </i>
   </energy>
  </scstep>
  <scstep>
   <time name="dav">    1.22    1.22</time>
   <time name="total">    1.53    1.53</time>
   <energy>
    <i name="e_fr_energy">    -26.28336278 </i>
    <i name="e_wo_entrp">    -26.28336278 </i>
    <i name="e_0_energy">    -26.28336278 </i>
   </energy>
  </scstep>
  <scstep>
   <time name="dav">    1.22    1.22</time>
   <time name="total">    1.53    1.68</time>
   <energy>
    <i name="e_fr_energy">    -26.67888424 </i>
    <i name="e_wo_entrp">    -26.67888424 </i>
    <i name="e_0_energy">    -26.67888424 </i>
   </energy>
  </scstep>
  <scstep>
   <time name="dav">    1.22    1.22</time>
   <time name="total">    1.53    1.57</time>
   <energy>
    <i name="e_fr_energy">    -26.84593097 </i>
    <i name="e_wo_entrp">    -26.84593097 </i>
    <i name="e_0_energy">    -26.84593097 </i>
   </energy>
  </scstep>
  <scstep>
   <time name="dav">    1.19    1.19</time>
   <time name="total">    1.51    2.17</time>
   <energy>
    <i name="e_fr_energy">    -26.97992730 </i>
    <i name="e_wo_entrp">    -26.97992730 </i>
    <i name="e_0_energy">    -26.97992730 </i>
   </energy>
  </scstep>
  <scstep>
   <time name="dav">    1.23    1.23</time>
   <time name="total">    1.55    1.57</time>
   <energy>
    <i name="e_fr_energy">    -27.03829431 </i>
    <i name="e_wo_entrp">    -27.03829431 </i>
    <i name="e_0_energy">    -27.03829431 </i>
   </energy>
  </scstep>
  <scstep>
   <time name="dav">    1.05    1.05</time>
   <time name="total">    1.37    1.39</time>
   <energy>
    <i name="e_fr_energy">    -27.05454635 </i>
    <i name="e_wo_entrp">    -27.05454635 </i>
    <i name="e_0_energy">    -27.05454635 </i>
   </energy>
  </scstep>
  <scstep>
   <time name="dav">    1.22    1.22</time>
   <time name="total">    1.54    1.55</time>
   <energy>
    <i name="e_fr_energy">    -27.05941529 </i>
    <i name="e_wo_entrp">    -27.05941529 </i>
    <i name="e_0_energy">    -27.05941529 </i>
   </energy>
  </scstep>
  <scstep>
   <time name="dav">    0.96    0.96</time>
   <time name="total">    1.28    1.28</time>
   <energy>
    <i name="e_fr_energy">    -27.06107489 </i>
    <i name="e_wo_entrp">    -27.06107489 </i>
    <i name="e_0_energy">    -27.06107489 </i>
   </energy>
  </scstep>
  <scstep>
   <time name="dav">    0.93    0.93</time>
   <time name="total">    1.25    1.27</time>
   <energy>
    <i name="e_fr_energy">    -27.06265796 </i>
    <i name="e_wo_entrp">    -27.06265796 </i>
    <i name="e_0_energy">    -27.06265796 </i>
   </energy>
  </scstep>
  <scstep>
   <time name="dav">    0.97    0.97</time>
   <time name="total">    1.29    1.31</time>
   <energy>
    <i name="e_fr_energy">    -27.06427410 </i>
    <i name="e_wo_entrp">    -27.06427410 </i>
    <i name="e_0_energy">    -27.06427410 </i>
   </energy>
  </scstep>
  <scstep>
   <time name="dav">    0.90    0.90</time>
   <time name="total">    1.22    1.23</time>
   <energy>
    <i name="e_fr_energy">    -27.06521270 </i>
    <i name="e_wo_entrp">    -27.06521270 </i>
    <i name="e_0_energy">    -27.06521270 </i>
   </energy>
  </scstep>
  <scstep>
   <time name="dav">    0.92    0.92</time>
   <time name="total">    1.24    1.24</time>
   <energy>
    <i name="e_fr_energy">    -27.06579165 </i>
    <i name="e_wo_entrp">    -27.06579165 </i>
    <i name="e_0_energy">    -27.06579165 </i>
   </energy>
  </scstep>
  <scstep>
   <time name="dav">    0.94    0.94</time>
   <time name="total">    1.17    1.19</time>
   <energy>
    <i name="alphaZ">     23.71601998 </i>
    <i name="ewald">  21408.39583445 </i>
    <i name="hartreedc"> -36275.89126138 </i>
    <i name="XCdc">   -170.83769576 </i>
    <i name="pawpsdc">  16285.88524530 </i>
    <i name="pawaedc"> -15621.61783236 </i>
    <i name="eentropy">      0.00000000 </i>
    <i name="bandstr">  -1234.69562478 </i>
    <i name="atom">  15557.97945130 </i>
    <i name="e_fr_energy">    -27.06586326 </i>
    <i name="e_wo_entrp">    -27.06586326 </i>
    <i name="e_0_energy">    -27.06586326 </i>
   </energy>
  </scstep>
  <structure>
   <crystal>
    <varray name="basis" >
     <v>      20.05787700       0.00000000       0.00000000 </v>
     <v>       0.00000000      20.05787700       0.00000000 </v>
     <v>       0.00000000       0.00000000      20.05787700 </v>
    </varray>
    <i name="volume">   8069.65357870 </i>
    <varray name="rec_basis" >
     <v>       0.04985573       0.00000000       0.00000000 </v>
     <v>       0.00000000       0.04985573       0.00000000 </v>
     <v>       0.00000000       0.00000000       0.04985573 </v>
    </varray>
   </crystal>
   <varray name="positions" >
    <v>       0.37248325       0.44141081       0.56669050 </v>
    <v>       0.47187235       0.55490658       0.40708839 </v>
    <v>       0.50138277       0.44879713       0.63120691 </v>
    <v>       0.59838431       0.58535292       0.41526028 </v>
    <v>       0.61475961       0.44404311       0.44027580 </v>
    <v>       0.49611312       0.43648155       0.35822750 </v>
    <v>       0.60534690       0.40278576       0.56486024 </v>
    <v>       0.47489754       0.59047034       0.62378329 </v>
    <v>       0.57061012       0.53217491       0.54106064 </v>
    <v>       0.48877395       0.41305438       0.49543680 </v>
    <v>       0.51622771       0.64831678       0.50596249 </v>
    <v>       0.37893214       0.44846092       0.42942066 </v>
    <v>       0.40573077       0.55781602       0.51813133 </v>
    <v>       0.61141696       0.49337342       0.31746202 </v>
    <v>       0.39306850       0.50255536       0.68513314 </v>
   </varray>
  </structure>
  <varray name="forces" >
   <v>      -0.36062719      -0.63116818       0.20003895 </v>
   <v>      -0.15193946       0.37817754      -0.69734020 </v>
   <v>      -0.14589652      -0.04330849       0.40480680 </v>
   <v>       0.66018978       0.36618851      -0.03106828 </v>
   <v>       0.25716877      -0.07984499      -0.31382097 </v>
   <v>      -0.00676123      -0.61952409      -0.39224007 </v>
   <v>       0.56458198      -0.53492994       0.34390895 </v>
   <v>       0.30207112       0.37182911       0.57348154 </v>
   <v>       0.16397762      -0.05321616       0.07503208 </v>
   <v>       0.07807076      -0.14732298       0.05893009 </v>
   <v>      -0.24215156       0.13470902      -0.13693679 </v>
   <v>      -0.15864839       0.23535534      -0.10091076 </v>
   <v>      -0.70695650       0.42858394       0.16939204 </v>
   <v>      -0.03687083       0.09579392      -0.22468618 </v>
   <v>      -0.21620836       0.09867745       0.07141279 </v>
  </varray>
  <varray name="stress" >
   <v>       0.21205457      -0.13067761      -0.19574206 </v>
   <v>      -0.13067761       0.02633638      -0.06045871 </v>
   <v>      -0.19574206      -0.06045871       0.39676531 </v>
  </varray>
  <energy>
   <i name="e_fr_energy">    -27.06586326 </i>
   <i name="e_wo_entrp">    -27.06586326 </i>
   <i name="e_0_energy">      0.00000000 </i>
  </energy>
  <time name="totalsc">   51.78   53.89</time>
 </calculation>
 <calculation>
  <scstep>
   <time name="dav">    1.25    1.25</time>
   <time name="total">    1.56    1.57</time>
   <energy>
    <i name="alphaZ">     23.71601998 </i>
    <i name="ewald">  21339.92173126 </i>
    <i name="hartreedc"> -36208.04834913 </i>
    <i name="XCdc">   -170.95744115 </i>
    <i name="pawpsdc">  16285.84223828 </i>
    <i name="pawaedc"> -15621.57531023 </i>
    <i name="eentropy">      0.00000000 </i>
    <i name="bandstr">  -1233.98981126 </i>
    <i name="atom">  15557.97945130 </i>
    <i name="e_fr_energy">    -27.11147096 </i>
    <i name="e_wo_entrp">    -27.11147096 </i>
    <i name="e_0_energy">    -27.11147096 </i>
   </energy>
  </scstep>
  <scstep>
   <time name="dav">    1.24    1.24</time>
   <time name="total">    1.54    1.55</time>
   <energy>
    <i name="e_fr_energy">    -27.11304200 </i>
    <i name="e_wo_entrp">    -27.11304200 </i>
    <i name="e_0_energy">    -27.11304200 </i>
   </energy>
  </scstep>
  <scstep>
   <time name="dav">    1.12    1.11</time>
   <time name="total">    1.35    1.36</time>
   <energy>
    <i name="alphaZ">     23.71601998 </i>
    <i name="ewald">  21339.92173126 </i>
    <i name="hartreedc"> -36208.75601994 </i>
    <i name="XCdc">   -170.93909331 </i>
    <i name="pawpsdc">  16274.44543336 </i>
    <i name="pawaedc"> -15609.99488067 </i>
    <i name="eentropy">      0.00000000 </i>
    <i name="bandstr">  -1233.48564903 </i>
    <i name="atom">  15557.97945130 </i>
    <i name="e_fr_energy">    -27.11300706 </i>
    <i name="e_wo_entrp">    -27.11300706 </i>
    <i name="e_0_energy">    -27.11300706 </i>
   </energy>
  </scstep>
  <structure>
   <crystal>
    <varray name="basis" >
     <v>      20.05787700       0.00000000       0.00000000 </v>
     <v>       0.00000000      20.05787700       0.00000000 </v>
     <v>       0.00000000       0.00000000      20.05787700 </v>
    </varray>
    <i name="volume">   8069.65357870 </i>
    <varray name="rec_basis" >
     <v>       0.04985573       0.00000000       0.00000000 </v>
     <v>       0.00000000       0.04985573       0.00000000 </v>
     <v>       0.00000000       0.00000000       0.04985573 </v>
    </varray>
   </crystal>
   <varray name="positions" >
    <v>       0.37230978       0.44110720       0.56678672 </v>
    <v>       0.47179926       0.55508850       0.40675295 </v>
    <v>       0.50131259       0.44877630       0.63140164 </v>
    <v>       0.59870188       0.58552907       0.41524534 </v>
    <v>       0.61488331       0.44400470       0.44012484 </v>
    <v>       0.49610987       0.43618354       0.35803882 </v>
    <v>       0.60561848       0.40252844       0.56502567 </v>
    <v>       0.47504284       0.59064921       0.62405916 </v>
    <v>       0.57068900       0.53214931       0.54109674 </v>
    <v>       0.48881151       0.41298351       0.49546515 </v>
    <v>       0.51611123       0.64838158       0.50589662 </v>
    <v>       0.37885583       0.44857413       0.42937212 </v>
    <v>       0.40539070       0.55802218       0.51821281 </v>
    <v>       0.61139923       0.49341950       0.31735394 </v>
    <v>       0.39296450       0.50260282       0.68516749 </v>
   </varray>
  </structure>
  <varray name="forces" >
   <v>      -0.32942868      -0.58472815       0.17720068 </v>
   <v>      -0.13075493       0.34804943      -0.65440061 </v>
   <v>      -0.11979054      -0.04658347       0.36845924 </v>
   <v>       0.60498154       0.34045641      -0.02051837 </v>
   <v>       0.23835624      -0.08152346      -0.27388382 </v>
   <v>      -0.01224960      -0.57322506      -0.35669166 </v>
   <v>       0.51058273      -0.48234105       0.31042233 </v>
   <v>       0.28365198       0.34489464       0.52219951 </v>
   <v>       0.15034942      -0.06188801       0.06827671 </v>
   <v>       0.08249190      -0.13051365       0.06173033 </v>
   <v>      -0.23513654       0.10144635      -0.13328257 </v>
   <v>      -0.12976973       0.23582300      -0.08442868 </v>
   <v>      -0.65982296       0.39277326       0.16881269 </v>
   <v>      -0.04511881       0.09781132      -0.21048681 </v>
   <v>      -0.20834201       0.09954845       0.05659102 </v>
  </varray>
  <varray name="stress" >
   <v>       0.10761487      -0.13233896      -0.17233099 </v>
   <v>      -0.13233896      -0.06739862      -0.06249532 </v>
   <v>      -0.17233100      -0.06249532       0.26513223 </v>
  </varray>
  <energy>
   <i name="e_fr_energy">    -27.11300706 </i>
   <i name="e_wo_entrp">    -27.11300706 </i>
   <i name="e_0_energy">      0.00000000 </i>
  </energy>
  <time name="totalsc">    6.40    6.54</time>
 </calculation>
 <calculation>
  <scstep>
   <time name="dav">    1.20    1.20</time>
   <time name="total">    1.50    1.52</time>
   <energy>
    <i name="alphaZ">     23.71601998 </i>
    <i name="ewald">  21135.60200596 </i>
    <i name="hartreedc"> -36006.49643959 </i>
    <i name="XCdc">   -171.28796228 </i>
    <i name="pawpsdc">  16268.76817915 </i>
    <i name="pawaedc"> -15604.22243967 </i>
    <i name="eentropy">     -0.00000000 </i>
    <i name="bandstr">  -1231.27964423 </i>
    <i name="atom">  15557.97945130 </i>
    <i name="e_fr_energy">    -27.22082938 </i>
    <i name="e_wo_entrp">    -27.22082938 </i>
    <i name="e_0_energy">    -27.22082938 </i>
   </energy>
  </scstep>
  <scstep>
   <time name="dav">    1.24    1.24</time>
   <time name="total">    1.55    1.55</time>
   <energy>
    <i name="e_fr_energy">    -27.23460502 </i>
    <i name="e_wo_entrp">    -27.23460502 </i>
    <i name="e_0_energy">    -27.23460502 </i>
   </energy>
  </scstep>
  <scstep>
   <time name="dav">    1.22    1.21</time>
   <time name="total">    1.52    1.52</time>
   <energy>
    <i name="e_fr_energy">    -27.23415175 </i>
    <i name="e_wo_entrp">    -27.23415175 </i>
    <i name="e_0_energy">    -27.23415175 </i>
   </energy>
  </scstep>
  <scstep>
   <time name="dav">    1.24    1.24</time>
   <time name="total">    1.55    1.55</time>
   <energy>
    <i name="e_fr_energy">    -27.23399284 </i>
    <i name="e_wo_entrp">    -27.23399284 </i>
    <i name="e_0_energy">    -27.23399284 </i>
   </energy>
  </scstep>
  <scstep>
   <time name="dav">    0.89    0.89</time>
   <time name="total">    1.13    1.17</time>
   <energy>
    <i name="alphaZ">     23.71601998 </i>
    <i name="ewald">  21135.60200596 </i>
    <i name="hartreedc"> -36008.97548356 </i>
    <i name="XCdc">   -171.21899038 </i>
    <i name="pawpsdc">  16218.18582723 </i>
    <i name="pawaedc"> -15552.81195733 </i>
    <i name="eentropy">      0.00000000 </i>
    <i name="bandstr">  -1229.71087771 </i>
    <i name="atom">  15557.97945130 </i>
    <i name="e_fr_energy">    -27.23400451 </i>
    <i name="e_wo_entrp">    -27.23400451 </i>
    <i name="e_0_energy">    -27.23400451 </i>
   </energy>
  </scstep>
  <structure>
   <crystal>
    <varray name="basis" >
     <v>      20.05787700       0.00000000       0.00000000 </v>
     <v>       0.00000000      20.05787700       0.00000000 </v>
     <v>       0.00000000       0.00000000      20.05787700 </v>
    </varray>
    <i name="volume">   8069.65357870 </i>
    <varray name="rec_basis" >
     <v>       0.04985573       0.00000000       0.00000000 </v>
     <v>       0.00000000       0.04985573       0.00000000 </v>
     <v>       0.00000000       0.00000000       0.04985573 </v>
    </varray>
   </crystal>
   <varray name="positions" >
    <v>       0.37178935       0.44019636       0.56707540 </v>
    <v>       0.47158000       0.55563425       0.40574662 </v>
    <v>       0.50110204       0.44871380       0.63198581 </v>
    <v>       0.59965461       0.58605751       0.41520051 </v>
    <v>       0.61525444       0.44388948       0.43967196 </v>
    <v>       0.49610011       0.43528950       0.35747278 </v>
    <v>       0.60643323       0.40175649       0.56552196 </v>
    <v>       0.47547876       0.59118579       0.62488675 </v>
    <v>       0.57092564       0.53207252       0.54120502 </v>
    <v>       0.48892417       0.41277091       0.49555019 </v>
    <v>       0.51576178       0.64857598       0.50569901 </v>
    <v>       0.37862688       0.44891377       0.42922650 </v>
    <v>       0.40437049       0.55864067       0.51845726 </v>
    <v>       0.61134602       0.49355774       0.31702970 </v>
    <v>       0.39265249       0.50274523       0.68527054 </v>
   </varray>
  </structure>
  <varray name="forces" >
   <v>      -0.25456671      -0.46833556       0.12073963 </v>
   <v>      -0.07509635       0.27412527      -0.55279305 </v>
   <v>      -0.05366066      -0.05642322       0.27959579 </v>
   <v>       0.46777232       0.27683198       0.00653121 </v>
   <v>       0.19358019      -0.08942304      -0.17323595 </v>
   <v>      -0.02788344      -0.45822869      -0.26989932 </v>
   <v>       0.39445200      -0.36236795       0.23358293 </v>
   <v>       0.23643882       0.27863267       0.39390644 </v>
   <v>       0.11899406      -0.08730379       0.05302575 </v>
   <v>       0.09639357      -0.09122849       0.07229407 </v>
   <v>      -0.22845351       0.01460396      -0.12939941 </v>
   <v>      -0.05809159       0.24814034      -0.04380310 </v>
   <v>      -0.53983709       0.30391063       0.17250583 </v>
   <v>      -0.07141009       0.10982879      -0.18152557 </v>
   <v>      -0.19863154       0.10723709       0.01847477 </v>
  </varray>
  <varray name="stress" >
   <v>      -0.16683907      -0.13794567      -0.11826362 </v>
   <v>      -0.13794567      -0.31999529      -0.06805112 </v>
   <v>      -0.11826362      -0.06805112      -0.07141686 </v>
  </varray>
  <energy>
   <i name="e_fr_energy">    -27.23400451 </i>
   <i name="e_wo_entrp">    -27.23400451 </i>
   <i name="e_0_energy">      0.00000000 </i>
  </energy>
  <time name="totalsc">    9.23   10.37</time>
 </calculation>
 <calculation>
  <scstep>
   <time name="dav">    1.18    1.18</time>
   <time name="total">    1.48    1.51</time>
   <energy>
    <i name="alphaZ">     23.71601998 </i>
    <i name="ewald">  20731.86800748 </i>
    <i name="hartreedc"> -35608.54798141 </i>
    <i name="XCdc">   -171.90020259 </i>
    <i name="pawpsdc">  16218.76878953 </i>
    <i name="pawaedc"> -15553.40263070 </i>
    <i name="eentropy">      0.00000000 </i>
    <i name="bandstr">  -1225.82260239 </i>
    <i name="atom">  15557.97945130 </i>
    <i name="e_fr_energy">    -27.34114879 </i>
    <i name="e_wo_entrp">    -27.34114879 </i>
    <i name="e_0_energy">    -27.34114879 </i>
   </energy>
  </scstep>
  <scstep>
   <time name="dav">    1.24    1.24</time>
   <time name="total">    1.54    1.55</time>
   <energy>
    <i name="e_fr_energy">    -27.39568196 </i>
    <i name="e_wo_entrp">    -27.39568196 </i>
    <i name="e_0_energy">    -27.39568196 </i>
   </energy>
  </scstep>
  <scstep>
   <time name="dav">    1.23    1.23</time>
   <time name="total">    1.54    1.55</time>
   <energy>
    <i name="e_fr_energy">    -27.39448748 </i>
    <i name="e_wo_entrp">    -27.39448748 </i>
    <i name="e_0_energy">    -27.39448748 </i>
   </energy>
  </scstep>
  <scstep>
   <time name="dav">    1.23    1.23</time>
   <time name="total">    1.54    1.55</time>
   <energy>
    <i name="e_fr_energy">    -27.39334171 </i>
    <i name="e_wo_entrp">    -27.39334171 </i>
    <i name="e_0_energy">    -27.39334171 </i>
   </energy>
  </scstep>
  <scstep>
   <time name="dav">    0.92    0.92</time>
   <time name="total">    1.16    1.18</time>
   <energy>
    <i name="alphaZ">     23.71601998 </i>
    <i name="ewald">  20731.86800748 </i>
    <i name="hartreedc"> -35613.49887305 </i>
    <i name="XCdc">   -171.76469618 </i>
    <i name="pawpsdc">  16124.97927804 </i>
    <i name="pawaedc"> -15458.04163320 </i>
    <i name="eentropy">      0.00000000 </i>
    <i name="bandstr">  -1222.63094840 </i>
    <i name="atom">  15557.97945130 </i>
    <i name="e_fr_energy">    -27.39339403 </i>
    <i name="e_wo_entrp">    -27.39339403 </i>
    <i name="e_0_energy">    -27.39339403 </i>
   </energy>
  </scstep>
  <structure>
   <crystal>
    <varray name="basis" >
     <v>      20.05787700       0.00000000       0.00000000 </v>
     <v>       0.00000000      20.05787700       0.00000000 </v>
     <v>       0.00000000       0.00000000      20.05787700 </v>
    </varray>
    <i name="volume">   8069.65357870 </i>
    <varray name="rec_basis" >
     <v>       0.04985573       0.00000000       0.00000000 </v>
     <v>       0.00000000       0.04985573       0.00000000 </v>
     <v>       0.00000000       0.00000000       0.04985573 </v>
    </varray>
   </crystal>
   <varray name="positions" >
    <v>       0.37074851       0.43837468       0.56765275 </v>
    <v>       0.47114147       0.55672575       0.40373395 </v>
    <v>       0.50068096       0.44858880       0.63315417 </v>
    <v>       0.60156005       0.58711441       0.41511084 </v>
    <v>       0.61599668       0.44365903       0.43876621 </v>
    <v>       0.49608060       0.43350143       0.35634069 </v>
    <v>       0.60806273       0.40021257       0.56651456 </v>
    <v>       0.47635060       0.59225897       0.62654194 </v>
    <v>       0.57139891       0.53191892       0.54142157 </v>
    <v>       0.48914950       0.41234570       0.49572028 </v>
    <v>       0.51506288       0.64896478       0.50530378 </v>
    <v>       0.37816899       0.44959306       0.42893525 </v>
    <v>       0.40233006       0.55987765       0.51894616 </v>
    <v>       0.61123960       0.49383422       0.31638121 </v>
    <v>       0.39202847       0.50303003       0.68547666 </v>
   </varray>
  </structure>
  <varray name="forces" >
   <v>      -0.11337700      -0.25233440       0.01833793 </v>
   <v>       0.02210556       0.14805538      -0.36013849 </v>
   <v>       0.06011651      -0.07013053       0.10971146 </v>
   <v>       0.22292479       0.15665276       0.05133503 </v>
   <v>       0.10991283      -0.10149780       0.00448600 </v>
   <v>      -0.05101387      -0.25238517      -0.10780088 </v>
   <v>       0.16643286      -0.14092325       0.08699277 </v>
   <v>       0.15039644       0.16490838       0.16287680 </v>
   <v>       0.05549342      -0.13137663       0.02201198 </v>
   <v>       0.11687709      -0.02101204       0.08705782 </v>
   <v>      -0.20626365      -0.15484779      -0.11850199 </v>
   <v>       0.07886762       0.25998197       0.03575373 </v>
   <v>      -0.31656401       0.14255120       0.18486672 </v>
   <v>      -0.12215988       0.13535141      -0.11864714 </v>
   <v>      -0.17374871       0.11700649      -0.05834174 </v>
  </varray>
  <varray name="stress" >
   <v>      -0.68294630      -0.14669292      -0.02067290 </v>
   <v>      -0.14669292      -0.80531419      -0.07674537 </v>
   <v>      -0.02067290      -0.07674537      -0.69551762 </v>
  </varray>
  <energy>
   <i name="e_fr_energy">    -27.39339403 </i>
   <i name="e_wo_entrp">    -27.39339403 </i>
   <i name="e_0_energy">      0.00000000 </i>
  </energy>
  <time name="totalsc">    9.22    9.47</time>
 </calculation>
 <calculation>
  <scstep>
   <time name="dav">    1.18    1.18</time>
   <time name="total">    1.49    1.50</time>
   <energy>
    <i name="alphaZ">     23.71601998 </i>
    <i name="ewald">  19943.56675721 </i>
    <i name="hartreedc"> -34830.84360463 </i>
    <i name="XCdc">   -173.03331420 </i>
    <i name="pawpsdc">  16125.91351579 </i>
    <i name="pawaedc"> -15458.98350633 </i>
    <i name="eentropy">      0.00000000 </i>
    <i name="bandstr">  -1215.53595036 </i>
    <i name="atom">  15557.97945130 </i>
    <i name="e_fr_energy">    -27.22063124 </i>
    <i name="e_wo_entrp">    -27.22063124 </i>
    <i name="e_0_energy">    -27.22063124 </i>
   </energy>
  </scstep>
  <scstep>
   <time name="dav">    1.25    1.25</time>
   <time name="total">    1.56    1.57</time>
   <energy>
    <i name="e_fr_energy">    -27.44376841 </i>
    <i name="e_wo_entrp">    -27.44376841 </i>
    <i name="e_0_energy">    -27.44376841 </i>
   </energy>
  </scstep>
  <scstep>
   <time name="dav">    1.26    1.26</time>
   <time name="total">    1.57    1.59</time>
   <energy>
    <i name="e_fr_energy">    -27.44321871 </i>
    <i name="e_wo_entrp">    -27.44321871 </i>
    <i name="e_0_energy">    -27.44321871 </i>
   </energy>
  </scstep>
  <scstep>
   <time name="dav">    1.20    1.20</time>
   <time name="total">    1.50    1.52</time>
   <energy>
    <i name="e_fr_energy">    -27.43665145 </i>
    <i name="e_wo_entrp">    -27.43665145 </i>
    <i name="e_0_energy">    -27.43665145 </i>
   </energy>
  </scstep>
  <scstep>
   <time name="dav">    1.24    1.23</time>
   <time name="total">    1.54    1.56</time>
   <energy>
    <i name="e_fr_energy">    -27.43713033 </i>
    <i name="e_wo_entrp">    -27.43713033 </i>
    <i name="e_0_energy">    -27.43713033 </i>
   </energy>
  </scstep>
  <scstep>
   <time name="dav">    1.24    1.24</time>
   <time name="total">    1.48    1.50</time>
   <energy>
    <i name="alphaZ">     23.71601998 </i>
    <i name="ewald">  19943.56675721 </i>
    <i name="hartreedc"> -34839.80608913 </i>
    <i name="XCdc">   -172.77218455 </i>
    <i name="pawpsdc">  15963.57207261 </i>
    <i name="pawaedc"> -15293.81490951 </i>
    <i name="eentropy">      0.00000000 </i>
    <i name="bandstr">  -1209.87824012 </i>
    <i name="atom">  15557.97945130 </i>
    <i name="e_fr_energy">    -27.43712222 </i>
    <i name="e_wo_entrp">    -27.43712222 </i>
    <i name="e_0_energy">    -27.43712222 </i>
   </energy>
  </scstep>
  <structure>
   <crystal>
    <varray name="basis" >
     <v>      20.05787700       0.00000000       0.00000000 </v>
     <v>       0.00000000      20.05787700       0.00000000 </v>
     <v>       0.00000000       0.00000000      20.05787700 </v>
    </varray>
    <i name="volume">   8069.65357870 </i>
    <varray name="rec_basis" >
     <v>       0.04985573       0.00000000       0.00000000 </v>
     <v>       0.00000000       0.04985573       0.00000000 </v>
     <v>       0.00000000       0.00000000       0.04985573 </v>
    </varray>
   </crystal>
   <varray name="positions" >
    <v>       0.36866682       0.43473131       0.56880746 </v>
    <v>       0.47026441       0.55890874       0.39970861 </v>
    <v>       0.49983878       0.44833881       0.63549088 </v>
    <v>       0.60537094       0.58922820       0.41493150 </v>
    <v>       0.61748116       0.44319813       0.43695470 </v>
    <v>       0.49604157       0.42992528       0.35407652 </v>
    <v>       0.61132173       0.39712473       0.56849974 </v>
    <v>       0.47809428       0.59440532       0.62985231 </v>
    <v>       0.57234546       0.53161174       0.54185469 </v>
    <v>       0.48960016       0.41149529       0.49606044 </v>
    <v>       0.51366508       0.64974237       0.50451333 </v>
    <v>       0.37725320       0.45095163       0.42835275 </v>
    <v>       0.39824922       0.56235162       0.51992396 </v>
    <v>       0.61102677       0.49438718       0.31508422 </v>
    <v>       0.39078042       0.50359964       0.68588888 </v>
   </varray>
  </structure>
  <varray name="forces" >
   <v>       0.09443502       0.09971388      -0.12724463 </v>
   <v>       0.17650677      -0.07370124      -0.04428788 </v>
   <v>       0.22824217      -0.06979690      -0.18292942 </v>
   <v>      -0.15533722      -0.05003950       0.11374799 </v>
   <v>      -0.03041818      -0.09645246       0.26999152 </v>
   <v>      -0.07006566       0.04816566       0.15548015 </v>
   <v>      -0.22264909       0.22209146      -0.13404236 </v>
   <v>       0.00712953      -0.02538605      -0.20080701 </v>
   <v>      -0.05616588      -0.18613760      -0.03423343 </v>
   <v>       0.14172358       0.10952950       0.10001877 </v>
   <v>      -0.15390275      -0.44444123      -0.09643627 </v>
   <v>       0.32744595       0.26592800       0.18046696 </v>
   <v>       0.04082748      -0.10940239       0.19972492 </v>
   <v>      -0.21206882       0.17095110       0.00684864 </v>
   <v>      -0.11570291       0.13897775      -0.20629794 </v>
  </varray>
  <varray name="stress" >
   <v>      -1.55324987      -0.15671253       0.12650768 </v>
   <v>      -0.15671253      -1.59746962      -0.09091395 </v>
   <v>       0.12650768      -0.09091394      -1.72155278 </v>
  </varray>
  <energy>
   <i name="e_fr_energy">    -27.43712222 </i>
   <i name="e_wo_entrp">    -27.43712222 </i>
   <i name="e_0_energy">      0.00000000 </i>
  </energy>
  <time name="totalsc">   11.10   11.25</time>
 </calculation>
 <calculation>
  <scstep>
   <time name="dav">    1.18    1.18</time>
   <time name="total">    1.49    1.50</time>
   <energy>
    <i name="alphaZ">     23.71601998 </i>
    <i name="ewald">  20207.13001877 </i>
    <i name="hartreedc"> -35101.85295673 </i>
    <i name="XCdc">   -172.34614961 </i>
    <i name="pawpsdc">  15965.70409370 </i>
    <i name="pawaedc"> -15295.94187495 </i>
    <i name="eentropy">      0.00000000 </i>
    <i name="bandstr">  -1211.82131136 </i>
    <i name="atom">  15557.97945130 </i>
    <i name="e_fr_energy">    -27.43270889 </i>
    <i name="e_wo_entrp">    -27.43270889 </i>
    <i name="e_0_energy">    -27.43270889 </i>
   </energy>
  </scstep>
  <scstep>
   <time name="dav">    1.26    1.26</time>
   <time name="total">    1.57    1.57</time>
   <energy>
    <i name="e_fr_energy">    -27.45905430 </i>
    <i name="e_wo_entrp">    -27.45905430 </i>
    <i name="e_0_energy">    -27.45905430 </i>
   </energy>
  </scstep>
  <scstep>
   <time name="dav">    1.23    1.23</time>
   <time name="total">    1.54    1.55</time>
   <energy>
    <i name="e_fr_energy">    -27.45848900 </i>
    <i name="e_wo_entrp">    -27.45848900 </i>
    <i name="e_0_energy">    -27.45848900 </i>
   </energy>
  </scstep>
  <scstep>
   <time name="dav">    1.20    1.20</time>
   <time name="total">    1.51    1.52</time>
   <energy>
    <i name="e_fr_energy">    -27.45841615 </i>
    <i name="e_wo_entrp">    -27.45841615 </i>
    <i name="e_0_energy">    -27.45841615 </i>
   </energy>
  </scstep>
  <scstep>
   <time name="dav">    0.94    0.94</time>
   <time name="total">    1.18    1.18</time>
   <energy>
    <i name="alphaZ">     23.71601998 </i>
    <i name="ewald">  20207.13001877 </i>
    <i name="hartreedc"> -35098.90601644 </i>
    <i name="XCdc">   -172.44041951 </i>
    <i name="pawpsdc">  16019.13908040 </i>
    <i name="pawaedc"> -15350.29527064 </i>
    <i name="eentropy">      0.00000000 </i>
    <i name="bandstr">  -1213.78130575 </i>
    <i name="atom">  15557.97945130 </i>
    <i name="e_fr_energy">    -27.45844188 </i>
    <i name="e_wo_entrp">    -27.45844188 </i>
    <i name="e_0_energy">    -27.45844188 </i>
   </energy>
  </scstep>
  <structure>
   <crystal>
    <varray name="basis" >
     <v>      20.05787700       0.00000000       0.00000000 </v>
     <v>       0.00000000      20.05787700       0.00000000 </v>
     <v>       0.00000000       0.00000000      20.05787700 </v>
    </varray>
    <i name="volume">   8069.65357870 </i>
    <varray name="rec_basis" >
     <v>       0.04985573       0.00000000       0.00000000 </v>
     <v>       0.00000000       0.04985573       0.00000000 </v>
     <v>       0.00000000       0.00000000       0.04985573 </v>
    </varray>
   </crystal>
   <varray name="positions" >
    <v>       0.36937025       0.43596246       0.56841727 </v>
    <v>       0.47056078       0.55817108       0.40106883 </v>
    <v>       0.50012336       0.44842329       0.63470127 </v>
    <v>       0.60408319       0.58851392       0.41499210 </v>
    <v>       0.61697953       0.44335387       0.43756684 </v>
    <v>       0.49605476       0.43113371       0.35484161 </v>
    <v>       0.61022047       0.39816815       0.56782892 </v>
    <v>       0.47750507       0.59368004       0.62873369 </v>
    <v>       0.57202561       0.53171554       0.54170833 </v>
    <v>       0.48944787       0.41178266       0.49594550 </v>
    <v>       0.51413741       0.64947961       0.50478043 </v>
    <v>       0.37756266       0.45049255       0.42854958 </v>
    <v>       0.39962819       0.56151563       0.51959355 </v>
    <v>       0.61109869       0.49420033       0.31552249 </v>
    <v>       0.39120215       0.50340716       0.68574958 </v>
   </varray>
  </structure>
  <varray name="forces" >
   <v>       0.03408832      -0.01077727      -0.08600156 </v>
   <v>       0.13408691      -0.00460002      -0.13727348 </v>
   <v>       0.17948014      -0.07005448      -0.09465310 </v>
   <v>      -0.05009355       0.01424623       0.09695882 </v>
   <v>       0.00861534      -0.09869973       0.19311327 </v>
   <v>      -0.06522197      -0.04822216       0.07482514 </v>
   <v>      -0.10607009       0.11195870      -0.06716176 </v>
   <v>       0.05252060       0.03747704      -0.09758824 </v>
   <v>      -0.02231830      -0.17133760      -0.01765076 </v>
   <v>       0.13634925       0.07204002       0.09770584 </v>
   <v>      -0.17105047      -0.35600152      -0.10399911 </v>
   <v>       0.25130352       0.26747276       0.13565235 </v>
   <v>      -0.06291375      -0.03795177       0.19832308 </v>
   <v>      -0.18319517       0.16157669      -0.03356449 </v>
   <v>      -0.13558078       0.13287311      -0.15868599 </v>
  </varray>
  <varray name="stress" >
   <v>      -1.23660490      -0.15744902       0.08990336 </v>
   <v>      -0.15744902      -1.30896044      -0.08899700 </v>
   <v>       0.08990337      -0.08899699      -1.36762417 </v>
  </varray>
  <energy>
   <i name="e_fr_energy">    -27.45844188 </i>
   <i name="e_wo_entrp">    -27.45844188 </i>
   <i name="e_0_energy">      0.00000000 </i>
  </energy>
  <time name="totalsc">    9.24    9.54</time>
 </calculation>
 <calculation>
  <scstep>
   <time name="dav">    1.20    1.20</time>
   <time name="total">    1.51    1.90</time>
   <energy>
    <i name="alphaZ">     23.71601998 </i>
    <i name="ewald">  20214.90560782 </i>
    <i name="hartreedc"> -35106.92661522 </i>
    <i name="XCdc">   -172.43514901 </i>
    <i name="pawpsdc">  16018.33919103 </i>
    <i name="pawaedc"> -15349.48674718 </i>
    <i name="eentropy">      0.00000000 </i>
    <i name="bandstr">  -1213.57429342 </i>
    <i name="atom">  15557.97945130 </i>
    <i name="e_fr_energy">    -27.48253469 </i>
    <i name="e_wo_entrp">    -27.48253469 </i>
    <i name="e_0_energy">    -27.48253469 </i>
   </energy>
  </scstep>
  <scstep>
   <time name="dav">    1.22    1.22</time>
   <time name="total">    1.53    1.53</time>
   <energy>
    <i name="e_fr_energy">    -27.48765404 </i>
    <i name="e_wo_entrp">    -27.48765404 </i>
    <i name="e_0_energy">    -27.48765404 </i>
   </energy>
  </scstep>
  <scstep>
   <time name="dav">    1.26    1.26</time>
   <time name="total">    1.50    1.50</time>
   <energy>
    <i name="alphaZ">     23.71601998 </i>
    <i name="ewald">  20214.90560782 </i>
    <i name="hartreedc"> -35106.92553286 </i>
    <i name="XCdc">   -172.43813981 </i>
    <i name="pawpsdc">  16018.34474323 </i>
    <i name="pawaedc"> -15349.49450909 </i>
    <i name="eentropy">      0.00000000 </i>
    <i name="bandstr">  -1213.57526681 </i>
    <i name="atom">  15557.97945130 </i>
    <i name="e_fr_energy">    -27.48762623 </i>
    <i name="e_wo_entrp">    -27.48762623 </i>
    <i name="e_0_energy">    -27.48762623 </i>
   </energy>
  </scstep>
  <structure>
   <crystal>
    <varray name="basis" >
     <v>      20.05787700       0.00000000       0.00000000 </v>
     <v>       0.00000000      20.05787700       0.00000000 </v>
     <v>       0.00000000       0.00000000      20.05787700 </v>
    </varray>
    <i name="volume">   8069.65357870 </i>
    <varray name="rec_basis" >
     <v>       0.04985573       0.00000000       0.00000000 </v>
     <v>       0.00000000       0.04985573       0.00000000 </v>
     <v>       0.00000000       0.00000000       0.04985573 </v>
    </varray>
   </crystal>
   <varray name="positions" >
    <v>       0.36931192       0.43571164       0.56830798 </v>
    <v>       0.47078897       0.55829801       0.40052704 </v>
    <v>       0.50044958       0.44825973       0.63464771 </v>
    <v>       0.60421597       0.58867631       0.41518558 </v>
    <v>       0.61709065       0.44311664       0.43786116 </v>
    <v>       0.49591462       0.43080804       0.35485786 </v>
    <v>       0.61020053       0.39821124       0.56781139 </v>
    <v>       0.47772510       0.59389352       0.62873487 </v>
    <v>       0.57203774       0.53133457       0.54169818 </v>
    <v>       0.48976395       0.41188152       0.49617307 </v>
    <v>       0.51368879       0.64877667       0.50451138 </v>
    <v>       0.37803590       0.45114229       0.42879952 </v>
    <v>       0.39923992       0.56159036       0.52007347 </v>
    <v>       0.61069859       0.49457608       0.31537044 </v>
    <v>       0.39083779       0.50372334       0.68544036 </v>
   </varray>
  </structure>
  <varray name="forces" >
   <v>       0.04404006      -0.00820243      -0.07178618 </v>
   <v>       0.11461015      -0.01358476      -0.10459125 </v>
   <v>       0.10734998      -0.03576049      -0.05038209 </v>
   <v>      -0.03888283      -0.00569719       0.08800155 </v>
   <v>       0.01188702      -0.06911096       0.10890598 </v>
   <v>      -0.04123411      -0.04247681       0.07745026 </v>
   <v>      -0.07086451       0.07968957      -0.04506473 </v>
   <v>       0.04766502       0.01619757      -0.08277842 </v>
   <v>      -0.01706368      -0.14375259      -0.01445254 </v>
   <v>       0.10936594       0.06049833       0.07929488 </v>
   <v>      -0.16439709      -0.31670944      -0.10087917 </v>
   <v>       0.22385014       0.24817294       0.12156804 </v>
   <v>      -0.04167404      -0.03965102       0.16668898 </v>
   <v>      -0.19589264       0.14914685       0.02317235 </v>
   <v>      -0.08875941       0.12124042      -0.19514765 </v>
  </varray>
  <varray name="stress" >
   <v>      -1.25337571      -0.14479830       0.10728487 </v>
   <v>      -0.14479830      -1.31057714      -0.08213347 </v>
   <v>       0.10728487      -0.08213347      -1.39650729 </v>
  </varray>
  <energy>
   <i name="e_fr_energy">    -27.48762623 </i>
   <i name="e_wo_entrp">    -27.48762623 </i>
   <i name="e_0_energy">      0.00000000 </i>
  </energy>
  <time name="totalsc">    6.51    7.11</time>
 </calculation>
 <calculation>
  <scstep>
   <time name="dav">    1.18    1.19</time>
   <time name="total">    1.49    1.51</time>
   <energy>
    <i name="alphaZ">     23.71601998 </i>
    <i name="ewald">  20237.72494001 </i>
    <i name="hartreedc"> -35130.05948745 </i>
    <i name="XCdc">   -172.41167279 </i>
    <i name="pawpsdc">  16017.80274984 </i>
    <i name="pawaedc"> -15348.95036789 </i>
    <i name="eentropy">      0.00000000 </i>
    <i name="bandstr">  -1213.30589978 </i>
    <i name="atom">  15557.97945130 </i>
    <i name="e_fr_energy">    -27.50426678 </i>
    <i name="e_wo_entrp">    -27.50426678 </i>
    <i name="e_0_energy">    -27.50426678 </i>
   </energy>
  </scstep>
  <scstep>
   <time name="dav">    1.24    1.24</time>
   <time name="total">    1.55    1.56</time>
   <energy>
    <i name="e_fr_energy">    -27.55097214 </i>
    <i name="e_wo_entrp">    -27.55097214 </i>
    <i name="e_0_energy">    -27.55097214 </i>
   </energy>
  </scstep>
  <scstep>
   <time name="dav">    1.26    1.26</time>
   <time name="total">    1.57    1.59</time>
   <energy>
    <i name="e_fr_energy">    -27.55056998 </i>
    <i name="e_wo_entrp">    -27.55056998 </i>
    <i name="e_0_energy">    -27.55056998 </i>
   </energy>
  </scstep>
  <scstep>
   <time name="dav">    1.22    1.23</time>
   <time name="total">    1.53    1.54</time>
   <energy>
    <i name="e_fr_energy">    -27.54960190 </i>
    <i name="e_wo_entrp">    -27.54960190 </i>
    <i name="e_0_energy">    -27.54960190 </i>
   </energy>
  </scstep>
  <scstep>
   <time name="dav">    1.23    1.23</time>
   <time name="total">    1.47    1.47</time>
   <energy>
    <i name="alphaZ">     23.71601998 </i>
    <i name="ewald">  20237.72494001 </i>
    <i name="hartreedc"> -35129.80096076 </i>
    <i name="XCdc">   -172.42342605 </i>
    <i name="pawpsdc">  16019.30095620 </i>
    <i name="pawaedc"> -15350.46933103 </i>
    <i name="eentropy">      0.00000000 </i>
    <i name="bandstr">  -1213.57734528 </i>
    <i name="atom">  15557.97945130 </i>
    <i name="e_fr_energy">    -27.54969562 </i>
    <i name="e_wo_entrp">    -27.54969562 </i>
    <i name="e_0_energy">    -27.54969562 </i>
   </energy>
  </scstep>
  <structure>
   <crystal>
    <varray name="basis" >
     <v>      20.05787700       0.00000000       0.00000000 </v>
     <v>       0.00000000      20.05787700       0.00000000 </v>
     <v>       0.00000000       0.00000000      20.05787700 </v>
    </varray>
    <i name="volume">   8069.65357870 </i>
    <varray name="rec_basis" >
     <v>       0.04985573       0.00000000       0.00000000 </v>
     <v>       0.00000000       0.04985573       0.00000000 </v>
     <v>       0.00000000       0.00000000       0.04985573 </v>
    </varray>
   </crystal>
   <varray name="positions" >
    <v>       0.36913691       0.43495920       0.56798010 </v>
    <v>       0.47147355       0.55867882       0.39890167 </v>
    <v>       0.50142822       0.44776908       0.63448700 </v>
    <v>       0.60461433       0.58916349       0.41576602 </v>
    <v>       0.61742398       0.44240495       0.43874412 </v>
    <v>       0.49549418       0.42983106       0.35490660 </v>
    <v>       0.61014070       0.39834051       0.56775879 </v>
    <v>       0.47838520       0.59453395       0.62873841 </v>
    <v>       0.57207413       0.53019167       0.54166772 </v>
    <v>       0.49071219       0.41217811       0.49685580 </v>
    <v>       0.51234290       0.64666786       0.50370424 </v>
    <v>       0.37945563       0.45309153       0.42954932 </v>
    <v>       0.39807511       0.56181457       0.52151323 </v>
    <v>       0.60949830       0.49570331       0.31491429 </v>
    <v>       0.38974468       0.50467190       0.68451269 </v>
   </varray>
  </structure>
  <varray name="forces" >
   <v>       0.07386115       0.00677897      -0.03514348 </v>
   <v>       0.07794160      -0.04914562      -0.03935502 </v>
   <v>      -0.08619759       0.05539888       0.06635177 </v>
   <v>      -0.01202564      -0.06683216       0.06288702 </v>
   <v>       0.01860911       0.00944883      -0.11440039 </v>
   <v>       0.02345894      -0.01429474       0.08898198 </v>
   <v>       0.03221692      -0.01458168       0.02041816 </v>
   <v>       0.03018013      -0.05045882      -0.04721303 </v>
   <v>      -0.00328390      -0.07274411      -0.00487694 </v>
   <v>       0.03610273       0.02696437       0.03073746 </v>
   <v>      -0.14764439      -0.22422853      -0.09046600 </v>
   <v>       0.16528562       0.21193998       0.09237901 </v>
   <v>       0.00836735      -0.05005486       0.10270417 </v>
   <v>      -0.24274704       0.12847579       0.16758779 </v>
   <v>       0.02587501       0.10333369      -0.30059252 </v>
  </varray>
  <varray name="stress" >
   <v>      -1.26442350      -0.12047601       0.14220445 </v>
   <v>      -0.12047600      -1.28323970      -0.06781603 </v>
   <v>       0.14220445      -0.06781604      -1.42423487 </v>
  </varray>
  <energy>
   <i name="e_fr_energy">    -27.54969562 </i>
   <i name="e_wo_entrp">    -27.54969562 </i>
   <i name="e_0_energy">      0.00000000 </i>
  </energy>
  <time name="totalsc">    9.58    9.64</time>
 </calculation>
 <calculation>
  <scstep>
   <time name="dav">    1.19    1.19</time>
   <time name="total">    1.50    1.51</time>
   <energy>
    <i name="alphaZ">     23.71601998 </i>
    <i name="ewald">  20280.68798172 </i>
    <i name="hartreedc"> -35173.19647623 </i>
    <i name="XCdc">   -172.33244320 </i>
    <i name="pawpsdc">  16019.20000975 </i>
    <i name="pawaedc"> -15350.36604412 </i>
    <i name="eentropy">      0.00000000 </i>
    <i name="bandstr">  -1213.06894354 </i>
    <i name="atom">  15557.97945130 </i>
    <i name="e_fr_energy">    -27.38044434 </i>
    <i name="e_wo_entrp">    -27.38044434 </i>
    <i name="e_0_energy">    -27.38044434 </i>
   </energy>
  </scstep>
  <scstep>
   <time name="dav">    1.24    1.24</time>
   <time name="total">    1.55    1.55</time>
   <energy>
    <i name="e_fr_energy">    -27.58151100 </i>
    <i name="e_wo_entrp">    -27.58151100 </i>
    <i name="e_0_energy">    -27.58151100 </i>
   </energy>
  </scstep>
  <scstep>
   <time name="dav">    1.28    1.28</time>
   <time name="total">    1.59    1.59</time>
   <energy>
    <i name="e_fr_energy">    -27.58083015 </i>
    <i name="e_wo_entrp">    -27.58083015 </i>
    <i name="e_0_energy">    -27.58083015 </i>
   </energy>
  </scstep>
  <scstep>
   <time name="dav">    1.23    1.23</time>
   <time name="total">    1.54    1.55</time>
   <energy>
    <i name="e_fr_energy">    -27.57777268 </i>
    <i name="e_wo_entrp">    -27.57777268 </i>
    <i name="e_0_energy">    -27.57777268 </i>
   </energy>
  </scstep>
  <scstep>
   <time name="dav">    1.23    1.23</time>
   <time name="total">    1.54    1.55</time>
   <energy>
    <i name="e_fr_energy">    -27.57792389 </i>
    <i name="e_wo_entrp">    -27.57792389 </i>
    <i name="e_0_energy">    -27.57792389 </i>
   </energy>
  </scstep>
  <scstep>
   <time name="dav">    0.98    0.98</time>
   <time name="total">    1.29    1.29</time>
   <energy>
    <i name="e_fr_energy">    -27.57810696 </i>
    <i name="e_wo_entrp">    -27.57810696 </i>
    <i name="e_0_energy">    -27.57810696 </i>
   </energy>
  </scstep>
  <scstep>
   <time name="dav">    0.94    0.94</time>
   <time name="total">    1.24    1.37</time>
   <energy>
    <i name="e_fr_energy">    -27.57837582 </i>
    <i name="e_wo_entrp">    -27.57837582 </i>
    <i name="e_0_energy">    -27.57837582 </i>
   </energy>
  </scstep>
  <scstep>
   <time name="dav">    0.95    0.95</time>
   <time name="total">    1.26    1.26</time>
   <energy>
    <i name="e_fr_energy">    -27.57854832 </i>
    <i name="e_wo_entrp">    -27.57854832 </i>
    <i name="e_0_energy">    -27.57854832 </i>
   </energy>
  </scstep>
  <scstep>
   <time name="dav">    0.90    0.90</time>
   <time name="total">    1.21    1.23</time>
   <energy>
    <i name="e_fr_energy">    -27.57867336 </i>
    <i name="e_wo_entrp">    -27.57867336 </i>
    <i name="e_0_energy">    -27.57867336 </i>
   </energy>
  </scstep>
  <scstep>
   <time name="dav">    0.93    0.93</time>
   <time name="total">    1.24    1.24</time>
   <energy>
    <i name="e_fr_energy">    -27.57879739 </i>
    <i name="e_wo_entrp">    -27.57879739 </i>
    <i name="e_0_energy">    -27.57879739 </i>
   </energy>
  </scstep>
  <scstep>
   <time name="dav">    0.95    0.95</time>
   <time name="total">    1.26    1.27</time>
   <energy>
    <i name="e_fr_energy">    -27.57890910 </i>
    <i name="e_wo_entrp">    -27.57890910 </i>
    <i name="e_0_energy">    -27.57890910 </i>
   </energy>
  </scstep>
  <scstep>
   <time name="dav">    0.93    0.93</time>
   <time name="total">    1.16    1.27</time>
   <energy>
    <i name="alphaZ">     23.71601998 </i>
    <i name="ewald">  20280.68798172 </i>
    <i name="hartreedc"> -35172.15575894 </i>
    <i name="XCdc">   -172.36337074 </i>
    <i name="pawpsdc">  16031.04914049 </i>
    <i name="pawaedc"> -15362.35533419 </i>
    <i name="eentropy">     -0.00000000 </i>
    <i name="bandstr">  -1214.13710527 </i>
    <i name="atom">  15557.97945130 </i>
    <i name="e_fr_energy">    -27.57897566 </i>
    <i name="e_wo_entrp">    -27.57897566 </i>
    <i name="e_0_energy">    -27.57897566 </i>
   </energy>
  </scstep>
  <structure>
   <crystal>
    <varray name="basis" >
     <v>      20.05787700       0.00000000       0.00000000 </v>
     <v>       0.00000000      20.05787700       0.00000000 </v>
     <v>       0.00000000       0.00000000      20.05787700 </v>
    </varray>
    <i name="volume">   8069.65357870 </i>
    <varray name="rec_basis" >
     <v>       0.04985573       0.00000000       0.00000000 </v>
     <v>       0.00000000       0.04985573       0.00000000 </v>
     <v>       0.00000000       0.00000000       0.04985573 </v>
    </varray>
   </crystal>
   <varray name="positions" >
    <v>       0.36878689       0.43345432       0.56732435 </v>
    <v>       0.47284271       0.55944043       0.39565092 </v>
    <v>       0.50338549       0.44678776       0.63416559 </v>
    <v>       0.60541104       0.59013785       0.41692689 </v>
    <v>       0.61809066       0.44098156       0.44051004 </v>
    <v>       0.49465332       0.42787708       0.35500409 </v>
    <v>       0.61002106       0.39859903       0.56765360 </v>
    <v>       0.47970539       0.59581481       0.62874551 </v>
    <v>       0.57214691       0.52790587       0.54160679 </v>
    <v>       0.49260866       0.41277129       0.49822126 </v>
    <v>       0.50965112       0.64245023       0.50208994 </v>
    <v>       0.38229509       0.45699001       0.43104894 </v>
    <v>       0.39574547       0.56226297       0.52439274 </v>
    <v>       0.60709773       0.49795777       0.31400200 </v>
    <v>       0.38755846       0.50656901       0.68265734 </v>
   </varray>
  </structure>
  <varray name="forces" >
   <v>       0.12747075       0.03405614       0.03366598 </v>
   <v>       0.06203020      -0.13218111      -0.02864152 </v>
   <v>      -0.43766146       0.20773521       0.30306712 </v>
   <v>       0.03467848      -0.18255222       0.01499451 </v>
   <v>       0.04345067       0.15361927      -0.53903702 </v>
   <v>       0.14108514       0.05843464       0.10816653 </v>
   <v>       0.27873628      -0.24626160       0.18039514 </v>
   <v>       0.00032896      -0.18113772       0.02052555 </v>
   <v>       0.02049567       0.15447424       0.01001436 </v>
   <v>      -0.16396630      -0.05443543      -0.10624259 </v>
   <v>      -0.09851551      -0.05266303      -0.04728589 </v>
   <v>       0.06516689       0.15927431       0.03604969 </v>
   <v>       0.04537999      -0.07918613       0.07098983 </v>
   <v>      -0.33136343       0.06706010       0.39947953 </v>
   <v>       0.21268366       0.09376333      -0.45614121 </v>
  </varray>
  <varray name="stress" >
   <v>      -1.22987712      -0.08017153       0.17111170 </v>
   <v>      -0.08017153      -1.19013691      -0.03533843 </v>
   <v>       0.17111170      -0.03533844      -1.36869832 </v>
  </varray>
  <energy>
   <i name="e_fr_energy">    -27.57897566 </i>
   <i name="e_wo_entrp">    -27.57897566 </i>
   <i name="e_0_energy">     -0.00000000 </i>
  </energy>
  <time name="totalsc">   18.36   18.88</time>
 </calculation>
 <calculation>
  <scstep>
   <time name="dav">    1.20    1.20</time>
   <time name="total">    1.51    1.52</time>
   <energy>
    <i name="alphaZ">     23.71601998 </i>
    <i name="ewald">  20304.51073395 </i>
    <i name="hartreedc"> -35195.95295298 </i>
    <i name="XCdc">   -172.32445648 </i>
    <i name="pawpsdc">  16031.05557637 </i>
    <i name="pawaedc"> -15362.36190468 </i>
    <i name="eentropy">      0.00000000 </i>
    <i name="bandstr">  -1214.21914334 </i>
    <i name="atom">  15557.97945130 </i>
    <i name="e_fr_energy">    -27.59667588 </i>
    <i name="e_wo_entrp">    -27.59667588 </i>
    <i name="e_0_energy">    -27.59667588 </i>
   </energy>
  </scstep>
  <scstep>
   <time name="dav">    1.25    1.25</time>
   <time name="total">    1.56    1.56</time>
   <energy>
    <i name="e_fr_energy">    -27.60287712 </i>
    <i name="e_wo_entrp">    -27.60287712 </i>
    <i name="e_0_energy">    -27.60287712 </i>
   </energy>
  </scstep>
  <scstep>
   <time name="dav">    1.26    1.26</time>
   <time name="total">    1.50    1.50</time>
   <energy>
    <i name="alphaZ">     23.71601998 </i>
    <i name="ewald">  20304.51073395 </i>
    <i name="hartreedc"> -35195.82505970 </i>
    <i name="XCdc">   -172.33089456 </i>
    <i name="pawpsdc">  16034.47801693 </i>
    <i name="pawaedc"> -15365.82579930 </i>
    <i name="eentropy">      0.00000000 </i>
    <i name="bandstr">  -1214.30535069 </i>
    <i name="atom">  15557.97945130 </i>
    <i name="e_fr_energy">    -27.60288207 </i>
    <i name="e_wo_entrp">    -27.60288207 </i>
    <i name="e_0_energy">    -27.60288207 </i>
   </energy>
  </scstep>
  <structure>
   <crystal>
    <varray name="basis" >
     <v>      20.05787700       0.00000000       0.00000000 </v>
     <v>       0.00000000      20.05787700       0.00000000 </v>
     <v>       0.00000000       0.00000000      20.05787700 </v>
    </varray>
    <i name="volume">   8069.65357870 </i>
    <varray name="rec_basis" >
     <v>       0.04985573       0.00000000       0.00000000 </v>
     <v>       0.00000000       0.04985573       0.00000000 </v>
     <v>       0.00000000       0.00000000       0.04985573 </v>
    </varray>
   </crystal>
   <varray name="positions" >
    <v>       0.36884196       0.43324222       0.56724837 </v>
    <v>       0.47311690       0.55944739       0.39510351 </v>
    <v>       0.50331782       0.44681148       0.63437860 </v>
    <v>       0.60556936       0.59013501       0.41712654 </v>
    <v>       0.61823574       0.44088697       0.44032308 </v>
    <v>       0.49464140       0.42761411       0.35511421 </v>
    <v>       0.61024525       0.39842552       0.56779424 </v>
    <v>       0.47991783       0.59586246       0.62876457 </v>
    <v>       0.57217650       0.52767344       0.54160575 </v>
    <v>       0.49277023       0.41281908       0.49834790 </v>
    <v>       0.50913252       0.64172646       0.50178923 </v>
    <v>       0.38280831       0.45775559       0.43132141 </v>
    <v>       0.39541073       0.56226588       0.52491747 </v>
    <v>       0.60642258       0.49837863       0.31420425 </v>
    <v>       0.38739287       0.50695576       0.68196084 </v>
   </varray>
  </structure>
  <varray name="forces" >
   <v>       0.12606892       0.02029778       0.03158038 </v>
   <v>       0.06514857      -0.13327420      -0.04567681 </v>
   <v>      -0.41308978       0.19732919       0.28420515 </v>
   <v>       0.04314372      -0.17574264       0.02378578 </v>
   <v>       0.03645633       0.14563429      -0.50479106 </v>
   <v>       0.13913745       0.05101904       0.10846847 </v>
   <v>       0.25408542      -0.22831298       0.16692074 </v>
   <v>       0.01243741      -0.17625461       0.02535019 </v>
   <v>       0.02988791       0.14639325       0.01646135 </v>
   <v>      -0.14815743      -0.06603019      -0.09899529 </v>
   <v>      -0.08887572      -0.02333529      -0.04080135 </v>
   <v>       0.03939113       0.14883899       0.02231293 </v>
   <v>       0.03722075      -0.07511085       0.07702835 </v>
   <v>      -0.33205179       0.06497656       0.37884982 </v>
   <v>       0.19919712       0.10357165      -0.44469865 </v>
  </varray>
  <varray name="stress" >
   <v>      -1.21683466      -0.06205156       0.17841762 </v>
   <v>      -0.06205156      -1.15168840      -0.02442930 </v>
   <v>       0.17841763      -0.02442930      -1.36011977 </v>
  </varray>
  <energy>
   <i name="e_fr_energy">    -27.60288207 </i>
   <i name="e_wo_entrp">    -27.60288207 </i>
   <i name="e_0_energy">      0.00000000 </i>
  </energy>
  <time name="totalsc">    6.53    6.60</time>
 </calculation>
 <calculation>
  <scstep>
   <time name="dav">    1.19    1.19</time>
   <time name="total">    1.50    1.51</time>
   <energy>
    <i name="alphaZ">     23.71601998 </i>
    <i name="ewald">  20374.56991179 </i>
    <i name="hartreedc"> -35265.91102546 </i>
    <i name="XCdc">   -172.20922012 </i>
    <i name="pawpsdc">  16034.94989478 </i>
    <i name="pawaedc"> -15366.31115485 </i>
    <i name="eentropy">      0.00000000 </i>
    <i name="bandstr">  -1214.39659481 </i>
    <i name="atom">  15557.97945130 </i>
    <i name="e_fr_energy">    -27.61271739 </i>
    <i name="e_wo_entrp">    -27.61271739 </i>
    <i name="e_0_energy">    -27.61271739 </i>
   </energy>
  </scstep>
  <scstep>
   <time name="dav">    1.22    1.22</time>
   <time name="total">    1.52    1.53</time>
   <energy>
    <i name="e_fr_energy">    -27.66948014 </i>
    <i name="e_wo_entrp">    -27.66948014 </i>
    <i name="e_0_energy">    -27.66948014 </i>
   </energy>
  </scstep>
  <scstep>
   <time name="dav">    1.28    1.28</time>
   <time name="total">    1.59    1.61</time>
   <energy>
    <i name="e_fr_energy">    -27.66909696 </i>
    <i name="e_wo_entrp">    -27.66909696 </i>
    <i name="e_0_energy">    -27.66909696 </i>
   </energy>
  </scstep>
  <scstep>
   <time name="dav">    1.25    1.25</time>
   <time name="total">    1.56    1.58</time>
   <energy>
    <i name="e_fr_energy">    -27.66770734 </i>
    <i name="e_wo_entrp">    -27.66770734 </i>
    <i name="e_0_energy">    -27.66770734 </i>
   </energy>
  </scstep>
  <scstep>
   <time name="dav">    1.26    1.27</time>
   <time name="total">    1.58    1.59</time>
   <energy>
    <i name="e_fr_energy">    -27.66762244 </i>
    <i name="e_wo_entrp">    -27.66762244 </i>
    <i name="e_0_energy">    -27.66762244 </i>
   </energy>
  </scstep>
  <scstep>
   <time name="dav">    0.92    0.92</time>
   <time name="total">    1.16    1.19</time>
   <energy>
    <i name="alphaZ">     23.71601998 </i>
    <i name="ewald">  20374.56991179 </i>
    <i name="hartreedc"> -35264.88177659 </i>
    <i name="XCdc">   -172.23887103 </i>
    <i name="pawpsdc">  16049.95102363 </i>
    <i name="pawaedc"> -15381.55716882 </i>
    <i name="eentropy">      0.00000000 </i>
    <i name="bandstr">  -1215.20630141 </i>
    <i name="atom">  15557.97945130 </i>
    <i name="e_fr_energy">    -27.66771115 </i>
    <i name="e_wo_entrp">    -27.66771115 </i>
    <i name="e_0_energy">    -27.66771115 </i>
   </energy>
  </scstep>
  <structure>
   <crystal>
    <varray name="basis" >
     <v>      20.05787700       0.00000000       0.00000000 </v>
     <v>       0.00000000      20.05787700       0.00000000 </v>
     <v>       0.00000000       0.00000000      20.05787700 </v>
    </varray>
    <i name="volume">   8069.65357870 </i>
    <varray name="rec_basis" >
     <v>       0.04985573       0.00000000       0.00000000 </v>
     <v>       0.00000000       0.04985573       0.00000000 </v>
     <v>       0.00000000       0.00000000       0.04985573 </v>
    </varray>
   </crystal>
   <varray name="positions" >
    <v>       0.36900718       0.43260594       0.56702043 </v>
    <v>       0.47393948       0.55946826       0.39346129 </v>
    <v>       0.50311481       0.44688263       0.63501765 </v>
    <v>       0.60604431       0.59012648       0.41772549 </v>
    <v>       0.61867097       0.44060322       0.43976223 </v>
    <v>       0.49460565       0.42682518       0.35544459 </v>
    <v>       0.61091782       0.39790498       0.56821614 </v>
[...]
       <r>    -1.3439     0.0000    91.0000 </r>
       <r>    -1.3076     0.0000    91.0000 </r>
       <r>    -1.2713     0.0000    91.0000 </r>
       <r>    -1.2351     0.0000    92.0000 </r>
       <r>    -1.1988     0.0000    92.0000 </r>
       <r>    -1.1625     0.0000    92.0000 </r>
       <r>    -1.1262    27.5692    93.0000 </r>
       <r>    -1.0900     0.0000    93.0000 </r>
       <r>    -1.0537     0.0000    93.0000 </r>
       <r>    -1.0174     0.0000    93.0000 </r>
       <r>    -0.9812     0.0000    94.0000 </r>
       <r>    -0.9449     0.0000    94.0000 </r>
       <r>    -0.9086     0.0000    94.0000 </r>
       <r>    -0.8723     0.0000    94.0000 </r>
       <r>    -0.8361     0.0000    94.0000 </r>
       <r>    -0.7998     0.0000    94.0000 </r>
       <r>    -0.7635     0.0000    94.0000 </r>
       <r>    -0.7273     0.0000    94.0000 </r>
       <r>    -0.6910     0.0000    94.0000 </r>
       <r>    -0.6547     0.0000    94.0000 </r>
       <r>    -0.6184     0.0000    94.0000 </r>
       <r>    -0.5822     0.0000    96.0000 </r>
       <r>    -0.5459     0.0000    97.0000 </r>
       <r>    -0.5096     0.0000    97.0000 </r>
       <r>    -0.4733     0.0000    97.0000 </r>
       <r>    -0.4371     0.0000    97.0000 </r>
       <r>    -0.4008     0.0000    97.0000 </r>
       <r>    -0.3645     0.0000    97.0000 </r>
       <r>    -0.3283     0.0000    97.0000 </r>
       <r>    -0.2920     0.0000    97.0000 </r>
       <r>    -0.2557     0.0000    98.0000 </r>
       <r>    -0.2194     0.0000    98.0000 </r>
       <r>    -0.1832     0.0000    98.0000 </r>
       <r>    -0.1469     0.0000    98.0000 </r>
       <r>    -0.1106     0.0000    98.0000 </r>
       <r>    -0.0744     0.0000    99.0000 </r>
       <r>    -0.0381     0.0000    99.0000 </r>
       <r>    -0.0018     0.0000    99.0000 </r>
       <r>     0.0345     0.0000    99.0000 </r>
       <r>     0.0707     0.0000    99.0000 </r>
       <r>     0.1070     0.0000    99.0000 </r>
       <r>     0.1433     0.0000    99.0000 </r>
       <r>     0.1796     0.0000    99.0000 </r>
       <r>     0.2158     0.0000    99.0000 </r>
       <r>     0.2521     0.0000   101.0000 </r>
       <r>     0.2884     0.0000   102.0000 </r>
       <r>     0.3246     0.0000   102.0000 </r>
       <r>     0.3609     0.0000   102.0000 </r>
       <r>     0.3972     0.0000   103.0000 </r>
       <r>     0.4335     0.0000   104.0000 </r>
       <r>     0.4697     0.0000   104.0000 </r>
       <r>     0.5060     0.0000   104.0000 </r>
       <r>     0.5423     0.0000   105.0000 </r>
       <r>     0.5785     0.0000   105.0000 </r>
       <r>     0.6148     0.0000   105.0000 </r>
       <r>     0.6511     0.0000   106.0000 </r>
       <r>     0.6874     0.0000   107.0000 </r>
       <r>     0.7236     0.0000   108.0000 </r>
       <r>     0.7599     0.0000   108.0000 </r>
       <r>     0.7962     0.0000   108.0000 </r>
       <r>     0.8325     0.0000   108.0000 </r>
       <r>     0.8687     0.0000   108.0000 </r>
       <r>     0.9050     0.0000   108.0000 </r>
       <r>     0.9413     0.0000   108.0000 </r>
       <r>     0.9775     0.0000   108.0000 </r>
       <r>     1.0138     0.0000   108.0000 </r>
       <r>     1.0501     0.0000   108.0000 </r>
       <r>     1.0864     0.0000   108.0000 </r>
       <r>     1.1226     0.0000   108.0000 </r>
       <r>     1.1589     0.0000   108.0000 </r>
       <r>     1.1952     0.0000   108.0000 </r>
       <r>     1.2314     0.0000   108.0000 </r>
      </set>
      <set comment="spin 2">
       <r>    -9.6502     0.0000     0.0000 </r>
       <r>    -9.6139     0.0000     0.0000 </r>
       <r>    -9.5777     0.0000     0.0000 </r>
       <r>    -9.5414     0.0000     0.0000 </r>
       <r>    -9.5051     0.0000     0.0000 </r>
       <r>    -9.4689     0.0000     0.0000 </r>
       <r>    -9.4326     0.0000     0.0000 </r>
       <r>    -9.3963     0.0000     0.0000 </r>
       <r>    -9.3600     0.0000     0.0000 </r>
       <r>    -9.3238     0.0000     0.0000 </r>
       <r>    -9.2875     0.0000     0.0000 </r>
       <r>    -9.2512     0.0000     0.0000 </r>
       <r>    -9.2149     0.0000     0.0000 </r>
       <r>    -9.1787     0.0000     0.0000 </r>
       <r>    -9.1424     0.0000     0.0000 </r>
       <r>    -9.1061     0.0000     1.0000 </r>
       <r>    -9.0699     0.0000     1.0000 </r>
       <r>    -9.0336     0.0000     1.0000 </r>
       <r>    -8.9973     0.0000     1.0000 </r>
       <r>    -8.9610     0.0000     1.0000 </r>
       <r>    -8.9248     0.0000     1.0000 </r>
       <r>    -8.8885     0.0000     2.0000 </r>
       <r>    -8.8522     0.0000     2.0000 </r>
       <r>    -8.8160     0.0000     2.0000 </r>
       <r>    -8.7797     0.0000     3.0000 </r>
       <r>    -8.7434     0.0000     3.0000 </r>
       <r>    -8.7071     0.0000     4.0000 </r>
       <r>    -8.6709     0.0000     6.0000 </r>
       <r>    -8.6346     0.0000     7.0000 </r>
       <r>    -8.5983     0.0000     8.0000 </r>
       <r>    -8.5620     0.0000    11.0000 </r>
       <r>    -8.5258     0.0000    12.0000 </r>
       <r>    -8.4895     0.0000    14.0000 </r>
       <r>    -8.4532     0.0000    14.0000 </r>
       <r>    -8.4170     0.0000    15.0000 </r>
       <r>    -8.3807     0.0000    16.0000 </r>
       <r>    -8.3444     0.0000    17.0000 </r>
       <r>    -8.3081     0.0000    19.0000 </r>
       <r>    -8.2719     0.0000    19.0000 </r>
       <r>    -8.2356     0.0000    20.0000 </r>
       <r>    -8.1993     0.0000    22.0000 </r>
       <r>    -8.1631     0.0000    22.0000 </r>
       <r>    -8.1268     0.0000    23.0000 </r>
       <r>    -8.0905     0.0000    23.0000 </r>
       <r>    -8.0542     0.0000    24.0000 </r>
       <r>    -8.0180     0.0000    26.0000 </r>
       <r>    -7.9817     0.0000    26.0000 </r>
       <r>    -7.9454     0.0000    27.0000 </r>
       <r>    -7.9091     0.0000    27.0000 </r>
       <r>    -7.8729     0.0000    29.0000 </r>
       <r>    -7.8366     0.0000    30.0000 </r>
       <r>    -7.8003     0.0000    31.0000 </r>
       <r>    -7.7641     0.0000    31.0000 </r>
       <r>    -7.7278     0.0000    33.0000 </r>
       <r>    -7.6915     0.0000    33.0000 </r>
       <r>    -7.6552     0.0000    33.0000 </r>
       <r>    -7.6190     0.0000    34.0000 </r>
       <r>    -7.5827     0.0000    35.0000 </r>
       <r>    -7.5464     0.0000    35.0000 </r>
       <r>    -7.5102     0.0000    36.0000 </r>
       <r>    -7.4739     0.0000    37.0000 </r>
       <r>    -7.4376     0.0000    39.0000 </r>
       <r>    -7.4013     0.0000    40.0000 </r>
       <r>    -7.3651     0.3488    40.0127 </r>
       <r>    -7.3288     0.0000    41.0000 </r>
       <r>    -7.2925     0.0000    43.0000 </r>
       <r>    -7.2562     0.0000    44.0000 </r>
       <r>    -7.2200     0.0000    44.0000 </r>
       <r>    -7.1837     0.0000    45.0000 </r>
       <r>    -7.1474     0.0000    46.0000 </r>
       <r>    -7.1112     0.0000    47.0000 </r>
       <r>    -7.0749     0.0000    50.0000 </r>
       <r>    -7.0386     0.0000    52.0000 </r>
       <r>    -7.0023     0.0000    53.0000 </r>
       <r>    -6.9661     0.0000    55.0000 </r>
       <r>    -6.9298     0.0000    56.0000 </r>
       <r>    -6.8935     0.0000    56.0000 </r>
       <r>    -6.8573     0.0000    57.0000 </r>
       <r>    -6.8210    27.5693    59.0000 </r>
       <r>    -6.7847     0.0000    61.0000 </r>
       <r>    -6.7484     0.0000    63.0000 </r>
       <r>    -6.7122     0.0000    64.0000 </r>
       <r>    -6.6759     0.0000    65.0000 </r>
       <r>    -6.6396     0.0000    66.0000 </r>
       <r>    -6.6033     0.0000    68.0000 </r>
       <r>    -6.5671    27.4953    69.9973 </r>
       <r>    -6.5308     0.0000    72.0000 </r>
       <r>    -6.4945     0.0000    72.0000 </r>
       <r>    -6.4583     0.0000    74.0000 </r>
       <r>    -6.4220     0.0000    74.0000 </r>
       <r>    -6.3857     0.0000    75.0000 </r>
       <r>    -6.3494     0.0000    75.0000 </r>
       <r>    -6.3132     0.0000    76.0000 </r>
       <r>    -6.2769     0.0000    77.0000 </r>
       <r>    -6.2406     0.0000    77.0000 </r>
       <r>    -6.2044     0.0000    77.0000 </r>
       <r>    -6.1681     0.0000    77.0000 </r>
       <r>    -6.1318     0.0000    77.0000 </r>
       <r>    -6.0955     0.0000    77.0000 </r>
       <r>    -6.0593     0.0000    77.0000 </r>
       <r>    -6.0230     0.0000    77.0000 </r>
       <r>    -5.9867     0.0000    77.0000 </r>
       <r>    -5.9504     0.0000    77.0000 </r>
       <r>    -5.9142     0.0000    77.0000 </r>
       <r>    -5.8779     0.0000    77.0000 </r>
       <r>    -5.8416     0.0000    77.0000 </r>
       <r>    -5.8054     0.0000    77.0000 </r>
       <r>    -5.7691     0.0000    78.0000 </r>
       <r>    -5.7328     0.0000    78.0000 </r>
       <r>    -5.6965     0.0000    78.0000 </r>
       <r>    -5.6603     0.0000    78.0000 </r>
       <r>    -5.6240     0.0000    78.0000 </r>
       <r>    -5.5877     0.0000    78.0000 </r>
       <r>    -5.5515     0.0000    78.0000 </r>
       <r>    -5.5152     0.0000    79.0000 </r>
       <r>    -5.4789     0.0000    79.0000 </r>
       <r>    -5.4426     0.0000    79.0000 </r>
       <r>    -5.4064     0.0000    79.0000 </r>
       <r>    -5.3701     0.0000    79.0000 </r>
       <r>    -5.3338     0.0000    79.0000 </r>
       <r>    -5.2975     0.0000    79.0000 </r>
       <r>    -5.2613     0.0000    79.0000 </r>
       <r>    -5.2250     0.0000    79.0000 </r>
       <r>    -5.1887     0.0000    79.0000 </r>
       <r>    -5.1525     0.0000    79.0000 </r>
       <r>    -5.1162     0.0000    79.0000 </r>
       <r>    -5.0799     0.0000    79.0000 </r>
       <r>    -5.0436     0.0000    79.0000 </r>
       <r>    -5.0074     0.0000    79.0000 </r>
       <r>    -4.9711     0.0000    79.0000 </r>
       <r>    -4.9348     0.0000    79.0000 </r>
       <r>    -4.8986     0.0000    79.0000 </r>
       <r>    -4.8623     0.0000    79.0000 </r>
       <r>    -4.8260     0.0000    79.0000 </r>
       <r>    -4.7897     0.0000    80.0000 </r>
       <r>    -4.7535     0.0000    80.0000 </r>
       <r>    -4.7172     0.0000    80.0000 </r>
       <r>    -4.6809     0.0000    80.0000 </r>
       <r>    -4.6446     0.0000    80.0000 </r>
       <r>    -4.6084     0.0000    80.0000 </r>
       <r>    -4.5721     0.0000    80.0000 </r>
       <r>    -4.5358     0.0000    80.0000 </r>
       <r>    -4.4996     0.0000    80.0000 </r>
       <r>    -4.4633     0.0000    80.0000 </r>
       <r>    -4.4270     0.0000    80.0000 </r>
       <r>    -4.3907     0.0000    80.0000 </r>
       <r>    -4.3545     0.0000    80.0000 </r>
       <r>    -4.3182     0.0000    80.0000 </r>
       <r>    -4.2819     0.0000    80.0000 </r>
       <r>    -4.2457     0.0000    81.0000 </r>
       <r>    -4.2094     0.0000    81.0000 </r>
       <r>    -4.1731     0.0000    81.0000 </r>
       <r>    -4.1368     0.0000    81.0000 </r>
       <r>    -4.1006     0.0000    81.0000 </r>
       <r>    -4.0643     0.0000    81.0000 </r>
       <r>    -4.0280     0.0000    81.0000 </r>
       <r>    -3.9918     0.0000    81.0000 </r>
       <r>    -3.9555     0.0000    81.0000 </r>
       <r>    -3.9192     0.0000    81.0000 </r>
       <r>    -3.8829     0.0000    82.0000 </r>
       <r>    -3.8467     0.0000    82.0000 </r>
       <r>    -3.8104     0.0000    82.0000 </r>
       <r>    -3.7741     0.0000    82.0000 </r>
       <r>    -3.7378     0.0000    82.0000 </r>
       <r>    -3.7016     0.0000    82.0000 </r>
       <r>    -3.6653     0.0000    82.0000 </r>
       <r>    -3.6290     0.0000    82.0000 </r>
       <r>    -3.5928     0.0000    83.0000 </r>
       <r>    -3.5565     0.0000    83.0000 </r>
       <r>    -3.5202     0.0000    83.0000 </r>
       <r>    -3.4839     0.0000    83.0000 </r>
       <r>    -3.4477     0.0000    83.0000 </r>
       <r>    -3.4114     0.0000    83.0000 </r>
       <r>    -3.3751     0.0000    83.0000 </r>
       <r>    -3.3389     0.0000    83.0000 </r>
       <r>    -3.3026     0.0000    83.0000 </r>
       <r>    -3.2663     0.0000    83.0000 </r>
       <r>    -3.2300     0.0000    83.0000 </r>
       <r>    -3.1938     0.0000    84.0000 </r>
       <r>    -3.1575     0.0000    84.0000 </r>
       <r>    -3.1212     0.0000    84.0000 </r>
       <r>    -3.0849     0.0000    85.0000 </r>
       <r>    -3.0487     0.0000    85.0000 </r>
       <r>    -3.0124     0.0000    85.0000 </r>
       <r>    -2.9761     0.0000    85.0000 </r>
       <r>    -2.9399     0.0000    85.0000 </r>
       <r>    -2.9036     0.0000    85.0000 </r>
       <r>    -2.8673     0.0000    85.0000 </r>
       <r>    -2.8310     0.0000    85.0000 </r>
       <r>    -2.7948     0.0000    85.0000 </r>
       <r>    -2.7585     0.0000    85.0000 </r>
       <r>    -2.7222     0.0000    85.0000 </r>
       <r>    -2.6860     0.0000    85.0000 </r>
       <r>    -2.6497     0.0000    86.0000 </r>
       <r>    -2.6134     0.0000    86.0000 </r>
       <r>    -2.5771     0.0000    86.0000 </r>
       <r>    -2.5409     0.0000    86.0000 </r>
       <r>    -2.5046     0.0000    86.0000 </r>
       <r>    -2.4683     0.0000    86.0000 </r>
       <r>    -2.4320     0.0000    86.0000 </r>
       <r>    -2.3958     0.0000    86.0000 </r>
       <r>    -2.3595     0.0000    86.0000 </r>
       <r>    -2.3232     0.0000    87.0000 </r>
       <r>    -2.2870     0.0000    87.0000 </r>
       <r>    -2.2507     0.0000    87.0000 </r>
       <r>    -2.2144     0.0000    87.0000 </r>
       <r>    -2.1781     0.0000    87.0000 </r>
       <r>    -2.1419     0.0000    87.0000 </r>
       <r>    -2.1056     0.0000    87.0000 </r>
       <r>    -2.0693     0.0000    87.0000 </r>
       <r>    -2.0331     0.0000    88.0000 </r>
       <r>    -1.9968     0.0000    88.0000 </r>
       <r>    -1.9605     0.0000    88.0000 </r>
       <r>    -1.9242     0.0000    88.0000 </r>
       <r>    -1.8880     0.0000    88.0000 </r>
       <r>    -1.8517     0.0000    88.0000 </r>
       <r>    -1.8154     0.0000    88.0000 </r>
       <r>    -1.7791     0.0000    88.0000 </r>
       <r>    -1.7429     0.0000    88.0000 </r>
       <r>    -1.7066     0.0000    89.0000 </r>
       <r>    -1.6703     0.0000    89.0000 </r>
       <r>    -1.6341     0.0000    89.0000 </r>
       <r>    -1.5978     0.0000    89.0000 </r>
       <r>    -1.5615     0.0000    89.0000 </r>
       <r>    -1.5252     0.0000    89.0000 </r>
       <r>    -1.4890     0.0000    89.0000 </r>
       <r>    -1.4527     0.0000    89.0000 </r>
       <r>    -1.4164     0.0000    89.0000 </r>
       <r>    -1.3802     0.0000    90.0000 </r>
       <r>    -1.3439     0.0000    90.0000 </r>
       <r>    -1.3076     0.0000    90.0000 </r>
       <r>    -1.2713     0.0000    90.0000 </r>
       <r>    -1.2351     0.0000    91.0000 </r>
       <r>    -1.1988     0.0000    92.0000 </r>
       <r>    -1.1625     0.0000    92.0000 </r>
       <r>    -1.1262     0.0000    92.0000 </r>
       <r>    -1.0900     0.0000    92.0000 </r>
       <r>    -1.0537     0.0000    93.0000 </r>
       <r>    -1.0174     0.0000    93.0000 </r>
       <r>    -0.9812     0.0000    93.0000 </r>
       <r>    -0.9449     0.0000    93.0000 </r>
       <r>    -0.9086     0.0000    93.0000 </r>
       <r>    -0.8723     0.0000    94.0000 </r>
       <r>    -0.8361     0.0000    94.0000 </r>
       <r>    -0.7998     0.0000    94.0000 </r>
       <r>    -0.7635     0.0000    94.0000 </r>
       <r>    -0.7273     0.0000    94.0000 </r>
       <r>    -0.6910     0.0000    94.0000 </r>
       <r>    -0.6547     0.0000    94.0000 </r>
       <r>    -0.6184     0.0000    94.0000 </r>
       <r>    -0.5822     0.0000    94.0000 </r>
       <r>    -0.5459     0.0000    95.0000 </r>
       <r>    -0.5096     0.0000    96.0000 </r>
       <r>    -0.4733     0.0000    97.0000 </r>
       <r>    -0.4371     0.0000    97.0000 </r>
       <r>    -0.4008     0.0000    97.0000 </r>
       <r>    -0.3645     0.0000    97.0000 </r>
       <r>    -0.3283     0.0000    97.0000 </r>
       <r>    -0.2920     0.0000    97.0000 </r>
       <r>    -0.2557     0.0000    97.0000 </r>
       <r>    -0.2194     0.0000    98.0000 </r>
       <r>    -0.1832     0.0000    98.0000 </r>
       <r>    -0.1469     0.0000    98.0000 </r>
       <r>    -0.1106     0.0000    98.0000 </r>
       <r>    -0.0744     0.0000    98.0000 </r>
       <r>    -0.0381     0.0000    98.0000 </r>
       <r>    -0.0018     0.0000    99.0000 </r>
       <r>     0.0345     0.0000    99.0000 </r>
       <r>     0.0707     0.0000    99.0000 </r>
       <r>     0.1070     0.0000    99.0000 </r>
       <r>     0.1433     0.0000    99.0000 </r>
       <r>     0.1796     0.0000    99.0000 </r>
       <r>     0.2158     0.0000    99.0000 </r>
       <r>     0.2521     0.0000   100.0000 </r>
       <r>     0.2884     0.0000   101.0000 </r>
       <r>     0.3246     0.0000   102.0000 </r>
       <r>     0.3609     0.0000   102.0000 </r>
       <r>     0.3972     0.0000   102.0000 </r>
       <r>     0.4335     0.0000   102.0000 </r>
       <r>     0.4697     0.0000   103.0000 </r>
       <r>     0.5060     0.0000   104.0000 </r>
       <r>     0.5423     0.0000   104.0000 </r>
       <r>     0.5785     0.0000   105.0000 </r>
       <r>     0.6148     0.0000   105.0000 </r>
       <r>     0.6511     0.0000   105.0000 </r>
       <r>     0.6874     0.0000   106.0000 </r>
       <r>     0.7236     0.0000   107.0000 </r>
       <r>     0.7599     0.0000   108.0000 </r>
       <r>     0.7962     0.0000   108.0000 </r>
       <r>     0.8325     0.0000   108.0000 </r>
       <r>     0.8687     0.0000   108.0000 </r>
       <r>     0.9050     0.0000   108.0000 </r>
       <r>     0.9413     0.0000   108.0000 </r>
       <r>     0.9775     0.0000   108.0000 </r>
       <r>     1.0138     0.0000   108.0000 </r>
       <r>     1.0501     0.0000   108.0000 </r>
       <r>     1.0864     0.0000   108.0000 </r>
       <r>     1.1226     0.0000   108.0000 </r>
       <r>     1.1589     0.0000   108.0000 </r>
       <r>     1.1952     0.0000   108.0000 </r>
       <r>     1.2314     0.0000   108.0000 </r>
      </set>
     </set>
    </array>
   </total>
  </dos>
 </calculation>
 <structure name="finalpos" >
  <crystal>
   <varray name="basis" >
    <v>      20.05787700       0.00000000       0.00000000 </v>
    <v>       0.00000000      20.05787700       0.00000000 </v>
    <v>       0.00000000       0.00000000      20.05787700 </v>
   </varray>
   <i name="volume">   8069.65357870 </i>
   <varray name="rec_basis" >
    <v>       0.04985573       0.00000000       0.00000000 </v>
    <v>       0.00000000       0.04985573       0.00000000 </v>
    <v>       0.00000000       0.00000000       0.04985573 </v>
   </varray>
  </crystal>
  <varray name="positions" >
   <v>       0.37531184       0.42587685       0.56605101 </v>
   <v>       0.47902009       0.56115972       0.37688094 </v>
   <v>       0.49948483       0.44896107       0.63620608 </v>
   <v>       0.61094619       0.58614987       0.42485218 </v>
   <v>       0.61770365       0.44234426       0.43666334 </v>
   <v>       0.49723220       0.42051573       0.36193191 </v>
   <v>       0.61299329       0.39642775       0.57108839 </v>
   <v>       0.48861414       0.59327584       0.62942987 </v>
   <v>       0.57710113       0.52554556       0.54538356 </v>
   <v>       0.49624187       0.40630448       0.50026765 </v>
   <v>       0.49902419       0.62888522       0.49544321 </v>
   <v>       0.39163331       0.47288181       0.43621308 </v>
   <v>       0.38466100       0.56479630       0.53823323 </v>
   <v>       0.58914629       0.50928471       0.31462895 </v>
   <v>       0.38088597       0.51759082       0.66672660 </v>
  </varray>
 </structure>
</modeling>
