13
Energy = -83.84043043 eV
Ir 12.055235831829082 9.523193671977955 11.049847675096245
Ir 11.196525537339541 10.367651099364078 8.937740057474665
Ir 10.638162549860002 7.809789152151932 10.017304673218053
Ir 10.832388644138117 10.54749512166668 6.532993429666262
Ir 9.645714319798307 9.887935554677608 11.03864579069771
Ir 10.258156780884777 8.39452108375077 7.543862684537738
Ir 9.133165133623677 6.396601593542276 8.547069203838419
Ir 8.796837097106579 10.651141321065923 7.862154193527093
Ir 8.086506960562975 7.791972874861471 10.34013865908312
Ir 7.590751486402649 9.298179419971234 12.202024317525504
Ir 7.706443441409734 8.37804661736774 7.866427548746914
Ir 7.246522222762884 10.214028690192118 9.971880151554014
Ir 6.372729373805754 10.432558845321106 7.7134391105129145
