14
Energy = -90.1705622 eV
Ir 9.048072441969309 11.43201040183058 7.619165895823739
Ir 7.1828737690310325 9.781849895055037 7.153582951899517
Ir 9.752026623920306 9.229141001744916 6.409140069846129
Ir 10.230571413804732 9.587027645089282 8.873537539521278
Ir 7.259396753830922 11.196738715090635 9.313473544640825
Ir 9.628542931328827 11.687299193444296 10.182568242443649
Ir 10.554611298373239 7.2787006981546565 7.882739764332296
Ir 10.628765706329286 9.72587198268295 11.423055653028712
Ir 8.118585117031534 7.4328123734604885 7.1714307417595125
Ir 11.4291130977957 7.697129133215289 10.15076716392354
Ir 8.098951309741642 10.056845902594638 11.51404241767542
Ir 7.977040474672414 8.746498278443052 9.353325114065353
Ir 9.162406712801646 7.616924060484951 11.294610685880942
Ir 8.632754453274357 6.259890809304078 9.30348688141583
