12
Energy = -72.08487255 eV
Ir 10.141771605918626 8.35092753 10.141771605918626
Ir 10.141771605918626 10.141771605918626 8.35092753
Ir 8.35092753 10.141771605918626 6.560083454081375
Ir 6.560083454081375 8.35092753 6.560083454081375
Ir 8.35092753 6.560083454081375 10.141771605918626
Ir 6.560083454081375 6.560083454081375 8.35092753
Ir 6.560083454081375 10.141771605918626 8.35092753
Ir 8.35092753 10.141771605918626 10.141771605918626
Ir 6.560083454081375 8.35092753 10.141771605918626
Ir 8.35092753 6.560083454081375 6.560083454081375
Ir 10.141771605918626 6.560083454081375 8.35092753
Ir 10.141771605918626 8.35092753 6.560083454081375
