14
Energy = -89.80947644 eV
Ir 9.420027919889513 11.828888465847392 8.832449521520244
Ir 8.493827498708962 10.689425864847518 12.798307401163692
Ir 11.540539543420941 10.785218021827003 8.13536942997959
Ir 7.357662981108984 8.471897108090289 11.988231780865231
Ir 9.144194976539767 7.041252242788895 7.517511737083245
Ir 8.205354423263799 7.700137791320622 9.750656295856627
Ir 10.950466393176212 8.89714548567383 6.826805629695578
Ir 11.916630975607456 9.972274485629054 10.43178320239769
Ir 10.71089741980456 8.032646605547216 9.230969673042074
Ir 8.735227469748201 9.490591392120413 7.981171906403553
Ir 9.804541124638483 8.913675940246256 11.414693445629563
Ir 8.01876860803946 10.253502669422243 10.278745564297234
Ir 10.124882260773527 11.555681119243499 11.233578766944763
Ir 11.80757626768684 12.59826094498895 9.810323713917233
