5
Energy = -26.03017964 eV
Ir 9.33418926927934 10.561871912589062 9.216995244440756
Ir 7.877097331886912 8.603246166523785 9.1228874041172
Ir 10.303666583757918 8.318638034543392 9.161609569196981
Ir 9.130243626075266 9.086674555237968 11.248855256647548
Ir 9.213178365970274 9.232640827274427 7.0843746800440375
