6
Energy = -31.40545095 eV
Ir 10.636106912679233 8.348213713859746 7.769770875232987
Ir 10.428456644880509 10.096124161575332 9.360939971143889
Ir 10.123835786487902 7.806886941307747 10.134661534285916
Ir 8.339583866141819 8.58860920395548 8.733560507728868
Ir 6.526622003842653 7.869073457559378 7.288566888377639
Ir 6.144429221116975 9.491429930001447 8.913589636502564
