9
Energy = -54.61619774 eV
Ir 10.218357184274955 6.5544239059130724 9.477920540526371
Ir 11.349423566351874 8.414869924849858 10.531753148024727
Ir 8.765653013583787 8.373940425400724 10.477396361351044
Ir 9.150599273938434 8.005315294859562 7.916197766611398
Ir 7.918866420165846 8.079192523374898 5.876624787196161
Ir 10.183039534567078 9.91677534395059 9.066581615420157
Ir 7.182731018812531 9.49700456794327 7.632564847236362
Ir 6.848027141799318 9.669146274775725 10.100925920537895
Ir 8.26040053521355 11.32521230520503 8.800163744117922
