unknown system                          
           1
    22.307287    0.000000    0.000000
     0.000000   22.307287    0.000000
     0.000000    0.000000   22.307287
   Ag
  50
Direct configuration=     1
   0.58458554  0.60873690  0.36216133
   0.61960322  0.50766156  0.30865740
   0.65489648  0.66985225  0.44878656
   0.69658299  0.55163488  0.39381820
   0.74058236  0.59726394  0.49950968
   0.49821659  0.53329393  0.30644562
   0.54567397  0.41439848  0.33938974
   0.52296418  0.49995495  0.42433607
   0.65703779  0.42978953  0.39460905
   0.54768642  0.71412234  0.40864033
   0.68920221  0.35477488  0.48762989
   0.66432338  0.65914256  0.57537426
   0.72555022  0.47350318  0.49118418
   0.69362300  0.53817442  0.59407243
   0.42473534  0.44946717  0.36319189
   0.37848469  0.56136637  0.33840065
   0.46359501  0.63215345  0.37855154
   0.59398106  0.44526638  0.50804663
   0.61427636  0.56021460  0.48302718
   0.46490104  0.33926044  0.39353668
   0.57878074  0.33929696  0.43617136
   0.45129308  0.69787140  0.48136475
   0.45092434  0.56941499  0.49138341
   0.59094748  0.32990479  0.56246870
   0.56512038  0.72155620  0.52896222
   0.54175244  0.60533492  0.56762764
   0.37691117  0.39127568  0.46331902
   0.68011065  0.41419519  0.59524742
   0.34832377  0.63594167  0.43802370
   0.47612995  0.32641421  0.51343708
   0.55909348  0.49215443  0.61227445
   0.46540621  0.70394441  0.60715898
   0.34654074  0.51009908  0.44227443
   0.58028683  0.70987286  0.65022174
   0.46954304  0.44741053  0.52297209
   0.35607017  0.68935980  0.55282495
   0.62083872  0.59869800  0.67692109
   0.32969753  0.57259634  0.54923791
   0.66064319  0.48372392  0.69754267
   0.44903784  0.54047752  0.60869239
   0.58091328  0.39241235  0.67528837
   0.30462228  0.45411961  0.54077955
   0.39119849  0.38650998  0.59270010
   0.48958438  0.32534119  0.63296949
   0.50166642  0.62799317  0.70023602
   0.37835122  0.62527194  0.65667961
   0.54586230  0.51267009  0.73216101
   0.34740236  0.49328432  0.64885282
   0.45762120  0.42688290  0.69146425
   0.42616144  0.53727633  0.73271042
Direct configuration=     2
   0.58463858  0.60874592  0.36222001
   0.61965537  0.50756490  0.30848244
   0.65493291  0.67000863  0.44869663
   0.69668262  0.55167684  0.39366737
   0.74079167  0.59732459  0.49946488
   0.49817969  0.53330400  0.30632458
   0.54565548  0.41429123  0.33920187
   0.52309641  0.50009843  0.42418063
   0.65707692  0.42980336  0.39457560
   0.54778448  0.71438391  0.40853260
   0.68930045  0.35467999  0.48763911
   0.66435966  0.65914662  0.57533947
   0.72555294  0.47351029  0.49116489
   0.69353812  0.53819160  0.59403492
   0.42464649  0.44946373  0.36314120
   0.37831263  0.56134550  0.33817114
   0.46363668  0.63212054  0.37854875
   0.59413967  0.44495116  0.50794734
   0.61436508  0.56025746  0.48317167
   0.46482363  0.33909684  0.39339387
   0.57874557  0.33923045  0.43614429
   0.45134514  0.69793241  0.48141040
   0.45081309  0.56956380  0.49128404
   0.59098531  0.32985305  0.56254149
   0.56516764  0.72165489  0.52887797
   0.54184641  0.60561304  0.56775149
   0.37682111  0.39112839  0.46329677
   0.68011122  0.41415382  0.59534379
   0.34832287  0.63595503  0.43802697
   0.47610992  0.32625660  0.51336036
   0.55932477  0.49224273  0.61219793
   0.46534853  0.70396602  0.60714466
   0.34652803  0.51007629  0.44225525
   0.58031549  0.71003486  0.65034422
   0.46963653  0.44767898  0.52302313
   0.35588248  0.68949902  0.55287555
   0.62086118  0.59865047  0.67695259
   0.32970968  0.57260086  0.54929475
   0.66074241  0.48366617  0.69770275
   0.44901439  0.54032889  0.60879622
   0.58094400  0.39225638  0.67543163
   0.30439177  0.45401260  0.54081439
   0.39109492  0.38643434  0.59277433
   0.48958356  0.32511606  0.63312765
   0.50162134  0.62799719  0.70023790
   0.37819841  0.62536449  0.65678556
   0.54582953  0.51260802  0.73232143
   0.34721597  0.49319747  0.64895925
   0.45763579  0.42695364  0.69143718
   0.42602044  0.53734547  0.73292407
Direct configuration=     3
   0.58479772  0.60877297  0.36239607
   0.61981185  0.50727492  0.30795754
   0.65504219  0.67047776  0.44842683
   0.69698151  0.55180273  0.39321489
   0.74141958  0.59750651  0.49933049
   0.49806900  0.53333422  0.30596147
   0.54560001  0.41396945  0.33863823
   0.52349307  0.50052888  0.42371433
   0.65719429  0.42984487  0.39447525
   0.54807867  0.71516862  0.40820941
   0.68959516  0.35439533  0.48766675
   0.66446851  0.65915879  0.57523512
   0.72556109  0.47353163  0.49110703
   0.69328350  0.53824314  0.59392238
   0.42437995  0.44945342  0.36298915
   0.37779644  0.56128289  0.33748261
   0.46376169  0.63202181  0.37854036
   0.59461551  0.44400551  0.50764949
   0.61463124  0.56038602  0.48360514
   0.46459142  0.33860604  0.39296545
   0.57864006  0.33903092  0.43606308
   0.45150132  0.69811544  0.48154735
   0.45047935  0.57001021  0.49098593
   0.59109880  0.32969785  0.56275986
   0.56530941  0.72195095  0.52862522
   0.54212832  0.60644742  0.56812304
   0.37655090  0.39068653  0.46323003
   0.68011292  0.41402973  0.59563290
   0.34832015  0.63599512  0.43803676
   0.47604982  0.32578378  0.51313018
   0.56001862  0.49250764  0.61196839
   0.46517549  0.70403088  0.60710167
   0.34648990  0.51000792  0.44219771
   0.58040146  0.71052086  0.65071167
   0.46991698  0.44848435  0.52317625
   0.35531939  0.68991669  0.55302735
   0.62092856  0.59850787  0.67704708
   0.32974614  0.57261440  0.54946525
   0.66104005  0.48349293  0.69818302
   0.44894407  0.53988299  0.60910770
   0.58103615  0.39178850  0.67586141
   0.30370027  0.45369157  0.54091892
   0.39078423  0.38620742  0.59299702
   0.48958110  0.32444065  0.63360211
   0.50148611  0.62800923  0.70024352
   0.37774001  0.62564214  0.65710341
   0.54573124  0.51242179  0.73280266
   0.34665681  0.49293693  0.64927854
   0.45767953  0.42716585  0.69135598
   0.42559745  0.53755288  0.73356500
Direct configuration=     4
   0.58511598  0.60882709  0.36274818
   0.62012479  0.50669497  0.30690776
   0.65526076  0.67141601  0.44788722
   0.69757930  0.55205452  0.39230992
   0.74267540  0.59787037  0.49906170
   0.49784761  0.53339467  0.30523525
   0.54548907  0.41332590  0.33751096
   0.52428639  0.50138977  0.42278171
   0.65742903  0.42992787  0.39427455
   0.54866704  0.71673804  0.40756303
   0.69018458  0.35382601  0.48772202
   0.66468620  0.65918312  0.57502641
   0.72557740  0.47357432  0.49099130
   0.69277425  0.53834623  0.59369731
   0.42384685  0.44943280  0.36268503
   0.37676407  0.56115768  0.33610556
   0.46401170  0.63182435  0.37852357
   0.59556719  0.44211420  0.50705379
   0.61516357  0.56064315  0.48447207
   0.46412699  0.33762444  0.39210860
   0.57842904  0.33863186  0.43590065
   0.45181368  0.69848151  0.48182124
   0.44981186  0.57090303  0.49038973
   0.59132579  0.32938743  0.56319659
   0.56559294  0.72254308  0.52811973
   0.54269215  0.60811618  0.56886615
   0.37601050  0.38980281  0.46309654
   0.68011633  0.41378154  0.59621112
   0.34831472  0.63607531  0.43805633
   0.47592964  0.32483814  0.51266984
   0.56140633  0.49303747  0.61150932
   0.46482942  0.70416059  0.60701569
   0.34641363  0.50987118  0.44208261
   0.58057340  0.71149286  0.65144657
   0.47047788  0.45009508  0.52348249
   0.35419322  0.69075202  0.55333096
   0.62106331  0.59822269  0.67723608
   0.32981905  0.57264149  0.54980625
   0.66163535  0.48314646  0.69914354
   0.44880342  0.53899118  0.60973066
   0.58122045  0.39085273  0.67672097
   0.30231725  0.45304951  0.54112796
   0.39016283  0.38575358  0.59344240
   0.48957618  0.32308983  0.63455103
   0.50121563  0.62803332  0.70025477
   0.37682319  0.62619744  0.65773912
   0.54553466  0.51204935  0.73376514
   0.34553848  0.49241584  0.64991713
   0.45776702  0.42759027  0.69119357
   0.42475146  0.53796770  0.73484688
Direct configuration=     5
   0.58575252  0.60893533  0.36345240
   0.62075068  0.50553505  0.30480819
   0.65569789  0.67329253  0.44680802
   0.69877487  0.55255808  0.39049999
   0.74518704  0.59859809  0.49852412
   0.49740485  0.53351555  0.30378282
   0.54526720  0.41203881  0.33525642
   0.52587303  0.50311155  0.42091649
   0.65789851  0.43009389  0.39387315
   0.54984378  0.71987688  0.40627026
   0.69136341  0.35268737  0.48783258
   0.66512158  0.65923180  0.57460899
   0.72561001  0.47365968  0.49075983
   0.69175576  0.53855239  0.59324717
   0.42278067  0.44939156  0.36207680
   0.37469932  0.56090725  0.33335145
   0.46451172  0.63142943  0.37849001
   0.59747055  0.43833160  0.50586238
   0.61622822  0.56115741  0.48620594
   0.46319813  0.33566124  0.39039491
   0.57800699  0.33783374  0.43557580
   0.45243840  0.69921364  0.48236902
   0.44847689  0.57268867  0.48919731
   0.59177976  0.32876660  0.56407006
   0.56616001  0.72372733  0.52710873
   0.54381980  0.61145369  0.57035236
   0.37492970  0.38803536  0.46282957
   0.68012314  0.41328517  0.59736755
   0.34830387  0.63623568  0.43809548
   0.47568927  0.32294685  0.51174915
   0.56418174  0.49409712  0.61059116
   0.46413728  0.70442001  0.60684374
   0.34626110  0.50959771  0.44185243
   0.58091728  0.71343687  0.65291637
   0.47159969  0.45331654  0.52409496
   0.35194088  0.69242269  0.55393817
   0.62133281  0.59765232  0.67761406
   0.32996488  0.57269566  0.55048825
   0.66282594  0.48245350  0.70106458
   0.44852212  0.53720757  0.61097659
   0.58158906  0.38898119  0.67844008
   0.29955122  0.45176539  0.54154605
   0.38892005  0.38484589  0.59433316
   0.48956634  0.32038821  0.63644888
   0.50067469  0.62808150  0.70027726
   0.37498955  0.62730804  0.65901053
   0.54514149  0.51130446  0.73569008
   0.34330182  0.49137365  0.65119429
   0.45794200  0.42843912  0.69086875
   0.42305948  0.53879735  0.73741062
Direct configuration=     6
   0.58592786  0.60896514  0.36364638
   0.62092309  0.50521554  0.30422984
   0.65581830  0.67380945  0.44651074
   0.69910421  0.55269679  0.39000142
   0.74587891  0.59879855  0.49837604
   0.49728288  0.53354885  0.30338272
   0.54520608  0.41168426  0.33463538
   0.52631009  0.50358584  0.42040269
   0.65802784  0.43013962  0.39376258
   0.55016793  0.72074151  0.40591415
   0.69168814  0.35237371  0.48786303
   0.66524151  0.65924521  0.57449400
   0.72561899  0.47368320  0.49069607
   0.69147520  0.53860918  0.59312317
   0.42248698  0.44938020  0.36190925
   0.37413056  0.56083827  0.33259279
   0.46464946  0.63132065  0.37848077
   0.59799486  0.43728962  0.50553419
   0.61652149  0.56129907  0.48668356
   0.46294226  0.33512045  0.38992285
   0.57789073  0.33761389  0.43548632
   0.45261049  0.69941531  0.48251992
   0.44810915  0.57318055  0.48886884
   0.59190481  0.32859558  0.56431067
   0.56631622  0.72405355  0.52683024
   0.54413042  0.61237305  0.57076175
   0.37463197  0.38754849  0.46275603
   0.68012502  0.41314843  0.59768611
   0.34830088  0.63627985  0.43810627
   0.47562305  0.32242587  0.51149554
   0.56494626  0.49438902  0.61033824
   0.46394662  0.70449147  0.60679638
   0.34621908  0.50952238  0.44178902
   0.58101200  0.71397237  0.65332125
   0.47190871  0.45420394  0.52426368
   0.35132044  0.69288289  0.55410544
   0.62140705  0.59749520  0.67771818
   0.33000506  0.57271058  0.55067612
   0.66315391  0.48226261  0.70159376
   0.44844464  0.53671625  0.61131980
   0.58169059  0.38846565  0.67891364
   0.29878928  0.45141166  0.54166121
   0.38857771  0.38459585  0.59457853
   0.48956362  0.31964400  0.63697166
   0.50052568  0.62809477  0.70028346
   0.37448445  0.62761397  0.65936076
   0.54503319  0.51109927  0.73622034
   0.34268570  0.49108657  0.65154611
   0.45799020  0.42867295  0.69077928
   0.42259340  0.53902588  0.73811684
Direct configuration=     7
   0.58620406  0.60867170  0.36386289
   0.62079559  0.50517826  0.30379951
   0.65630368  0.67396779  0.44641174
   0.69906305  0.55293763  0.38991666
   0.74608607  0.59892395  0.49800473
   0.49718951  0.53347104  0.30290230
   0.54487724  0.41146144  0.33430206
   0.52717704  0.50392487  0.42023920
   0.65796095  0.43008668  0.39339857
   0.55013101  0.72145431  0.40513562
   0.69200859  0.35205946  0.48787857
   0.66521344  0.65950798  0.57428831
   0.72550660  0.47386037  0.49061763
   0.69116296  0.53839110  0.59285389
   0.42261164  0.44914562  0.36190873
   0.37386133  0.56094471  0.33222121
   0.46468620  0.63106984  0.37833990
   0.59789536  0.43770529  0.50497287
   0.61723789  0.56087650  0.48727534
   0.46258174  0.33486397  0.38929305
   0.57765805  0.33716651  0.43502929
   0.45258020  0.69968401  0.48248972
   0.44837975  0.57335490  0.48958693
   0.59160277  0.32797593  0.56482010
   0.56679842  0.72490375  0.52683697
   0.54344350  0.61244303  0.57160526
   0.37477131  0.38745168  0.46312535
   0.68020813  0.41302013  0.59812472
   0.34838019  0.63630668  0.43812807
   0.47548581  0.32291615  0.51189223
   0.56615252  0.49466198  0.61020254
   0.46367695  0.70465486  0.60691144
   0.34617908  0.50920828  0.44196118
   0.58102544  0.71405103  0.65338055
   0.47214202  0.45376738  0.52386734
   0.35091211  0.69321645  0.55408748
   0.62101993  0.59758772  0.67792272
   0.33027827  0.57238366  0.55100775
   0.66319060  0.48202832  0.70204061
   0.44853217  0.53713032  0.61212772
   0.58157227  0.38853875  0.67923444
   0.29828097  0.45120369  0.54157848
   0.38905549  0.38461474  0.59422672
   0.48930924  0.31924312  0.63717538
   0.50033577  0.62786136  0.70013341
   0.37432257  0.62742794  0.65951784
   0.54487673  0.51085643  0.73617152
   0.34232313  0.49096312  0.65189849
   0.45819570  0.42892266  0.69021911
   0.42209395  0.53928990  0.73841080
Direct configuration=     8
   0.58684834  0.60798721  0.36436792
   0.62049819  0.50509129  0.30279571
   0.65743592  0.67433715  0.44618081
   0.69896705  0.55349943  0.38971894
   0.74656930  0.59921647  0.49713860
   0.49697170  0.53328954  0.30178164
   0.54411015  0.41094168  0.33352455
   0.52919935  0.50471573  0.41985785
   0.65780493  0.42996319  0.39254946
   0.55004491  0.72311703  0.40331957
   0.69275611  0.35132640  0.48791483
   0.66514796  0.66012092  0.57380850
   0.72524442  0.47427367  0.49043465
   0.69043459  0.53788237  0.59222574
   0.42290242  0.44859843  0.36190752
   0.37323330  0.56119300  0.33135443
   0.46477190  0.63048478  0.37801132
   0.59766326  0.43867492  0.50366351
   0.61890901  0.55989078  0.48865575
   0.46174077  0.33426569  0.38782392
   0.57711530  0.33612292  0.43396319
   0.45250953  0.70031081  0.48241929
   0.44901097  0.57376158  0.49126198
   0.59089821  0.32653050  0.56600843
   0.56792322  0.72688701  0.52685266
   0.54184114  0.61260625  0.57357289
   0.37509632  0.38722584  0.46398684
   0.68040202  0.41272082  0.59914786
   0.34856521  0.63636926  0.43817894
   0.47516566  0.32405981  0.51281759
   0.56896634  0.49529872  0.60988601
   0.46304788  0.70503599  0.60717984
   0.34608578  0.50847560  0.44236279
   0.58105677  0.71423451  0.65351889
   0.47268627  0.45274901  0.52294281
   0.34995961  0.69399453  0.55404559
   0.62011689  0.59780352  0.67839984
   0.33091559  0.57162104  0.55178135
   0.66327617  0.48148177  0.70308296
   0.44873635  0.53809622  0.61401234
   0.58129625  0.38870927  0.67998276
   0.29709525  0.45071858  0.54138549
   0.39017000  0.38465881  0.59340607
   0.48871584  0.31830797  0.63765057
   0.49989278  0.62731689  0.69978340
   0.37394495  0.62699402  0.65988427
   0.54451176  0.51028996  0.73605764
   0.34147734  0.49067514  0.65272050
   0.45867507  0.42950515  0.68891242
   0.42092890  0.53990577  0.73909651
Direct configuration=     9
   0.58691529  0.60801455  0.36479845
   0.62019199  0.50507399  0.30259448
   0.65734260  0.67442155  0.44604453
   0.69866190  0.55358428  0.38962767
   0.74652427  0.59933162  0.49696666
   0.49678544  0.53306500  0.30155756
   0.54380212  0.41103273  0.33335653
   0.52981270  0.50522008  0.41950023
   0.65760082  0.42966224  0.39216712
   0.55017274  0.72309009  0.40295590
   0.69223021  0.35153954  0.48807638
   0.66485568  0.66019615  0.57362587
   0.72500524  0.47404524  0.49018323
   0.69034913  0.53796184  0.59240542
   0.42313367  0.44873946  0.36205524
   0.37322226  0.56107954  0.33159060
   0.46490879  0.63003492  0.37825809
   0.59780214  0.43790073  0.50347623
   0.61944199  0.56034167  0.48953595
   0.46127456  0.33398546  0.38767264
   0.57707806  0.33594022  0.43391637
   0.45280425  0.70048719  0.48220663
   0.44965801  0.57362241  0.49216063
   0.59092312  0.32653523  0.56599236
   0.56814052  0.72736734  0.52662247
   0.54172440  0.61295061  0.57374514
   0.37539127  0.38735353  0.46422657
   0.68013521  0.41225858  0.59896786
   0.34893863  0.63600921  0.43838187
   0.47527782  0.32490067  0.51285776
   0.56966466  0.49548468  0.60979645
   0.46266202  0.70541023  0.60724534
   0.34635076  0.50841206  0.44240937
   0.58087019  0.71404811  0.65328889
   0.47294572  0.45276533  0.52271623
   0.34975118  0.69386691  0.55396373
   0.61994413  0.59782595  0.67846689
   0.33140752  0.57129791  0.55202848
   0.66319736  0.48149397  0.70345138
   0.44931485  0.53771322  0.61451313
   0.58086833  0.38893143  0.68002469
   0.29689809  0.45052305  0.54153054
   0.39061729  0.38517949  0.59281420
   0.48853034  0.31818079  0.63808327
   0.49960224  0.62716077  0.69982097
   0.37362767  0.62698931  0.65980538
   0.54414815  0.51012734  0.73560500
   0.34142302  0.49045039  0.65274057
   0.45882575  0.42989223  0.68813216
   0.42058286  0.53983817  0.73937388
Direct configuration=    10
   0.58709878  0.60808949  0.36597840
   0.61935277  0.50502656  0.30204296
   0.65708684  0.67465285  0.44567103
   0.69782557  0.55381682  0.38937751
   0.74640086  0.59964722  0.49649543
   0.49627495  0.53244961  0.30094345
   0.54295788  0.41128226  0.33289604
   0.53149370  0.50660235  0.41852009
   0.65704141  0.42883742  0.39111923
   0.55052310  0.72301625  0.40195918
   0.69078887  0.35212369  0.48851915
   0.66405465  0.66040232  0.57312534
   0.72434972  0.47341917  0.48949415
   0.69011490  0.53817964  0.59289786
   0.42376746  0.44912595  0.36246011
   0.37319199  0.56076856  0.33223785
   0.46528397  0.62880199  0.37893441
   0.59818277  0.43577889  0.50296293
   0.62090272  0.56157745  0.49194834
   0.45999682  0.33321743  0.38725802
   0.57697598  0.33543950  0.43378805
   0.45361201  0.70097059  0.48162381
   0.45143137  0.57324099  0.49462357
   0.59099139  0.32654820  0.56594833
   0.56873608  0.72868381  0.52599158
   0.54140445  0.61389438  0.57421721
   0.37619963  0.38770352  0.46488358
   0.67940396  0.41099170  0.59847455
   0.34996209  0.63502239  0.43893804
   0.47558521  0.32720522  0.51296784
   0.57157855  0.49599434  0.60955099
   0.46160450  0.70643589  0.60742484
   0.34707700  0.50823790  0.44253702
   0.58035881  0.71353723  0.65265850
   0.47365680  0.45281007  0.52209524
   0.34917991  0.69351714  0.55373937
   0.61947066  0.59788743  0.67865064
   0.33275575  0.57041230  0.55270578
   0.66298135  0.48152739  0.70446110
   0.45090035  0.53666350  0.61588566
   0.57969552  0.38954033  0.68013960
   0.29635774  0.44998717  0.54192807
   0.39184318  0.38660652  0.59119204
   0.48802195  0.31783220  0.63926918
   0.49880597  0.62673288  0.69992393
   0.37275810  0.62697641  0.65958914
   0.54315162  0.50968165  0.73436444
   0.34127415  0.48983440  0.65279560
   0.45923870  0.43095310  0.68599370
   0.41963447  0.53965290  0.74013407
Direct configuration=    11
   0.58708058  0.60820263  0.36620779
   0.61897494  0.50511991  0.30200936
   0.65693644  0.67494305  0.44555718
   0.69730749  0.55362911  0.38936794
   0.74627417  0.59959998  0.49642504
   0.49597452  0.53227797  0.30066122
   0.54248810  0.41122284  0.33291294
   0.53244400  0.50709603  0.41865932
   0.65676882  0.42844851  0.39048308
   0.55063509  0.72285529  0.40172481
   0.69040708  0.35194823  0.48833501
   0.66378404  0.66043914  0.57298213
   0.72394290  0.47339064  0.48924822
   0.69081206  0.53803754  0.59344247
   0.42410167  0.44924316  0.36283235
   0.37320835  0.56053304  0.33260522
   0.46550683  0.62800368  0.37965678
   0.59789584  0.43592395  0.50277755
   0.62088742  0.56162816  0.49266329
   0.45962813  0.33299431  0.38722307
   0.57651880  0.33504672  0.43337378
   0.45395154  0.70095370  0.48155623
   0.45222899  0.57332394  0.49529533
   0.59063367  0.32632800  0.56618680
   0.56870572  0.72914660  0.52561293
   0.54151634  0.61474564  0.57437467
   0.37624602  0.38801263  0.46467621
   0.67913311  0.41100545  0.59875412
   0.35069601  0.63440204  0.43943197
   0.47622678  0.32790845  0.51290466
   0.57212626  0.49609295  0.60893479
   0.46114250  0.70690167  0.60740623
   0.34752383  0.50818239  0.44298007
   0.57985209  0.71333867  0.65229888
   0.47452774  0.45360126  0.52168419
   0.34916255  0.69313128  0.55345238
   0.61935483  0.59792105  0.67876617
   0.33352675  0.56990811  0.55283343
   0.66289316  0.48144504  0.70463611
   0.45149476  0.53612814  0.61651162
   0.57928056  0.38979427  0.68001357
   0.29617100  0.44987038  0.54200094
   0.39213012  0.38734244  0.59071753
   0.48791665  0.31770451  0.63964268
   0.49828122  0.62679875  0.69998371
   0.37257360  0.62680126  0.65945355
   0.54271234  0.50971598  0.73379048
   0.34144364  0.48962456  0.65272070
   0.45915612  0.43113322  0.68521709
   0.41915183  0.53949070  0.74035142
Direct configuration=    12
   0.58704853  0.60840186  0.36661172
   0.61830962  0.50528431  0.30195019
   0.65667159  0.67545406  0.44535670
   0.69639521  0.55329856  0.38935108
   0.74605109  0.59951680  0.49630109
   0.49544548  0.53197573  0.30016423
   0.54166086  0.41111820  0.33294270
   0.53411740  0.50796536  0.41890449
   0.65628880  0.42776367  0.38936288
   0.55083228  0.72257184  0.40131211
   0.68973477  0.35163927  0.48801075
   0.66330753  0.66050396  0.57272995
   0.72322652  0.47334042  0.48881514
   0.69203971  0.53778731  0.59440147
   0.42469018  0.44944955  0.36348783
   0.37323716  0.56011831  0.33325212
   0.46589926  0.62659792  0.38092883
   0.59739057  0.43617939  0.50245111
   0.62086048  0.56171747  0.49392225
   0.45897889  0.33260141  0.38716151
   0.57571373  0.33435506  0.43264428
   0.45454943  0.70092397  0.48143724
   0.45363352  0.57347000  0.49647825
   0.59000375  0.32594026  0.56660671
   0.56865226  0.72996154  0.52494616
   0.54171337  0.61624463  0.57465194
   0.37632773  0.38855694  0.46431104
   0.67865617  0.41102968  0.59924641
   0.35198838  0.63330964  0.44030174
   0.47735653  0.32914677  0.51279341
   0.57309072  0.49626659  0.60784972
   0.46032896  0.70772187  0.60737344
   0.34831067  0.50808464  0.44376024
   0.57895979  0.71298903  0.65166561
   0.47606138  0.45499448  0.52096036
   0.34913198  0.69245181  0.55294702
   0.61915086  0.59798026  0.67896962
   0.33488441  0.56902026  0.55305821
   0.66273787  0.48130004  0.70494428
   0.45254147  0.53518542  0.61761389
   0.57854986  0.39024143  0.67979165
   0.29584217  0.44966471  0.54212924
   0.39263539  0.38863834  0.58988196
   0.48773122  0.31747968  0.64030036
   0.49735716  0.62691474  0.70008898
   0.37224869  0.62649281  0.65921479
   0.54193880  0.50977643  0.73277979
   0.34174210  0.48925506  0.65258881
   0.45901072  0.43145041  0.68384955
   0.41830195  0.53920509  0.74073415
Direct configuration=    13
   0.58713846  0.60864229  0.36591193
   0.61797236  0.50544625  0.30210183
   0.65685625  0.67551822  0.44560606
   0.69603052  0.55283924  0.38964176
   0.74571627  0.59927842  0.49638739
   0.49530098  0.53202287  0.30025816
   0.54148574  0.41095888  0.33313518
   0.53443166  0.50793963  0.41877791
   0.65617498  0.42734984  0.38928443
   0.55058295  0.72267954  0.40122217
   0.68943629  0.35138061  0.48767236
   0.66354305  0.66033959  0.57279641
   0.72265542  0.47344174  0.48889853
   0.69342630  0.53778431  0.59486944
   0.42490049  0.44947211  0.36396352
   0.37316812  0.55989298  0.33335671
   0.46614267  0.62582113  0.38147088
   0.59774910  0.43609474  0.50188493
   0.62046175  0.56148255  0.49404686
   0.45888160  0.33259512  0.38721762
   0.57555144  0.33427022  0.43230568
   0.45456015  0.70078517  0.48176353
   0.45398365  0.57409443  0.49644877
   0.58994008  0.32585520  0.56681670
   0.56845673  0.73027467  0.52477493
   0.54168239  0.61671295  0.57507970
   0.37618397  0.38854346  0.46390711
   0.67855312  0.41141038  0.59935858
   0.35249817  0.63299422  0.44066983
   0.47763965  0.32938176  0.51273533
   0.57308234  0.49675315  0.60738904
   0.46003180  0.70793698  0.60729498
   0.34875029  0.50795519  0.44435272
   0.57845475  0.71323697  0.65163719
   0.47629447  0.45550450  0.52075700
   0.34935629  0.69206436  0.55272327
   0.61913435  0.59792250  0.67894329
   0.33538070  0.56865509  0.55307561
   0.66254294  0.48123284  0.70483744
   0.45288038  0.53584046  0.61749538
   0.57864240  0.39036580  0.67960493
   0.29554838  0.44969522  0.54193310
   0.39274330  0.38885984  0.58948081
   0.48753731  0.31734021  0.64009954
   0.49696612  0.62733910  0.70009219
   0.37252611  0.62615847  0.65916398
   0.54183581  0.51016890  0.73238149
   0.34184325  0.48926715  0.65256465
   0.45866965  0.43062033  0.68440362
   0.41801204  0.53911741  0.74074250
Direct configuration=    14
   0.58736037  0.60923557  0.36418519
   0.61714017  0.50584585  0.30247598
   0.65731191  0.67567651  0.44622138
   0.69513065  0.55170586  0.39035901
   0.74489008  0.59869021  0.49660033
   0.49494441  0.53213921  0.30048994
   0.54105361  0.41056573  0.33361014
   0.53520709  0.50787615  0.41846559
   0.65589412  0.42632869  0.38909086
   0.54996773  0.72294530  0.40100024
   0.68869976  0.35074237  0.48683736
   0.66412421  0.65993398  0.57296041
   0.72124620  0.47369175  0.48910429
   0.69684779  0.53777691  0.59602418
   0.42541943  0.44952777  0.36513730
   0.37299777  0.55933698  0.33361480
   0.46674331  0.62390436  0.38280842
   0.59863378  0.43588584  0.50048787
   0.61947786  0.56090288  0.49435431
   0.45864155  0.33257960  0.38735607
   0.57515098  0.33406088  0.43147018
   0.45458658  0.70044269  0.48256867
   0.45484762  0.57563525  0.49637603
   0.58978295  0.32564530  0.56733486
   0.56797424  0.73104733  0.52435244
   0.54160596  0.61786854  0.57613519
   0.37582924  0.38851019  0.46291041
   0.67829884  0.41234976  0.59963535
   0.35375610  0.63221591  0.44157810
   0.47833827  0.32996160  0.51259202
   0.57306164  0.49795375  0.60625229
   0.45929854  0.70846778  0.60710138
   0.34983507  0.50763577  0.44581468
   0.57720857  0.71384875  0.65156704
   0.47686962  0.45676298  0.52025521
   0.34990976  0.69110834  0.55217118
   0.61909361  0.59777999  0.67887832
   0.33660530  0.56775400  0.55311856
   0.66206193  0.48106702  0.70457382
   0.45371666  0.53745681  0.61720295
   0.57887074  0.39067268  0.67914420
   0.29482344  0.44977051  0.54144911
   0.39300958  0.38940639  0.58849097
   0.48705882  0.31699606  0.63960400
   0.49600121  0.62838624  0.70010012
   0.37321065  0.62533345  0.65903860
   0.54158168  0.51113733  0.73139867
   0.34209285  0.48929699  0.65250503
   0.45782804  0.42857209  0.68577080
   0.41729669  0.53890106  0.74076312
Direct configuration=    15
   0.58726411  0.60897822  0.36493421
   0.61750115  0.50567251  0.30231368
   0.65711426  0.67560785  0.44595447
   0.69552099  0.55219750  0.39004788
   0.74524846  0.59894536  0.49650796
   0.49509908  0.53208874  0.30038940
   0.54124106  0.41073627  0.33340412
   0.53487073  0.50790369  0.41860107
   0.65601595  0.42677164  0.38917483
   0.55023460  0.72283002  0.40109651
   0.68901925  0.35101922  0.48719956
   0.66387212  0.66010993  0.57288927
   0.72185749  0.47358330  0.48901503
   0.69536363  0.53778012  0.59552328
   0.42519432  0.44950363  0.36462814
   0.37307167  0.55957816  0.33350285
   0.46648276  0.62473581  0.38222823
   0.59825003  0.43597646  0.50109389
   0.61990465  0.56115433  0.49422094
   0.45874568  0.33258633  0.38729601
   0.57532469  0.33415169  0.43183260
   0.45457511  0.70059125  0.48221941
   0.45447285  0.57496687  0.49640758
   0.58985111  0.32573635  0.56711010
   0.56818353  0.73071217  0.52453571
   0.54163912  0.61736727  0.57567734
   0.37598311  0.38852462  0.46334276
   0.67840914  0.41194228  0.59951530
   0.35321044  0.63255352  0.44118411
   0.47803522  0.32971008  0.51265419
   0.57307062  0.49743296  0.60674538
   0.45961661  0.70823753  0.60718536
   0.34936451  0.50777433  0.44518051
   0.57774914  0.71358337  0.65159747
   0.47662014  0.45621708  0.52047288
   0.34966968  0.69152304  0.55241066
   0.61911128  0.59784181  0.67890650
   0.33607409  0.56814487  0.55309993
   0.66227058  0.48113895  0.70468817
   0.45335390  0.53675568  0.61732980
   0.57877169  0.39053956  0.67934405
   0.29513790  0.44973785  0.54165905
   0.39289407  0.38916931  0.58892034
   0.48726638  0.31714534  0.63981895
   0.49641976  0.62793202  0.70009668
   0.37291371  0.62569132  0.65909298
   0.54169192  0.51071725  0.73182499
   0.34198458  0.48928404  0.65253089
   0.45819311  0.42946057  0.68517775
   0.41760699  0.53899491  0.74075418
Direct configuration=    16
   0.58768743  0.60981312  0.36400613
   0.61728224  0.50543825  0.30256683
   0.65680595  0.67541658  0.44610086
   0.69508342  0.55166175  0.39036779
   0.74499962  0.59869903  0.49655553
   0.49490957  0.53214480  0.30047878
   0.54140253  0.41062282  0.33339650
   0.53480811  0.50785360  0.41799146
   0.65615655  0.42643073  0.38874178
   0.55001315  0.72276624  0.40120265
   0.68891811  0.35058854  0.48716270
   0.66382034  0.65996501  0.57330798
   0.72140072  0.47340026  0.48939964
   0.69666434  0.53807885  0.59608399
   0.42536652  0.44970729  0.36506043
   0.37286072  0.55926293  0.33361858
   0.46680483  0.62418870  0.38236313
   0.59830972  0.43546662  0.50110149
   0.61948717  0.56125718  0.49482867
   0.45868367  0.33241290  0.38732889
   0.57539150  0.33395296  0.43167291
   0.45462444  0.70086748  0.48229302