  26  26   0   0
  0.4236169E+03  0.2224926E-08  0.2224926E-08  0.2224926E-08  0.1000000E-15
  1.000000000000000E-004
  CAR 
 unknown system                          
      1.44011596    -10.43419815  301     -3.45803861      1.00000000
    -10.434  0.0000E+00  0.0000E+00  0.0000E+00  0.0000E+00
    -10.395  0.0000E+00  0.0000E+00  0.0000E+00  0.0000E+00
    -10.355  0.0000E+00  0.0000E+00  0.0000E+00  0.0000E+00
    -10.315  0.0000E+00  0.0000E+00  0.0000E+00  0.0000E+00
    -10.276  0.0000E+00  0.0000E+00  0.0000E+00  0.0000E+00
    -10.236  0.0000E+00  0.0000E+00  0.0000E+00  0.0000E+00
    -10.197  0.0000E+00  0.0000E+00  0.0000E+00  0.0000E+00
    -10.157  0.0000E+00  0.0000E+00  0.0000E+00  0.0000E+00
    -10.118  0.0000E+00  0.0000E+00  0.0000E+00  0.0000E+00
    -10.078  0.0000E+00  0.0000E+00  0.0000E+00  0.0000E+00
    -10.038  0.0000E+00  0.0000E+00  0.0000E+00  0.0000E+00
     -9.999  0.0000E+00  0.0000E+00  0.0000E+00  0.0000E+00
     -9.959  0.0000E+00  0.0000E+00  0.0000E+00  0.0000E+00
     -9.920  0.0000E+00  0.0000E+00  0.0000E+00  0.0000E+00
     -9.880  0.0000E+00  0.0000E+00  0.1000E-02  0.1000E-02
     -9.840  0.0000E+00  0.0000E+00  0.1000E-02  0.1000E-02
     -9.801  0.0000E+00  0.0000E+00  0.1000E-02  0.1000E-02
     -9.761  0.0000E+00  0.0000E+00  0.1000E-02  0.1000E-02
     -9.722  0.0000E+00  0.0000E+00  0.1000E-02  0.1000E-02
     -9.682  0.0000E+00  0.0000E+00  0.1000E-02  0.1000E-02
     -9.643  0.0000E+00  0.0000E+00  0.1000E-02  0.1000E-02
     -9.603  0.0000E+00  0.0000E+00  0.1000E-02  0.1000E-02
     -9.563  0.0000E+00  0.0000E+00  0.1000E-02  0.1000E-02
     -9.524  0.0000E+00  0.0000E+00  0.1000E-02  0.1000E-02
     -9.484  0.0000E+00  0.0000E+00  0.1000E-02  0.1000E-02
     -9.445  0.0000E+00  0.0000E+00  0.2000E-02  0.2000E-02
     -9.405  0.0000E+00  0.0000E+00  0.3000E-02  0.3000E-02
     -9.366  0.0000E+00  0.0000E+00  0.3000E-02  0.3000E-02
     -9.326  0.0000E+00  0.0000E+00  0.4000E-02  0.4000E-02
     -9.286  0.0000E+00  0.0000E+00  0.5000E-02  0.5000E-02
     -9.247  0.0000E+00  0.0000E+00  0.6000E-02  0.6000E-02
     -9.207  0.0000E+00  0.0000E+00  0.6000E-02  0.6000E-02
     -9.168  0.0000E+00  0.0000E+00  0.6000E-02  0.6000E-02
     -9.128  0.0000E+00  0.0000E+00  0.8000E-02  0.8000E-02
     -9.088  0.0000E+00  0.0000E+00  0.8000E-02  0.8000E-02
     -9.049  0.0000E+00  0.0000E+00  0.9000E-02  0.9000E-02
     -9.009  0.0000E+00  0.0000E+00  0.1000E-01  0.1000E-01
     -8.970  0.0000E+00  0.0000E+00  0.1100E-01  0.1100E-01
     -8.930  0.0000E+00  0.0000E+00  0.1100E-01  0.1100E-01
     -8.891  0.0000E+00  0.0000E+00  0.1200E-01  0.1200E-01
     -8.851  0.0000E+00  0.0000E+00  0.1400E-01  0.1400E-01
     -8.811  0.0000E+00  0.0000E+00  0.1400E-01  0.1400E-01
     -8.772  0.0000E+00  0.0000E+00  0.1500E-01  0.1500E-01
     -8.732  0.0000E+00  0.0000E+00  0.1500E-01  0.1500E-01
     -8.693  0.0000E+00  0.0000E+00  0.1700E-01  0.1700E-01
     -8.653  0.0000E+00  0.0000E+00  0.1700E-01  0.1700E-01
     -8.613  0.0000E+00  0.0000E+00  0.1800E-01  0.1800E-01
     -8.574  0.0000E+00  0.0000E+00  0.2000E-01  0.2000E-01
     -8.534  0.0000E+00  0.0000E+00  0.2200E-01  0.2200E-01
     -8.495  0.0000E+00  0.0000E+00  0.2400E-01  0.2400E-01
     -8.455  0.0000E+00  0.0000E+00  0.2400E-01  0.2400E-01
     -8.416  0.0000E+00  0.0000E+00  0.2600E-01  0.2600E-01
     -8.376  0.0000E+00  0.0000E+00  0.2700E-01  0.2700E-01
     -8.336  0.0000E+00  0.0000E+00  0.2800E-01  0.2800E-01
     -8.297  0.0000E+00  0.0000E+00  0.3000E-01  0.3000E-01
     -8.257  0.0000E+00  0.0000E+00  0.3100E-01  0.3100E-01
     -8.218  0.0000E+00  0.0000E+00  0.3300E-01  0.3300E-01
     -8.178  0.0000E+00  0.0000E+00  0.3500E-01  0.3500E-01
     -8.138  0.0000E+00  0.0000E+00  0.3600E-01  0.3600E-01
     -8.099  0.0000E+00  0.0000E+00  0.3700E-01  0.3700E-01
     -8.059  0.0000E+00  0.0000E+00  0.3800E-01  0.3800E-01
     -8.020  0.0000E+00  0.0000E+00  0.4000E-01  0.4000E-01
     -7.980  0.0000E+00  0.0000E+00  0.4300E-01  0.4300E-01
     -7.941  0.0000E+00  0.0000E+00  0.4400E-01  0.4400E-01
     -7.901  0.0000E+00  0.0000E+00  0.4500E-01  0.4500E-01
     -7.861  0.0000E+00  0.0000E+00  0.4700E-01  0.4700E-01
     -7.822  0.0000E+00  0.0000E+00  0.4800E-01  0.4800E-01
     -7.782  0.0000E+00  0.0000E+00  0.5100E-01  0.5100E-01
     -7.743  0.0000E+00  0.0000E+00  0.5200E-01  0.5200E-01
     -7.703  0.0000E+00  0.0000E+00  0.5400E-01  0.5400E-01
     -7.664  0.0000E+00  0.0000E+00  0.5600E-01  0.5600E-01
     -7.624  0.0000E+00  0.0000E+00  0.5700E-01  0.5700E-01
     -7.584  0.0000E+00  0.0000E+00  0.6000E-01  0.6000E-01
     -7.545  0.0000E+00  0.0000E+00  0.6200E-01  0.6200E-01
     -7.505  0.0000E+00  0.0000E+00  0.6400E-01  0.6400E-01
     -7.466  0.0000E+00  0.0000E+00  0.6600E-01  0.6600E-01
     -7.426  0.0000E+00  0.0000E+00  0.6800E-01  0.6800E-01
     -7.386  0.0000E+00  0.0000E+00  0.6900E-01  0.6900E-01
     -7.347  0.0000E+00  0.0000E+00  0.7100E-01  0.7100E-01
     -7.307  0.0000E+00  0.0000E+00  0.7200E-01  0.7200E-01
     -7.268  0.0000E+00  0.0000E+00  0.7400E-01  0.7400E-01
     -7.228  0.0000E+00  0.0000E+00  0.7500E-01  0.7500E-01
     -7.189  0.0000E+00  0.0000E+00  0.7800E-01  0.7800E-01
     -7.149  0.0000E+00  0.0000E+00  0.8100E-01  0.8100E-01
     -7.109  0.0000E+00  0.0000E+00  0.8200E-01  0.8200E-01
     -7.070  0.0000E+00  0.0000E+00  0.8500E-01  0.8500E-01
     -7.030  0.0000E+00  0.0000E+00  0.8700E-01  0.8700E-01
     -6.991  0.2525E-01  0.2525E-01  0.9100E-01  0.9100E-01
     -6.951  0.0000E+00  0.0000E+00  0.9200E-01  0.9200E-01
     -6.911  0.2225E-01  0.2224E-01  0.9588E-01  0.9588E-01
     -6.872  0.0000E+00  0.0000E+00  0.9900E-01  0.9900E-01
     -6.832  0.0000E+00  0.0000E+00  0.1010E+00  0.1010E+00
     -6.793  0.0000E+00  0.0000E+00  0.1030E+00  0.1030E+00
     -6.753  0.0000E+00  0.0000E+00  0.1060E+00  0.1060E+00
     -6.714  0.0000E+00  0.0000E+00  0.1080E+00  0.1080E+00
     -6.674  0.0000E+00  0.0000E+00  0.1130E+00  0.1130E+00
     -6.634  0.0000E+00  0.0000E+00  0.1150E+00  0.1150E+00
     -6.595  0.0000E+00  0.0000E+00  0.1170E+00  0.1170E+00
     -6.555  0.1854E-13  0.1854E-13  0.1190E+00  0.1190E+00
     -6.516  0.0000E+00  0.0000E+00  0.1220E+00  0.1220E+00
     -6.476  0.0000E+00  0.0000E+00  0.1240E+00  0.1240E+00
     -6.437  0.0000E+00  0.0000E+00  0.1260E+00  0.1260E+00
     -6.397  0.0000E+00  0.0000E+00  0.1290E+00  0.1290E+00
     -6.357  0.0000E+00  0.0000E+00  0.1300E+00  0.1300E+00
     -6.318  0.0000E+00  0.0000E+00  0.1320E+00  0.1320E+00
     -6.278  0.0000E+00  0.0000E+00  0.1330E+00  0.1330E+00
     -6.239  0.0000E+00  0.0000E+00  0.1340E+00  0.1340E+00
     -6.199  0.0000E+00  0.0000E+00  0.1340E+00  0.1340E+00
     -6.159  0.0000E+00  0.0000E+00  0.1340E+00  0.1340E+00
     -6.120  0.0000E+00  0.0000E+00  0.1340E+00  0.1340E+00
     -6.080  0.0000E+00  0.0000E+00  0.1340E+00  0.1340E+00
     -6.041  0.0000E+00  0.0000E+00  0.1340E+00  0.1340E+00
     -6.001  0.0000E+00  0.0000E+00  0.1340E+00  0.1340E+00
     -5.962  0.0000E+00  0.0000E+00  0.1340E+00  0.1340E+00
     -5.922  0.0000E+00  0.0000E+00  0.1340E+00  0.1340E+00
     -5.882  0.0000E+00  0.0000E+00  0.1340E+00  0.1340E+00
     -5.843  0.0000E+00  0.0000E+00  0.1340E+00  0.1340E+00
     -5.803  0.0000E+00  0.0000E+00  0.1340E+00  0.1340E+00
     -5.764  0.0000E+00  0.0000E+00  0.1340E+00  0.1340E+00
     -5.724  0.0000E+00  0.0000E+00  0.1340E+00  0.1340E+00
     -5.684  0.0000E+00  0.0000E+00  0.1340E+00  0.1340E+00
     -5.645  0.0000E+00  0.0000E+00  0.1340E+00  0.1340E+00
     -5.605  0.0000E+00  0.0000E+00  0.1350E+00  0.1350E+00
     -5.566  0.0000E+00  0.0000E+00  0.1350E+00  0.1350E+00
     -5.526  0.0000E+00  0.0000E+00  0.1350E+00  0.1350E+00
     -5.487  0.0000E+00  0.0000E+00  0.1360E+00  0.1360E+00
     -5.447  0.0000E+00  0.0000E+00  0.1360E+00  0.1360E+00
     -5.407  0.0000E+00  0.0000E+00  0.1360E+00  0.1360E+00
     -5.368  0.0000E+00  0.0000E+00  0.1360E+00  0.1360E+00
     -5.328  0.0000E+00  0.0000E+00  0.1360E+00  0.1360E+00
     -5.289  0.0000E+00  0.0000E+00  0.1360E+00  0.1360E+00
     -5.249  0.0000E+00  0.0000E+00  0.1360E+00  0.1360E+00
     -5.209  0.0000E+00  0.0000E+00  0.1360E+00  0.1360E+00
     -5.170  0.0000E+00  0.0000E+00  0.1360E+00  0.1360E+00
     -5.130  0.0000E+00  0.0000E+00  0.1370E+00  0.1370E+00
     -5.091  0.0000E+00  0.0000E+00  0.1380E+00  0.1380E+00
     -5.051  0.0000E+00  0.0000E+00  0.1380E+00  0.1380E+00
     -5.012  0.0000E+00  0.0000E+00  0.1380E+00  0.1380E+00
     -4.972  0.0000E+00  0.0000E+00  0.1380E+00  0.1380E+00
     -4.932  0.0000E+00  0.0000E+00  0.1380E+00  0.1380E+00
     -4.893  0.0000E+00  0.0000E+00  0.1380E+00  0.1380E+00
     -4.853  0.0000E+00  0.0000E+00  0.1380E+00  0.1380E+00
     -4.814  0.0000E+00  0.0000E+00  0.1380E+00  0.1380E+00
     -4.774  0.0000E+00  0.0000E+00  0.1380E+00  0.1380E+00
     -4.735  0.0000E+00  0.0000E+00  0.1380E+00  0.1380E+00
     -4.695  0.0000E+00  0.0000E+00  0.1380E+00  0.1380E+00
     -4.655  0.0000E+00  0.0000E+00  0.1380E+00  0.1380E+00
     -4.616  0.0000E+00  0.0000E+00  0.1390E+00  0.1390E+00
     -4.576  0.0000E+00  0.0000E+00  0.1390E+00  0.1390E+00
     -4.537  0.0000E+00  0.0000E+00  0.1390E+00  0.1390E+00
     -4.497  0.0000E+00  0.0000E+00  0.1390E+00  0.1390E+00
     -4.457  0.0000E+00  0.0000E+00  0.1390E+00  0.1390E+00
     -4.418  0.0000E+00  0.0000E+00  0.1400E+00  0.1400E+00
     -4.378  0.0000E+00  0.0000E+00  0.1400E+00  0.1400E+00
     -4.339  0.0000E+00  0.0000E+00  0.1400E+00  0.1400E+00
     -4.299  0.0000E+00  0.0000E+00  0.1400E+00  0.1400E+00
     -4.260  0.0000E+00  0.0000E+00  0.1400E+00  0.1400E+00
     -4.220  0.0000E+00  0.0000E+00  0.1400E+00  0.1400E+00
     -4.180  0.0000E+00  0.0000E+00  0.1400E+00  0.1400E+00
     -4.141  0.0000E+00  0.0000E+00  0.1400E+00  0.1400E+00
     -4.101  0.0000E+00  0.0000E+00  0.1400E+00  0.1400E+00
     -4.062  0.0000E+00  0.0000E+00  0.1400E+00  0.1400E+00
     -4.022  0.0000E+00  0.0000E+00  0.1410E+00  0.1410E+00
     -3.982  0.0000E+00  0.0000E+00  0.1410E+00  0.1410E+00
     -3.943  0.0000E+00  0.0000E+00  0.1410E+00  0.1410E+00
     -3.903  0.0000E+00  0.0000E+00  0.1410E+00  0.1410E+00
     -3.864  0.0000E+00  0.0000E+00  0.1410E+00  0.1410E+00
     -3.824  0.0000E+00  0.0000E+00  0.1410E+00  0.1410E+00
     -3.785  0.0000E+00  0.0000E+00  0.1420E+00  0.1420E+00
     -3.745  0.0000E+00  0.0000E+00  0.1420E+00  0.1420E+00
     -3.705  0.0000E+00  0.0000E+00  0.1420E+00  0.1420E+00
     -3.666  0.0000E+00  0.0000E+00  0.1420E+00  0.1420E+00
     -3.626  0.0000E+00  0.0000E+00  0.1420E+00  0.1420E+00
     -3.587  0.0000E+00  0.0000E+00  0.1420E+00  0.1420E+00
     -3.547  0.0000E+00  0.0000E+00  0.1420E+00  0.1420E+00
     -3.508  0.0000E+00  0.0000E+00  0.1420E+00  0.1420E+00
     -3.468  0.0000E+00  0.0000E+00  0.1430E+00  0.1430E+00
     -3.428  0.0000E+00  0.0000E+00  0.1430E+00  0.1430E+00
     -3.389  0.0000E+00  0.0000E+00  0.1430E+00  0.1430E+00
     -3.349  0.0000E+00  0.0000E+00  0.1430E+00  0.1430E+00
     -3.310  0.0000E+00  0.0000E+00  0.1430E+00  0.1430E+00
     -3.270  0.0000E+00  0.0000E+00  0.1430E+00  0.1430E+00
     -3.230  0.0000E+00  0.0000E+00  0.1430E+00  0.1430E+00
     -3.191  0.0000E+00  0.0000E+00  0.1440E+00  0.1440E+00
     -3.151  0.0000E+00  0.0000E+00  0.1440E+00  0.1440E+00
     -3.112  0.0000E+00  0.0000E+00  0.1440E+00  0.1440E+00
     -3.072  0.0000E+00  0.0000E+00  0.1440E+00  0.1440E+00
     -3.033  0.0000E+00  0.0000E+00  0.1440E+00  0.1440E+00
     -2.993  0.0000E+00  0.0000E+00  0.1440E+00  0.1440E+00
     -2.953  0.0000E+00  0.0000E+00  0.1450E+00  0.1450E+00
     -2.914  0.0000E+00  0.0000E+00  0.1450E+00  0.1450E+00
     -2.874  0.0000E+00  0.0000E+00  0.1450E+00  0.1450E+00
     -2.835  0.0000E+00  0.0000E+00  0.1460E+00  0.1460E+00
     -2.795  0.0000E+00  0.0000E+00  0.1470E+00  0.1470E+00
     -2.755  0.0000E+00  0.0000E+00  0.1470E+00  0.1470E+00
     -2.716  0.0000E+00  0.0000E+00  0.1470E+00  0.1470E+00
     -2.676  0.0000E+00  0.0000E+00  0.1470E+00  0.1470E+00
     -2.637  0.0000E+00  0.0000E+00  0.1480E+00  0.1480E+00
     -2.597  0.0000E+00  0.0000E+00  0.1480E+00  0.1480E+00
     -2.558  0.0000E+00  0.0000E+00  0.1480E+00  0.1480E+00
     -2.518  0.0000E+00  0.0000E+00  0.1490E+00  0.1490E+00
     -2.478  0.0000E+00  0.0000E+00  0.1490E+00  0.1490E+00
     -2.439  0.0000E+00  0.0000E+00  0.1490E+00  0.1490E+00
     -2.399  0.0000E+00  0.0000E+00  0.1490E+00  0.1490E+00
     -2.360  0.0000E+00  0.0000E+00  0.1490E+00  0.1490E+00
     -2.320  0.0000E+00  0.0000E+00  0.1490E+00  0.1490E+00
     -2.281  0.2526E-01  0.2526E-01  0.1500E+00  0.1500E+00
     -2.241  0.0000E+00  0.0000E+00  0.1500E+00  0.1500E+00
     -2.201  0.0000E+00  0.0000E+00  0.1500E+00  0.1500E+00
     -2.162  0.0000E+00  0.0000E+00  0.1510E+00  0.1510E+00
     -2.122  0.0000E+00  0.0000E+00  0.1510E+00  0.1510E+00
     -2.083  0.0000E+00  0.0000E+00  0.1510E+00  0.1510E+00
     -2.043  0.0000E+00  0.0000E+00  0.1510E+00  0.1510E+00
     -2.003  0.0000E+00  0.0000E+00  0.1510E+00  0.1510E+00
     -1.964  0.0000E+00  0.0000E+00  0.1510E+00  0.1510E+00
     -1.924  0.0000E+00  0.0000E+00  0.1510E+00  0.1510E+00
     -1.885  0.0000E+00  0.0000E+00  0.1520E+00  0.1520E+00
     -1.845  0.0000E+00  0.0000E+00  0.1520E+00  0.1520E+00
     -1.806  0.0000E+00  0.0000E+00  0.1520E+00  0.1520E+00
     -1.766  0.0000E+00  0.0000E+00  0.1520E+00  0.1520E+00
     -1.726  0.0000E+00  0.0000E+00  0.1530E+00  0.1530E+00
     -1.687  0.0000E+00  0.0000E+00  0.1530E+00  0.1530E+00
     -1.647  0.0000E+00  0.0000E+00  0.1530E+00  0.1530E+00
     -1.608  0.0000E+00  0.0000E+00  0.1530E+00  0.1530E+00
     -1.568  0.0000E+00  0.0000E+00  0.1530E+00  0.1530E+00
     -1.528  0.0000E+00  0.0000E+00  0.1530E+00  0.1530E+00
     -1.489  0.0000E+00  0.0000E+00  0.1540E+00  0.1540E+00
     -1.449  0.0000E+00  0.0000E+00  0.1540E+00  0.1540E+00
     -1.410  0.0000E+00  0.0000E+00  0.1540E+00  0.1540E+00
     -1.370  0.0000E+00  0.0000E+00  0.1540E+00  0.1540E+00
     -1.331  0.0000E+00  0.0000E+00  0.1550E+00  0.1550E+00
     -1.291  0.0000E+00  0.0000E+00  0.1560E+00  0.1560E+00
     -1.251  0.0000E+00  0.0000E+00  0.1560E+00  0.1560E+00
     -1.212  0.0000E+00  0.0000E+00  0.1560E+00  0.1560E+00
     -1.172  0.0000E+00  0.0000E+00  0.1560E+00  0.1560E+00
     -1.133  0.0000E+00  0.0000E+00  0.1580E+00  0.1580E+00
     -1.093  0.0000E+00  0.0000E+00  0.1580E+00  0.1580E+00
     -1.053  0.0000E+00  0.0000E+00  0.1590E+00  0.1590E+00
     -1.014  0.0000E+00  0.0000E+00  0.1590E+00  0.1590E+00
     -0.974  0.0000E+00  0.0000E+00  0.1590E+00  0.1590E+00
     -0.935  0.0000E+00  0.0000E+00  0.1600E+00  0.1600E+00
     -0.895  0.0000E+00  0.0000E+00  0.1600E+00  0.1600E+00
     -0.856  0.0000E+00  0.0000E+00  0.1600E+00  0.1600E+00
     -0.816  0.0000E+00  0.0000E+00  0.1610E+00  0.1610E+00
     -0.776  0.0000E+00  0.0000E+00  0.1610E+00  0.1610E+00
     -0.737  0.0000E+00  0.0000E+00  0.1620E+00  0.1620E+00
     -0.697  0.0000E+00  0.0000E+00  0.1620E+00  0.1620E+00
     -0.658  0.0000E+00  0.0000E+00  0.1630E+00  0.1630E+00
     -0.618  0.0000E+00  0.0000E+00  0.1640E+00  0.1640E+00
     -0.579  0.0000E+00  0.0000E+00  0.1640E+00  0.1640E+00
     -0.539  0.0000E+00  0.0000E+00  0.1650E+00  0.1650E+00
     -0.499  0.0000E+00  0.0000E+00  0.1650E+00  0.1650E+00
     -0.460  0.0000E+00  0.0000E+00  0.1650E+00  0.1650E+00
     -0.420  0.0000E+00  0.0000E+00  0.1650E+00  0.1650E+00
     -0.381  0.0000E+00  0.0000E+00  0.1660E+00  0.1660E+00
     -0.341  0.0000E+00  0.0000E+00  0.1660E+00  0.1660E+00
     -0.301  0.0000E+00  0.0000E+00  0.1670E+00  0.1670E+00
     -0.262  0.0000E+00  0.0000E+00  0.1670E+00  0.1670E+00
     -0.222  0.0000E+00  0.0000E+00  0.1670E+00  0.1670E+00
     -0.183  0.0000E+00  0.0000E+00  0.1670E+00  0.1670E+00
     -0.143  0.0000E+00  0.0000E+00  0.1670E+00  0.1670E+00
     -0.104  0.0000E+00  0.0000E+00  0.1680E+00  0.1680E+00
     -0.064  0.0000E+00  0.0000E+00  0.1680E+00  0.1680E+00
     -0.024  0.0000E+00  0.0000E+00  0.1680E+00  0.1680E+00
      0.015  0.0000E+00  0.0000E+00  0.1680E+00  0.1680E+00
      0.055  0.0000E+00  0.0000E+00  0.1680E+00  0.1680E+00
      0.094  0.0000E+00  0.0000E+00  0.1680E+00  0.1680E+00
      0.134  0.0000E+00  0.0000E+00  0.1690E+00  0.1690E+00
      0.174  0.0000E+00  0.0000E+00  0.1690E+00  0.1690E+00
      0.213  0.0000E+00  0.0000E+00  0.1690E+00  0.1690E+00
      0.253  0.0000E+00  0.0000E+00  0.1700E+00  0.1700E+00
      0.292  0.0000E+00  0.0000E+00  0.1700E+00  0.1700E+00
      0.332  0.0000E+00  0.0000E+00  0.1700E+00  0.1700E+00
      0.371  0.0000E+00  0.0000E+00  0.1700E+00  0.1700E+00
      0.411  0.0000E+00  0.0000E+00  0.1710E+00  0.1710E+00
      0.451  0.0000E+00  0.0000E+00  0.1710E+00  0.1710E+00
      0.490  0.0000E+00  0.0000E+00  0.1720E+00  0.1720E+00
      0.530  0.0000E+00  0.0000E+00  0.1720E+00  0.1720E+00
      0.569  0.0000E+00  0.0000E+00  0.1740E+00  0.1740E+00
      0.609  0.0000E+00  0.0000E+00  0.1750E+00  0.1750E+00
      0.648  0.0000E+00  0.0000E+00  0.1760E+00  0.1760E+00
      0.688  0.0000E+00  0.0000E+00  0.1780E+00  0.1780E+00
      0.728  0.0000E+00  0.0000E+00  0.1780E+00  0.1780E+00
      0.767  0.0000E+00  0.0000E+00  0.1790E+00  0.1790E+00
      0.807  0.0000E+00  0.0000E+00  0.1790E+00  0.1790E+00
      0.846  0.0000E+00  0.0000E+00  0.1820E+00  0.1820E+00
      0.886  0.0000E+00  0.0000E+00  0.1830E+00  0.1830E+00
      0.926  0.0000E+00  0.0000E+00  0.1840E+00  0.1840E+00
      0.965  0.0000E+00  0.0000E+00  0.1840E+00  0.1840E+00
      1.005  0.0000E+00  0.0000E+00  0.1840E+00  0.1840E+00
      1.044  0.0000E+00  0.0000E+00  0.1840E+00  0.1840E+00
      1.084  0.0000E+00  0.0000E+00  0.1840E+00  0.1840E+00
      1.123  0.0000E+00  0.0000E+00  0.1840E+00  0.1840E+00
      1.163  0.0000E+00  0.0000E+00  0.1840E+00  0.1840E+00
      1.203  0.0000E+00  0.0000E+00  0.1840E+00  0.1840E+00
      1.242  0.0000E+00  0.0000E+00  0.1840E+00  0.1840E+00
      1.282  0.0000E+00  0.0000E+00  0.1840E+00  0.1840E+00
      1.321  0.0000E+00  0.0000E+00  0.1840E+00  0.1840E+00
      1.361  0.0000E+00  0.0000E+00  0.1840E+00  0.1840E+00
      1.401  0.0000E+00  0.0000E+00  0.1840E+00  0.1840E+00
      1.440  0.0000E+00  0.0000E+00  0.1840E+00  0.1840E+00
