30
Energy = -62.77952060 eV
Ag 10.608348905674324 14.754209987618031 13.422929642690985
Ag 9.860597063505148 13.503335187181264 15.879800079780575
Ag 10.498512873849378 10.762030174263558 15.521986980685982
Ag 11.205088092186996 8.134568738852076 14.86812431341424
Ag 13.50013086681624 14.980943421694855 13.56258673510502
Ag 12.20781682747284 12.747357871196236 14.61599606389447
Ag 15.121121512255183 14.46791404213802 11.273735239413385
Ag 12.706954984216166 10.118029078756557 13.727990811429628
Ag 14.043175968988919 12.306474146896699 12.5718480286364
Ag 9.865393347002628 9.60150225913883 12.938651827250963
Ag 9.105594744860069 12.377977424882149 13.498143850712017
Ag 11.817577548471519 7.765685217310426 12.06948393919905
Ag 13.492017283137308 9.97805967573873 11.019722183730035
Ag 12.284256956553527 14.334306590942326 11.159704578190944
Ag 13.894756897914363 12.513260126979898 9.665568303841734
Ag 10.827787990818607 9.53519834218749 10.012749809645227
Ag 8.248346753573397 8.447433905580708 10.75022678669532
Ag 8.616032911046542 11.182840984507415 11.024165674335098
Ag 11.347809477320705 11.740949271335896 11.764855915304846
Ag 12.806276181793567 12.638178571985254 6.869729645190224
Ag 12.955427579299764 7.694755439479389 9.431270110877525
Ag 11.159696738340163 12.52423941015207 9.089960063578118
Ag 12.959601824808257 10.242290175039225 8.215471113828885
Ag 9.492917381692802 13.809114965632377 10.9887401757725
Ag 10.301966074565678 6.802629748938366 9.758674380299523
Ag 6.478646649149087 10.373905817852297 9.521075693188566
Ag 11.05714611276831 8.239806459006598 7.418992259449068
Ag 10.535982238630574 10.958621825916103 6.864299891873468
Ag 8.479506679327827 12.22539614207848 8.484017663042502
Ag 8.650815919485742 9.368289382244448 8.138802624469498
