unknown system                          
           1
    21.231827    0.000000    0.000000
     0.000000   21.231827    0.000000
     0.000000    0.000000   21.231827
   Ag
  21
Direct configuration=     1
   0.57622488  0.49648539  0.69108439
   0.49918975  0.59000064  0.65450804
   0.65952392  0.49642588  0.59555130
   0.41090926  0.67721246  0.64454327
   0.55743663  0.55159623  0.54619107
   0.58199267  0.39971214  0.59748107
   0.73989432  0.56494756  0.52640631
   0.47412305  0.46547225  0.61419493
   0.69155389  0.45737843  0.48255261
   0.37951515  0.55136244  0.62861477
   0.50099151  0.42415363  0.49629609
   0.63708082  0.56593433  0.45194592
   0.37254227  0.63290626  0.53331790
   0.60985468  0.36557293  0.47477355
   0.46345707  0.58230499  0.46780065
   0.39208561  0.48763185  0.51966294
   0.55191267  0.64731430  0.40901102
   0.52553953  0.40154768  0.37490748
   0.54048538  0.52496924  0.38348427
   0.33477846  0.56174468  0.43354053
   0.42025152  0.47123458  0.39537427
Direct configuration=     2
   0.57617859  0.49643191  0.69112550
   0.49926945  0.59001404  0.65451954
   0.65970789  0.49656985  0.59578569
   0.41077559  0.67745315  0.64461634
   0.55725049  0.55160292  0.54640783
   0.58198527  0.39944412  0.59752231
   0.74005994  0.56516853  0.52643421
   0.47411386  0.46543677  0.61439541
   0.69166792  0.45708489  0.48232835
   0.37939649  0.55130261  0.62891658
   0.50088047  0.42423221  0.49627434
   0.63731388  0.56611447  0.45180827
   0.37231778  0.63310232  0.53333925
   0.60984824  0.36545853  0.47457933
   0.46340391  0.58218310  0.46768914
   0.39195875  0.48754101  0.51978116
   0.55202326  0.64757841  0.40885357
   0.52571891  0.40124688  0.37480729
   0.54047946  0.52485056  0.38331798
   0.33471330  0.56188456  0.43346422
   0.42027958  0.47120705  0.39527610
Direct configuration=     3
   0.57603971  0.49627145  0.69124881
   0.49950852  0.59005424  0.65455404
   0.66025981  0.49700177  0.59648888
   0.41037461  0.67817523  0.64483554
   0.55669206  0.55162298  0.54705809
   0.58196307  0.39864005  0.59764602
   0.74055680  0.56583145  0.52651790
   0.47408628  0.46533034  0.61499685
   0.69201004  0.45620428  0.48165556
   0.37904054  0.55112315  0.62982200
   0.50054736  0.42446793  0.49620909
   0.63801306  0.56665488  0.45139530
   0.37164430  0.63369050  0.53340330
   0.60982892  0.36511532  0.47399665
   0.46324440  0.58181741  0.46735461
   0.39157814  0.48726849  0.52013581
   0.55235502  0.64837075  0.40838121
   0.52625708  0.40034448  0.37450674
   0.54046172  0.52449451  0.38281911
   0.33451781  0.56230421  0.43323531
   0.42036378  0.47112445  0.39498158
Direct configuration=     4
   0.57576196  0.49595054  0.69149544
   0.49998668  0.59013464  0.65462304
   0.66136365  0.49786560  0.59789526
   0.40957263  0.67961938  0.64527394
   0.55557520  0.55166310  0.54835862
   0.58191867  0.39703193  0.59789344
   0.74155053  0.56715729  0.52668529
   0.47403112  0.46511749  0.61619972
   0.69269426  0.45444306  0.48030997
   0.37832862  0.55076422  0.63163285
   0.49988114  0.42493938  0.49607860
   0.63941141  0.56773572  0.45056936
   0.37029736  0.63486686  0.53353140
   0.60979027  0.36442889  0.47283130
   0.46292540  0.58108605  0.46668555
   0.39081694  0.48672346  0.52084512
   0.55301855  0.64995543  0.40743649
   0.52733341  0.39853968  0.37390563
   0.54042623  0.52378242  0.38182137
   0.33412683  0.56314351  0.43277748
   0.42053216  0.47095925  0.39439254
Direct configuration=     5
   0.57520645  0.49530871  0.69198870
   0.50094298  0.59029544  0.65476104
   0.66357134  0.49959326  0.60070801
   0.40796868  0.68250768  0.64615073
   0.55334149  0.55174336  0.55095968
   0.58182987  0.39381567  0.59838828
   0.74353798  0.56980896  0.52702006
   0.47392081  0.46469178  0.61860547
   0.69406272  0.45092061  0.47761881
   0.37690478  0.55004635  0.63525454
   0.49854871  0.42588228  0.49581761
   0.64220813  0.56989739  0.44891749
   0.36760347  0.63721959  0.53378761
   0.60971298  0.36305604  0.47050060
   0.46228740  0.57962332  0.46534742
   0.38929452  0.48563340  0.52226374
   0.55434561  0.65312479  0.40554705
   0.52948607  0.39493007  0.37270341
   0.54035525  0.52235823  0.37982589
   0.33334487  0.56482210  0.43186183
   0.42086893  0.47062886  0.39321445
Direct configuration=     6
   0.57545162  0.49559199  0.69177100
   0.50052091  0.59022447  0.65470013
   0.66259696  0.49883074  0.59946658
   0.40867660  0.68123291  0.64576375
   0.55432736  0.55170794  0.54981168
   0.58186907  0.39523519  0.59816988
   0.74266080  0.56863862  0.52687230
   0.47396950  0.46487967  0.61754368
   0.69345874  0.45247527  0.47880658
   0.37753320  0.55036319  0.63365607
   0.49913679  0.42546612  0.49593280
   0.64097377  0.56894332  0.44964656
   0.36879244  0.63618119  0.53367453
   0.60974709  0.36366196  0.47152928
   0.46256898  0.58026891  0.46593802
   0.38996645  0.48611451  0.52163762
   0.55375990  0.65172597  0.40638097
   0.52853597  0.39652320  0.37323402
   0.54038658  0.52298681  0.38070661
   0.33369000  0.56408124  0.43226596
   0.42072030  0.47077468  0.39373441
Direct configuration=     7
   0.57540984  0.49518183  0.69190091
   0.49985956  0.59094379  0.65517828
   0.66304786  0.49887905  0.59919705
   0.40817801  0.68147832  0.64584898
   0.55458544  0.55140943  0.54953169
   0.58211306  0.39491976  0.59803549
   0.74270713  0.56877821  0.52679723
   0.47376312  0.46461516  0.61795591
   0.69383610  0.45289429  0.47881710
   0.37743753  0.55068322  0.63435212
   0.49929435  0.42569382  0.49576948
   0.64113678  0.56916711  0.44965953
   0.36847441  0.63626822  0.53402125
   0.60927397  0.36314535  0.47100017
   0.46238728  0.58010827  0.46565307
   0.38941691  0.48631478  0.52203817
   0.55404519  0.65164306  0.40601358
   0.52889067  0.39571080  0.37311019
   0.54075948  0.52304267  0.38052673
   0.33377883  0.56442763  0.43221609
   0.42094749  0.47060312  0.39361942
Direct configuration=     8
   0.57530492  0.49415201  0.69222709
   0.49819906  0.59274984  0.65637882
   0.66417999  0.49900035  0.59852030
   0.40692614  0.68209449  0.64606297
   0.55523342  0.55065994  0.54882871
   0.58272569  0.39412779  0.59769808
   0.74282347  0.56912870  0.52660872
   0.47324496  0.46395102  0.61899093
   0.69478358  0.45394635  0.47884352
   0.37719732  0.55148674  0.63609972
   0.49968994  0.42626554  0.49535942
   0.64154605  0.56972899  0.44969208
   0.36767590  0.63648673  0.53489180
   0.60808606  0.36184825  0.46967169
   0.46193107  0.57970497  0.46493762
   0.38803713  0.48681761  0.52304385
   0.55476150  0.65143491  0.40509114
   0.52978123  0.39367103  0.37279931
   0.54169577  0.52318293  0.38007508
   0.33400188  0.56529735  0.43209086
   0.42151794  0.47017237  0.39333070
Direct configuration=     9
   0.57512281  0.49403762  0.69179310
   0.49811689  0.59268991  0.65645163
   0.66402767  0.49864231  0.59820647
   0.40616721  0.68245847  0.64629619
   0.55522754  0.55029753  0.54893091
   0.58301846  0.39441562  0.59731615
   0.74291086  0.56923493  0.52642796
   0.47302680  0.46394994  0.61898201
   0.69443611  0.45412186  0.47900938
   0.37720841  0.55183167  0.63663407
   0.49978009  0.42687109  0.49534955
   0.64141387  0.56984455  0.44987173
   0.36768350  0.63601240  0.53513723
   0.60830393  0.36175102  0.46939453
   0.46184541  0.57962987  0.46489378
   0.38786829  0.48727075  0.52340898
   0.55496194  0.65089799  0.40475356
   0.52982880  0.39344041  0.37262827
   0.54215043  0.52294728  0.38010713
   0.33431024  0.56563125  0.43214428
   0.42193378  0.46993142  0.39350552
Direct configuration=    10
   0.57457647  0.49369446  0.69049111
   0.49787038  0.59251012  0.65667005
   0.66357073  0.49756817  0.59726496
   0.40389043  0.68355039  0.64699585
   0.55520988  0.54921030  0.54923750
   0.58389676  0.39527912  0.59617034
   0.74317306  0.56955363  0.52588566
   0.47237232  0.46394670  0.61895525
   0.69339370  0.45464839  0.47950694
   0.37724169  0.55286645  0.63823711
   0.50005052  0.42868776  0.49531992
   0.64101734  0.57019124  0.45041069
   0.36770628  0.63458939  0.53587355
   0.60895753  0.36145935  0.46856306
   0.46158843  0.57940459  0.46476227
   0.38736174  0.48863016  0.52450440
   0.55556326  0.64928722  0.40374079
   0.52997152  0.39274857  0.37211516
   0.54351441  0.52224034  0.38020330
   0.33523531  0.56663295  0.43230451
   0.42318128  0.46920858  0.39402999
Direct configuration=    11
   0.57348379  0.49300813  0.68788715
   0.49737734  0.59215055  0.65710690
   0.66265685  0.49541991  0.59538195
   0.39933686  0.68573424  0.64839517
   0.55517456  0.54703585  0.54985069
   0.58565336  0.39700612  0.59387872
   0.74369744  0.57019102  0.52480107
   0.47106335  0.46394022  0.61890175
   0.69130888  0.45570145  0.48050206
   0.37730824  0.55493601  0.64144319
   0.50059139  0.43232110  0.49526067
   0.64022427  0.57088462  0.45148860
   0.36775185  0.63174339  0.53734617
   0.61026473  0.36087599  0.46690012
   0.46107448  0.57895401  0.46449925
   0.38634866  0.49134899  0.52669522
   0.55676590  0.64606570  0.40171526
   0.53025696  0.39136489  0.37108894
   0.54624238  0.52082645  0.38039563
   0.33708546  0.56863636  0.43262499
   0.42567627  0.46776289  0.39507893
Direct configuration=    12
   0.57418054  0.49344576  0.68954757
   0.49769173  0.59237983  0.65682834
   0.66323959  0.49678975  0.59658266
   0.40224045  0.68434171  0.64750289
   0.55519708  0.54842239  0.54945969
   0.58453326  0.39590489  0.59533997
   0.74336306  0.56978459  0.52549266
   0.47189801  0.46394436  0.61893587
   0.69263826  0.45502997  0.47986752
   0.37726581  0.55361635  0.63939883
   0.50024651  0.43000430  0.49529845
   0.64072997  0.57044249  0.45080127
   0.36772279  0.63355815  0.53640715
   0.60943119  0.36124797  0.46796050
   0.46140220  0.57924132  0.46466697
   0.38699465  0.48961533  0.52529824
   0.55599904  0.64811991  0.40300684
   0.53007495  0.39224719  0.37174331
   0.54450289  0.52172801  0.38027299
   0.33590571  0.56735889  0.43242064
   0.42408534  0.46868474  0.39441008
Direct configuration=    13
   0.57405719  0.49336652  0.68905733
   0.49752864  0.59262553  0.65673195
   0.66360131  0.49678747  0.59646772
   0.40137299  0.68459244  0.64787587
   0.55475418  0.54810089  0.54968720
   0.58455743  0.39605235  0.59464540
   0.74336452  0.56980638  0.52532751
   0.47143929  0.46391295  0.61892426
   0.69219516  0.45502461  0.47976410
   0.37711864  0.55394698  0.64039855
   0.50072602  0.43064726  0.49507086
   0.64093449  0.57054920  0.45137997
   0.36787233  0.63309395  0.53704277
   0.60947105  0.36122750  0.46753920
   0.46201965  0.57908502  0.46456190
   0.38679056  0.49016696  0.52566172
   0.55593751  0.64772813  0.40229492
   0.53014646  0.39201856  0.37167392
   0.54485928  0.52097316  0.38040565
   0.33612259  0.56769625  0.43205205
   0.42447375  0.46850579  0.39467955
Direct configuration=    14
   0.57368714  0.49312877  0.68758662
   0.49703940  0.59336261  0.65644279
   0.66468647  0.49678061  0.59612291
   0.39877064  0.68534463  0.64899480
   0.55342550  0.54713637  0.55036973
   0.58462992  0.39649472  0.59256168
   0.74336888  0.56987177  0.52483205
   0.47006312  0.46381873  0.61888945
   0.69086585  0.45500854  0.47945386
   0.37667712  0.55493886  0.64339773
   0.50216456  0.43257616  0.49438810
   0.64154803  0.57086932  0.45311608
   0.36832094  0.63170134  0.53894965
   0.60959061  0.36116611  0.46627532
   0.46387200  0.57861612  0.46424671
   0.38617826  0.49182186  0.52675215
   0.55575292  0.64655279  0.40015915
   0.53036100  0.39133264  0.37146576
   0.54592847  0.51870860  0.38080362
   0.33677322  0.56870835  0.43094628
   0.42563898  0.46796897  0.39548798
Direct configuration=    15
   0.57356771  0.49305204  0.68711197
   0.49688150  0.59360050  0.65634946
   0.66503670  0.49677840  0.59601163
   0.39793076  0.68558739  0.64935592
   0.55299668  0.54682509  0.55059001
   0.58465332  0.39663749  0.59188919
   0.74337029  0.56989288  0.52467215
   0.46961898  0.46378832  0.61887821
   0.69043683  0.45500336  0.47935374
   0.37653463  0.55525898  0.64436567
   0.50262882  0.43319868  0.49416774
   0.64174604  0.57097264  0.45367639
   0.36846573  0.63125189  0.53956507
   0.60962920  0.36114630  0.46586742
   0.46446982  0.57846478  0.46414499
   0.38598065  0.49235596  0.52710407
   0.55569335  0.64617346  0.39946985
   0.53043024  0.39111127  0.37139857
   0.54627354  0.51797774  0.38093206
   0.33698321  0.56903499  0.43058940
   0.42601504  0.46779572  0.39574889
Direct configuration=    16
   0.57351643  0.49311965  0.68651287
   0.49667006  0.59420676  0.65613500
   0.66558139  0.49718188  0.59624785
   0.39691249  0.68581972  0.65017263
   0.55270598  0.54648300  0.55123985
   0.58446068  0.39681570  0.59109661
   0.74387536  0.56990434  0.52475433
   0.46891204  0.46364705  0.61900733
   0.69016322  0.45479940  0.47893434
   0.37614477  0.55524991  0.64579265
   0.50323922  0.43378655  0.49386623
   0.64117778  0.57147975  0.45411847
   0.36895240  0.63058304  0.53992220
   0.60950985  0.36080292  0.46532737
   0.46503504  0.57830364  0.46400406
   0.38585117  0.49307561  0.52718567
   0.55577124  0.64561674  0.39831297
   0.53042308  0.39053574  0.37114982
   0.54695203  0.51721949  0.38131746
   0.33757802  0.56943754  0.43018941
   0.42591077  0.46783946  0.39595528
Direct configuration=    17
   0.57336260  0.49332247  0.68471556
   0.49603575  0.59602556  0.65549161
   0.66721549  0.49839231  0.59695652
   0.39385769  0.68651669  0.65262275
   0.55183388  0.54545671  0.55318938
   0.58388275  0.39735035  0.58871885
   0.74539056  0.56993874  0.52500090
   0.46679120  0.46322325  0.61939468
   0.68934240  0.45418755  0.47767614
   0.37497518  0.55522269  0.65007361
   0.50507040  0.43555015  0.49296170
   0.63947300  0.57300108  0.45544472
   0.37041241  0.62857647  0.54099356
   0.60915180  0.35977281  0.46370723
   0.46673072  0.57782021  0.46358128
   0.38546275  0.49523457  0.52743046
   0.55600490  0.64394655  0.39484233
   0.53040160  0.38880913  0.37040357
   0.54898752  0.51494474  0.38247364
   0.33936248  0.57064520  0.42898944
   0.42559796  0.46797068  0.39657448
Direct configuration=    18
   0.57329472  0.49341197  0.68392244
   0.49575584  0.59682817  0.65520769
   0.66793659  0.49892645  0.59726925
   0.39250965  0.68682426  0.65370395
   0.55144903  0.54500383  0.55404968
   0.58362773  0.39758629  0.58766958
   0.74605919  0.56995392  0.52510970
   0.46585531  0.46303623  0.61956561
   0.68898018  0.45391755  0.47712092
   0.37445906  0.55521067  0.65196273
   0.50587847  0.43632840  0.49256255
   0.63872071  0.57367242  0.45602998
   0.37105669  0.62769100  0.54146634
   0.60899380  0.35931824  0.46299228
   0.46747900  0.57760688  0.46339472
   0.38529134  0.49618729  0.52753848
   0.55610802  0.64320953  0.39331078
   0.53039213  0.38804720  0.37007426
   0.54988575  0.51394092  0.38298384
   0.34014993  0.57117812  0.42845991
   0.42545992  0.46802858  0.39684772
Direct configuration=    19
   0.57298137  0.49387509  0.68306816
   0.49491787  0.59782269  0.65494927
   0.66849087  0.49945155  0.59720105
   0.39117799  0.68655999  0.65481339
   0.55177004  0.54451190  0.55535050
   0.58365484  0.39822739  0.58697667
   0.74661911  0.56977591  0.52489559
   0.46494034  0.46277800  0.61991951
   0.68854502  0.45440721  0.47686544
   0.37397398  0.55482472  0.65368571
   0.50608093  0.43698221  0.49184982
   0.63816756  0.57416003  0.45743359
   0.37234319  0.62714097  0.54231132
   0.60887976  0.35829780  0.46246985
   0.46818634  0.57752267  0.46324498
   0.38549483  0.49693937  0.52742693
   0.55611624  0.64274426  0.39101648
   0.52969134  0.38712071  0.36936050
   0.55079861  0.51280743  0.38360735
   0.34144137  0.57174392  0.42800228
   0.42507142  0.46821409  0.39679403
Direct configuration=    20
   0.57204133  0.49526444  0.68050533
   0.49240397  0.60080625  0.65417401
   0.67015370  0.50102687  0.59699646
   0.38718303  0.68576719  0.65814169
   0.55273308  0.54303611  0.55925297
   0.58373617  0.40015070  0.58489792
   0.74829888  0.56924189  0.52425326
   0.46219546  0.46200330  0.62098119
   0.68723955  0.45587620  0.47609900
   0.37251873  0.55366688  0.65885462
   0.50668833  0.43894364  0.48971163
   0.63650813  0.57562286  0.46164441
   0.37620271  0.62549088  0.54484623
   0.60853762  0.35523649  0.46090257
   0.47030836  0.57727004  0.46279577
   0.38610531  0.49919560  0.52709228
   0.55614091  0.64134844  0.38413357
   0.52758900  0.38434123  0.36721924
   0.55353720  0.50940694  0.38547790
   0.34531567  0.57344134  0.42662939
   0.42390590  0.46877060  0.39663296
Direct configuration=    21
   0.57139439  0.49646875  0.68017029
   0.49037754  0.60194181  0.65365919
   0.67063259  0.50135201  0.59669873
   0.38561658  0.68488637  0.65948822
   0.55281716  0.54261260  0.56018186
   0.58418164  0.40154868  0.58428032
   0.74899867  0.56909502  0.52346360
   0.46140904  0.46168361  0.62135400
   0.68579556  0.45643920  0.47598984
   0.37224132  0.55273181  0.66005243
   0.50656293  0.43897153  0.48908755
   0.63508597  0.57653296  0.46368658
   0.37874048  0.62574284  0.54656732
   0.60830549  0.35461238  0.46042162
   0.47243451  0.57753951  0.46286012
   0.38689180  0.49893423  0.52688924
   0.55639247  0.64000902  0.38124155
   0.52593629  0.38319065  0.36668359
   0.55482630  0.50819489  0.38630329
   0.34708343  0.57448214  0.42630785
   0.42361887  0.46893787  0.39585525
Direct configuration=    22
   0.56945359  0.50008167  0.67916514
   0.48429824  0.60534850  0.65211474
   0.67206923  0.50232743  0.59580554
   0.38091726  0.68224393  0.66352779
   0.55306939  0.54134206  0.56296852
   0.58551805  0.40574264  0.58242750
   0.75109805  0.56865443  0.52109463
   0.45904979  0.46072455  0.62247244
   0.68146358  0.45812818  0.47566234
   0.37140909  0.54992662  0.66364586
   0.50618671  0.43905519  0.48721530
   0.63081949  0.57926326  0.46981309
   0.38635380  0.62649873  0.55173059
   0.60760909  0.35274004  0.45897877
   0.47881296  0.57834793  0.46305317
   0.38925129  0.49815012  0.52628011
   0.55714715  0.63599074  0.37256551
   0.52097819  0.37973891  0.36507661
   0.55869359  0.50455874  0.38877945
   0.35238672  0.57760454  0.42534321
   0.42275777  0.46943970  0.39352212
Direct configuration=    23
   0.56897336  0.50114668  0.67979240
   0.48308305  0.60592121  0.65125434
   0.67250686  0.50275486  0.59579604
   0.37930620  0.68180234  0.66525479
   0.55224182  0.54118140  0.56336880
   0.58590442  0.40681149  0.58192175
   0.75138063  0.56851687  0.52018204
   0.45890307  0.46032505  0.62286504
   0.67962497  0.45847922  0.47542647
   0.37098876  0.54880056  0.66421563
   0.50588737  0.43843504  0.48704905
   0.62952809  0.58040803  0.47100537
   0.38901886  0.62639157  0.55248977
   0.60714989  0.35274252  0.45848768
   0.48055160  0.57878406  0.46318655
   0.39007100  0.49808988  0.52558504
   0.55752646  0.63438711  0.37043122
   0.51961142  0.37909783  0.36517077
   0.55995847  0.50343591  0.38923677
   0.35427864  0.57869389  0.42568197
   0.42284810  0.46970239  0.39284092
Direct configuration=    24
   0.56753268  0.50434169  0.68167415
   0.47943746  0.60763936  0.64867314
   0.67381974  0.50403715  0.59576754
   0.37447300  0.68047759  0.67043579
   0.54975909  0.54069944  0.56456967
   0.58706353  0.41001802  0.58040449
   0.75222837  0.56810421  0.51744428
   0.45846290  0.45912654  0.62404286
   0.67410914  0.45953232  0.47471887
   0.36972776  0.54542238  0.66592495
   0.50498936  0.43657460  0.48655031
   0.62565388  0.58384234  0.47458221
   0.39701404  0.62607006  0.55476732
   0.60577228  0.35274995  0.45701441
   0.48576755  0.58009243  0.46358668
   0.39253015  0.49790918  0.52349983
   0.55866439  0.62957620  0.36402836
   0.51551111  0.37717460  0.36545322
   0.56375310  0.50006741  0.39060874
   0.35995441  0.58196194  0.42669827
   0.42311909  0.47049047  0.39079731
Direct configuration=    25
   0.56769372  0.50458279  0.68289401
   0.48027498  0.60723918  0.64898661
   0.67368586  0.50494640  0.59613681
   0.37345407  0.67997649  0.67117318
   0.54861254  0.54023445  0.56496110
   0.58712030  0.40996646  0.58052310
   0.75133681  0.56789208  0.51656163
   0.45912019  0.45877865  0.62410760
   0.67272424  0.46015086  0.47451685
   0.36952681  0.54498353  0.66529397
   0.50432491  0.43550395  0.48690735
   0.62579643  0.58463904  0.47385664
   0.39782399  0.62594938  0.55392918
   0.60516143  0.35325945  0.45655413
   0.48590672  0.58067554  0.46285269
   0.39318991  0.49826332  0.52284852
   0.55898911  0.62816312  0.36397791
   0.51500165  0.37749348  0.36622707
   0.56446371  0.49938438  0.39053577
   0.36122701  0.58276075  0.42756774
   0.42390864  0.47106459  0.39083055
Direct configuration=    26
   0.56814529  0.50525886  0.68631457
   0.48262342  0.60611708  0.64986560
   0.67331047  0.50749602  0.59717226
   0.37059695  0.67857136  0.67324085
   0.54539755  0.53893058  0.56605867
   0.58727948  0.40982186  0.58085570
   0.74883683  0.56729726  0.51408665
   0.46096325  0.45780317  0.62428913
   0.66884089  0.46188529  0.47395038
   0.36896332  0.54375295  0.66352467
   0.50246175  0.43250176  0.48790851
   0.62619617  0.58687303  0.47182208
   0.40009516  0.62561098  0.55157899
   0.60344854  0.35468812  0.45526350
   0.48629697  0.58231062  0.46079453
   0.39503993  0.49925634  0.52102221
   0.55989966  0.62420076  0.36383643
   0.51357309  0.37838765  0.36839699
   0.56645629  0.49746911  0.39033116
   0.36479543  0.58500064  0.43000578
   0.42612258  0.47267445  0.39092377
Direct configuration=    27
   0.56869129  0.50528634  0.68756658
   0.48268219  0.60600523  0.65153070
   0.67184617  0.50908131  0.59766567
   0.37011492  0.67655395  0.67315009
   0.54517205  0.53799874  0.56479518
   0.58749798  0.40966819  0.58143092
   0.74719257  0.56707491  0.51252183
   0.46168530  0.45706545  0.62422520
   0.66702556  0.46317385  0.47425798
   0.36948897  0.54388280  0.66156718
   0.50148542  0.43090184  0.48901905
   0.62588884  0.58745218  0.47113755
   0.40094724  0.62620330  0.55177242
   0.60306791  0.35530027  0.45491737
   0.48767842  0.58261524  0.46005855
   0.39620539  0.49919874  0.52132375
   0.56048472  0.62279254  0.36372210
   0.51277988  0.37867257  0.36880353
   0.56713347  0.49618671  0.39063178
   0.36489423  0.58657478  0.43012818
   0.42738050  0.47421894  0.39101680
Direct configuration=    28
   0.56957742  0.50533095  0.68959852
   0.48277755  0.60582370  0.65423304
   0.66946971  0.51165414  0.59846645
   0.36933263  0.67327983  0.67300279
   0.54480608  0.53648644  0.56274463
   0.58785259  0.40941881  0.58236447
   0.74452406  0.56671407  0.50998224
   0.46285712  0.45586819  0.62412143
   0.66407942  0.46526508  0.47475721
   0.37034207  0.54409353  0.65839030
   0.49990090  0.42830529  0.49082139
   0.62539007  0.58839210  0.47002661
   0.40233010  0.62716458  0.55208633
   0.60245018  0.35629374  0.45435562
   0.48992042  0.58310962  0.45886410
   0.39809685  0.49910527  0.52181313
   0.56143423  0.62050708  0.36353655
   0.51149254  0.37913498  0.36946333
   0.56823249  0.49410546  0.39111965
   0.36505457  0.58912950  0.43032683
   0.42942202  0.47672553  0.39116780
Direct configuration=    29
   0.56949832  0.50543906  0.68882335
   0.48360747  0.60486176  0.65532570
   0.66731777  0.51350245  0.59879690
   0.36934825  0.67133225  0.67243222
   0.54488493  0.53618842  0.56293015
   0.58836845  0.40903902  0.58327798
   0.74351795  0.56662355  0.50879202
   0.46366339  0.45482264  0.62465752
   0.66331877  0.46571719  0.47642439
   0.37110672  0.54362020  0.65526993
   0.49930401  0.42629083  0.49179468
   0.62439710  0.58945547  0.47003920
   0.40375916  0.62779733  0.55276328
   0.60292602  0.35665724  0.45445001
   0.48940153  0.58309014  0.45909432
   0.39872087  0.50027626  0.52245865
   0.56246302  0.62031892  0.36136136
   0.51031691  0.37864276  0.36890173
   0.56800188  0.49246050  0.39156291
   0.36500760  0.59050473  0.43051825
   0.43041294  0.47926720  0.39156785
Direct configuration=    30
   0.56939437  0.50558110  0.68780478
   0.48469798  0.60359776  0.65676145
   0.66449011  0.51593115  0.59923113
   0.36936878  0.66877311  0.67168249
   0.54498853  0.53579683  0.56317392
   0.58904629  0.40853997  0.58447834
   0.74219592  0.56650461  0.50722806
   0.46472282  0.45344878  0.62536193
   0.66231926  0.46631125  0.47861507
   0.37211146  0.54299825  0.65116976
   0.49851969  0.42364383  0.49307359
   0.62309234  0.59085273  0.47005574
   0.40563696  0.62862875  0.55365280
   0.60355128  0.35713487  0.45457405
   0.48871969  0.58306453  0.45939683
   0.39954083  0.50181494  0.52330686
   0.56381486  0.62007166  0.35850315
   0.50877211  0.37799597  0.36816380
   0.56769886  0.49029901  0.39214536
   0.36494588  0.59231179  0.43076979
   0.43171501  0.48260698  0.39209351
Direct configuration=    31
   0.56878344  0.50527034  0.68730509
   0.48618940  0.60245734  0.65742954
   0.66491385  0.51850331  0.59925317
   0.36946320  0.66814906  0.67150633
   0.54303517  0.53629570  0.56264909
   0.58965821  0.40769613  0.58522487
   0.74164378  0.56669774  0.50692845
   0.46519956  0.45172227  0.62582059
   0.66231192  0.46603556  0.48104005
   0.37232612  0.54069832  0.64798724
   0.49771836  0.42180255  0.49337475
   0.62058273  0.59209871  0.46992788
   0.40790346  0.63002091  0.55359374
   0.60396646  0.35744508  0.45403659
   0.48934534  0.58387912  0.45874946
   0.40060237  0.50288281  0.52361925
   0.56425566  0.61864653  0.35698961
   0.50742265  0.37715122  0.36825354
   0.56690953  0.48986066  0.39335491
   0.36446502  0.59393068  0.43142264
   0.43264681  0.48466386  0.39277565
Direct configuration=    32
   0.56855175  0.50515248  0.68711558
   0.48675501  0.60202484  0.65768291
   0.66507455  0.51947879  0.59926154
   0.36949901  0.66791239  0.67143952
   0.54229437  0.53648490  0.56245005
   0.58989028  0.40737611  0.58550799
   0.74143438  0.56677099  0.50681483
   0.46538036  0.45106751  0.62599453
   0.66230914  0.46593100  0.48195971
   0.37240753  0.53982609  0.64678029
   0.49741446  0.42110425  0.49348896
   0.61963097  0.59257124  0.46987939
   0.40876302  0.63054888  0.55357134
   0.60412391  0.35756272  0.45383276
   0.48958262  0.58418805  0.45850394
   0.40100495  0.50328779  0.52373772
   0.56442283  0.61810606  0.35641561
   0.50691087  0.37683085  0.36828757
   0.56661018  0.48969442  0.39381363
   0.36428265  0.59454464  0.43167023
   0.43300019  0.48544392  0.39303434
Direct configuration=    33
   0.56874301  0.50404589  0.68704108
   0.48589502  0.60210524  0.65818548
   0.66544061  0.52181472  0.59949064
   0.37014704  0.66749021  0.67136740
   0.54092181  0.53578725  0.56217014
   0.59032031  0.40768292  0.58533917
   0.74094543  0.56772885  0.50681991
   0.46545601  0.44910690  0.62561849
   0.66234217  0.46567946  0.48337844
   0.37240156  0.53874793  0.64571591
   0.49710823  0.42010384  0.49350827
   0.61912922  0.59250087  0.47053175
   0.41079701  0.63194869  0.55333557
   0.60397529  0.35790368  0.45273036
   0.48948295  0.58633462  0.45656505
   0.40258778  0.50335066  0.52266491
   0.56402953  0.61615841  0.35573617
   0.50608633  0.37660355  0.36936058
   0.56635988  0.48977537  0.39559339
   0.36419993  0.59546131  0.43271474
   0.43297391  0.48557751  0.39337496
Direct configuration=    34
   0.56902489  0.50241501  0.68693127
   0.48462757  0.60222373  0.65892617
   0.66598012  0.52525740  0.59982830
   0.37110210  0.66686801  0.67126111
   0.53889894  0.53475906  0.56175760
   0.59095408  0.40813511  0.58509037
   0.74022481  0.56914055  0.50682740
   0.46556751  0.44621736  0.62506427
   0.66239085  0.46530874  0.48546937
   0.37239276  0.53715895  0.64414724
   0.49665691  0.41862945  0.49353673
   0.61838975  0.59239717  0.47149321
   0.41379471  0.63401172  0.55298810
   0.60375625  0.35840618  0.45110566
   0.48933607  0.58949823  0.45370751
   0.40492054  0.50344332  0.52108381
   0.56344989  0.61328797  0.35473482
   0.50487112  0.37626856  0.37094196
   0.56599099  0.48989469  0.39821640
   0.36407802  0.59681229  0.43425415
   0.43293519  0.48577439  0.39387697
Direct configuration=    35
   0.56891386  0.50145651  0.68605110
   0.48426313  0.60151683  0.65964341
   0.66410533  0.52737420  0.60054487
   0.37159109  0.66643095  0.67118855
   0.53738218  0.53428014  0.56122918
   0.59151297  0.40920238  0.58451712
   0.74038043  0.57079819  0.50639472
   0.46513755  0.44415969  0.62424672
   0.66273591  0.46537849  0.48687829
   0.37302606  0.53689736  0.64331367
   0.49696386  0.41735285  0.49423606
   0.61850941  0.59180338  0.47289578
   0.41620592  0.63445178  0.55260027
   0.60418789  0.35885173  0.44994841
   0.48879445  0.59186715  0.45354356
   0.40642539  0.50450053  0.52061623
   0.56376087  0.61157570  0.35285816
   0.50357061  0.37617792  0.37123486
   0.56587074  0.48896812  0.40045265
   0.36367684  0.59741010  0.43536946
   0.43232853  0.48545390  0.39347935
Direct configuration=    36
   0.56881310  0.50058674  0.68525242
   0.48393244  0.60087536  0.66029425
   0.66240410  0.52929504  0.60119511
   0.37203481  0.66603435  0.67112271
   0.53600583  0.53384556  0.56074967
   0.59202012  0.41017084  0.58399693
   0.74052164  0.57230236  0.50600210
   0.46474738  0.44229251  0.62350485
   0.66304903  0.46544178  0.48815679
   0.37360074  0.53665999  0.64255727
   0.49724240  0.41619444  0.49487065
   0.61861800  0.59126456  0.47416851
   0.41839392  0.63485110  0.55224835
   0.60457958  0.35925604  0.44889829
   0.48830297  0.59401677  0.45339478
   0.40779093  0.50545987  0.52019194
   0.56404308  0.61002194  0.35115522
   0.50239050  0.37609567  0.37150065
   0.56576162  0.48812732  0.40248187
   0.36331280  0.59795257  0.43638151
   0.43177803  0.48516308  0.39311854
Direct configuration=    37
   0.56885290  0.50093032  0.68556792