10
Energy = -17.76174155 eV
Ag 6.243595034567999 5.483295341317964 3.1549175168477075
Ag 4.12810600474458 6.869305345934502 4.207562753534557
Ag 3.8586373481458787 4.1211735250761095 3.7696364281514323
Ag 6.680648530119865 8.07206063330237 4.400110668508382
Ag 6.22925301634395 3.2141883478702695 4.813567191483392
Ag 3.764924776052726 2.379564438874674 6.030015279605443
Ag 7.365312462603278 5.634283405765842 5.650625301980073
Ag 5.241170262700303 7.000809893244666 6.709062041981118
Ag 5.531456956634579 4.257595152753437 7.256336434456814
Ag 3.1619174944911306 5.172745802264858 6.213188269855358
