19
Energy = -37.35669232 eV
Ag 4.023350473148761 6.0443073058142325 4.980607479768531
Ag 6.373514857915919 4.5362034508891105 5.272197396377566
Ag 9.374127353893662 5.7031768317110325 9.095970173239591
Ag 10.7048329606356 6.247665872176998 6.517739099534653
Ag 4.587434632122197 8.305338237797692 6.500729170771168
Ag 8.40964124414075 8.028568125756488 10.556006407262915
Ag 9.081853987071668 4.023785849491937 5.706923699192231
Ag 8.544981378412867 10.688560091649176 7.353009221842297
Ag 7.980635654956269 6.266943865499575 6.7400876124362865
Ag 5.11324255810074 5.74500911896016 7.518303095679136
Ag 9.8543674280784 8.324654375116621 8.159463373895361
Ag 6.5130938328205765 7.340107416467547 4.63082860539144
Ag 7.293848717942459 3.9414656384119646 8.035259730463507
Ag 8.960119933167189 8.532385113666662 5.518409648230298
Ag 6.582038138447644 9.980599725324776 5.504470793595579
Ag 6.676724818674996 6.0760898818112485 9.746423510665716
Ag 7.057995657801293 8.484310438984787 8.148051337785406
Ag 4.634515284407642 7.934703496830899 9.309627957041839
Ag 5.355991262443397 10.558137137010402 7.977457341318149
