16
Energy = -30.94489811 eV
Ag 6.636931766609505 7.536037820992576 11.004378754056123
Ag 5.420667857155856 9.470477147878233 9.222631815923087
Ag 6.279595891274041 8.801566011621677 6.554288754046848
Ag 7.405623357459351 10.926422164421002 7.786562982373485
Ag 3.5999505261090183 8.385670821067698 7.321161318667574
Ag 9.928239350308862 6.187561199959359 5.333092019266683
Ag 4.9938458068745515 6.672145878493544 5.555785921809816
Ag 7.5262844909735 6.078916377782907 6.697389704429577
Ag 8.051664966136869 8.44088222928583 8.853967018657848
Ag 7.924765654636357 5.552517379188309 9.351957218498233
Ag 5.489548103692585 6.743598907098817 8.517471749538883
Ag 9.089471193171583 8.643857577780988 6.310981989981484
Ag 9.534426259969376 7.228984059719359 10.87008570304041
Ag 10.189103520143128 6.779302536022651 8.10981662181574
Ag 9.402145931382252 4.175080330485647 7.3522977171462545
Ag 7.465577054780638 7.293369274868299 4.267520862023978
