19
Energy = -38.1076238 eV
Ag 6.048032850198807 9.898307543089192 8.622056230480958
Ag 10.058159999999953 10.973438765032343 12.495740366398234
Ag 10.058159999999955 9.257401045066455 10.271208525805251
Ag 7.638125237680884 10.55926297444424 10.912194353544848
Ag 10.058169999999897 7.529964493912854 8.105170909996106
Ag 8.642820114477864 8.445756896346307 12.533046682177652
Ag 12.434834718147089 7.916429906868213 9.780957397883611
Ag 7.681475281852726 7.916433906868221 9.78094239788362
Ag 10.058154000000018 6.556422357258319 10.879534645563304
Ag 11.473480885522044 8.4457478963464 12.53304368217768
Ag 11.451708635552682 10.024496525978947 7.888274701955285
Ag 12.478183762319182 10.559264974444313 10.912193353544668
Ag 10.058156999999989 12.009263425213085 9.34204910209938
Ag 12.752909369146096 12.404977937874703 8.854796686728331
Ag 8.66460036444724 10.024486525979002 7.888276701955358
Ag 11.504313597283844 13.140022672157022 11.414304172298028
Ag 8.61200140271602 13.140017672156977 11.41431117229786
Ag 7.363398630853935 12.404978937874596 8.854798686728408
Ag 14.068277149801153 9.898306543089298 8.622061230481002
