14
Energy = -26.80547788 eV
Ag 5.849921408168805 7.8855823578647515 5.545287299609435
Ag 8.561906983894318 7.827087496086414 5.923608676537252
Ag 7.914754409517032 6.783863395958555 3.4014996250203566
Ag 6.921442938316951 7.888879762010808 8.125494453790436
Ag 6.188447461008193 5.221010637314332 8.125494453790436
Ag 7.909324461418101 6.237515653750077 10.167348795945333
Ag 5.200565937907328 6.872374745575071 10.167348795945333
Ag 10.001165 5.639719019522433 5.020424456866379
Ag 7.25996899115634 5.224308041460395 5.545287299609435
Ag 5.1951359898083975 6.326027003366591 3.4014996250203566
Ag 9.028828728233538 5.747486999239269 7.700953089868957
Ag 4.547983415430828 5.28280290323873 5.923608676537252
Ag 4.081061671091607 7.362403400085877 7.700953089868957
Ag 3.108725399325144 7.47017137980271 5.020424456866379
