14
Energy = -25.6762737 eV
Ag 6.550112386718125 6.550112386718125 8.638481999999998
Ag 6.550112386718125 8.638481999999998 6.550112386718125
Ag 4.4617427734362485 6.550112386718125 6.550112386718125
Ag 6.550112386718125 6.550112386718125 4.4617427734362485
Ag 8.638481999999998 6.550112386718125 6.550112386718125
Ag 6.550112386718125 4.4617427734362485 6.550112386718125
Ag 4.601870411192521 4.601870411192521 8.498354362243726
Ag 8.498354362243726 8.498354362243726 4.601870411192521
Ag 8.498354362243726 4.601870411192521 4.601870411192521
Ag 8.498354362243726 8.498354362243726 8.498354362243726
Ag 4.601870411192521 8.498354362243726 8.498354362243726
Ag 4.601870411192521 8.498354362243726 4.601870411192521
Ag 4.601870411192521 4.601870411192521 4.601870411192521
Ag 8.498354362243726 4.601870411192521 8.498354362243726
