17
Energy = -32.92069947 eV
Ag 8.703969574782448 10.130567981978507 7.799139886180865
Ag 8.246741006398578 9.513779886771449 5.0534801628157755
Ag 6.176787072552249 9.302828224796038 7.009001118055726
Ag 9.177769146178136 7.595498302713089 6.8237356955956585
Ag 7.489529336799103 8.061734883933735 9.156708844294046
Ag 5.753861946945935 8.555736309528106 4.309828266183317
Ag 7.971849679545377 6.860737829813336 4.3097626507416935
Ag 3.9124639386525044 7.893663925921743 6.229824737899759
Ag 4.6825445987675085 7.867434115507424 8.91056330666129
Ag 8.079454065862457 6.293719724500818 11.123828663069403
Ag 5.230012383176258 5.843310077782124 4.885215945935221
Ag 7.279320728032132 4.200193201896603 4.103334260080126
Ag 4.19668461602651 5.405871661995921 7.462502743259505
Ag 8.78300429573341 5.486197847993786 8.575852526560338
Ag 6.70081636430012 4.412041761796423 6.860551134898788
Ag 6.086616877218012 5.534808800528851 9.406569284364853
Ag 9.279714062612737 4.998109483434868 5.915185437475228
