26
Energy = -53.14502004 eV
Ag 3.607276256268901 6.956136803746808 8.772662655196509
Ag 4.664141020997055 4.57409449420154 10.296750943207341
Ag 1.72382918066798 6.1351262296959 6.659835233804523
Ag 2.4789736787099548 4.301472200630533 8.523658978730685
Ag 6.921140960094194 6.293134234246359 9.305956373553558
Ag 5.913563266624277 7.825228924152057 7.187690067058924
Ag 3.338732571936205 8.357850946789405 6.343820255085716
Ag 3.383111920301998 3.947011305419205 5.725305065267093
Ag 5.107042005918065 4.99513153034758 7.674963451213171
Ag 4.368487906882424 2.3169835269752963 7.975984218514758
Ag 3.1098753777091437 6.469774373292459 4.212159536186719
Ag 6.937007761465965 3.3296859002338963 8.844931989831638
Ag 5.528212056811792 5.714719759294532 5.107290220564045
Ag 5.308745799187161 8.419846090070493 4.395526390380469
Ag 5.244847815413063 3.7749976858323935 3.2705573568128576
Ag 6.216569391684371 3.0516232983253464 5.915411059517226
Ag 7.554312046125427 9.790397181175656 5.751972574825464
Ag 7.935101960360947 5.106912153966835 6.9018836086134
Ag 7.818132580737445 7.196347032177668 4.982958315141002
Ag 8.680396852041389 7.759087624883731 7.61468329846764
Ag 7.7376517136894725 8.999568188992752 2.9068779700925034
Ag 6.49250717788254 6.372335490786904 2.531096391721626
Ag 7.940417575708063 4.437380842293602 4.108240299620339
Ag 10.018233727881782 8.777987978320061 4.57889010286809
Ag 10.219670945748264 6.029664421113013 5.3311438719003705
Ag 9.313690480904768 6.642663638163179 2.6657737671455184
