23
Energy = -45.69395906 eV
Ag 9.674057060893126 5.628666406844755 10.126829601205182
Ag 9.238588052268364 5.606681836686748 4.616816352897736
Ag 9.290071388052096 8.060318713200505 6.125598099200263
Ag 9.844808922547957 5.646048277710248 7.360328984040677
Ag 8.059642525270071 6.028742994310005 2.0167829011632064
Ag 7.688299902099484 4.394259356407753 8.663106863210185
Ag 6.5131566041586435 4.883456445215636 3.9787310069283848
Ag 7.920441193435829 7.410391363767148 8.898085361783188
Ag 7.384694475552427 7.767618513215863 4.057968494596881
Ag 7.201915410530113 6.192724167613384 6.449268789844389
Ag 6.672279545780384 8.954797442207962 6.47576619954277
Ag 7.344388415406993 9.242328577890955 10.857618807412422
Ag 5.355113545085281 6.916762830491401 2.3203877230744343
Ag 5.037766577125166 3.1823779711814155 8.836072542814694
Ag 4.706688679423075 8.710293955211997 4.413963721174532
Ag 5.469036648653646 8.810564815269238 8.960513313919586
Ag 6.202631454831791 3.616796568513062 6.424204102696641
Ag 5.369257305127943 5.955252373830544 8.601598936977277
Ag 3.9226180428003725 6.058227782997152 4.50831045006455
Ag 4.294686768065583 10.282467263227437 6.789720719915784
Ag 4.242535514994815 3.2924479553103017 4.540241502579328
Ag 3.9873358878272502 7.544739478546265 6.867209558515154
Ag 3.5640558493487053 4.706109009944481 6.910026363620834
