20
Energy = -40.18301849 eV
Ag 9.45645185015639 5.064592710308057 5.99130120390712
Ag 8.022252094905502 2.7597041685980286 6.743620916131206
Ag 10.090205343626483 7.861900011613033 5.176467869316199
Ag 6.78939240313579 4.499443298685702 4.968063608415723
Ag 7.627647723770977 9.02189801922358 3.8892326901401564
Ag 7.592673775050905 7.026277108781929 5.7231939411586525
Ag 5.5460982375877945 6.921973757313434 3.8986240181294503
Ag 9.340508632501065 7.236718422099452 7.917721131982692
Ag 3.9602061757036275 4.761853004757544 4.849784097397202
Ag 7.451536895992323 5.142532709196376 8.062496090097959
Ag 8.268423752460913 9.58394749132776 6.6537961284081195
Ag 8.530552141021202 9.414571391549247 9.550703952376624
Ag 6.51132605087456 8.124257407994806 8.32388505922471
Ag 5.324600499468803 3.5388146599959804 7.23278539376198
Ag 7.810125760582769 6.762636463876812 10.342348455388032
Ag 3.124870870552133 7.582961527650226 5.313921503862911
Ag 5.50232263446693 9.011050608117852 5.837404474320145
Ag 5.0737715184548975 6.262507451290326 6.765621383496995
Ag 3.7496950801290136 8.242571693113376 8.126593146240152
Ag 5.161215034608527 6.031615225466313 9.535785212698826
