22
Energy = -43.71714197 eV
Ag 8.779745327717603 7.2080412747840175 9.472035997176766
Ag 9.93609735508375 5.027438524489586 8.152962979721543
Ag 8.055679576868751 2.8922924181990437 7.580688060641332
Ag 10.481870056718 5.548439410217259 5.358738655108116
Ag 7.8518191834046265 5.4415301174435315 6.3924726454542755
Ag 9.561954637000724 7.679612473743004 6.844231598963949
Ag 8.38388196036222 7.0116776274904 4.2136909363672
Ag 7.12858902531767 4.987119159878927 9.109918680639296
Ag 6.015448373231583 7.44917287615915 9.685560055261421
Ag 7.6560652349425355 9.292319419986322 8.037025792574706
Ag 5.587169184558554 3.9483163518720024 6.7914533102185395
Ag 8.294802038072914 9.647806039520471 5.362915026922372
Ag 4.387207610730639 5.32648274605808 9.00182820489281
Ag 3.2627058376109135 7.74760213376032 8.24537533340958
Ag 3.501922615826855 5.800183251030416 6.335617569095654
Ag 5.724277338133884 7.522163832504426 6.798531591231119
Ag 5.723622504233176 5.755619927969264 4.5341685139054295
Ag 6.012602748985491 8.522852220298287 4.100081554979751
Ag 5.688451178951684 10.325293193054778 6.092042673583818
Ag 6.637291722842825 6.773085871842301 2.09062133299343
Ag 3.8495600822542135 3.679333494963942 4.654198469888566
Ag 5.0074156403422005 9.847287942432546 8.73447872776712
