29
Energy = -59.99773558 eV
Ag 9.007927886411805 9.10062387503489 8.83384247738666
Ag 8.313614055527038 11.202938530347849 7.070789971206918
Ag 7.346730365117196 8.009948973317709 10.740965709288458
Ag 9.942050978374594 7.55500135120864 6.706975467172638
Ag 6.294141569182131 10.02130851855866 9.02692804169186
Ag 8.966733243007678 9.371524333700885 4.682034198537244
Ag 7.79694675241971 6.375230849418834 8.11521093996707
Ag 5.58215779171819 10.997175674316283 6.391657919469956
Ag 6.77276823224799 5.259169266735532 10.443389747662003
Ag 7.25448948236158 8.747472820724994 6.677136456762642
Ag 9.633794884460018 4.7133342155845614 6.439120410039888
Ag 5.248568067384322 7.304313273983335 9.144703194998005
Ag 8.424944363829017 6.584679166456031 4.62548084552487
Ag 7.771351512381182 3.44538382818096 8.444601075105574
Ag 8.48050811980389 3.8965500265799204 3.7843807414426993
Ag 3.0072517054538888 6.424970691111015 7.352262768666168
Ag 6.920641602030142 4.526842541399022 6.009295746096429
Ag 6.353394567352304 8.270389076895782 3.9699760077202306
Ag 8.300134044629973 2.114333185488448 5.983092030163347
Ag 3.9616539905309125 9.146764082033245 7.671947082956964
Ag 5.395324531378718 6.84898494827755 6.22784538566274
Ag 5.613800277720219 2.192669840273837 6.944533037098548
Ag 3.939826537688123 9.210049157522699 4.957140746308912
Ag 6.092815228341234 5.446645205393033 3.4429304721599867
Ag 5.133509047556625 4.6597105357923905 8.231961602006777
Ag 5.965004454840733 2.6287073810865986 4.1247998176612235
Ag 4.02827123112691 4.198549757250998 5.690413986145294
Ag 3.5727696171136056 6.550084247355082 4.139675725976539
Ag 3.7688795790248384 4.002457867238417 2.9432718750467246
