22
Energy = -44.16874651 eV
Ag 4.289156340951101 2.7216981317921425 5.894162642399049
Ag 3.8272912662758136 4.450105441667349 7.975630859053874
Ag 2.9617166528166043 5.268438006365773 5.444390187242984
Ag 6.4422478606729525 3.8520706082260414 7.358030269457938
Ag 5.622854794993164 4.898293091238626 4.78174203711544
Ag 9.141620909176355 3.1504172808295654 7.415019791071246
Ag 5.53644491758023 6.094124779920129 9.325944584831499
Ag 3.7876365022967846 7.224538052205397 7.431738732696844
Ag 4.400735741299296 7.461317329193835 4.639453266111001
Ag 8.36788918057432 4.944269984764897 5.425907245441334
Ag 8.207401406422091 5.331680710548189 8.903220124477734
Ag 6.5570626552240485 6.79229854017268 6.69864606135092
Ag 10.392260327146168 5.691882048440204 7.188970333863149
Ag 7.471701180998825 7.56741282788406 10.610421397671915
Ag 7.198838017349049 7.09903820059074 3.9144783773197838
Ag 5.981626952251446 8.821556872248348 8.62846174843292
Ag 4.697222934987531 9.68983294676489 6.322350337046052
Ag 9.467554681663982 7.58273921591226 5.472927522656328
Ag 8.691970110132804 9.46938081422444 3.5899353214961263
Ag 8.75323440268566 7.9538205158050035 8.148747588924364
Ag 7.485597647437428 9.472695563805644 6.143342480655264
Ag 5.883124045490572 9.6434437596288 3.8139453875274363
