27
Energy = -55.82131323 eV
Ag 2.6751476486348897 7.636125254565691 10.060089106477978
Ag 4.7764080191133935 8.48314315237809 8.399851614701616
Ag 6.860919697300367 9.308147053826003 6.678095863347459
Ag 9.337671899871749 9.76358740514214 7.740902315608985
Ag 5.28433633724868 6.9116940526879596 10.673086630990367
Ag 7.50405909702672 7.953016336957117 9.153663947433827
Ag 7.8037851144266694 6.004830812891199 11.214058008193524
Ag 2.288389113483267 7.652083643538491 7.266579410647008
Ag 9.110314772670405 9.334557126042741 4.896128754283093
Ag 4.37296172883946 8.482754136920168 5.56327376327371
Ag 9.024508093198158 7.250215817673437 6.729362127023912
Ag 3.902621438671712 5.697422956264938 8.481980634855981
Ag 6.246716619970218 6.576125589245784 6.758178258946579
Ag 8.477523104976981 5.3203496089013385 8.645300945369566
Ag 6.716773594761477 8.138387447369357 4.089546441943285
Ag 6.058135317261781 4.368321604138243 9.658550341305927
Ag 8.73548921180883 8.605757011611642 2.181177592610272
Ag 3.64763472942427 5.80576724140678 5.613871828006291
Ag 9.115319070737591 6.5632832454511725 3.9762329144652595
Ag 4.396006255591774 6.973712402347178 3.110993228341511
Ag 5.354473110669719 3.9314774976924927 6.892853753471395
Ag 8.370597978801252 4.674187623201348 5.916927982982283
Ag 7.617212177648808 2.7477493634281913 7.888877983592079
Ag 5.9949534601813905 5.007291379940736 4.257520807333625
Ag 7.049671064075778 6.319911493276161 1.9794061566868806
Ag 6.945420549855413 2.4785849943325413 5.103382157641808
Ag 8.340079260006869 4.0438715535998275 3.1127466377796855
