21
Energy = -42.11684532 eV
Ag 4.777561059546872 7.366669328148132 10.517565081674476
Ag 4.578754664605165 9.840089165347885 6.756447774942212
Ag 6.302452023051491 8.367459729218936 8.44881460278656
Ag 3.742820213296823 7.387107759113978 7.878173701292479
Ag 7.3883928272713355 10.286641075173959 6.706023678656794
Ag 3.5201083994330746 7.798601547001653 5.098322863714116
Ag 7.682182676456345 6.5975808866111825 10.07690085041053
Ag 5.409950961160995 5.281847320053077 8.808010634012614
Ag 9.078711414629472 8.298677872607902 7.849342156400798
Ag 6.364702118893754 7.90665578997877 5.652020666849349
Ag 4.77341992484026 5.508264328886096 6.053864673180163
Ag 5.384244405619556 6.436661322820027 3.4571670471152496
Ag 7.90253238716092 3.8902947569375166 9.171092369581608
Ag 7.675096855042218 5.990088849342161 7.3785493814287415
Ag 9.51701845905972 9.296181150037224 5.2582668124529315
Ag 8.091353925177769 7.604501022711841 3.525041491555975
Ag 6.469730661663964 3.447319907705939 6.778026224498073
Ag 5.289101200194794 3.552406944541416 4.1660177765259
Ag 7.509970985855362 5.119955712213142 4.699393362223019
Ag 9.306352723053095 3.9020345968284684 6.587060395729385
Ag 9.753587419764933 6.578856277527452 5.607479730320975
