20
Energy = -39.7719925 eV
Ag 11.70041139023871 5.850791018196288 6.203998801999256
Ag 9.470543359697183 6.927087294247806 4.9266913001746016
Ag 9.222446228689742 4.501325898232899 6.25993298970095
Ag 9.673515689902107 6.711401032003945 7.86999082706618
Ag 7.31348637819212 7.587609163488646 6.589057997288921
Ag 7.100219857735752 8.161917066038022 3.910904909210693
Ag 7.131320655996031 5.408516778319494 4.587139631403099
Ag 7.295320853552299 5.1643532041048195 8.226178202301934
Ag 6.758729900773842 3.2378849069804874 6.2735826025281405
Ag 6.522759823589765 10.150682558104066 5.9121897479031
Ag 7.522640418118002 7.7967678534045755 9.300490588695418
Ag 4.9887908467314075 6.458458437524041 3.1671402546420713
Ag 4.575620469740626 4.280100336030948 4.94205892879462
Ag 5.203708351077123 8.811195494800597 8.017022920496292
Ag 4.600186597091816 8.334575097341776 5.250770719162099
Ag 4.687531089373141 4.15915580935309 7.882588005379164
Ag 5.122413347173532 6.392300184328541 9.486722079827047
Ag 3.4593638746006192 6.737354647655899 7.3274073383724785
Ag 2.688115748352958 6.420408097271586 4.713068128899565
Ag 2.2911377160098687 4.344446162880311 6.511630932807441
