28
Energy = -56.90808109 eV
Ag 4.625892694015763 8.489669261273226 10.048070281694974
Ag 6.566432295552182 5.997467021418762 2.2337241994920154
Ag 4.778299901858436 9.966403155734351 4.7889361153899195
Ag 4.63863959695217 4.668911913417174 0.8336105045812556
Ag 4.57054123231546 7.217947311123397 5.437283147320503
Ag 9.88697151447222 3.3353502968850948 8.875360023613753
Ag 10.43451275361804 6.4192361562882825 6.194107385159495
Ag 4.994677064083917 5.696927647356886 10.246120321438458
Ag 9.605159879713398 6.089494197970233 8.789976531837668
Ag 7.513304967249586 7.033137013206405 6.5269554559496905
Ag 7.1699228559510795 7.3217335858578965 9.45276269794943
Ag 9.431177670971955 8.75945813672629 4.979948704465094
Ag 6.916829789140882 10.058344490856033 9.04315787381407
Ag 8.764877142015143 6.143741416612033 3.9442313088914496
Ag 5.709666360041287 5.120813545446573 7.59993854057809
Ag 3.4613356168823266 6.801811007807852 8.09834797156398
Ag 3.491378115361341 4.71316955554445 6.003282054776831
Ag 7.217630335573495 9.911834108176304 6.190968185331884
Ag 6.3692300819931615 5.023485385052924 4.88592743006097
Ag 3.283329910020593 4.072025947872621 8.715171346434857
Ag 8.42116788054876 4.4064450004272775 6.7713851517580155
Ag 6.111026928381795 7.4380127767126565 12.07050318287968
Ag 4.829050188121717 9.144848797380163 7.410504146079992
Ag 7.503567281516142 4.460454433813095 9.610833981484532
Ag 6.82363441330262 8.178482471354828 3.9463554232475904
Ag 9.167995882759005 8.690727376181611 7.899871902793024
Ag 4.047138817085012 5.293145788008688 3.366576856842292
Ag 11.29300695597005 7.1733203269629415 3.6624874000385153
