28
Energy = -57.96282653 eV
Ag 7.950826085868585 5.752995872616459 1.935243231437711
Ag 5.702339094653854 9.56605155970465 4.151242227582557
Ag 8.549231823057845 10.147089134519245 4.2644418994287445
Ag 6.233410943943073 6.784380467223737 3.8703198209306517
Ag 9.063624930738492 7.357916117834465 3.9291467576607473
Ag 5.907305129580233 4.1066182726910645 3.0613443862735052
Ag 8.240379849764242 4.747978964583821 4.592780040753836
Ag 4.5109512992753436 7.771158393732702 5.933003650018219
Ag 8.372208831920487 10.761643766609177 7.096741492002987
Ag 5.494781585223559 10.235305793520308 6.939113508714253
Ag 4.122650844052007 5.165559856614191 5.0656398792685575
Ag 3.9344896698007346 2.466976276453774 4.284464060069519
Ag 10.190198119191066 8.85578575745436 6.122524561256529
Ag 7.397162101898865 8.347745646277664 6.029745584856903
Ag 9.384596050720672 6.273884087530157 6.742182463652351
Ag 6.507945336105308 5.806912374392288 6.646071719106727
Ag 6.129642881687858 3.1727387849583644 5.750926445494622
Ag 8.414405584041576 3.7654915516405896 7.28942810423189
Ag 8.741445210855478 8.3421998295818 8.595300187286885
Ag 5.769563898790768 7.878002722661068 8.489801519354723
Ag 3.5363492423946252 3.1514011928858348 7.005398299613664
Ag 3.80317698951942 5.865116709609412 7.830381285967673
Ag 6.908492317941009 10.258242867914692 9.456315981990084
Ag 7.817970955769678 5.7807082169278425 9.203142224317306
Ag 5.802782747447731 3.854170143133203 8.563337813951872
Ag 7.07166031573685 7.932791639770348 10.953153829605169
Ag 5.103372954626192 5.939579274170846 10.384699176496829
Ag 3.2993120299230068 3.89535366600562 9.769198806431211
