32
Energy = -66.96292345 eV
Ag 3.39549142486091 5.147774210578613 9.553102470223896
Ag 6.269397628214442 2.0818769652802342 6.984945059680368
Ag 2.6583176260200365 7.858672571306357 9.434246264183807
Ag 2.8822214494077882 6.368463360637443 7.038169196877863
Ag 5.219797052600755 7.240138696926746 10.407425506590574
Ag 3.8943751569571097 3.7101555110831272 7.090270543614443
Ag 2.4119871493033345 9.124231769769525 6.95125280306661
Ag 5.645709586294074 3.488218089580569 9.322990319648857
Ag 5.669753684663502 5.915991262617592 7.983841763135888
Ag 2.901698244847754 7.8287101692750385 4.4822438652490675
Ag 6.1887451363766965 4.510607497419144 5.534811848658331
Ag 3.6100149831615274 5.143186192146784 4.659428624292286
Ag 4.936350249381522 8.839492939898598 8.111902233873046
Ag 4.618088047987693 9.99766070327759 5.4618554257996
Ag 7.4942831959867275 5.581637466199741 10.1109557406441
Ag 5.367131578170601 7.3197052805442855 5.55661034844498
Ag 8.084182432092522 4.082159632536755 7.785257985167296
Ag 7.561781892975956 8.11555816818274 8.93467315823914
Ag 8.498142040821364 2.926869613377372 5.263352997087386
Ag 5.846254156973756 6.105626493861021 3.127656016303996
Ag 7.224502086267327 9.513163775346497 6.5036960336207965
Ag 6.831017832789017 3.432795193410375 3.032225300907454
Ag 7.9710886079503736 6.67015042276367 6.440626041026463
Ag 6.908886049320216 10.872112427305414 4.125123545472686
Ag 7.658999304327857 8.15095883067218 3.9035686917389176
Ag 9.811265196857565 6.265151775964658 8.623419534706597
Ag 8.538164571782954 5.434100441229089 3.8414298120521684
Ag 10.27366804367369 4.940839504382503 6.071216646308005
Ag 9.821840588872774 8.7359239435705 7.241001372992319
Ag 9.503081772449425 10.108539138984849 4.829332886830613
Ag 10.303188964222086 7.435508372023225 4.67306778074742
Ag 11.957208385591866 7.013919744093376 6.869512024620739
