30
Energy = -62.57958846 eV
Ag 7.269531627666057 6.956127092727816 2.4777362473739113
Ag 9.041773400987474 8.826682249243804 3.551624581520204
Ag 7.821177361229995 4.267910632493016 3.3314902796906747
Ag 4.4269298103150945 7.958855270109712 2.967582306867636
Ag 9.970095134893782 6.1584473000406295 3.0841325478241766
Ag 6.428855432148837 8.580537007814133 4.665827767650482
Ag 5.564683298240087 5.712290061310938 4.289300889118861
Ag 9.086376642122701 2.6342597171183906 5.228702067323603
Ag 3.9567597313572853 9.940408977572561 5.212138728914645
Ag 8.660889225143594 9.091173211147343 6.335215863509164
Ag 10.866466298135785 7.653152100017643 5.3507954091516226
Ag 10.583653140583799 4.897842091990366 5.688292330454416
Ag 8.241531298992935 6.394510749633654 5.203492431565145
Ag 3.6243663396276133 7.277827576649981 5.618085563883526
Ag 6.411030195009987 3.3351930753960124 5.577699278393241
Ag 5.9217191126522755 9.483532081029981 7.228232836271854
Ag 3.9285046413863354 4.624247662521799 6.297350560006306
Ag 6.137124892709829 6.575628433937846 7.034210397171067
Ag 3.1977796065707014 9.043772249271731 7.788816784597055
Ag 9.582186661513656 6.786900636241646 7.746611936349818
Ag 7.993543610590431 8.675873571302715 9.002446634499838
Ag 4.396970840824036 1.9776504799917398 6.980273774817168
Ag 8.395771201374227 4.30991781616372 7.376043619729844
Ag 7.305701321350444 5.997097234423231 9.482450249892375
Ag 5.352350596022906 8.162519747131542 9.598642213483693
Ag 2.58993111333565 6.317701980681368 8.034385007331371
Ag 5.793181839857717 3.9328412550144325 8.371495944115269
Ag 2.7271899348543425 7.89877044781198 10.296881865068373
Ag 4.456593635407266 5.622708794808158 10.13893483190962
Ag 3.0069677467467826 3.645256188054032 8.780742743167535
