34
Energy = -72.00096836 eV
Ag 11.37500573384872 9.671937038800058 6.918385997480952
Ag 9.920845528616974 8.145461007580382 8.697027319708003
Ag 10.661983640247573 7.132306712769419 6.19348693487971
Ag 9.901061127198503 5.3087668482339945 8.436497203924
Ag 9.456586632756455 4.74268363643024 5.674681092987748
Ag 7.283345630284718 9.08081170643662 8.894902232503512
Ag 9.073633693522144 2.729084040203983 7.580913067141241
Ag 8.536588758800958 2.264317604039966 4.725918649963677
Ag 8.08027873322142 6.6950908142582986 10.196375778807163
Ag 8.655961969007931 9.214137259649714 6.355893127936185
Ag 7.249887875965881 4.289005457146768 9.043426095712427
Ag 7.648831068637153 6.606866010302562 7.28281320975066
Ag 8.419029445935111 7.061847713903685 4.48397563199345
Ag 6.794030216262219 3.782346481321145 6.2240096627707215
Ag 6.133723532136492 8.419049756428302 11.362034502503306
Ag 7.509834701523664 4.619179058217926 3.4767339739733223
Ag 5.403404860225847 5.863388581190178 10.422217848642388
Ag 3.4608703544957873 7.498478386115665 11.570383400886836
Ag 5.910366139082616 2.3544454717478844 3.727727264649285
Ag 4.116576337585254 3.7657886258612927 5.290162250765118
Ag 4.915607599194352 5.2453577602871935 7.697762886807336
Ag 4.765210593143181 4.699686380121033 2.6682430341865455
Ag 5.705680035622826 6.227749030945935 5.121137333405874
Ag 6.402070609854267 7.024080695803933 2.451292164161315
Ag 6.9371065418609374 9.374121528574793 4.019648361888108
Ag 5.837715056894608 8.787292905724215 6.541870228605475
Ag 4.5915693068823416 8.33104167122609 9.047871852089365
Ag 2.1596978033549736 4.96767950467738 6.82534080168093
Ag 2.737737589149305 6.218694284427635 9.251825801258425
Ag 5.236879839141294 9.441334847635426 1.7417865184732648
Ag 2.8023576619746478 6.0561349030640095 4.247080464318689
Ag 3.631987671795295 7.11583042981203 1.777384251264522
Ag 3.4004782063621715 7.463455220106109 6.651359529112354
Ag 4.236211164717676 8.491572144107243 4.151920720098283
