38
Energy = -81.02352121 eV
Ag 1.6583335569555888 9.771735277329766 4.1434731087040015
Ag 3.9987214069259345 9.802374254754271 2.5205010033424298
Ag 3.146008019493465 7.427896484195762 3.923265808080073
Ag 2.276754860249232 8.128697093885366 6.497558295750725
Ag 2.953538748007643 5.386152298117116 5.876439774246321
Ag 4.227442637930476 9.8047083218165 5.241017217018927
Ag 4.980821790204732 5.347124532683754 3.8172586748684605
Ag 5.914253285904831 7.971476477660664 3.58925899661903
Ag 6.595447900447276 10.586598169034803 3.500021392563566
Ag 3.432271714918123 3.9227877485393674 8.196575331252385
Ag 3.413771425477348 6.628954406663935 8.587680089210288
Ag 5.0761839671730655 7.183412382154294 6.213229076710076
Ag 4.380944126320775 9.257775305997146 8.019048680335516
Ag 7.497840575996537 6.030161517162852 2.487070087492979
Ag 4.870573075318354 3.309223774649601 5.669326964598766
Ag 6.8380104616953865 9.666423230123355 6.132199275202164
Ag 7.075282776790565 3.497927260420024 3.7621284191698177
Ag 7.494841869640435 5.936089324970167 5.3549525602819
Ag 8.572703053470832 8.560526650760629 4.231956444619079
Ag 5.513156967910455 2.1499185745915734 8.19057916277336
Ag 9.376581988469228 4.029727268174668 2.1660573617480883
Ag 5.638609581678639 7.7095916875283335 10.039529262472985
Ag 6.072989444884071 4.985153516658999 7.829503467740418
Ag 4.980611677258226 4.945987337429888 10.370677928087545
Ag 6.819556360635239 10.143871718826484 8.851534917527186
Ag 7.580403928374445 2.892867587983041 6.4482511476805655
Ag 10.098350429013037 6.380249246403499 3.4678820852896197
Ag 7.47113971092541 7.420111843946137 7.820166321914788
Ag 9.30614981439033 9.411445877960185 7.5725013350356205
Ag 9.656099079656686 4.104374096749686 4.984873300826028
Ag 7.7582617363464035 3.1902066170287804 9.366788127252779
Ag 10.10970250844724 7.083557927922487 6.152752590978766
Ag 8.386658126641752 8.58490960695888 10.42175077685122
Ag 7.706059517438535 5.830584163301968 10.280802363146146
Ag 9.102262912395583 4.913511597327237 7.617360826081249
Ag 10.245574879796592 7.090672534493338 8.964346174487924
Ag 10.13611038351775 4.449493573566206 10.193559827540676
Ag 9.941144847796116 6.751755536281903 11.75973052835277
