38
Energy = -81.29024851 eV
Ag 11.393360361422301 6.302367291640466 4.450553036625769
Ag 10.706512736722543 8.82686580275858 3.6587779904186437
Ag 11.061552514729238 8.088216000718957 6.890559272185877
Ag 10.60101777956869 5.157260649109744 6.876885582715851
Ag 9.04234672739107 6.7299621977772945 2.7162123038091597
Ag 9.311031395110268 4.360601030902873 4.490651079470657
Ag 9.286391676360287 10.05056414445882 5.721467155865322
Ag 8.944888864074837 7.099950495051723 5.536615938657825
Ag 7.919166341571059 9.24610723456454 3.467377080207161
Ag 7.296137861433732 4.532357140137173 2.6409448537021065
Ag 9.210012102082054 2.5842124769475445 6.610772865803049
Ag 9.248582625134372 4.01046202076266 8.987197770930669
Ag 6.676217050271177 5.3904764252878 5.353973615094883
Ag 6.193642443179422 7.135217834336788 2.873534970934961
Ag 9.875164559161846 6.728624235577311 9.081183007775197
Ag 6.920703831159713 2.7372549784683766 4.918899641562727
Ag 6.600482847596929 10.669575886852494 6.461184491328395
Ag 6.793710500039961 3.2390317501508297 7.794400513070588
Ag 5.256330627355307 9.76223027694614 3.9416398568528406
Ag 7.274444131293676 6.2474281796339035 7.938147083825337
Ag 8.451937526903462 8.959701835482923 8.064533828766828
Ag 7.551011838798423 7.6076238001994305 10.37524383876059
Ag 3.8336549257116492 7.363714701656786 4.355183748644311
Ag 6.395771809117641 8.08133981260385 5.802910418688481
Ag 6.9348408763256515 4.736444942380947 10.282247591504833
Ag 4.691811202749948 4.690689129119102 3.547956710999261
Ag 3.9354771387981486 9.296577540622517 6.445598913200233
Ag 4.4748110687654705 3.6129521324951863 6.238292036661059
Ag 5.685793619246837 8.88033198043386 8.587465104888592
Ag 4.4735527612649495 4.151850032031174 9.033240912946596
Ag 4.446005434217137 6.407314803089755 7.051129459043872
Ag 4.94343280817435 6.680262916594128 10.14179733740481
Ag 1.7376210608258986 7.472484432701303 6.386315545568591
Ag 2.4051555732066134 5.092235246580482 5.013717933887884
Ag 2.9109101148591083 8.091609199105525 8.85376478005008
Ag 2.347356896068071 5.604982664430987 10.337601561141781
Ag 2.1202950337566895 4.906475055437024 7.734352545332562
Ag 0.38960410228513787 6.878652151926927 8.803073006815861
