35
Energy = -73.3084268 eV
Ag 6.949167111718927 10.691608920882807 5.507426301952202
Ag 9.10749339737081 4.471110025922914 4.634540780727678
Ag 5.1663572137743 1.6555196975831727 4.091871332198762
Ag 4.869493754414562 8.862368685740416 6.304624085398745
Ag 6.642907289032333 6.0553778822203075 5.757759390915314
Ag 6.469603105579348 4.094524815544835 3.728851980321465
Ag 3.2457076420294158 8.557866880189682 3.9291214154354903
Ag 6.023706910599138 1.17052855156637 6.686252713392159
Ag 3.6720135619283685 3.9833825758320476 3.749218718109406
Ag 10.452465316552466 6.796580810369517 3.4840185277594506
Ag 2.676083390173092 7.714978824244533 7.898761181366371
Ag 10.314516507230504 4.4608074259145045 7.483552191598199
Ag 4.305097285911716 11.037186956201934 4.684795578848121
Ag 11.777714700119382 5.052699841723106 5.180349935871065
Ag 5.9362043907717945 4.351643302447924 9.142538340206261
Ag 2.063428955958921 6.145994698430031 3.254370421202461
Ag 4.895678311343484 6.412081728717988 3.0595642925489073
Ag 0.17176203360916956 8.944618732313808 7.692597962332012
Ag 4.9483407094347545 3.7360415495696806 6.279088049756969
Ag 1.1301926638035191 7.513144231911822 5.519958693833557
Ag 4.1425343051902495 2.274617693193219 8.623094954212766
Ag 3.283402885059303 4.943972810663609 8.283258170607228
Ag 7.681704902675556 6.556175457575683 3.1334719654927614
Ag 2.260881887216313 9.982473406138416 6.228302576427516
Ag 7.882391220423491 1.9379631731116687 4.691943709817849
Ag 9.667277622750738 6.791714415938943 6.152632893786707
Ag 8.722655490681275 3.7097070817768514 9.682523025079062
Ag 5.330883620486752 6.849477145458764 8.140570635590572
Ag 3.696401722184637 6.202352142832795 5.682950383112078
Ag 7.724804854728773 3.47488424235709 7.022980628412083
Ag 6.023662738680175 8.888168225228423 3.566919600283802
Ag 7.532212285656362 8.451440744272855 7.060867162780347
Ag 6.839336861631165 1.7339013488273216 9.240149660660059
Ag 8.690043822904457 8.795662121759756 4.430054546710565
Ag 8.02944235073101 6.024994675893619 8.316589015607777
