35
Energy = -70.93772444 eV
Ag 2.161059748097777 9.274037525181567 5.900162713489849
Ag 3.6992595239822457 6.925285090444613 6.075570917490543
Ag 6.893034627031218 8.242959212487708 3.556944548432613
Ag 7.084586172658483 5.597080113339007 10.284566638286625
Ag 2.6982745462909667 5.681514382431955 1.857262055500095
Ag 4.758456644915137 4.32186567352404 6.42666804209923
Ag 4.294482633395847 9.242958501513568 9.004787501897717
Ag 7.2487935256155795 0.4890829427911566 5.212939361443606
Ag 2.1805734980333034 7.678766568131357 8.276287827730174
Ag 6.059197912265872 8.64727391444291 6.928047400687502
Ag 8.015070043170708 6.8671921664001 7.985413455122424
Ag 4.644273884826927 7.717256508159103 2.0972580850549067
Ag 8.599681689944882 6.0309393609275235 3.5995000353918356
Ag 4.5431318148618445 9.392390106032813 4.394825082435234
Ag 9.52857638750132 5.396872228539267 6.196476758535201
Ag 2.380195769292782 7.658953453124918 3.7243902091571597
Ag 5.95348356640992 10.954813099253256 7.220201774094166
Ag 7.312724839046419 4.259713945744812 7.763415970788246
Ag 5.005059531217282 3.7438779084305365 9.192838889763767
Ag 10.665039310050878 7.507022175509061 7.735705763212543
Ag 5.001260384291951 6.492557877283004 8.5024197298111
Ag 6.624735671177076 6.166746482296222 5.5869949380353106
Ag 8.56422878051419 9.600800543429342 7.900222968606511
Ag 5.987278779252598 1.9284428394138116 7.166247667533891
Ag 7.708335309096626 3.4055245846241533 5.161881445955806
Ag 10.298086291047325 3.9143692372103907 3.9748123554795862
Ag 2.018684618792859 10.569065053565968 8.274516358086638
Ag 4.545514851117139 5.4978117005547436 3.848636306633195
Ag 7.828606744858734 10.995177974998454 2.8611258794522367
Ag 9.328757464932504 7.380451956885011 10.287126469835972
Ag 8.993997645672223 1.6201737438162416 3.417886060245057
Ag 6.76104105406078 8.467392697938667 9.860648672594575
Ag 8.820739553937756 8.139397791707715 5.5355026815283415
Ag 4.420464574161878 10.954813099253256 6.717420054309393
Ag 7.0848963404385525 10.509302087202386 5.300643587833664
