3
Energy = -3.23493266 eV
Ag 7.024397622030805 6.5189892479586105 4.925163347974372
Ag 6.165761765739281 7.7814600854559295 7.056944460404989
Ag 6.309840612230115 5.19955066658544 7.51789219162073
