36
Energy = -76.6229504 eV
Ag 11.167575363443948 10.169165185361297 8.274443027453714
Ag 11.2722695566388 8.367952375793244 6.095097099612887
Ag 9.05180685272786 9.984583319657235 6.445354751025719
Ag 9.244504223279025 8.072563529622917 4.191677916154766
Ag 8.50165711262297 10.20715394606937 9.224108422477174
Ag 9.834740638366373 7.778022097933334 8.606051161006263
Ag 6.343723922319339 9.882457838944916 7.336508472119074
Ag 6.971318657194948 9.64119702000854 4.626233066581612
Ag 10.351135522110578 5.8141059277874625 6.686058857776223
Ag 5.778455981206626 10.213619706271052 10.017722437656966
Ag 7.791210971182477 7.405172775374403 6.523864938904068
Ag 3.6012640195900896 9.675280924376166 8.099754401624729
Ag 4.209084162608703 9.509018068137014 5.35426847226163
Ag 8.837344712861707 5.27338300738072 4.44775439797674
Ag 8.345215023675484 5.349619574580855 8.63081331601973
Ag 7.155462698447556 7.773447383170983 9.437445601840118
Ag 4.4179172408899126 7.818692463032632 9.956480371584853
Ag 4.982793184624792 7.316183158307529 7.053506351136398
Ag 5.617184169797418 5.40958077304497 9.280067998991656
Ag 8.901781988075548 3.4130608098690294 6.618209489427597
Ag 2.2556146631637506 7.704536997956644 6.4870751599885805
Ag 5.07009874975352 8.974570309843104 2.7414377489554096
Ag 6.575549125795127 6.926421822921068 3.9534768690296547
Ag 2.809618762928317 6.003054017325875 8.65745155220397
Ag 6.419625190211477 4.9796971811218596 6.293182484322065
Ag 7.224137062127956 4.746977140325685 2.2346089604567267
Ag 6.772399138552775 3.021543534230943 8.457523991251838
Ag 7.317393233905776 2.875391811091114 4.315549509101798
Ag 3.631284901452861 7.01583318167347 4.174066192126756
Ag 7.296572205253838 1.0810946940903756 6.465460042528539
Ag 3.4326457623532347 5.0032932345692975 6.133206306135808
Ag 3.8949324293655816 3.3884363366438155 8.438374991868042
Ag 4.902025265193306 6.265778196226208 1.7734768405421677
Ag 4.949788745488194 4.4293480243374885 3.8495569688632756
Ag 4.951381855586763 2.556479920631232 5.934478255716719
Ag 5.066522183879802 0.8516147221761187 8.146405641855281
