30
Energy = -61.66245829 eV
Ag 9.826988730016257 6.851147904460971 4.16700196557042
Ag 6.309920760845917 10.14820306018372 3.065467250627422
Ag 8.974211165051951 9.586547335973583 4.0399743183522325
Ag 8.62816844693964 8.00656915231395 6.424514962872058
Ag 9.639628522754151 5.447787886162553 6.718946166403445
Ag 10.506565818334465 4.113053434624794 4.441661162464778
Ag 8.478983955020082 2.1438166036661013 4.334222728664941
Ag 6.649637617560079 9.822601806202588 5.7812823925843
Ag 8.515613495058718 6.692552311090039 8.881595929575083
Ag 6.690486415878753 8.712760530956077 8.293851100337676
Ag 7.09709754823731 7.55436041711702 3.950322531549234
Ag 9.819280742596396 2.6995773558966714 6.785633680896215
Ag 6.835194394219418 7.8196597001399315 10.898748750070238
Ag 8.009586702271339 3.9399339550340966 8.452356817408216
Ag 7.21265093185049 1.7207874511339478 6.849722155698297
Ag 5.988625917173113 5.604732975845539 9.473096082425636
Ag 4.344463357738942 7.946378663697471 9.58361595661881
Ag 7.817308410349106 4.846749320465292 4.279343470445263
Ag 4.284608267033395 9.670614678405718 7.319929674700468
Ag 4.313357096604985 11.080395447273014 4.8819169832217515
Ag 4.493289954705774 8.35751076716999 4.290924526077965
Ag 2.1355024249246886 7.977137751331165 7.9752499149780105
Ag 5.848514614721187 2.9641278809307257 4.691550292474322
Ag 4.5154986231636265 1.2448403092003757 6.423432027857065
Ag 5.135912064810133 5.64475342189892 4.415023658777965
Ag 5.29269898466309 3.4063645225390062 7.983298331360784
Ag 3.578138675119915 5.6163493555870865 8.099999645862017
Ag 2.1687647237800425 9.31808590950655 5.512397357100578
Ag 2.773597757874979 6.573272185690017 5.572537070263033
Ag 3.5040925365895466 3.878464607349559 5.838488677074617
