41
Energy = -88.15565684 eV
Ag 1.7517087397240185 5.252148783380311 8.228043777577232
Ag 2.319462467624759 7.978303325402953 8.869599787847047
Ag 2.0005183729149048 9.808912307839325 6.767355386985978
Ag 1.5441982428204404 7.122817250613153 6.184429912937545
Ag 4.197053786080752 4.852512881057316 9.551689374621041
Ag 4.949386923009925 7.610528144415145 10.055866131083512
Ag 1.3423558630749168 4.363123303134562 5.6128815390354365
Ag 6.581726248018887 4.442698518671215 10.828119233719244
Ag 4.218192898008245 11.252024971007891 5.792859416101967
Ag 4.57312658420437 9.524455089964485 7.987901607525175
Ag 3.771061614242985 3.670090954758157 7.00160986071735
Ag 4.159404889539787 6.606135469829466 7.323603157858462
Ag 7.688773147313743 7.077818409474475 10.900685256742214
Ag 3.8224508300757574 8.498022297893737 5.085925500493892
Ag 6.800848665138455 10.828670856464317 6.848630105417904
Ag 3.5651182714343186 5.664046450905667 4.588961661306716
Ag 6.2363908844460045 3.2236828018229837 8.327102649047163
Ag 6.729560737452958 6.104849423057706 8.481109972685951
Ag 7.227198170774117 9.042956639861135 8.97909031975161
Ag 3.355577421492252 2.8013969326322563 4.382074094921828
Ag 6.466432145309665 7.998813599837272 6.333941411899096
Ag 9.528878538908359 7.226985873652133 8.829789958815088
Ag 6.09662058971541 9.87657188662772 4.210550250807395
Ag 6.151710169455283 5.115702091389239 5.913203033987191
Ag 9.13744299776996 9.226308827134158 6.842103719209371
Ag 8.836616411995852 4.43395423903707 9.177949992241592
Ag 5.860678309081956 2.290461275585458 5.675646181054327
Ag 5.829280335005075 7.0395761984630445 3.6627280056934257
Ag 8.632402339824996 11.033782531213365 4.7236587020441645
Ag 8.43090590455033 3.3388853797540343 6.584371595583958
Ag 5.635378372106824 4.1186934807530315 3.3634327965577726
Ag 8.73035685369876 6.283777181573977 6.322882034277791
Ag 11.382254788392098 7.499716032487967 6.63024154636546
Ag 8.375431153401562 8.2594428797382 4.10644941491291
Ag 10.860005909919835 4.75717505009852 7.310809026937241
Ag 8.13426858876248 5.4134748848464085 3.656729195132805
Ag 8.00037218140672 2.623028039450296 3.929366204538076
Ag 10.91317059260579 9.397286404180438 4.618110245958154
Ag 10.400046455259604 3.9432655772806164 4.638579913790386
Ag 10.683050936052814 6.674759686029731 4.029979748854497
Ag 12.75164477301449 5.414984430197689 5.331003460618825
