48
Energy = -104.94570348 eV
Ag 10.964573967711456 3.867379966591344 2.9281853633527355
Ag 12.173798936507072 5.70842027400365 4.6235256534828615
Ag 10.69786510832665 7.26808927003343 2.4606267757026545
Ag 11.111994802004007 8.187933997280016 5.195632491639534
Ag 10.57080785981263 3.5868277727192606 5.66745578874147
Ag 8.772360072753655 4.8107677222378475 1.622630281891288
Ag 10.047356068360173 3.6311610920874915 8.390990894484446
Ag 10.790938286619655 6.100153709375717 7.113411158242977
Ag 8.387149759896113 3.1033852601474354 3.905292997028314
Ag 9.361371660445236 5.838784026573315 4.320513209357501
Ag 9.857111953834815 10.360293499828304 6.482421128887977
Ag 9.83255899826567 8.396918236568709 8.505003452423388
Ag 9.056930961335672 9.368015048479364 3.6944049717703944
Ag 7.846961997706988 7.306454044684573 2.17974477477039
Ag 8.994323029351499 5.936822877673154 9.522487592998955
Ag 8.182559086825863 2.2893258452486713 6.602797776305578
Ag 5.965850319824642 3.560744932026852 5.421569169645422
Ag 7.303858690960148 3.6376926281210182 8.996708161199015
Ag 6.2393897997263785 4.411645761567259 2.6860251568969655
Ag 8.14125597233463 5.158913927746298 6.773745853647604
Ag 8.383085987402591 7.992145004366882 6.0110611514483665
Ag 7.818589169523045 10.355477592138351 8.508163203873961
Ag 7.184413441157514 10.609333994045057 5.749639584817679
Ag 6.587217631501182 6.323907845397817 4.708441865109377
Ag 5.565675109180969 1.9271586890889383 7.664005354187855
Ag 6.215529672309942 9.101207436762527 3.609390976177501
Ag 5.059417297028391 6.922710915138187 2.3270749579016363
Ag 6.280422418959638 5.792653776883516 10.451215137184334
Ag 7.898915381853771 8.280400583133908 10.888554094679844
Ag 7.014453151981872 7.624457694017129 8.416803093832579
Ag 5.086947215338512 10.792487819298792 7.772652590719915
Ag 3.9903698105264973 5.306940733567799 4.4729604037811
Ag 5.6611881088062 9.942746096915608 10.35114149293863
Ag 5.406099775357675 5.575774021372329 7.563516376029375
Ag 4.450468092845321 10.792701559156535 4.9703766944147
Ag 3.4782675976161257 3.7986675557532976 6.94285824503109
Ag 5.408893047537076 8.378470860217519 6.297822104323675
Ag 3.499148000813069 8.166924226450584 4.272573535692433
Ag 3.8903066996628257 5.343535755671459 11.804358146349308
Ag 4.5844088388676685 3.5936184659036914 9.695961582328296
Ag 5.305366547814135 7.812205821596828 12.05438243953735
Ag 2.9435392459851593 10.249080434386215 9.566740158386372
Ag 2.729711583696432 9.509561986261575 6.792288460542848
Ag 4.265419274864785 7.925735406445617 8.871010851452512
Ag 2.8607401978434184 6.650721364474869 6.647278881792563
Ag 2.6891138531716536 5.549359132096304 9.248075413419263
Ag 2.668986999385241 7.778950155671702 11.160940166342082
Ag 1.3696841729958935 7.9687308374226795 8.68293604186514
