43
Energy = -91.72845585 eV
Ag 12.127474353912001 5.199688947925119 3.9760368324209923
Ag 11.362107640398394 3.8936408752242015 6.298608455661527
Ag 10.868945254118655 4.42464067754162 1.6395031456845042
Ag 10.306496173522117 6.437618649202429 5.767711067550603
Ag 9.55539211076303 4.137719192567013 4.09631808801649
Ag 9.874263996043434 6.702473765354339 2.8496349853537324
Ag 9.653426282526427 5.049708394662711 8.199908226479165
Ag 8.328448528869144 7.500225475983111 7.568136712792637
Ag 8.723037312839873 2.8022872352564336 6.609036253251343
Ag 8.139950559176153 7.908538930099235 4.74982318440377
Ag 8.5101062403184 6.841287749083711 10.266101333906779
Ag 7.289780924224924 5.65268292401423 3.0848300813212215
Ag 6.966794117269895 5.077489535325463 8.695304078493177
Ag 7.588223785596819 5.292861006481745 5.927094764300796
Ag 5.990879515624384 5.880658343050018 11.180813486753127
Ag 6.109213582146952 2.5372801214445966 7.766611667708088
Ag 7.003169738508768 3.0929760699100104 4.247194243302904
Ag 8.5592074692029 9.579547758340624 9.376084326615892
Ag 8.381550760943927 10.110450488365109 6.530459482130434
Ag 6.926534917516097 0.7906579428404005 5.760390834033598
Ag 8.076418757701425 10.505121838037034 3.7185294090209786
Ag 6.2618951979278314 8.55120538968385 10.595087488662244
Ag 6.077253590922804 9.61409995906744 8.060763607163144
Ag 4.59211440230114 2.3675378859372147 5.3314517930709675
Ag 4.4944017734435375 4.148812039524145 9.595765255305984
Ag 5.827909109078721 9.9795190166465 5.241723584660752
Ag 5.709365449390201 7.3682899984496135 6.267797950673847
Ag 4.79550711775221 4.844891015622003 6.851454748308905
Ag 7.636731162623759 8.25530656212893 2.0275579424871712
Ag 4.78647624560777 4.93656116345184 4.037728285640614
Ag 5.206232643536122 7.574438493279785 3.313626365789436
Ag 4.504025659255206 6.978289209789079 8.907415573557612
Ag 3.033704782688813 2.6845896043531985 7.665087411571356
Ag 3.7274461025416574 9.487646717060807 9.7276787561457
Ag 5.557504949097052 10.198577417932766 2.4301090003728407
Ag 3.604439308228968 9.216749993441429 6.849119791711448
Ag 2.3771335975845314 4.2735527287962585 5.338928361976611
Ag 3.3384161958867518 9.4976538878292 4.023800008373293
Ag 2.3395786877586153 5.359221948979398 8.186416200626065
Ag 3.095152018163357 6.9507293202500025 5.2288915348895575
Ag 1.697236177269968 8.014308723119141 8.397106804660185
Ag 0.3645965186221755 3.747883020852317 7.145633005492341
Ag 0.5500696457510466 6.421655181785696 6.353639198102551
