48
Energy = -103.73340776 eV
Ag 7.05571286909589 11.05208618773575 5.971526082450947
Ag 7.080534948295939 3.7060223405965536 5.9848442392055885
Ag 1.5847331897536552 7.260867468123758 7.6346846225072715
Ag 6.547479511477228 7.881711318096591 10.545595840513108
Ag 2.700696490409057 6.007460421410588 5.333905815755508
Ag 7.455762366512501 10.940663930300957 4.994445792406915
Ag 7.245290271868152 4.834205754125189 2.0179168250022115
Ag 5.216203823173987 10.950682967750975 6.765072047297618
Ag 7.577441021687793 1.0680929900970135 7.603948006309608
Ag 6.085804389620445 2.7080493892065776 3.4977985864432264
Ag 5.426500915985496 1.149843109100681 5.8319202904240095
Ag 11.187697540871532 6.854835640950911 10.088880409277404
Ag 2.9946858077672585 10.446333053168136 8.473996168252441
Ag 6.204030806010345 8.472070508906382 4.921329492036282
Ag 4.657058854874534 10.61391541795354 4.054969996046393
Ag 7.969530184766134 3.56474440130939 8.743516559978334
Ag 8.974295623920149 8.384166214054881 9.0221014124782
Ag 3.760929767843249 7.931032112664649 3.5565538131562398
Ag 9.724842536221493 2.7314521595971644 6.5829006085552875
Ag 5.2943994335733215 2.9948520267474645 8.044600251469872
Ag 3.3669001894836543 5.111256004490933 7.955617889908566
Ag 8.566727120702579 5.887376948323493 10.189391029207574
Ag 8.588789165998497 8.647831965385143 3.3645583489402995
Ag 10.943203836883177 7.806177965925849 4.626944806993598
Ag 3.821703048360134 8.499636876013744 6.351190847436554
Ag 3.9554722938072335 7.74648187535127 9.229602339113947
Ag 4.091378841557526 3.555204091031143 5.554077492256141
Ag 1.3072325472423827 8.817938552007874 9.890376646749
Ag 8.222925773153785 1.1048220608301191 4.8488570070757175
Ag 6.27520311031434 7.463608100480907 2.297107604308323
Ag 0.499899181112133 9.90591323044384 7.382054188803169
Ag 4.916231082631483 5.304490612992448 3.54469852103974
Ag 5.4418654975711105 6.061168737689489 6.299917420888748
Ag 6.202000825588874 12.093153760392585 3.4692133629049304
Ag 8.211643964850696 6.05886973849187 7.2864332445355675
Ag 7.785785080585687 10.732304630990035 7.848776558100278
Ag 2.5088935112256108 11.05208618773575 5.805983056113154
Ag 10.99140810198819 7.299669420157573 7.36740338297577
Ag 10.575338040365981 4.716715567479196 8.359546885322908
Ag 9.833771849020932 6.00997735049418 2.766683445874095
Ag 8.813229651319118 8.70515634839055 6.194831812821088
Ag 9.0045972025446 3.5288307558119376 3.8259889806989817
Ag 10.483861263571 5.199880024071395 5.515648124969174
Ag 6.368165790742256 8.297837736073346 7.776848569295577
Ag 5.507939722351342 10.328784371654743 9.564646261653738
Ag 5.907419269838474 5.5248854032193435 9.157683726317597
Ag 7.707680572069707 6.072670390768432 4.516191586668471
Ag 1.30965770800992 8.519192898843212 5.079430952099103
