44
Energy = -95.51662478 eV
Ag 10.685746302991777 8.142718466018993 10.508659633148428
Ag 8.17926868236021 8.850770096943707 11.67773722257275
Ag 10.430007048322693 6.330454964376096 8.290833366299754
Ag 8.435571724724326 6.452676872537765 10.252457973427147
Ag 11.277699987329678 8.967226400544648 7.859182169544698
Ag 5.964139806397181 7.09619993213317 11.52719503143377
Ag 8.626545805023715 9.071485364624879 8.901676060749045
Ag 8.935717864861152 4.047619998845929 8.806562050797012
Ag 6.058913891826495 9.668092837245707 9.980910020298264
Ag 10.678375488205385 7.253522235765981 5.666041874961221
Ag 6.343132974709036 4.5914685278607275 10.127382966186191
Ag 3.6478180381136602 8.44853022681112 10.669819526269691
Ag 8.027276679253026 7.069064439976687 6.902010410646081
Ag 11.695575215636799 9.82982919700676 5.183708715240843
Ag 5.924629369103417 7.064363675324982 8.760988959112355
Ag 9.124996147209682 9.678981370376679 6.164680545051639
Ag 8.525161113283627 2.1479025660846824 6.720971235306444
Ag 6.8801513401936125 2.125791096505832 9.0252222258365
Ag 3.741723943340296 5.730000019041897 9.971564287240167
Ag 9.43737139190529 4.726732225736466 6.037660213093832
Ag 6.479759220129318 9.529655114035561 7.114469072874806
Ag 6.691184241025293 4.532884206149755 7.164762564490714
Ag 9.734033483298795 8.769124113383224 3.4764921472426162
Ag 4.37722866453586 3.4162583424891615 8.416993464110181
Ag 5.756297476489126 1.67828357514103 6.542442182928147
Ag 9.720166970013874 5.915950153620302 3.431491664535461
Ag 7.137583154252016 5.889522064464383 4.5032094286434745
Ag 7.065394619590196 8.784741097201561 4.490443509841442
Ag 7.0404752012728995 3.138298051798935 4.539855048896212
Ag 4.3756065141837395 9.499477213123704 5.157500866487934
Ag 5.116764560757446 6.918409378521821 6.08966555712212
Ag 3.943681882493723 9.045848179973753 7.991038798029649
Ag 1.7288978777465653 7.573057040468328 8.858045645257704
Ag 2.8836670680366967 5.55069808281476 7.302123704164591
Ag 4.392024873441084 3.9169183697385197 5.599336316014949
Ag 7.730725645643992 7.432918431022765 2.0548124833511445
Ag 7.6010914260496785 4.583201339725423 2.0961245136357216
Ag 5.007278920376056 7.5265068483308095 3.115068115008903
Ag 4.92984675254722 4.607860010299974 2.9817376801643323
Ag 2.3908211229577114 8.519901760738321 3.352684261728429
Ag 2.1362909994546175 8.020920362585006 6.121493327557338
Ag 2.859445790933138 5.925937821136852 4.442167083208552
Ag 5.626358181977618 6.126590849478145 0.7290704539284667
Ag 2.989629472108124 6.260237184756201 1.6704461996724242
