40
Energy = -85.64685206 eV
Ag 11.432857062775003 3.7118035989645577 5.632388569625767
Ag 10.123894170402616 4.091674856295818 7.969602653551883
Ag 8.719370081135184 4.3832094650678615 10.3181279135663
Ag 8.880803402999891 2.5811313856025473 5.909761673668413
Ag 10.972809250690126 6.4339090074871494 6.368260726525516
Ag 10.122780128456936 5.416581541792929 3.8526326346721347
Ag 7.319569170348964 3.4828728290059625 8.050940701800787
Ag 9.353253494505756 6.6873234515412365 8.668410966686585
Ag 5.915462439877625 4.443750876864273 10.28479537936221
Ag 7.4803747069012525 6.827894282941935 10.855132692395692
Ag 8.241850698375382 5.452854304469331 6.011192249395076
Ag 6.076186633656161 3.1681724537104814 5.519807274572114
Ag 7.989845472391645 3.6569577105262794 3.53651815199327
Ag 5.044597301322151 6.308592917839364 12.144178571493338
Ag 9.851818347925676 8.994654158140028 7.034184651479039
Ag 9.571740755289202 8.025218572550573 4.394629995450112
Ag 6.549823075179216 6.400350837873236 8.137638773545248
Ag 4.632962985046802 4.22560629493301 7.734218906891725
Ag 7.714184399627039 8.931114230088822 8.995832028881923
Ag 3.5064894356876835 5.810965897355236 9.76156332528793
Ag 2.9119541084794123 7.909235005227622 11.483621451780895
Ag 7.467582473085428 6.464895903563348 3.3963453524188005
Ag 5.486023596458075 6.1383562084329375 5.525158519358381
Ag 7.2630451120408255 8.333248869079052 6.099722821957491
Ag 8.83141626671689 10.60757962314345 4.776799954832299
Ag 5.462849033598043 4.591375057676412 3.0692992902089697
Ag 2.08654536031165 5.289591184608737 7.349125126552417
Ag 3.854378491913801 2.4228742910282803 3.0905152856476334
Ag 3.400929267313625 4.053011681999557 5.246418711443264
Ag 7.868677166620514 11.114368860949678 7.323953278636141
Ag 5.361624849324541 9.816576868913998 7.6860236027176
Ag 5.1561848699727 8.184093218372649 9.951433166170732
Ag 6.771831582120947 9.15336713759862 3.3820696794208502
Ag 3.8239445008510646 7.464626510098435 7.503299665753971
Ag 7.923746206130212 13.113499976856842 5.340000620741459
Ag 2.6775953058548385 6.752561357711039 4.943891245080996
Ag 4.6734928033067025 7.242504476805217 2.8832234600440785
Ag 4.485716583704747 8.888635371884158 5.1407334418065815
Ag 2.7234861693810504 5.062033552624779 2.693649745949912
Ag 6.021196537230847 11.156821823714285 5.222224235638183
