43
Energy = -92.35525326 eV
Ag 8.58497993724024 9.253936800017472 10.35446743730074
Ag 8.424560111960846 7.659969719856085 7.982213828451645
Ag 8.89352989769933 10.525192939485983 7.873441199817545
Ag 9.885080929030334 5.233525622302372 8.482744622116297
Ag 9.312899481635423 9.001983553145243 5.50449517747457
Ag 8.367280845879414 6.448191864519581 10.559981710249136
Ag 10.299377893003397 2.4728641463136904 8.86073870592495
Ag 9.842189371591202 6.260919585727349 5.872092566637853
Ag 8.118774363109754 3.7026085161170617 10.072788590255119
Ag 6.949288318676071 12.453662472153892 7.347518041050732
Ag 6.347786629151891 10.632767626494402 9.32835582904587
Ag 9.70738138623495 3.410337525392036 6.261214257186966
Ag 9.048521924486378 7.30523015521769 3.25344242618376
Ag 6.082782180917 8.039246229788443 10.114780919861733
Ag 7.4282226508536136 4.815561143660598 7.070935788966522
Ag 9.187882644688193 10.152725327359649 2.844786709431276
Ag 7.148722082651738 7.175082506286346 5.429842120591013
Ag 8.193047318985577 4.783055400761491 4.159622074222454
Ag 7.728398485558587 2.0129219188130447 7.866015101319763
Ag 8.264566823432721 11.515218662210692 5.117340262959174
Ag 5.811501307201901 5.286240499463682 10.154018107205463
Ag 7.3971786277906215 8.452901954584174 1.368695577549339
Ag 7.27139417300319 5.669366465367218 1.6438759223453316
Ag 5.553323842585944 2.575217562300825 9.630190074554468
Ag 7.275732809111547 2.3235700794674146 5.13587081083745
Ag 6.483855113892999 9.700818103255322 6.685838806104194
Ag 5.481242582821574 6.730594114765717 7.656383194847486
Ag 5.266621902123305 5.123834340198142 5.2396033907378445
Ag 6.681082883891291 9.562341351260386 3.8721508445589814
Ag 5.137948060442449 2.6741341586792005 6.904661478424015
Ag 1.4625887018880652 8.392876404304612 8.818513813682436
Ag 3.513633183806276 6.889615963863175 9.79673785882135
Ag 5.414251660296654 7.246580136413944 3.0287121146930813
Ag 6.858799033847255 3.012430578146585 2.4403562894729274
Ag 3.69579489222288 4.398851069598272 8.52328613715653
Ag 4.645916865943343 4.7066395513370285 2.4128840629569854
Ag 4.090710315068646 9.146135832985204 8.155168538372127
Ag 4.454278610554212 8.302704281345061 5.397774541859174
Ag 4.64083946170555 2.537585483086998 4.184119088504533
Ag 2.6905402564886463 6.705894771126171 6.976898400046055
Ag 2.9262098327765895 6.229192085874918 4.140997491314248
Ag 2.7864781171899295 3.93239764647467 5.901728672140985
Ag 0.6136010447706276 5.5510100015364525 5.562770427945708
