40
Energy = -85.62315394 eV
Ag 7.378909319519877 11.00455762521665 6.270588568304232
Ag 9.720251136075147 10.142398718999145 7.691048469708841
Ag 6.426284808780527 9.375155312509714 4.1491520622626625
Ag 9.325320657631462 9.779774225559656 4.4772255311067415
Ag 7.096052961404704 9.640997854424384 8.748344785068445
Ag 5.187810189652495 9.052395749616023 6.679600865947565
Ag 3.8286252650001966 7.937360271709076 4.533522281344485
Ag 8.047585462533489 8.345401434722337 6.469968886580984
Ag 8.14418643132559 8.503633566854285 2.1442727359507834
Ag 5.554224693472296 7.364998231637952 2.36831449587472
Ag 4.518997176634983 8.355460168631248 9.277672653129155
Ag 10.774501880123546 7.819029031107095 6.363091682247394
Ag 9.189710846413435 6.911458210645421 4.164230852431868
Ag 6.788138978937688 8.097764613248373 10.981751554481312
Ag 9.320817977826149 7.528321745639431 8.9282463158419
Ag 2.6671262448433692 6.3785673958288855 9.692419271823354
Ag 6.688750112653101 6.688969836130271 8.374787534238344
Ag 6.4402746933357555 6.636964140599834 5.060823260682724
Ag 4.241914192047194 6.248100228193858 6.9537964498773075
Ag 8.92635947674759 5.6836937860422925 6.662713368787194
Ag 8.158386417652451 5.740233757161358 10.93209652019977
Ag 2.269215533160089 7.963798515223514 7.309349046897647
Ag 7.708204758137014 5.646265672903703 2.1762565973479653
Ag 2.226760812262845 5.7028125925248085 4.982051380802126
Ag 3.1830682028155546 5.960549335435825 2.4134839203528884
Ag 5.190496114366402 4.495408939424941 3.779313049370713
Ag 9.73152258692895 4.554444760644467 8.980060432009422
Ag 5.2979178676954675 4.805759959755366 0.9924402142319578
Ag 5.260507890512859 5.763174294601067 10.639798737055065
Ag 6.228592662252102 4.407080815348115 6.646958629238
Ag 1.7400999432508184 4.9628754101554 7.562276939107201
Ag 8.204249296406731 4.175191646262042 4.447866332761015
Ag 4.146776534334278 4.036778497857637 8.776141885800236
Ag 6.94100563122532 3.81768346389362 9.339015013155597
Ag 7.018148917683839 2.8763566774517098 2.267847491301907
Ag 3.6866964855316673 3.40066960452493 6.021194826193394
Ag 2.6585644320458575 3.392521798564159 3.411848895128505
Ag 8.458448221354505 2.8675601425348782 7.012017947369372
Ag 6.301189450674506 2.151693502604848 4.943278971970954
Ag 5.622534084867722 1.883505868891249 7.659470393179928
