45
Energy = -97.14087677 eV
Ag 7.580718507899273 7.163192832012119 5.636301364700383
Ag 8.737437746908187 7.9816309813382285 3.068336008621724
Ag 3.5768397100456863 7.640945480619313 9.475913637304755
Ag 8.225009054627424 7.170936367564094 9.508737200858342
Ag 9.268213018367161 2.5158154023903023 8.02290660351151
Ag 4.614741271838875 2.4361244794713355 4.739291707156944
Ag 10.135861925742777 7.153955327454943 7.460162971364643
Ag 6.745750776561654 10.106974366743534 2.225904231634347
Ag 4.486429609439763 8.573878395718555 6.9312941712991005
Ag 2.363228736675545 7.872279561750901 5.128954858777013
Ag 2.9211364106035025 4.785442643878957 4.788944570724454
Ag 6.14025993051139 7.291960073004819 2.478067959900123
Ag 4.935805802723845 6.673010604748823 5.016936394009295
Ag 7.500400626655373 0.666825894234543 9.148866916737143
Ag 4.3592350547393375 9.04149742027988 1.180539609525459
Ag 8.240530279180424 5.045546951449615 7.480694709757751
Ag 10.01696529465673 8.973255443566439 5.303459555280956
Ag 4.600150708931054 9.247477955978972 3.9407213693151757
Ag 6.057596167201517 8.94810348694649 9.186476770992666
Ag 3.36407082416639 6.854280394589295 2.6743356550541115
Ag 5.495245382420382 2.537008123014651 9.38195332087835
Ag 8.180416920150693 5.451692176374566 11.732299057618183
Ag 3.976744568735993 4.8562802422587374 9.68635327022159
Ag 9.977846210481168 4.908516442653878 9.644505360330768
Ag 3.189875457743866 10.717587452260494 5.860877523236943
Ag 6.686602901988413 2.0513817131847785 6.847684791993596
Ag 9.392906830851675 10.657696912812463 3.0418478765020964
Ag 5.811184106587633 6.658223134218323 10.851231547498898
Ag 8.204045664528074 9.232460046238211 7.507094100847274
Ag 7.976775860735503 5.276119020103318 3.2482224739873065
Ag 1.7880150259199066 8.862947610724863 7.679931004194342
Ag 5.153435768393512 4.619929827302155 2.9515224383475016
Ag 8.08190528503507 2.984352634103487 10.52492645420817
Ag 7.115922997734595 2.6058891520113385 3.4436135100867955
Ag 2.77413475725416 6.118060205978183 7.306765343082038
Ag 6.426170479492572 4.423000781965018 5.526839780175117
Ag 7.401749220150214 9.936446639152583 4.88835769373939
Ag 5.405097023942661 11.829631986183186 4.406834072276245
Ag 5.767197795116778 4.000732543951832 11.712589626463659
Ag 5.929843000877201 10.899286798984628 7.068765196492668
Ag 5.752334746905243 6.217457435513936 7.85644766305901
Ag 4.1989464173173605 3.688958972377815 7.172443320390229
Ag 10.999630415365976 4.533649812557848 7.0104924244369045
Ag 10.166695780679662 6.13602720692442 4.807866553099343
Ag 9.079642029366944 3.4562751706596333 5.246435435559042
