44
Energy = -94.54162687 eV
Ag 9.636407956855013 7.492941254148018 6.2430771614013665
Ag 6.413713113599723 8.774364202920669 2.764029292187779
Ag 7.4308724170467855 2.502884614866396 7.765019488973775
Ag 4.822108867325253 3.242358172791828 6.823089053244861
Ag 9.475880700104257 8.885516547136413 8.724128865105817
Ag 2.4483586013636125 9.554981956256308 9.499244882067353
Ag 7.678258722843327 11.086462063615846 8.8844609785855
Ag 8.491306855448947 4.437045676667447 9.933702997508364
Ag 2.94024629965877 5.50263126576285 5.654626462090385
Ag 10.948752333565261 4.891417825613291 5.941448949508278
Ag 2.222903130743028 8.575506550700178 4.972428000724989
Ag 4.677802562457165 10.0263823610647 4.593328357511007
Ag 8.458270963352751 6.91093557030629 2.037091971492162
Ag 10.866503686683993 3.7307149699419404 3.36640777920109
Ag 9.199216377751886 7.095276324795534 10.900413053133162
Ag 9.072183132336239 8.95055503410051 3.8788045352317986
Ag 3.9660357704902087 5.2320478460655355 11.113620281443596
Ag 4.723320946692278 7.516580141423611 9.49245109424145
Ag 4.542755672695719 7.29072611504301 4.281691118469261
Ag 7.211133737717214 11.087319312340352 4.144341283511841
Ag 3.21192633127 4.993928838407714 8.435461362640842
Ag 8.166270921214117 4.469038062178443 3.595686291800142
Ag 8.468290759073518 10.07706555114943 6.390643328322628
Ag 1.9849429979942754 6.905181500251069 10.120953956150768
Ag 7.040631413146113 8.92568078494018 10.462872917970529
Ag 6.579505320686427 6.195598220177404 11.246932188520667
Ag 10.294583206595668 6.05967071966611 8.505201494624668
Ag 8.715009046298832 1.83386355012979 2.9442468000717215
Ag 3.318560235546474 10.369669823484264 7.00003653429791
Ag 5.429171560708781 6.031770472653787 6.872017304761445
Ag 5.429021998435244 4.574042962353741 4.446835834942
Ag 5.940574121050447 5.966906941345086 2.1607261003682035
Ag 5.8135262237648515 8.725268070071488 6.9860674357535215
Ag 10.534632369071891 6.466165720372016 3.7234050850646288
Ag 5.839858254518771 4.340018939051591 9.211999678498005
Ag 6.776578158710888 2.221302632671397 4.98605868758055
Ag 10.13253098616832 3.2499046159394847 8.052745967109653
Ag 7.462087187270636 6.87331994338872 8.57519890695415
Ag 2.741361767623077 7.643294144341376 7.477299664409203
Ag 5.960869877445713 11.499383498763232 6.668502069446814
Ag 8.159886669975435 4.926972333608314 6.635059837046665
Ag 5.024698541466129 10.483643166703928 9.23567966743163
Ag 9.49535876218407 2.5093196111238303 5.499453343970848
Ag 7.280270931948119 6.898521582565476 4.779689427527895
