47
Energy = -101.99955 eV
Ag 1.2802815859142813 5.625485530272966 7.888775376064489
Ag 1.416522571937448 6.585855150841964 5.077045888026272
Ag 1.4020926513414327 3.783444532091754 5.717797678226857
Ag 3.3055280366351125 7.520880437625163 8.43370744798973
Ag 5.0886005134263375 9.731416111466006 7.6266864907954295
Ag 3.295164189309787 8.471546458864175 5.810819633937741
Ag 3.8877893460643413 10.387175951636273 3.7315066494141984
Ag 3.059402770112249 2.8682127065822876 7.835465024513067
Ag 5.729101357701137 11.588948256124123 5.520240197329551
Ag 3.4232238539258057 4.970994300496999 9.639160067709701
Ag 2.9942071131534735 4.828740953859146 3.4782821691755252
Ag 7.1575767410723214 9.230170088689047 9.561975107642482
Ag 3.604881070350134 5.32738737894588 6.378099066200586
Ag 5.6533284193234445 6.717182912412667 9.926037496429247
Ag 3.3943826422782917 7.665289930651102 3.1096518029242937
Ag 3.9719348255653846 2.763204825783667 5.152961605157962
Ag 5.641618800679323 7.075741003264825 6.983285774179756
Ag 7.264083156070706 11.544071335207535 7.901113087460332
Ag 6.649308089370948 10.784394958050504 2.953180051653647
Ag 6.296480880638272 8.027607008384217 2.177829482018282
Ag 5.010217481015445 2.5706161675774295 9.889747212475656
Ag 8.47778512730102 11.197617496443588 5.189407195262228
Ag 5.877871540673418 8.83609845806023 4.804647342270679
Ag 5.846763864659674 4.449834387267385 8.068313099313803
Ag 4.9186007615990075 5.741121955491932 1.5006063955183968
Ag 7.842823252911829 9.051951715796399 6.860896375497291
Ag 5.375188825148825 6.057870617114737 4.270697024115783
Ag 5.5486955479271725 1.6443126483258563 7.201882279943982
Ag 8.29502778985752 7.1912609487188455 11.094085470168396
Ag 7.9670504587315385 6.590465829610883 8.395266995666812
Ag 8.506209263105111 8.830452688996274 3.723560597569231
Ag 6.135910760212819 1.1209844819042654 4.502493158766497
Ag 5.529768219911278 3.4380847848066844 2.892870052911447
Ag 6.685292102283286 3.8526440132856203 5.4611274328299535
Ag 7.5821133636625175 4.503688543743822 10.29947260079378
Ag 7.9122866159363765 6.555553635895034 5.449031564143735
Ag 9.919030534950434 8.532183592154798 8.770338585911517
Ag 7.61153130363255 2.03142432768689 8.961269305149083
Ag 7.726841761112191 5.403918614146122 2.8305785607970955
Ag 10.393137780630004 9.071917997083824 5.850982489150414
Ag 8.207379548224246 2.5590566490073154 3.2908629868624075
Ag 10.217565885896613 5.682153117747803 9.640024687998936
Ag 8.37777841812726 1.753591414236155 6.154874298195228
Ag 8.901912654109497 4.077241492145404 7.67697635416743
Ag 10.315434286434508 6.753878729404202 4.052528496186246
Ag 10.367412306756352 6.403972729133249 6.8739545812386496
Ag 9.563941016107114 4.224137132892936 4.99347329730822
