45
Energy = -97.25254276 eV
Ag 10.302226279491096 5.47382471401582 9.622984736291551
Ag 8.457140713881437 3.6581815176702883 8.584520575959429
Ag 9.132760574955721 7.7158096727177385 10.747694374681307
Ag 7.107247245075307 3.070985100874872 3.036830864485758
Ag 7.947680456800149 3.2952762664400823 5.752819518180454
Ag 7.617697874783306 5.2709107171416925 10.879095139960683
Ag 11.761318667266005 8.179294269641616 10.22198468266999
Ag 5.700452377633218 1.6178008869965745 5.045212802782654
Ag 8.949265049268375 5.202897695396727 3.792894848847495
Ag 6.763757688810376 1.6862937019398883 7.687488615205788
Ag 10.440888188263404 7.608512348470501 7.934233853947478
Ag 7.734112093087977 6.506649862895872 8.39660299335846
Ag 8.186191561065145 10.17487462072689 11.642433883992764
Ag 4.372374333190465 3.6219483521348725 2.3535981869839855
Ag 6.65093263875163 7.750927489982705 11.970778518077033
Ag 9.762372213462442 5.191291929245758 6.662077743758522
Ag 4.212453548003446 2.688382773485187 7.2569282938427495
Ag 5.7950232728588995 3.7371344652105662 9.399628979694592
Ag 6.43397454803204 5.746628152627971 2.477452062216753
Ag 7.262467494393585 6.296679512863165 5.667741815771221
Ag 9.75547180396523 10.067479939690458 9.23842766558195
Ag 3.0432803634723573 2.6117391455141847 4.659238291968328
Ag 9.983415120877568 7.550583820728776 5.137292156876275
Ag 5.253579383943567 6.582377475397265 9.823843508531242
Ag 10.920274789758063 9.971962041223861 6.64176625444593
Ag 8.135591587980768 8.890359712256029 6.8701805239088864
Ag 5.331071162826771 4.346041260773241 4.809805353870559
Ag 2.116289971402697 4.407903441690011 6.646790269070964
Ag 7.991943939142009 7.8998348825105165 3.2387574589018335
Ag 6.823020751244266 9.058782364616473 9.479454119209926
Ag 5.351278722752358 8.155360741700214 7.310166790474242
Ag 3.187798254685904 4.670273228859547 9.191713425829077
Ag 2.5120280656828844 5.2919699253044055 4.068781963330774
Ag 4.862445087371618 7.142443472691721 4.574681316422769
Ag 7.492971301292489 11.794927848564402 9.451114756307735
Ag 9.120446692131816 10.182862760009806 4.483683388775605
Ag 8.661798344354866 11.61199542772754 6.934824102784534
Ag 3.7871164779154634 6.331383904368299 1.86667174969633
Ag 6.4030664013024 9.69726700684688 4.706282733577711
Ag 4.92688575172903 5.484688700519695 7.247109904526646
Ag 2.701977226890168 7.13439874818988 6.365445920325312
Ag 5.9519274972188425 10.862150599550413 7.242684576755929
Ag 5.428462306464129 8.570067915934455 2.295618688932361
Ag 3.792973452383686 9.679468486071784 5.574879294306211
Ag 2.4723517474461136 8.107176122089443 3.6055863181888417
