5
Energy = -6.29701568 eV
Ag 8.580359714180817 8.566983234580368 7.350126707355025
Ag 6.228446878192772 4.502049243501726 5.619952648972847
Ag 6.6109330452290145 6.924391390754773 6.588684480048111
Ag 6.458175194622167 9.74969786895094 6.388838280843255
Ag 4.579846146244897 2.6877666020864845 6.534084237464725
