50
Energy = -108.84831302 eV
Ag 2.410245833516885 10.801072643399376 6.129481665268709
Ag 1.3627886318473976 8.623135691039106 7.4758941107687304
Ag 5.249520808708025 11.470668875343431 6.704837935944716
Ag 2.807590774651273 7.677210707207386 9.640504915444653
Ag 3.5195101666700745 10.182961017935016 8.616721470651653
Ag 4.267691408921511 10.665359581005632 4.176341975013571
Ag 2.3814932884886724 8.291655125480705 4.632040146484988
Ag 0.9853990358049779 5.829329028747323 8.629447961784876
Ag 0.4330487384744172 6.531569116510236 5.8970421786006835
Ag 4.642523957095813 8.803562850453943 6.417926988170466
Ag 7.308047487492362 9.62197494316873 7.338143079395552
Ag 3.089429289910365 6.444114764291252 6.996085797124816
Ag 5.619390579532304 8.682554300482172 2.932926194500265
Ag 5.584961384824506 8.294097565720866 9.099831172611434
Ag 7.090555339292516 10.417983359767206 4.619873288703921
Ag 4.767203768531548 5.9045569034568635 10.342942527107779
Ag 4.675319352230748 6.596944242830846 4.644773658428814
Ag 8.487326816824886 8.436831175912669 2.8980682911957656
Ag 3.6803488806713407 4.057705049097468 8.564613406712995
Ag 8.785326307250008 7.138766555530155 7.444821314965039
Ag 7.074537140137675 7.675444723691541 5.285336543656627
Ag 9.532528972913877 9.090453949326607 5.528631126283686
Ag 3.8562316837004733 6.6644821665082095 2.0080436271395463
Ag 5.894050378234398 6.01967869340447 7.401575526762451
Ag 2.1784568358520184 5.413234545605715 4.031879047798038
Ag 4.268354800086796 4.136876944857785 5.797607649437856
Ag 1.5263716800392684 3.9818449838533643 6.536303060396883
Ag 6.00206591843983 2.633041624016266 7.343824161752437
Ag 7.5134605893402435 6.25473010466377 9.784776474474372
Ag 5.673841504931156 4.877916730342175 0.5372798608527416
Ag 6.782716491091569 6.183728459320925 2.7017863351286033
Ag 9.344512587499139 6.299700074054624 4.6077893439801345
Ag 6.268076338188029 3.6460328742959187 9.908254557025813
Ag 11.764602159184685 5.480572756999632 3.6901207934776648
Ag 11.429511170157095 7.01048547300494 6.272635733535715
Ag 7.095592556158541 4.628312715989727 5.147755779535757
Ag 8.289648606964354 4.368751355448917 7.749161047880881
Ag 4.595892035981784 4.132501278746712 2.9689315741192317
Ag 3.384707962475158 1.7486520659539238 6.830401070818702
Ag 2.5926659901698943 2.572968499065186 4.231194152626463
Ag 9.392696802301787 5.658907199495788 1.9224502370794976
Ag 10.741449491469922 5.477275390994559 8.618360713804787
Ag 9.069293959566723 3.9543021423408664 10.374929421440562
Ag 7.290964576995444 3.4513210495548545 2.4064672666045985
Ag 8.073074516930305 1.7048552342413232 8.89130519929828
Ag 5.8582003731867305 2.1438149301963065 4.5732424405250045
Ag 9.664196133913126 3.534479349699471 3.7428830734981
Ag 10.89404099795508 4.277999793436756 6.084547742227361
Ag 8.587152458896844 2.2525787220389155 5.964672641008807
Ag 10.570434927819464 2.6319015715072673 8.223577123536606
