52
Energy = -113.67762602 eV
Ag 9.440349871681727 10.305947546705054 4.104583181741889
Ag 7.0693275997055345 11.901230361411692 4.749888075094291
Ag 7.646546327684674 10.725305888314399 2.0325363203010522
Ag 10.565083797028858 7.78608467186423 3.6337678244948934
Ag 8.759777995096988 8.367524574219017 6.027740429490931
Ag 6.06806764741271 10.467615559945264 7.027560480979781
Ag 8.35560681600746 8.032155879525599 2.0224397107321472
Ag 8.859315754593894 10.987441645439796 6.806464601714104
Ag 5.071364481038857 11.257850468208067 2.767120971601938
Ag 4.185236514387614 11.626028157715828 5.301948565900092
Ag 10.448427646072975 7.472198610361337 8.195352134262311
Ag 6.039442011833983 7.6202152107728836 6.662160178283526
Ag 3.5543383356780565 6.754626501814201 1.7973377051635404
Ag 3.3046635485232754 9.228453800098682 3.405620472789728
Ag 4.568748913826337 8.782886775536504 8.851445251120635
Ag 8.86841688614527 3.9314890001311804 5.564653340732944
Ag 6.380530234348558 6.041859449267569 1.8271996036412805
Ag 9.765566436250886 5.170864176216489 3.1202820615469196
Ag 8.137219434063068 6.003042611161071 7.448822607834986
Ag 3.659121845881743 9.102181371171977 6.181061414037758
Ag 2.298339362602635 5.813232224071313 4.24082687305503
Ag 2.90769282984882 3.1833117587098316 9.96070118418913
Ag 5.587066786990958 8.7216988077071 1.6524546528645032
Ag 4.324647811721145 7.596701139079836 11.49988337236912
Ag 4.815564992906588 4.7134483892361185 11.254428471524431
Ag 4.513542756516414 4.395640431700756 3.119593563409452
Ag 6.733352364004637 8.897234456102503 11.055121434762436
Ag 3.0523852352144867 6.218806781999442 9.496358088921362
Ag 7.855592128113363 8.88206750727283 8.58232492078687
Ag 1.8771150536458114 4.265734244373308 7.608395869736723
Ag 6.637393688094847 9.20400094071267 4.2653914353436
Ag 6.840343939753179 6.344090333962782 12.264081359969065
Ag 3.5255002039618146 3.5510104899725583 5.5278809581628705
Ag 6.107941406523025 6.561649070622311 9.460850673077061
Ag 4.816312867325299 7.0365781809330965 4.2115096517264226
Ag 3.4580155474940404 6.401885291467991 6.690865516745198
Ag 4.749175309692235 4.41309788035512 8.254792702820199
Ag 5.9794413004487454 4.88612566443241 5.771399728653929
Ag 8.812782627772037 6.791843666298347 10.298990004850348
Ag 3.975462330990937 1.7953591339251183 7.661338527987325
Ag 7.716194079463318 6.481729442444385 4.329360902913028
Ag 7.28254513032655 3.3451458231588598 7.816632917608358
Ag 6.038594402426842 2.0937200748538243 5.523570483490806
Ag 11.366243211277574 9.063573787321525 5.989388714766535
Ag 7.201863286151998 3.7580254227953978 3.367606691404811
Ag 7.601579193866936 4.229888623235497 10.584246534615616
Ag 9.858276267593508 4.4193141726438085 8.843653425389185
Ag 5.62844052167853 2.264885552791192 10.01628934414811
Ag 8.713930358473107 1.309103303885741 6.554048950685203
Ag 10.619450835148863 6.080328975146232 5.790440402972113
Ag 6.464389999817542 0.5801930302829353 7.942868685585462
Ag 8.61371569501265 1.7923006853779448 9.54571832759942
