50
Energy = -108.87736997 eV
Ag 8.755496506088758 8.022352246145413 1.6367224442691821
Ag 7.548862471117963 5.614578399203554 1.097520043274182
Ag 10.195304133605772 5.3829266998924465 2.2778437058046417
Ag 8.02411824734504 3.60327544285814 2.9969384040969307
Ag 5.877419835867737 7.697873527788662 2.6699313907704827
Ag 10.682599246115245 7.915620326494184 3.611927955524626
Ag 10.58607503829123 2.991860594678011 3.906537029530828
Ag 8.049818331870524 9.298383461065129 4.0202199055978385
Ag 8.024060501005572 6.37231112962771 3.770537055526971
Ag 5.354405192035697 4.63818556011902 2.434429455443454
Ag 3.4793125250620616 6.42126869290104 3.5137596161655824
Ag 5.830523122215702 2.486387482046976 4.313910029164495
Ag 8.390271768454257 1.993925654668384 5.337647835596603
Ag 11.033166930712435 5.43914068030399 4.995579482242796
Ag 3.238082557057732 3.7493078903790287 4.357420063192065
Ag 3.983731785235553 8.964337347351657 4.428577349303485
Ag 8.262108571976391 4.745456472517866 5.999166509692211
Ag 10.307278013430942 9.973654269492451 5.593901505914066
Ag 12.064266377265001 7.769613250994814 6.072169301219856
Ag 6.342838099926545 7.827086340738964 5.707679807046184
Ag 1.3444334088726593 8.280763002183575 6.331667122802919
Ag 10.448131568916457 3.283253090879995 6.796677056141939
Ag 1.468204189685839 5.669650516127146 5.294856123929607
Ag 5.569662872467255 5.163531887585178 5.132592676792915
Ag 5.993940867062416 10.590254061706268 5.504595323444842
Ag 10.581275273454894 8.795547726882171 8.21198894797884
Ag 3.849965744379526 1.7141359129476217 6.124879948915376
Ag 10.692130818239901 5.8778734337091105 7.844457580369446
Ag 9.193955033954646 7.459584970825375 6.089637665013234
Ag 3.7370660913987184 6.986936693163661 6.541388462686309
Ag 3.4828866754566974 10.082631655097192 6.929423043039278
Ag 6.378715025380448 2.8748785435718855 7.157607574144317
Ag 1.3912196431221378 5.869561507480648 8.056685328156844
Ag 3.8663165754328137 4.260572325814363 7.360923567378207
Ag 6.168119656946592 5.866223081736362 7.776394360066866
Ag 5.840551049359954 11.218104720631292 8.23178181735933
Ag 1.4241013260415687 3.2209918228874295 6.753679054165698
Ag 8.353958209895243 4.394787545261465 8.773739319997112
Ag 5.315148497004332 8.459781315965879 8.407798634128753
Ag 8.410444274837216 7.261471880902 8.888829630352141
Ag 7.987557345722345 9.69563135957153 7.35151897561336
Ag 2.3392707707137723 8.350901607977702 8.955052492054953
Ag 4.162171416978705 1.7819208105596573 8.846522907639494
Ag 3.657096095673116 6.042606673775492 9.803655389880433
Ag 3.5765953424314705 10.699731382180515 9.681976011004615
Ag 5.577255053382566 3.959969861491525 9.753035725644207
Ag 2.235991046562025 3.6554127733638437 9.543667482618446
Ag 6.332827307198843 6.568479150347142 10.537875146719658
Ag 7.110656272746682 9.416040260587947 10.19914001594807
Ag 4.345904783839423 8.431497254338316 11.088427572042345
