53
Energy = -116.79143216 eV
Ag 2.9826559757280937 7.3340997881379115 4.786002272212233
Ag 2.579158546308662 3.268194310037325 7.302344611755123
Ag 5.31960629664651 10.742239084783598 7.195373518635989
Ag 3.512978214408829 2.354866404652716 4.728695586113707
Ag 4.568293590089314 5.553048589702819 8.600968404278486
Ag 5.668856881178234 9.08839657593735 4.8896273643968895
Ag 7.224613088528138 4.762491163483903 4.968059544103108
Ag 6.038354975644335 6.895955633168611 11.177441717305948
Ag 4.0296692378974495 2.879112381829924 9.65122972710689
Ag 3.164307440614031 5.276716378917675 2.856816799323536
Ag 3.7839360708911145 8.050654227221953 2.1633425630706977
Ag 7.405298871611729 10.80518494636691 9.06299251905957
Ag 7.858750388982861 11.65418243668731 6.254788846627972
Ag 6.297302980368856 1.9451502128407525 5.028149254403474
Ag 4.725927818019823 1.4284837070124403 7.259051951653255
Ag 5.549572506095593 12.019749865082352 4.742564971181222
Ag 5.523255867785777 6.511930369383416 3.598527529981837
Ag 5.761676737220985 8.524387474088774 8.977293965126146
Ag 6.381329966916429 3.7242856431329248 7.48039840448359
Ag 6.397279530782659 4.097460969569315 10.724209885575457
Ag 5.511622570721171 3.683180180037244 3.0321163836715606
Ag 4.352969666874019 4.818609326420852 5.62111531184115
Ag 9.922472360720516 5.141172289741671 4.0521762077432015
Ag 7.885392543618133 1.3363807032501096 7.1966702262754945
Ag 1.6107187187144196 4.579052620308589 5.0493521509125925
Ag 7.834487748126084 5.699203833243442 2.2208859324716275
Ag 2.1206998997583684 6.214217851154821 7.241052500498507
Ag 5.012394112401636 10.500731560201777 2.510419216489742
Ag 3.262648526648654 10.28029840835392 4.965032337768787
Ag 9.396453537311308 3.4911930910209414 6.351158914150858
Ag 9.611769256667031 8.76360845683627 2.4287032607956953
Ag 11.592564957990364 5.495474948220406 6.3753539601858344
Ag 11.104109129456663 7.575879825601828 4.538209953450766
Ag 7.377504341221108 6.059079170528446 8.825118212645222
Ag 8.337587605997232 2.9030922261929435 3.3235640013138954
Ag 1.9141226876295852 4.801107601758346 9.570420167434031
Ag 8.964233777821882 6.294880510659399 6.550698467956794
Ag 6.4782938365587 1.6000134230269738 9.535239871370862
Ag 3.6115127662885436 8.53659684397408 7.208288909462079
Ag 8.072899334313394 7.643602981550055 4.335259008882126
Ag 8.699787185822748 3.4361129970670574 9.141264082137807
Ag 3.153652911417238 7.5144302225924715 9.813124291781538
Ag 6.779060638028142 8.381276108880323 1.911163161574695
Ag 3.912572385391358 5.1560766720465905 11.414530885958337
Ag 7.718528201597809 10.595297906087051 3.524466591292542
Ag 10.29914879387032 5.828634742283513 8.907262698060348
Ag 9.906630880460506 9.957045801385076 5.171418333864521
Ag 8.842880854453606 8.327511468124145 9.569952241478413
Ag 10.918099652113918 8.14532542745441 7.3021974526605575
Ag 8.673019185468442 5.703192911591885 11.191921962335133
Ag 6.050661927297802 6.82118427648429 6.485341639734302
Ag 9.918268692301586 10.624741092941308 7.9374519498677465
Ag 7.8444660116440454 8.923464850068825 6.971771842160105
