52
Energy = -113.86887893 eV
Ag 10.614918235064712 3.207009624213267 7.366206071514359
Ag 10.244121881688718 8.746039269339605 7.806703447675226
Ag 10.734346273582496 7.758412525016873 10.546962284121749
Ag 10.439623047432235 5.59540268684564 5.8236641398798765
Ag 9.858994596718825 7.954138593378491 4.481963598631236
Ag 9.370754727324911 10.179806339291714 10.221485511387028
Ag 8.666192670816942 10.011418633587535 5.796006287162187
Ag 10.144764091575809 5.799746377108954 8.610976310736953
Ag 9.340124373740498 3.068609422593313 4.8424113806913684
Ag 9.343368421832475 5.484588923920287 3.192521446795953
Ag 8.879317897566466 3.312624369017067 9.5232781830178
Ag 9.02765548800461 5.65552579150473 11.250241311020403
Ag 8.092862538671303 1.6757686668298228 7.118251179795523
Ag 7.446831238189281 10.296691869807375 8.255030196964746
Ag 8.229312426076287 7.178980271649245 6.725655057450747
Ag 8.47914439512073 7.93566411827221 2.052807475210648
Ag 8.264733449718637 8.412482510908369 12.125781530278758
Ag 8.061110158283846 4.417663840990266 7.024967225647119
Ag 7.207844056234503 10.120562747622438 3.293220722781442
Ag 8.135350118902691 7.736804042893261 9.48060373516606
Ag 6.777320415163991 7.623675442003673 4.388149502795001
Ag 6.90811922828232 1.611460690288534 4.337555713582516
Ag 5.855912844145227 9.095582480346371 10.45497098292357
Ag 7.963696105697789 3.1070223846308327 2.2384705231474036
Ag 7.109679297652684 3.7282192840217903 11.595023094527404
Ag 6.541690922702747 5.4078744316080805 9.139525590270424
Ag 5.801027106425544 8.11939323515421 7.805664135437129
Ag 5.921729101797995 10.24744544613807 5.838363410104679
Ag 6.176074915291975 2.5318932371318117 9.152447568907707
Ag 6.98014494688794 4.548506555107199 4.41084945753209
Ag 6.93235621139631 5.618372655154284 1.7315840515058258
Ag 4.5247315634902705 4.303456240326549 10.939500347739616
Ag 5.612844212213134 2.8708326540025695 6.3940266573564335
Ag 6.25980372451686 6.5150600420637375 11.720204150753572
Ag 5.552024977794455 5.798772573800922 6.396344135888538
Ag 5.662037016830681 8.120740495517433 1.7277279128800596
Ag 4.396941030054547 10.013066198595801 3.3648318173492395
Ag 4.631465116877367 6.015818481016095 3.625605811603864
Ag 3.1529744031692197 10.772900906764056 5.878697307464549
Ag 3.386328367479517 9.206087245147673 8.408826371972841
Ag 4.012641041757004 4.141769520907086 8.252315383003701
Ag 4.1464667009181175 6.889235788971994 9.844076430294106
Ag 5.08963705534941 3.3158700122017786 2.7418221604386166
Ag 4.047725392092643 8.16989130010987 5.464308756742157
Ag 3.336631491807884 4.266643561115524 5.433673367516445
Ag 4.3160290938907195 5.603845686692886 0.8573617055626248
Ag 2.8818431550256465 7.649601014054701 2.1290274114892203
Ag 1.7133874738029624 9.363204912446319 3.906250840610092
Ag 2.870541551151076 6.480737225287096 7.347232109916873
Ag 1.3249305192558452 8.640516236278536 6.551830455787431
Ag 2.4528092652415276 4.582058137088892 2.7234621929659495
Ag 1.8190787332457068 6.576304743757522 4.614725522922302
