6
Energy = -8.35285425 eV
Ag 8.257772602257246 4.241374238602696 11.170103284136397
Ag 8.351720807482964 5.931313030809662 9.197825371665925
Ag 9.272473986019024 7.530482451086794 7.091439605313197
Ag 7.081013128013271 8.19365401107462 8.396287358409396
Ag 8.04276172560876 10.00322108327508 6.62607757176145
Ag 7.3497307077733804 12.429179534978255 6.00930854650073
