9
Energy = -15.60121035 eV
Ag 7.6298146257513055 6.109569235544029 4.763046402797267
Ag 7.689170917596972 4.617511896084651 7.04750183292303
Ag 7.432973542643787 8.902143361043986 4.988838598791402
Ag 8.082623405043813 7.391316859755861 7.239552607130428
Ag 5.409405426188452 8.194173272148769 6.8020102168102
Ag 5.945574669963771 6.271143750716695 8.66090765854725
Ag 5.209381307243388 7.359957906700382 4.1459935969734545
Ag 5.175827783388233 5.438256248629265 6.073139746384606
Ag 5.33873547305298 3.6077300621851527 8.150912285223013
