9
Energy = -15.43924141 eV
Ag 7.238975973999155 8.340822018727277 5.6649473578641905
Ag 7.068664658400834 6.146042056982795 3.755854947897819
Ag 4.814797606344167 7.136755225652545 5.293302066553473
Ag 8.48502420972023 5.870191000203296 6.081259721955198
Ag 5.236322868835311 8.700059559372585 7.678281490857514
Ag 5.956829612481106 4.59476717876448 5.7106071631539645
Ag 7.483827586326607 7.266042219985327 8.275795922051731
Ag 7.283280152713591 4.469615329581267 8.178678937101107
Ag 4.953903304425206 5.997331383976117 7.882898365810695
