9
Energy = -15.2162619 eV
Ag 8.084202153858591 8.831057743676984 8.647823993809846
Ag 7.221588219904954 7.691080390842937 6.354072269891307
Ag 7.66850361843452 8.743268634140883 3.86609126629896
Ag 8.353651947759177 6.088329643312161 8.383094990936927
Ag 5.595972769760947 7.597083301887691 8.650179644060351
Ag 6.346606643663674 6.3787315802768685 4.133184990144992
Ag 7.345659922713397 4.791825774871512 6.188665296900784
Ag 4.749122157439447 6.246395935953889 6.413208524159071
Ag 5.869591012662282 4.838539873506743 8.54709319086676
