16
Energy = -45.60564987 eV
Al 9.225085868044678 6.797157992306826 7.8184024189871755
Al 7.764403401909601 7.218593970564593 5.26266594603333
Al 6.480208788540652 7.804512775152885 7.39917853068939
Al 8.508492473294824 9.429222961907117 6.620143786415993
Al 6.696087361703863 10.382957186192593 8.398198374230084
Al 3.997291326645639 6.890778138657409 7.911060300896839
Al 10.541746221954185 7.807322423435739 5.762544813594795
Al 8.411514176347612 8.660248247538792 9.430694616901166
Al 5.693328282002347 8.222735956521293 9.836720291070108
Al 7.330875085094384 4.993396157304829 7.445337681249339
Al 5.288025954019631 5.871048989267704 5.8704104246848665
Al 9.648002616447556 5.318141107353615 5.541266591647453
Al 7.278926338600564 4.515868611527322 4.740547263742723
Al 4.197851711976838 9.493449780950414 8.061315137437393
Al 7.371260040005865 6.128459896529995 9.751435303827655
Al 10.823479923432627 9.047283668927955 8.082741910457605
