14
Energy = -37.60790645 eV
Al 6.502438044582944 6.502438044582944 8.638482
Al 6.502438044582944 8.638482 6.502438044582944
Al 4.366394089165887 6.502438044582944 6.502438044582944
Al 6.502438044582944 6.502438044582944 4.366394089165887
Al 8.638482 6.502438044582944 6.502438044582944
Al 6.502438044582944 4.366394089165887 6.502438044582944
Al 4.656883131526465 4.656883131526465 8.347992957639422
Al 8.347992957639422 8.347992957639422 4.656883131526465
Al 8.347992957639422 4.656883131526465 4.656883131526465
Al 8.347992957639422 8.347992957639422 8.347992957639422
Al 4.656883131526465 8.347992957639422 8.347992957639422
Al 4.656883131526465 8.347992957639422 4.656883131526465
Al 4.656883131526465 4.656883131526465 4.656883131526465
Al 8.347992957639422 4.656883131526465 8.347992957639422
