18
Energy = -53.03166462 eV
Al 3.034503889239483 5.960907295147317 7.057640427607108
Al 3.9517558737138185 8.445131970094621 8.086172044822238
Al 6.194171671751624 7.9569458683174625 9.775475454407292
Al 4.685276571275484 3.9185884603237735 8.138911309596528
Al 6.556975975987752 8.832843547942453 7.066164747639779
Al 6.6285323333753565 5.142246161777894 9.806871290884919
Al 5.6726504403030775 6.396673162354872 7.5871264887809335
Al 5.076620650578553 4.845305014450087 5.495772887171968
Al 4.646833074297604 7.577817009164169 5.430392099830377
Al 7.266668413356419 4.32189471926045 7.114082974745591
Al 8.22563424596174 6.77685782683181 8.144088213172813
Al 7.31460334133476 6.627642445424317 5.492965110256513
Al 5.873612277901778 6.144523149753658 3.099535756265066
Al 6.490676576677727 8.639540341493477 3.6887929329431213
Al 7.399667209051227 4.186218637201411 4.064442763644842
Al 8.520504005539669 9.183005066093513 5.232225039176774
Al 9.467791119292253 4.786942981829006 5.564896879794242
Al 10.000121494479059 7.263515506657234 6.161042743377845
