12
Energy = -32.02791646 eV
Al 6.77300579093197 9.470131000000068 6.804922710081744
Al 7.972645580053683 7.497168062555469 8.164219276764644
Al 5.733027178585671 8.62099479863649 9.27229254788314
Al 7.876818241577819 4.988850621527 4.337552872280349
Al 5.733027178585671 8.62099479863649 4.337552872280349
Al 5.637199840109804 6.112677357608021 5.4456261433988455
Al 6.836839629231518 4.139714420163556 6.804922710081744
Al 7.876818241577819 4.988850621527 9.27229254788314
Al 4.4967426567798965 8.115828819731725 6.804922710081744
Al 5.637199840109804 6.112677357608021 8.164219276764644
Al 7.972645580053683 7.497168062555469 5.4456261433988455
Al 9.113102763383592 5.494016600431764 6.804922710081744
