10
Energy = -24.97876196 eV
Al 7.9403719984735135 4.096130930318154 4.575881163555063
Al 7.7550385308654795 9.315031566707514 5.411627506531519
Al 6.781213453875572 7.673408847514385 7.452068773765806
Al 6.955686656206403 6.694663530157581 4.872645217760256
Al 7.606872296534346 5.969847808362179 9.506962572556722
Al 6.8731165675290535 4.945177138513524 7.012754322562061
Al 5.288736418014185 8.789645061523771 5.446387453373492
Al 5.1649020575714 5.989200470249467 8.881057700257724
Al 5.444547182647857 4.415869189843437 4.737829255966792
Al 4.514760678080862 6.3759610338719055 6.310244768030699
