22
Energy = -65.80946666 eV
Al 7.2853493514609475 9.964715274250729 8.991720979028917
Al 9.012858907063423 8.21876865016492 4.825481181065109
Al 8.289951069958153 3.913116644885411 6.7134186668960085
Al 9.558261734453993 6.403397340330755 6.7194318741550285
Al 3.965015601732292 6.11288295046262 6.322829736899681
Al 5.569598846624061 5.158790783680545 4.175935600770268
Al 9.55909427445459 9.085583059715388 7.3364603398781885
Al 6.360910678601745 7.678818052214084 4.272500773094856
Al 3.6477782144850934 7.180833402550194 3.8419359619087694
Al 4.387767096060779 8.797198483906953 5.837816111536251
Al 4.9676798828473 10.213721468600008 7.929593808141598
Al 4.019562828107179 4.863533140450974 8.579196229958312
Al 9.32147382959064 4.925287465470338 8.917298981788711
Al 5.646809625339026 3.7636915388783465 6.528818900529237
Al 10.79665916829364 7.134025574633544 9.115776379648722
Al 8.18212523511571 5.497098762232985 4.422620122004396
Al 7.9554250349682105 7.3448069538542375 8.938915557717548
Al 6.793897098398763 6.346889576991409 6.5386937566804
Al 9.557866862890965 9.246818661799901 10.060350196968168
Al 6.609537721223719 5.063122060631845 8.879264312311767
Al 5.280428783092799 7.526913135992561 8.448337045867394
Al 7.024396051487779 9.120859057266967 6.494752147160527
