26
Energy = -79.46002606 eV
Al 9.789968185686947 5.906019227661918 7.281012837794041
Al 7.424552312224122 2.3849440637121533 9.520030853827084
Al 8.940428072397458 4.487308549619343 9.317883478793725
Al 8.24621699246255 3.4395504900286404 6.91483480900228
Al 8.817268845733684 4.910373064262299 4.727914852064875
Al 8.721302233891825 8.34512740184349 7.4621437436494915
Al 10.030678083590669 7.392168171763609 5.115558264812086
Al 5.684767092811971 3.419577678357226 7.83718378558157
Al 6.3347135130136545 5.071158346709616 10.066072849143712
Al 8.495550936400768 9.60312840191718 5.215891736216887
Al 6.781126667806887 5.46895291698653 3.024276637876755
Al 8.350058049412597 7.08297169300139 9.683828109028003
Al 6.254576077990078 4.445026485170828 5.449110773934044
Al 7.264648181501917 7.179877077180046 5.059171877338136
Al 6.997286631851997 6.024110546345348 7.526512298079161
Al 6.178161324639939 10.112459437080803 4.192992334199967
Al 4.177732971715024 5.148880462684955 3.9878041056884337
Al 5.854500527727492 7.7993244815401725 9.368103158512696
Al 3.6492909162777947 4.2425190647262685 6.352098927251481
Al 6.191611486215098 8.872002350644918 6.864588116556013
Al 5.022458451364344 7.728794653398486 3.511363186446954
Al 4.687835764044258 6.7490464781596575 6.079296406183412
Al 3.875662276615886 10.155843229435357 2.939404768784538
Al 4.237466383551876 5.767288987793045 8.549819137073296
Al 3.7010205753001504 8.452400899018041 7.982772840382438
Al 3.801819462360184 9.3218478575477 5.481032128367502
