28
Energy = -85.7269451 eV
Al 8.714195747584329 3.645339391465834 5.022605053558067
Al 5.988406917104212 4.143238737654694 4.9358671731296235
Al 4.43553838663873 3.2589579820468044 7.049192835228234
Al 8.152868656318946 9.687323211054194 9.014003496102728
Al 10.778321547654912 8.494255783082776 5.7973804926494426
Al 6.150712818630328 9.764501293442336 7.476295275424872
Al 10.780771610175396 9.401096229780098 8.514979780652109
Al 9.51423863697372 7.21778373660165 7.86841275082312
Al 4.952018688874357 6.508004892723385 4.063219477623891
Al 2.6701839808455756 5.214813962646311 7.706624374376716
Al 7.484295710255075 7.7980792352874655 5.963547589849989
Al 4.288142037382991 6.105477702976262 9.648279769210715
Al 6.690198795062432 8.32012702591671 3.321255152994586
Al 7.051334816157672 2.773999840245371 6.988637019311381
Al 7.913618704778326 5.301884628779444 7.037967634446176
Al 4.096315978168453 8.183028836660556 8.061838619781193
Al 6.999320852047369 10.377519994384228 4.904543645654066
Al 9.009128031369995 10.283085214046181 6.559493934196057
Al 6.264213209614536 4.4704772102288235 9.036830950827365
Al 7.670824726165715 5.914147378834809 3.895354015401274
Al 3.3460905389078377 4.6647190522463555 4.97622196391866
Al 2.827203961063489 7.1714390239892465 5.820276779298431
Al 8.633088622205765 5.381911156395577 9.808636285261574
Al 6.791633174959467 7.275992407734962 8.824599487609175
Al 9.184166532075817 7.873726128737885 10.450450652703163
Al 5.2201947614623 6.027610730150075 6.830388403402812
Al 9.90320587401631 6.0858905938281636 5.4239463212608445
Al 4.817887295481424 8.830055862041723 5.346815783318645
