25
Energy = -76.36330737 eV
Al 6.966170997216311 9.0899283207506 2.3421516391219077
Al 8.20566126306399 9.672648773598894 4.6645981536964305
Al 5.424464035522368 6.895788426119001 2.623983492585836
Al 5.694543864112583 8.605826302706031 4.736600274035788
Al 9.510563462396545 10.294210642955619 7.000391248019186
Al 7.871205429512156 7.068217981963034 3.8558186701243318
Al 6.96473128700822 9.184701812848017 7.045091135488063
Al 3.8534358746938575 4.65049152381352 2.8551324658587682
Al 4.389905330198709 8.20530647608343 7.062662780539721
Al 9.21120438577858 7.602728618207345 6.154153435863956
Al 4.165576883359211 6.398749599394602 4.991434625896894
Al 6.399830495040946 4.796432775131677 4.091677762318972
Al 8.87052463648057 8.35172511372224 8.787861467887703
Al 6.641479345849906 6.498168094016458 6.305341250233454
Al 6.208084127265273 7.351793172298988 8.869162122904953
Al 4.210376514774323 3.7110027378761776 5.379831270043007
Al 8.891936412770114 5.027357973403035 5.2361715720843
Al 4.392944571616998 5.547143423729737 7.538324481210796
Al 8.722691535688794 5.57174012706219 7.912387426670422
Al 5.653473702619701 6.09023726846063 11.167593976918846
Al 6.878303474176665 3.735172906235609 6.560104691977193
Al 8.193202759479309 6.348055266808447 10.445281447594903
Al 6.550998704369769 4.552258032306822 9.079143255194463
Al 4.694141436288489 2.8539903571729712 7.881326425912962
Al 3.930965261163135 4.392740063780352 9.910190718263504
