26
Energy = -79.70655591 eV
Al 5.2207840445475355 7.460194868941939 11.095753933855608
Al 7.014967417600148 5.495570075197568 10.30169882187086
Al 7.022933410488714 8.356841679409817 9.380549229386427
Al 4.123344743756841 5.629349820596863 9.633364902469527
Al 4.206444763243117 8.175753876485505 8.566833513566642
Al 8.80731197285047 6.445482067652266 8.527123807055508
Al 10.189033793145391 4.36650706192223 7.470023944606254
Al 7.469371203944169 4.0417265477340765 7.897979586284956
Al 4.7047491673204265 3.824464287829887 7.840556792776272
Al 7.828180503714784 8.43796239346346 6.868790928958748
Al 6.086957161794791 6.322038990309645 7.6774685027375735
Al 5.843923552836719 10.171393265033686 7.6635762935958684
Al 3.411426536679555 6.118037208406849 6.90107166235993
Al 4.810150920429428 8.174185396509614 5.996224242168875
Al 6.914086332542584 6.550891814802973 5.105322270707539
Al 5.859043436263009 4.088458324412284 5.580796862410971
Al 8.517819106764598 4.263008781226315 5.353280268492679
Al 4.242643731342468 6.001735597416943 4.284243922960196
Al 9.636768969893485 6.661933023138138 6.009709416807883
Al 6.512712665128167 10.093681369662825 5.116341269294354
Al 8.512408445785319 8.498836163100595 4.240286718048314
Al 9.470333189760385 5.986951283330418 3.36058062361264
Al 3.1322607805824085 3.80400575087595 5.465067627293888
Al 5.440700177271078 8.247618117512605 3.4076186327289983
Al 6.645937808077489 4.6861645548216675 3.145725898311242
Al 7.374108704329093 7.095610220298196 2.108412867729643
