25
Energy = -76.14407322 eV
Al 11.058115824567947 6.710883108530218 6.902846056064285
Al 9.690027565430812 9.014136666978661 6.908660758829275
Al 9.661750167983952 6.275550589469677 9.104310936989775
Al 9.923271570585976 5.308437937965953 5.0678566119927595
Al 8.10454630588767 8.392802203762578 9.053506549131523
Al 8.889979639606143 7.953907293078357 4.474926883236145
Al 7.422712276893554 4.062095533657315 6.871658777386778
Al 8.632263097625595 3.1296598298972604 4.590616454979469
Al 5.835474497481866 3.200072270418965 8.984410750261553
Al 8.255891210262671 6.70500624494001 6.821360887125686
Al 7.131937925694677 9.310186264614776 6.4907966191415
Al 7.010757738447021 5.695530091668779 9.010410823344223
Al 4.339839908108978 5.561773906444838 8.782609902073489
Al 4.680023609932768 4.028238221562439 6.579439348817569
Al 6.107537373868566 3.2988016789698418 4.464876775023314
Al 6.216884049976788 8.110198795315354 4.165257905774075
Al 5.647425480995959 6.626466237729905 6.443986171013592
Al 7.3781890912030965 5.6268621012256475 4.422496722681782
Al 5.6083423082743025 8.185965461555497 8.669153208249538
Al 3.1107255890310426 7.832122810524868 8.112456820578704
Al 2.9630480686198553 6.082852031236479 6.09369427058197
Al 4.585188626942332 9.246090763163417 6.2640543082472435
Al 4.7277169439662075 5.510863700558177 4.090782197230263
Al 3.6095750395689232 7.936559691935779 4.10424402982834
Al 1.835246896328837 8.621407372081556 5.952057038703642
