28
Energy = -86.49054738 eV
Al 2.117509086954489 6.337641826936614 8.597221772274702
Al 4.868829813640987 6.253686979081915 8.736623810168952
Al 7.508032846921935 6.1561412086494265 8.601391684660236
Al 10.228816492849493 6.03675247099969 8.17461470492706
Al 3.1016744453154677 6.144840208970015 6.028950575808045
Al 6.04601806771628 6.045934010620797 6.04525938085282
Al 8.971117373356757 5.92642082123351 5.72384262755406
Al 4.296546255454555 5.958351546492498 3.67705131345584
Al 7.529678830622328 5.837612685354604 3.5085579663964976
Al 5.792849206813619 5.763117220480576 1.368606186013588
Al 3.449356881562246 8.405565801628375 7.644248798524444
Al 3.3032819488905254 4.082775288751865 7.913375620976985
Al 6.211848338415667 8.29368598372831 7.616513717590229
Al 6.065997168134826 4.005403617947883 7.882687643687914
Al 8.961814690323989 8.200147411380344 7.355988267662608
Al 8.81481825934102 3.8789764717466717 7.627395400326641
Al 4.5947097625262785 8.193343898036213 5.138241679670479
Al 4.448751157887592 3.9052622806625057 5.404431317801886
Al 7.550086547214705 8.083738642284887 4.983083368557377
Al 7.404428720646883 3.7960540134359815 5.2516856953962066
Al 5.946168013872581 8.013521809651396 2.7338669808779597
Al 5.800424460592526 3.6949208174038657 3.0038955898372643
Al 4.849215388572274 10.434392755458681 6.65082053625686
Al 4.559386065394584 1.85757443702859 7.183784335230873
Al 7.620998397956851 10.331284831835719 6.5042396033095615
Al 7.330620540701504 1.7544546870123872 7.040315028111298
Al 6.103196448033661 10.237534327809973 4.179974750655552
Al 5.814503970374997 1.6615431254650406 4.714010823503134
