39
Energy = -121.78914841 eV
Al 2.1347281317886204 8.495917628168504 3.9545384117487594
Al 2.3089721213812617 5.870371360416601 4.884193124185456
Al 2.9453579970114867 6.327259412901657 2.3480644505158903
Al 4.374241762178601 8.477775042506446 1.7092828137017206
Al 1.5130927176117155 7.897924295076143 6.582361270238171
Al 1.9757347791625137 5.297945042446207 7.546453719109703
Al 4.1888058331223625 10.180006680007946 3.7957781810818307
Al 4.627114912730829 7.366624119481156 4.253788639861789
Al 3.4721001301375876 3.7087830851852597 5.953453529045254
Al 6.1850500898323615 6.266169421246397 2.218548205372371
Al 4.575592757463658 4.642823516950323 3.7072534413813263
Al 2.916985482242389 7.545585164214283 8.806526054594947
Al 4.433785544277569 6.333038759487896 6.739406191075599
Al 6.667199286239204 8.825201432515136 3.2696267357332065
Al 3.9995379591426143 9.086567344913 6.422880811426617
Al 4.505574116125382 4.237914238933127 8.416867058529615
Al 8.218670944582122 2.741662860201074 4.672612635113565
Al 7.061804963437798 5.257580251963186 4.637388448234655
Al 6.081816822258097 3.229043623721435 6.2389345829697875
Al 8.700922546012704 7.168202820991092 3.5138651059694017
Al 9.91345819033658 4.977539649221671 4.471037815045208
Al 8.270257891794559 1.6881221713955454 7.1667703981897946
Al 8.555181283213345 4.422036346215313 6.795356329831036
Al 10.654436243852198 2.690114402484872 6.150563124893597
Al 6.9903641972947215 3.259158451627924 8.864300750384125
Al 6.839427333790593 5.97344497043173 8.016836188549126
Al 6.285830888817248 10.589069443639136 5.3605183738805
Al 6.551956312257356 7.907839665376425 6.090069550133496
Al 5.440678627655177 8.0643795493836 9.263655987274113
Al 9.300114153646298 7.0168143638302585 6.206939489090384
Al 9.990028872169853 3.409789553034591 8.78825236203561
Al 8.683099750769516 9.419851831297974 5.240436174203603
Al 5.771274096161614 5.1993554119924 10.507848099453609
Al 11.31072808297886 5.239986580474457 6.952116465040718
Al 8.46130963439954 4.618868202928709 10.702761163823178
Al 9.613097198192603 6.206015052964664 8.750514265313614
Al 6.123447581132403 10.201069012133626 7.906283514710176
Al 7.735592682166 7.180057341040194 10.470795096645634
Al 8.193002609072769 8.56243191023359 8.1929626083489
