32
Energy = -99.82681248 eV
Al 2.408348387412665 4.281970173553297 8.58453522371199
Al 4.712335540263051 3.2478403138851135 7.476529806264371
Al 6.929889910011265 2.32303228583066 6.33855459131581
Al 2.9990785968481855 4.710712717121069 5.962253617083497
Al 5.322027452847119 4.088742837248646 4.990278733187538
Al 7.458842149539782 3.1427383630788093 3.710326185718125
Al 9.020004256014397 2.49452078202669 8.001358145412581
Al 6.941716212807892 3.7051220555146775 9.165915017044608
Al 3.531796065327128 5.675646444443291 3.5121320435611905
Al 4.8287830487250245 5.355894892912459 9.134028300641894
Al 2.995870896801272 6.788434702689845 7.600902995716272
Al 5.884002129312101 4.8396563423951 2.4436856258613022
Al 6.797531868753577 5.349625084301994 7.0339749414816986
Al 9.038563476430042 4.029610358269093 5.748103057448647
Al 5.051070845822882 6.803161267253921 5.646307543053007
Al 7.470062756334951 5.823045111496184 4.476174156816311
Al 3.5341899621055415 8.411533142663277 3.9212039719368
Al 5.35731723094916 7.813869764207387 8.331027543171018
Al 9.452197077098567 5.142188173342286 8.261852924625803
Al 3.730422538286162 9.095116324976695 6.575289070220685
Al 5.956324280179984 7.514933099933564 3.055201865014683
Al 7.314081599264887 6.420840447985614 9.547214819693478
Al 7.593952927663897 8.302351204744655 6.994012336853064
Al 9.529880885923616 6.654538361938621 5.966959805957263
Al 9.739377343929235 7.890342844877878 8.604777246557376
Al 5.82372573669988 9.563097188213016 4.840539825699009
Al 7.334879056200221 9.083225931317328 9.715270370283077
Al 5.978202226291582 10.40303443652865 7.730754476158555
Al 8.273273133865263 8.459445592976909 4.364356085903253
Al 10.11390015854309 9.187290802579536 6.186474891520987
Al 7.916911620138291 10.813832292462688 5.801961525126675
Al 8.975106634022934 10.598272663646066 8.291709261373835
