32
Energy = -99.40252565 eV
Al 7.558377689360292 8.590521618814263 8.504188556491002
Al 9.11149872536064 7.310772977993785 10.258012746507202
Al 6.114696973712271 9.723612797849698 6.576917096616686
Al 6.454229266390848 6.71461165290765 9.998842389937442
Al 4.876786989734613 8.12063601410304 8.326416625605674
Al 4.018210052041363 5.696904994499634 9.405730106608821
Al 8.850346815699421 9.63659944039836 6.285154266162367
Al 8.148991226972411 4.6710827846035405 10.227240298012294
Al 2.209658152992636 7.40012070443058 8.103980374410039
Al 1.7907582867616356 6.683828256691099 5.496130975616244
Al 4.033796089479634 8.17234664931003 5.880668832153908
Al 5.191136595857373 9.762119994997246 3.967252293930164
Al 5.598396289751431 4.211556465480687 10.788837423018972
Al 10.31733158240108 8.027211571579128 7.897724830182146
Al 7.340296366863829 11.203135570216718 4.664722590715429
Al 8.404505717710423 6.054364278684771 7.92828286219991
Al 3.9945701205321664 5.585957359566514 6.774915059545709
Al 6.502340717646614 6.858889684836895 6.259559088601276
Al 10.83940778137996 5.390811171780825 7.058702540867686
Al 8.960249920882603 3.385541048783868 8.092375965760105
Al 9.295307657448328 6.992095990019103 5.505303100700836
Al 6.202306620674546 4.4421876424017555 8.020966893406491
Al 7.599008794901658 8.512921310465803 4.15436497406615
Al 3.013135061776253 8.155764519258135 3.459475982860256
Al 7.688982871607019 5.81154732504602 3.6302818614507135
Al 3.5423079396948594 5.322833758391765 4.0648033422122385
Al 8.893238287690073 4.353420489539401 5.560794065521635
Al 5.793809468052159 4.383202507065997 5.243032460331107
Al 5.4313962200132035 7.04896994225721 3.3474710829404284
Al 7.207426931472379 2.3555505093362115 6.378249739029113
Al 7.523545130666452 2.9791045343858413 3.7769906570349665
Al 5.544611534791245 4.4924383146232 2.413272797821777
