32
Energy = -99.29097599 eV
Al 11.754061018447041 8.154918728011886 8.85625142633535
Al 5.6699464294579665 5.629261698052404 8.631053132699408
Al 3.0217549930610983 8.988826039591656 4.579899410970727
Al 5.19092646738849 10.594839474663475 7.799834802795474
Al 8.277299754639609 2.630709032616376 5.883020722141106
Al 5.11154834242208 8.17871480291088 9.067246953098097
Al 7.437242081923344 9.958195586920993 6.3374516424761875
Al 9.448170407735182 8.682926331523234 10.23576527963651
Al 7.362374234663377 9.770493732930305 9.077169863122927
Al 5.592148863603448 7.758009913314192 6.141831501695466
Al 7.204024235025583 7.201681895259935 10.548337770238884
Al 8.698122167736514 7.8169818837356635 5.367746712250663
Al 4.74907480433872 7.464464506672925 3.3247294498319944
Al 5.570039804660276 2.4788993418771024 5.368355539153487
Al 7.330446964628433 3.7229011155937037 3.5399286098543015
Al 9.302787155787895 5.143192768819439 4.914277945752576
Al 9.10237087820038 4.417263084994491 7.600731624639946
Al 6.51422137237198 3.130659063415131 8.012614722039585
Al 7.732479845083064 4.637261978361402 9.973082163115809
Al 3.1989888049197623 6.422450890449871 8.189611318535011
Al 4.883180155478212 4.879040349010388 4.08741190258204
Al 7.241131303470083 6.391095993917781 3.6100928869897904
Al 3.171380116772283 6.458586418181486 5.5171808143445
Al 9.67386004614165 9.245736926565442 7.5547795729731915
Al 6.797479936379715 5.152022757145892 6.096096902257673
Al 10.531229562453648 6.651092506766392 6.90173454500458
Al 6.902615990881093 9.068293072034189 3.8578104474956483
Al 5.05055330706601 10.569751412476574 5.0989343693610865
Al 9.897016750055759 6.146492707035368 9.496027359447993
Al 7.830570996178621 7.166068690774329 7.880005562870796
Al 4.184559471120254 4.222363586928234 6.855888029437285
Al 3.1824842028677187 8.88089417440891 7.209187481812111
