38
Energy = -119.81671525 eV
Al 3.0004972880229372 7.8955709060750445 10.644466310158402
Al 5.411077617757689 9.017504359800979 9.940049469053001
Al 3.604828632862839 7.95163063700075 7.946645908501605
Al 5.826428579341475 9.531129374759324 7.2932125541543416
Al 3.7001611229333022 9.443677182454296 5.582699486772868
Al 5.311758537390361 6.686653421512896 11.314123860938295
Al 7.90383407245068 9.392575466817979 8.986506205126748
Al 3.6708215335237178 5.452530980391433 9.574365272147764
Al 4.28239373244861 10.493307674203995 3.13732342341487
Al 6.270162674685851 10.672057635535287 4.93753446523842
Al 2.6794776176359276 6.903847237166356 5.531164376093485
Al 8.32939235345488 7.774152266622557 6.697255373765638
Al 7.752910949461215 7.068242697938028 10.501964722580059
Al 8.362358648338468 10.723838984511705 6.7318439491299955
Al 4.337880796394096 5.416581996023853 7.059022393905994
Al 5.6067483502901645 7.545761555667276 5.393397948057971
Al 3.7975819402807565 7.807819101956599 3.278317064310883
Al 6.3219381759513915 4.744659240581122 9.648545578184562
Al 4.46027090025838 3.075830849962574 8.507369778696573
Al 6.187906034708203 7.017510514331171 8.259409826066724
Al 10.815593579790782 9.240012968591554 7.078062147983629
Al 9.975736621454388 7.6649726129090885 9.141578154882167
Al 8.629397789691488 5.4279620826946235 8.457582154574288
Al 6.478972457903327 8.866743485159335 2.9684254541144206
Al 7.004353031432481 5.320735734104806 6.2960335450724045
Al 8.725066818254572 9.42982538512386 4.4190590973012265
Al 4.502177365289042 5.1755529219227565 4.45817184141446
Al 7.317703850670291 2.9145719327339554 8.027110744018447
Al 5.9134971676259855 6.295529147105059 2.420797753302059
Al 7.95532059900386 6.890267552121065 4.0943593499138435
Al 10.463115850322247 7.548070948869194 4.934110630114509
Al 5.415447390722194 3.1377444859659303 5.933902397384067
Al 10.97141758615392 6.129212609648194 7.192041997225056
Al 9.508114738187956 5.024647778734766 5.084813997164589
Al 7.164372890296778 4.3126320347876606 3.7166905350111024
Al 10.172468732532904 3.5110640167927127 7.197840527817533
Al 9.138078238030365 1.1119282453010435 7.396273412466467
Al 8.167687971369519 2.520596211044709 5.35488053086442
