35
Energy = -108.25307488 eV
Al 2.7783319753977986 9.162100747031765 6.35199548406573
Al 3.1053597454932103 6.55952751161588 7.02160697754863
Al 7.099515749557293 10.066631389339713 4.825349730927515
Al 9.061654115964302 5.501353498911549 10.186027490164474
Al 4.4460410037752665 6.894232320341267 2.536732191539241
Al 4.969810980206713 4.85732256304354 7.467833633224494
Al 5.240236773935815 9.577942432501489 9.06327580196522
Al 8.694244206676554 1.9450351331931215 6.89739750826549
Al 2.7150194480835377 8.598149114243842 8.995936314458225
Al 7.374694639094049 10.133592533464705 7.591893256170374
Al 10.2358797684241 6.757441665227524 8.202401205134137
Al 6.811107072352075 7.82168478421421 3.4148455598494447
Al 7.913169915256926 5.712941501984069 4.331190015536763
Al 4.6448130894280055 8.835578778741995 4.48188327626831
Al 9.727156632060604 4.1206765760709105 7.888306025255458
Al 2.5404400994720566 7.183836062162696 4.480585004356801
Al 6.073485780785165 1.2317150663422551 6.516999147836798
Al 7.595851860669376 5.690550878505725 7.223749256558246
Al 6.420172549978922 5.188627073940839 9.85564839439505
Al 11.2257676706211 8.375508677740571 6.214430060111907
Al 4.624475935443102 6.931684018450576 9.435633743218728
Al 5.670647357764299 7.851232612612187 6.8770266287507225
Al 9.813329759817107 9.371223198904211 8.364065638126227
Al 6.830632910591839 3.152425937395417 8.314905634690732
Al 6.591816987783875 3.7047928389958353 5.511829978235845
Al 10.323742860482021 5.927066845565159 5.732373765510575
Al 3.120201109778062 11.189385309198666 8.29310006205104
Al 5.147925087746705 5.974996402970054 4.96527357874624
Al 7.811677279176895 1.4979782604131122 4.354016460016605
Al 9.780523058965597 7.991882073832299 10.584638082970338
Al 9.371723535303694 3.5993639000406374 4.865767842946765
Al 7.466918884174538 7.765510472321653 9.080061618537895
Al 8.455928890915681 7.938446601347278 6.036167869839026
Al 5.008439144055656 10.644515907539324 6.418485011909828
Al 9.48854379611466 10.472815374653754 5.8450704514698835
