35
Energy = -107.98991926 eV
Al 2.740695398666063 4.35429358108968 6.533112004507827
Al 2.4320208765777815 6.767346143350366 5.05562931476249
Al 8.701372420826821 7.150769489990633 5.369171590290714
Al 9.074519062274534 9.931390617142059 6.386107296511992
Al 9.244744942116126 8.030469966123277 8.38674689764282
Al 7.982593789887444 5.68636354030928 7.564583518979104
Al 4.1956724021432725 5.0274066283054655 4.243574939247024
Al 11.58567649119371 10.642003338846218 5.4931639570246515
Al 5.197318121481477 5.508965354927749 6.982825672250493
Al 11.167019268031682 8.091880149315745 5.9400718764549545
Al 1.2077141326990621 8.714234127719905 6.462008554588865
Al 7.063901505255751 3.3112916103461636 7.007609766464148
Al 6.711964576047806 5.173241180053782 4.7558929619169685
Al 6.976960939162887 9.113267804102723 9.779101526811397
Al 3.3428825700129683 5.373740266205025 9.076886371529584
Al 13.456088642761745 9.2677154175661 6.985833268852945
Al 5.839847383672276 4.499127053423468 9.437753715472722
Al 4.836682198768612 2.9673006129534736 5.816267734217214
Al 7.714548926067848 6.537829419279218 10.166568490391228
Al 4.718886965523467 9.681625241316251 8.455142366845479
Al 11.976444374097788 7.412970014142197 8.525193141100399
Al 3.5091115557691728 7.625569825153557 7.4080110786183715
Al 5.090925687799726 7.529198871169067 4.9329121516932934
Al 1.1223076294649104 6.2469711000435 7.521823868089917
Al 9.05768682763605 4.334661335736537 5.353780531159095
Al 7.065759653793124 9.255449690548591 4.715846780292655
Al 11.17642012048564 9.98918930574484 8.21881620318988
Al 6.591528021961023 7.9561401723948055 7.2389443293172375
Al 5.077305123846584 7.266232536456291 9.623602738131858
Al 6.7520067120737775 10.653664864244156 7.245439188464307
Al 9.706971969981465 9.307280234945397 3.841184105372376
Al 10.22905480721517 5.690293161405244 9.586863989489649
Al 8.82940351224536 10.833249785698467 8.963947048221922
Al 10.600135164645481 5.718713333002123 6.862388757500111
Al 8.34195745082621 3.8515967432140705 9.532864609617398
