39
Energy = -122.65141372 eV
Al 8.817873934750809 10.791463554723231 3.239678902078254
Al 6.409919659259886 11.032065101946593 4.3729416681971935
Al 8.441566096189089 10.241007037481275 5.963407805608991
Al 7.024068107961297 8.723408424631321 3.0267852880324115
Al 5.822750349035061 10.200004146956783 6.850149060055978
Al 9.65957552653129 8.407735712375086 4.200571674545079
Al 4.6243801175437165 9.097741547512818 4.468964764048566
Al 6.936227851246084 7.867227900068471 5.721095714428721
Al 7.922212296419501 9.148705899357871 8.313685551319718
Al 12.089867627387708 7.615294143652743 5.628880012415287
Al 5.406984034722638 6.679473898846446 3.476922671860529
Al 9.664806066413224 7.894171069497255 6.816350981794467
Al 8.010702732100166 6.269278283359677 3.6361989810301583
Al 2.9701800167642203 7.093369101834481 4.637123658048854
Al 5.276723254854889 9.307248758521746 9.331228430273132
Al 4.034041049331835 8.215291228809846 6.991918675106321
Al 10.436241552737647 5.788527795022425 4.592646585275291
Al 6.179323988177332 6.923035609933084 8.204733266367949
Al 5.041925098078534 5.807136127804476 6.102782308354066
Al 7.309277427446404 7.859433335766681 10.545975113612025
Al 1.2232831277896483 4.986302746079764 4.803358209591176
Al 8.884092018915034 3.716592996039504 3.878923679328183
Al 2.2506461470202437 6.238125013734638 7.0830667820244155
Al 10.565458720394684 3.2277479481615843 5.93862090768812
Al 3.559679091245923 7.231273533431712 9.477793781113592
Al 8.24513599930225 5.407599707756987 6.306047998069131
Al 6.342703024720142 4.179166091838003 4.257828066966661
Al 4.296869620029488 4.642084953089442 8.53108507844881
Al 8.857619316273476 6.434025611878342 8.925949564403544
Al 11.041797310140659 5.663039223719498 7.274159615350536
Al 5.666250542226367 5.708884356648756 10.650918444365526
Al 3.7336976771591983 4.375130933478675 4.0582366596257335
Al 1.583387568428856 4.429148903839872 8.926022352974394
Al 9.449303264192881 3.813352410162222 8.355987362027141
Al 7.823091449130274 2.7523184743031632 6.3020904005062555
Al 6.911869735924916 4.258203153926204 8.536032949930112
Al 5.2407295925333335 3.0165448490178735 6.517443798269881
Al 2.6565474502517654 3.5364874201234504 6.634737001452051
Al 3.18967267131002 5.022834108609508 11.020137349352089
