30
Energy = -92.95340801 eV
Al 9.30315847871146 5.894535049376599 7.122878237169527
Al 11.115220398533632 7.432842206854554 8.567234873398062
Al 8.266834455030802 5.973888891058763 4.5476333042076105
Al 10.164702195074533 8.339162022296888 6.304850496528764
Al 9.367720414109012 8.434421740525439 3.8734020587301625
Al 8.50408509993355 3.5070169408780543 5.902104760644569
Al 9.266260039420393 6.097806328686754 9.878246406791696
Al 7.909426299300506 4.007379285093813 8.634758755021322
Al 6.8763495197150775 6.859635777658743 8.971208013290981
Al 6.658764355200424 5.407698137541745 6.760880083072337
Al 8.703725537278896 8.76911449440529 8.53695910067318
Al 6.722100382182713 8.752494754330188 3.595506550785849
Al 7.429913089075064 8.097878191332867 6.268163794322516
Al 8.51888768984952 6.9277297133795654 1.9930990678708738
Al 6.011618602984436 2.7285517731404396 6.974589316566148
Al 7.084211770753194 4.981675951573426 11.04341857264974
Al 6.131114386626185 4.034243977470122 4.484606099510334
Al 6.089091560524777 9.398194834768278 8.354654372988428
Al 5.458015274949106 6.7441440887010415 4.93386968957392
Al 6.1698915110143036 5.89193262548431 2.492342239821342
Al 5.103595203865598 9.42427255925901 5.672621324793542
Al 4.253883694954306 7.905647949869597 2.7560361067036143
Al 4.592287146712197 7.771676794478115 9.997306354387227
Al 5.195117215426208 4.629400318748383 9.05836209107417
Al 4.0383785816227284 4.607217605805454 6.270088745273016
Al 4.539061884917125 7.244723335485448 7.377318756167701
Al 3.6589291252611598 5.169740771834312 3.522025171525605
Al 2.9908177247452485 7.830605284782319 5.107085532431309
Al 2.9215665035600242 5.9261203063492545 9.186966780854794
Al 1.97454301255888 6.22951944272307 6.831054497063832
