32
Energy = -99.15004275 eV
Al 6.0352086531301 5.847158066168643 7.410647992832248
Al 7.847252115010516 5.69597857223925 2.7829147197011825
Al 6.0321576100581416 9.15190908369074 2.745573243298341
Al 3.523897647279168 7.14492026807586 7.841618046955361
Al 9.209054259201794 5.728334095775578 7.551958648973027
Al 9.49381363180386 3.7780275768187037 3.6137085066877837
Al 5.426876858478101 7.148700333477527 9.827254040644704
Al 3.4214293945006977 4.424153398144905 7.742908534277898
Al 3.5855821631740166 5.669973082981148 5.437766747478358
Al 8.574336151007822 8.226399297078046 3.3993587390644313
Al 9.822460482022835 3.5602565013713376 8.95648507695709
Al 4.898902221365103 2.11328153911471 8.174311348340806
Al 9.73046142407748 3.4863009925694373 6.261515998966061
Al 7.562412210559404 4.8790684853787685 5.367067713646526
Al 6.0182742218493415 11.326436140195781 7.1478341220473744
Al 7.543206145879444 10.015445081836944 5.070378860046371
Al 5.365810863634252 4.246431422111954 9.727767487040326
Al 5.3142965296728875 3.4925314604619557 5.96525805821004
Al 9.941912465174877 6.155290160901053 4.726820938348832
Al 8.424304466251279 7.778284624545169 6.1892887988426475
Al 4.011136078375916 7.134969761828559 3.110631670377416
Al 6.17013638340227 7.282566286511145 4.757516414150631
Al 8.281911171969789 10.015871853515241 7.671621926497861
Al 3.512286881116462 8.317807508936545 5.422176645835539
Al 3.1537765698628064 5.742783758214663 10.135613772715473
Al 7.902680084077339 7.725068304243954 8.895186246036332
Al 5.815042475123054 8.590755409469308 7.0838088780745885
Al 5.459059887498386 4.925212913869939 3.6544257530070374
Al 6.08831984505397 9.777555955435366 9.491651508453348
Al 4.942169701234264 10.404031140423445 4.938343851346148
Al 7.313090914252774 3.371533153147445 7.804149893612051
Al 7.808000324716069 5.209357617528839 9.839448610419355
