43
Energy = -136.18763846 eV
Al 6.73863619749491 10.713757090009569 10.20812466869012
Al 10.686167690606592 10.116591747538196 8.53197775486986
Al 8.12070179710431 10.94925801107781 7.935999154280532
Al 5.299589036201615 10.7127523735302 7.690258462310388
Al 4.434227539327588 9.4690406184683 10.05857566190242
Al 8.758320492359642 8.918874613503716 9.875631304323097
Al 9.132363225932528 8.64125300621122 6.87336451032546
Al 6.556623381754747 7.823098958155144 10.935557936404866
Al 6.609984955791055 8.37558882275273 8.135099663992948
Al 7.083184722369463 9.90365541743862 5.643912470275195
Al 4.308153778474577 9.569096156245925 5.5095872679579445
Al 10.815424518394572 7.339570584382351 8.516782768416205
Al 3.8649826889699233 8.153699862017168 7.810983156667769
Al 3.9725730147420855 6.933694505090877 10.319781904050098
Al 8.176410331377285 6.318424389719022 9.382902696180615
Al 8.553551320837178 7.804916425835317 4.435451745377814
Al 3.466552537131045 8.222031095599272 3.4748583573545413
Al 7.965041003075096 6.101040342272573 6.656200409909205
Al 10.590126390733351 6.519545264318504 5.86333599958918
Al 6.25842272097703 8.948754856674817 3.296159252294817
Al 5.970244404454615 5.07122447850993 10.485774429355637
Al 9.89633834695591 4.729628138988905 8.092813521206153
Al 5.709589908948098 7.248461573344214 5.413118210592867
Al 5.428181546786832 5.8856132265657095 7.787784809013371
Al 10.934379839572319 3.8564680634999773 5.820094974606804
Al 3.224509547175417 4.447996144632325 10.75201547552884
Al 2.692729647985339 5.672888160079632 8.229434828983463
Al 2.7466443822607447 6.952005109918012 5.778555420695007
Al 6.928464685112924 6.259408061812192 2.969133038586446
Al 4.831968756274352 7.127964710011104 1.541502213876533
Al 9.020455068341207 5.002307483261023 4.218314029079473
Al 7.293659787919594 3.914501511986675 8.446705336893297
Al 4.068783165600657 5.616017098302191 3.83270428540328
Al 6.236806623854752 4.638478755390326 5.098739201298108
Al 4.554524413754133 3.463488410739461 8.64712413268748
Al 8.336813481172902 3.0782026004845195 6.096784980311436
Al 3.61864897696936 4.306878111096544 6.182043921397392
Al 6.5166008575150105 5.471532971760222 0.34185363425970117
Al 5.261155658651583 3.9635903991862294 2.1555256072464624
Al 8.017093444185962 4.005838536710353 1.9376566746951929
Al 5.6822334502368435 2.31840929670965 6.452929386649896
Al 4.21109667727795 2.6550819703944546 4.181797428774789
Al 6.943520358797787 2.2948514192345604 3.898529687143648
