47
Energy = -149.49435274 eV
Al 7.782339814480448 2.4117171638090955 3.6770725040895655
Al 9.692664825322653 6.362172433134361 2.2354916715161472
Al 7.614443253428783 4.558390611726225 1.9654552527163036
Al 9.469139377646544 4.491546106642106 4.1614877220007935
Al 11.157679400752835 6.583735443658301 4.514534996534125
Al 8.546297565186586 3.075153709042241 6.164163264699649
Al 10.48090802362775 5.220212441715223 6.73675489397318
Al 4.125717671538838 4.145534138158029 4.373599488562698
Al 7.1892725982071815 7.035108705778219 3.082018450529156
Al 5.93591147543233 2.378132646766092 5.7073005744691665
Al 9.334929324140123 8.750475095748284 3.3451664173958813
Al 9.82692878143002 3.0495166011732486 8.463174508999913
Al 5.131217254713863 5.453850443099515 2.3731894518852026
Al 6.747339540648507 4.836548479627232 4.647267764444614
Al 8.401613646529857 6.738266469475053 5.5595934640877225
Al 10.365374192210034 8.797748646592755 5.8027004365353125
Al 4.69271638345244 8.026194222803833 2.796813272559567
Al 7.095386725980093 2.628648275451332 8.45242943122256
Al 9.450463288119575 7.560472808484162 8.036256717301113
Al 3.2148613478161945 2.3274376279936244 6.121861827511349
Al 7.9928475739179925 5.182644564831246 7.915021321917345
Al 10.444923298800836 5.464886524538737 9.512090803017145
Al 6.872225899857916 9.679460210864306 3.2853443879004978
Al 8.2782746742453 3.9762285614197594 10.536185432211685
Al 4.572472657135014 10.762318673769867 2.420435676769832
Al 5.329103946923892 4.7075171607085 6.927466252622785
Al 9.615165355760237 10.395024356996746 7.723084609559902
Al 5.615144897982704 7.449047686601037 5.421804157396322
Al 3.062492334272222 6.842489313108302 4.727340337433506
Al 2.7582102467061516 9.49906242262504 3.9149545076461503
Al 4.606857231366064 2.0625259768701847 8.314779779342702
Al 7.557551334906851 9.36068393308771 6.107994494021777
Al 2.1424025518954104 4.777790735655166 6.159272908030304
Al 8.16419267992534 6.646163792714768 10.249825462503871
Al 6.294261833524464 7.3804802731504 7.980524095193612
Al 5.855002651404561 4.966969313684598 9.64685922257412
Al 5.111883179180068 10.412925802420967 5.112727031037027
Al 7.677420142432633 9.352521872901153 9.229255742459173
Al 3.1219620543877484 4.261729005610453 8.635110190041011
Al 3.1102849680388016 9.099921746267254 6.466181631768254
Al 3.669096044167122 6.7054341632325 7.426454427916117
Al 5.452723414980802 10.198361967552382 7.662239217715279
Al 5.90343706823286 7.675165118547248 10.794777558800368
Al 3.6042283787252027 6.396479547501362 10.158473445082864
Al 3.4729789756564493 8.85312580194059 9.007663048957431
Al 5.383364361593974 10.274714265142944 10.316141388489443
Al 3.608996868927418 8.718174252991826 11.664369874172406
