48
Energy = -152.99837998 eV
Al 8.901417486166462 2.77783645040928 5.573517096687696
Al 9.042993487670248 4.4453838962544205 3.3641336949642624
Al 11.024180452018266 6.249958044265203 3.6376325739254485
Al 8.823254538358588 0.9760982578119887 7.74982965618756
Al 6.816114370586023 5.2658156779558745 2.1517147747436356
Al 9.904346306040816 5.2789295192615535 5.945457038369106
Al 8.857221745296533 7.397095578038674 2.5349886077749577
Al 6.616371638304141 3.767833660319572 4.498921800067339
Al 9.799697706410688 3.5198550893210276 8.032640497607709
Al 6.527521608074089 1.957389574489497 6.554777353972954
Al 4.3820935220647135 4.489520713013623 3.2035799092478596
Al 6.209273639465971 7.870082628477521 2.6809178940438705
Al 12.102374242578724 6.894966582116197 6.0053376407028125
Al 9.786067415687416 8.125957397914092 5.181165490764269
Al 4.260797461135487 2.787513914838184 5.371187203837919
Al 7.551710211386365 6.410971895951088 4.8071573096407
Al 11.008479751676221 5.963648188499739 8.301635259350979
Al 8.356116066584915 7.342544283022711 7.438576430607911
Al 7.196650732345155 4.874623699110505 7.0819841442260785
Al 7.2849395294292965 2.8709493826747465 9.053012644928188
Al 1.7623064957067216 3.2281392571422067 4.644443547092087
Al 7.764024578648206 9.5757886195621 3.983758089273982
Al 4.943502935457746 5.722400320834135 5.508375850288264
Al 8.525027198491603 5.331919416206592 9.529452959101812
Al 10.724479999914157 8.780576250068032 7.673802264683584
Al 9.906760141248364 7.590322130346944 10.09084999995019
Al 2.2750088536345823 5.782802455200539 4.297579846548732
Al 8.68279450035298 10.165861829099041 6.538204625524992
Al 6.249313614390732 9.113641359199205 7.751449405947111
Al 5.803467442828677 8.285083119879435 5.401989108791887
Al 5.079237415149303 10.281408449779828 3.441692900583355
Al 8.419921799550083 9.633157535112833 9.357859091491626
Al 2.5610095810937104 4.715231630933421 6.912934619097646
Al 4.841956412753263 3.598587639291559 7.91501084854823
Al 4.770485346630438 6.370968421225184 8.022312285014303
Al 5.837674552005837 4.86185925871514 10.182521604079797
Al 6.854488339204866 7.389543924600564 9.787895660543606
Al 3.7262287095709032 7.865774617055599 3.720843599752441
Al 6.289708477508236 11.18839112844827 5.715853431491437
Al 7.336608988058129 11.810623091300265 8.220706773064054
Al 2.805387037998897 7.48395975506163 6.344264348667794
Al 5.476619013017333 9.684755891455277 10.337121998443507
Al 1.9129387443396788 6.749973128742219 8.783441301653307
Al 3.7365759140376147 9.979525426211058 5.89789082750555
Al 4.195133754158868 7.048122164564271 10.59223108527578
Al 3.159667728056275 4.585249499477585 9.69138115490882
Al 3.5118301460906998 8.869636098983678 8.559730915369656
Al 4.628106702095344 11.271609481030081 8.160121168927892
