5
Energy = -9.90386405 eV
Al 7.577877746712472 7.988602833780004 8.322993920938112
Al 6.432756244990559 8.077240236645178 6.055040381728817
Al 8.843462210470157 7.1562377749837465 5.953920733048803
Al 9.949267674302314 7.092764992959166 8.285336710920129
Al 6.305657508862837 8.719397689664847 10.385424198631199
