53
Energy = -169.4686873 eV
Al 11.034839519349976 5.487220956538766 3.054873073715045
Al 11.86379089059198 7.564750722542052 4.690605884518135
Al 10.96019161370107 5.626565339824414 6.378285204491303
Al 9.558550052346392 3.953021626073593 4.784962502303694
Al 9.536429833727555 6.142411020136793 8.808497315595247
Al 10.02237703491192 8.118210645295042 6.780136806358823
Al 9.2835919041595 7.577287940030263 1.9510281002617615
Al 9.537858420554665 3.6367744980347227 7.539970979057246
Al 9.104599126383725 6.702929115392895 4.557247986376468
Al 8.493453481259289 4.8748919867556495 2.468979584687631
Al 9.826667981587379 9.299184299164887 4.192239639287002
Al 7.771650704167504 1.6775326900163998 7.853330454954425
Al 5.478051064046554 1.1822841363967735 3.1153198177562627
Al 7.276989927807167 4.572344622186636 8.793723949718816
Al 7.599816322290574 2.5455925117857863 3.8502118421750176
Al 7.692399459689944 6.360295530659332 6.750933865358466
Al 8.078073244354982 8.471798300220462 8.568480438682672
Al 7.484635407300968 6.707487226207706 10.612277014748573
Al 6.116569982040679 3.8437162984811875 2.0728192207922094
Al 5.814492341461348 1.3932644611611964 5.969281402073362
Al 7.903878870384168 9.65467887884249 6.024033512065169
Al 7.234125091608422 8.561947527483724 3.6107578374465805
Al 5.46702563824119 2.5577648288946637 8.692600959392978
Al 6.621779149790935 6.68452706220932 1.605619771881033
Al 7.0004721398827305 3.818921538754422 6.26161855346056
Al 6.501670717886098 5.807552302722235 4.28364739017825
Al 6.250601949522508 9.207370635594083 10.411287018726934
Al 5.195148122274134 4.8167232003588545 10.421723658774136
Al 3.1296926586740454 1.2085710886235808 4.526361246690332
Al 3.520824613121208 2.8826165848119123 2.2736405227156964
Al 5.571633105978948 7.220279197666733 8.671627369393033
Al 4.845576501889415 3.6291778315144594 4.608064048660964
Al 6.020094160894584 10.042261192855033 7.824776929388451
Al 4.7740339141700865 7.234333605333862 11.692926731909925
Al 4.795426318455546 5.01155319108013 7.43426137181784
Al 3.4001982188933826 2.568551874948156 6.805977682751394
Al 4.667243487163846 8.152659212138037 2.9482127802946643
Al 5.548461884704762 7.805725727290056 5.977713426459086
Al 5.433091108797958 10.260338377935199 4.885503682548513
Al 3.010535192846346 3.469096694497806 9.32627457850101
Al 4.1781426446539145 5.639880793581369 2.011794874982917
Al 2.019364916212254 4.031152447743894 4.492307009421184
Al 1.643941390480577 4.61726008080376 1.7693085896685148
Al 3.023575114275905 6.1681703440376845 9.618287234171998
Al 3.8131203668163653 6.051436940331153 4.944895164336513
Al 3.5275935256544853 8.869943859638203 9.65812357865099
Al 3.0342973882800823 7.3666333671562345 7.304428505519179
Al 3.5346852803425914 9.999114822252935 7.163281766991148
Al 2.056443692343434 4.858676660162393 7.16198133565204
Al 2.899814755594143 8.782475584864715 4.963104479638444
Al 2.1262370383832834 7.100671038692828 2.932569953540938
Al 11.863790890591982 5.610538768813429 3.321899835233925
Al 1.078677284077728 6.6228208938219515 5.447811755625604
