52
Energy = -166.43089636 eV
Al 7.742638853369596 3.5943496088877858 10.92721990096647
Al 6.019924688020626 2.310358700130735 9.22721488486331
Al 4.629174049343041 1.9746468609914756 6.816561684650512
Al 7.531684567047826 1.761971469178278 7.126476578555789
Al 5.633895147962852 4.8817774209947835 10.058405434170579
Al 6.283707429830553 1.299068027637927 4.8074144112055315
Al 3.5735121509420824 3.525155670130335 8.87130805111919
Al 3.3160488921806874 4.3713710105193915 6.380290143132
Al 3.132837211274819 5.607180705670396 10.552444445638432
Al 7.6472944393304525 6.361937424653661 11.198700647777239
Al 9.705196351508215 4.9955938376874975 9.844385632760257
Al 8.773464328330336 4.087209713059199 7.465714463523362
Al 1.7770584619162586 5.832968216632007 8.101198785173668
Al 4.952676655360416 3.6105946623532668 4.4898936781468155
Al 6.026098497548706 4.328587623045211 7.237866176055083
Al 7.475748818683542 6.2487609704578775 8.461645109140202
Al 7.6938861017829465 3.663428822981416 5.0304295481149515
Al 5.18793281589641 7.442744606856698 10.686158740674879
Al 2.617244999929015 4.723614843753499 3.7817840736063064
Al 6.681796683317509 2.678148158668755 2.5938614940446776
Al 4.50482785625027 6.587368237702041 8.023599664621903
Al 5.186580357147492 6.247083455886066 5.3780105403736975
Al 2.4751364663703557 8.072789656047473 9.666677211008771
Al 9.695049771964934 7.717904829208212 9.92909580930721
Al 10.476793148756185 6.126792022921146 7.574254998912148
Al 10.160420582475437 4.884215504615715 5.1028374100657405
Al 9.025605534482029 4.312478485850047 2.6317267704919023
Al 7.276905718971454 8.778835877477364 9.602673310452674
Al 2.5505474913902915 8.85178928907209 7.117302242063646
Al 4.754401032118887 9.331487660239333 8.90631928460317
Al 6.634958165559105 5.49309310545156 3.178506010131571
Al 4.496141717633299 4.412977680822891 1.861631289761447
Al 2.3293529207344825 6.765249961846686 5.4930504432515335
Al 11.5674509843347 8.58958748095482 8.166909111916834
Al 7.931138018736765 6.4413094958014785 5.639188035937512
Al 6.191224442607699 8.398660571909469 6.671884962069391
Al 3.9550457930205947 6.953784688620544 2.8762494673591914
Al 6.962391019812064 4.38445091335943 0.5965095865196087
Al 8.83211127104139 8.423518648009994 7.275967107188635
Al 10.66769224086829 7.573170349761646 5.270449227261941
Al 9.484145719808938 10.454225209209552 8.903504359944247
Al 6.704967682806672 11.027976340012307 8.249421571834823
Al 4.0737369056964825 8.792328112473895 4.7381200678144415
Al 6.43883229315482 8.130876237749934 3.2708246267935976
Al 4.406303485407301 10.721201630457417 6.627108052632613
Al 9.002206602442294 6.955492460528628 3.076712255864931
Al 5.7306729092335695 6.768475255452768 0.8895902814873131
Al 10.837260607229725 10.221718184619338 6.2151456452259
Al 8.564548057530068 9.065714457345399 4.591223460789928
Al 6.250692677647602 10.477659390146304 4.599632835398046
Al 8.390220033182063 11.163186776530038 6.218791685517369
Al 6.176957044732486 12.71126937235004 6.134248486803159
