50
Energy = -159.08963691 eV
Al 11.131509597837596 4.203646132566321 7.454212746477618
Al 9.190821758244297 2.396774729376259 7.22807610152741
Al 9.702814159690547 4.318786291217218 5.120485510617102
Al 7.91096375149368 2.1878178575953444 4.8744370389212754
Al 5.736181856945539 0.5075784432743627 4.74848587382926
Al 11.810194622118402 6.594455217267045 6.1156395481967225
Al 6.383370924285737 1.6062182811368098 7.287882666379393
Al 6.039757165505113 2.5184252746036253 2.7334945418446748
Al 10.956708144317025 6.017969549308206 9.39353986868254
Al 8.74537167376074 4.585327510319475 9.105896806717707
Al 8.058462126548722 4.284994906128362 2.981649145014619
Al 10.132647126942745 6.830230607125397 4.016037671635337
Al 7.350679596097476 4.276721583855926 6.636848584492463
Al 6.459541463194065 3.324951058856716 9.441611618317005
Al 9.271327908546144 6.3678716771072 6.989898112852589
Al 5.408066261982009 3.196172157488097 5.230901244325575
Al 3.671587407892974 1.33813608873969 6.341223731675358
Al 3.525142838926942 2.073522422835043 3.6864211801698703
Al 5.400020231683775 5.1352480469188775 3.228119984958549
Al 10.110657426742359 8.966133038969904 5.767358322374952
Al 11.252605301016066 8.294377339234286 8.169333259849687
Al 4.349033030360395 3.51727679203141 7.745777610795651
Al 8.173448375629356 6.81717884422898 2.204904049614905
Al 8.436381372718603 7.395322017028967 9.370260464924428
Al 6.3613961549850835 5.8532473408471155 8.394537529203712
Al 2.9138921206877946 4.3035831865888925 5.276250441106907
Al 4.353710849588258 4.945427945278351 10.07953572338623
Al 7.455164807259999 6.342894352762117 4.84842529951461
Al 5.109891501340677 5.80926868950994 5.988342946028057
Al 8.048466991234209 8.892776220860721 4.0164724196058215
Al 5.834995541117797 7.499673941272816 10.387304170957247
Al 9.265999489380283 9.923935286889916 8.287394559687215
Al 7.4308500616682 8.300611270038937 6.838873835949111
Al 2.9956529287513893 5.7698483561952685 7.661363909590019
Al 5.838045042985691 8.032293655168708 2.452913248750895
Al 6.836775993626054 9.821723239687913 9.146471787814484
Al 3.358972663584038 6.654843848780513 3.7868231748066106
Al 4.736211186144657 7.979944119498449 7.753098728244129
Al 8.150114303735046 10.872915302909952 6.017500119694375
Al 3.10045552381343 7.321014670116179 9.97495203696939
Al 5.390322253016147 8.38472755885294 5.073788164464804
Al 1.0780601277703852 6.289620469896411 5.6452932467654
Al 6.106376974950912 10.85470086555539 4.067701990024
Al 4.298314426816645 9.812561590281668 9.808843486387508
Al 5.573887353575875 10.508726272536098 6.9041785688113775
Al 1.4202406378707713 7.906224582093673 7.902080340962002
Al 2.74622627011876 8.40852732974114 5.644866155682136
Al 3.5683927539532267 9.229949640639365 3.0534064574156012
Al 3.614457792583139 10.957998190040875 5.119206892989404
Al 2.8181863005345336 10.273014185040836 7.611853379820606
