53
Energy = -169.11560678 eV
Al 10.640412326029548 9.413986808727268 10.797219719380244
Al 10.25395447783733 6.739062811258401 10.617231587736853
Al 8.056447958924576 8.645071362354914 11.26104817876634
Al 7.859683215216117 6.0495537855655765 11.755522720111687
Al 5.927140168400336 7.1546756368083475 10.199253700770326
Al 5.773171319140001 4.484903557315143 10.552847477886903
Al 10.701534256489913 8.514331353175207 8.205562092995619
Al 10.792866242743573 5.766982584142643 8.231566383521185
Al 8.70840235819884 10.287306155815195 9.16630623714546
Al 6.010916774037506 9.797491973118378 9.826952277875597
Al 8.294291959355148 7.380238290942983 8.768846279078604
Al 8.574661738232036 4.668660141646966 9.559096258327168
Al 3.434540802360517 5.7315039624528925 9.71689465378606
Al 6.518320173492824 2.734956464433647 8.722118517166598
Al 9.255759736681247 2.6088468859801877 8.05856942701849
Al 11.112595744746494 3.801827515133178 6.49003948179251
Al 7.22495858081388 1.1783876012326073 6.739063358999454
Al 3.6861005873776955 8.346652688103395 9.37292488696505
Al 4.152980650031937 3.836368208906383 8.037699934455121
Al 6.396226086158719 5.499995928358036 8.059653823538241
Al 4.266539814431798 10.3611184261092 7.748286147768177
Al 10.295721711085427 7.139467483086815 5.879453326741553
Al 6.835067971322104 11.010188312760654 7.476982370596398
Al 8.574582460813334 9.157043985782407 6.619529513743913
Al 8.56881352060018 5.019224819590005 6.6273999185405605
Al 5.910481922789234 8.131578942104007 7.464594191163332
Al 8.991128142530776 2.5643523943361695 5.327470218666959
Al 2.8648470261225376 10.82752210075663 5.59306304503393
Al 4.655688762559287 1.4782471749953514 6.892096107532892
Al 7.327549973851749 7.108212157121558 5.377109478579133
Al 4.726356207701403 5.953538063788743 6.134985524395455
Al 11.0547920638354 7.1205246269136095 3.2115206643130647
Al 5.244502995453046 11.918383756934366 5.584290092552106
Al 10.08469949363847 4.893090797986329 4.254902472172355
Al 6.184072165787951 3.574754220168284 5.889475720831742
Al 9.144852037285434 8.801804476723712 3.920642806278072
Al 3.011851475645565 8.051663329611616 6.625707384833299
Al 5.567338118416814 6.1014824372878165 3.686183600622046
Al 2.1832162654987552 5.484288953404658 7.102468918183856
Al 7.296833399499182 10.568375490270933 4.616439200038181
Al 3.348248711876388 3.398011441037345 5.460334008988585
Al 4.971713361585297 9.156424742489715 4.995392958464403
Al 7.601667849153959 3.937554270163552 3.6041106999062293
Al 8.356849835502365 6.43641746912005 2.7271049398209124
Al 2.7891977855877803 6.287886277180226 4.2857204690613795
Al 6.609565859150129 8.589246297154839 2.890312917659864
Al 2.3045221758081413 8.883993120666833 4.086795542580142
Al 5.033103326145347 3.419263641523697 3.2600560717195126
Al 6.5069532574533575 4.902652372109675 1.387595826765219
Al 0.813118732974618 4.4278882101658885 5.014520027467981
Al 2.3422327801616873 3.8823377574180316 2.983924056545246
Al 4.090014081499461 8.053101134762795 2.3689935319368134
Al 3.876573766482024 5.527219809521397 1.571783457696406
