50
Energy = -159.48243286 eV
Al 7.272520211486271 5.578291997330735 0.9657937098805284
Al 6.904951052947404 4.026765144308985 3.2019246879445697
Al 9.047139383477369 5.797607975897353 3.013083844348192
Al 8.566836255394312 4.327899676529516 5.27980856057087
Al 10.547492843654126 6.188115375001068 5.2012288912251785
Al 9.98712422718699 8.441669578903406 3.5853213185649913
Al 4.959282319252321 3.988968120711771 1.2781341982574608
Al 11.724195730707965 8.580340425600141 5.766979729954603
Al 11.962391207528514 6.636145227904292 7.627842027502924
Al 7.359427728657134 7.883750703198768 2.463700190147288
Al 10.420234234686296 4.374428942726101 7.275825542435355
Al 6.278732256648934 2.7679901808483143 5.552874509268061
Al 4.295612733413329 3.889181335573444 4.044229453852686
Al 8.494581419977118 2.472302432380653 7.255802759016062
Al 6.02361911858769 5.703305072842899 5.199037643288135
Al 5.116873759574513 6.302478276811491 2.6363976194468783
Al 8.053298592474972 7.3857826917750895 5.150071263129968
Al 7.5078482288273465 10.039296522454022 3.976768925076427
Al 6.916901381898844 4.690384845392064 7.539136582868903
Al 9.353420747558948 9.856965553707035 5.898926284409862
Al 10.80506844848934 9.162120956539917 8.266224864592651
Al 2.6612214867451147 5.064791340860638 2.2287653614667757
Al 8.997626332839051 6.878114715869401 7.597044643460141
Al 10.586079856516568 6.962379352884076 9.95148470930816
Al 5.434331327220568 8.258815846546248 4.481801212535214
Al 4.946800307187694 10.933363974752574 4.669014033541114
Al 3.132211276397654 6.434934181303023 4.569668288346833
Al 7.073963030780879 8.78927395814703 7.26780354954324
Al 8.889805518294391 4.802874619474644 9.482692580605093
Al 7.013037840172296 11.471818028985798 6.348356397945701
Al 4.162116000292699 4.571357046966045 6.664070028660658
Al 8.835871316552579 11.0765715846294 8.254936305738342
Al 2.999809933916368 9.040385011962181 5.36757086721702
Al 5.121289829917454 2.362181274776433 7.936935898560688
Al 8.524490375808853 8.791957452370355 9.68066244557037
Al 4.696826963442901 7.357688967288469 7.047185936977875
Al 2.5781375362396326 3.865096720546849 8.659569762804919
Al 6.449269854445031 10.702593664735442 9.299763748248091
Al 2.011380870193452 6.162131252231052 7.061723368858646
Al 4.676612175437435 10.182877185196988 7.300781990725907
Al 6.589686133878947 6.793148994480088 9.14618741625197
Al 8.298533678984167 6.730916361160228 11.380950008402978
Al 7.210411766439854 2.594090498271459 9.624586305576075
Al 2.382223846906511 8.69190143544345 7.976285511366292
Al 6.452006740790986 8.86215321462997 11.39174049633301
Al 5.02840029959198 4.402934618525285 9.648408435661338
Al 3.267543976351697 6.412542064857917 9.424808951543435
Al 4.467858558849083 8.791104028529341 9.60160982188501
Al 6.9905419176103925 4.493074870212607 11.478003490585406
Al 5.0769848037298635 6.577762135890808 11.431101264461292
