50
Energy = -160.61931093 eV
Al 9.268917712105527 3.983417483363333 6.248666432698765
Al 7.775316902578477 6.144330496791215 5.105921759659611
Al 7.763784960807673 5.530077112638983 10.681688893459167
Al 1.595169325987172 6.880269238871256 4.972733771810867
Al 9.266444910411323 7.581341100832757 9.532350946656782
Al 9.334320351449222 3.8210455752436587 9.09525849210724
Al 6.48073809531411 7.989177588112889 6.695010167322984
Al 6.494006355122736 3.6763621123691763 9.07574688049994
Al 5.144410628836864 9.798270598525088 8.340717667383748
Al 10.602544661665215 6.02904744090054 5.062753587206215
Al 2.876666937757254 4.979951219558857 9.166527694227089
Al 4.260210645744633 3.00376322388423 7.73975597986422
Al 3.698957691564779 8.055748294606287 6.464635507033385
Al 6.4722351821687605 7.328259296912399 3.023290387244549
Al 2.962961531779574 4.987479684739312 3.5584209605825525
Al 6.284347103000947 4.197637580235565 3.5118884854479835
Al 3.6997737315389703 7.592638853480522 3.07891777709849
Al 7.8133417560612655 5.848309894898979 7.820912644152531
Al 9.282068769386084 7.058644211099379 2.992500595473154
Al 4.935059832509298 5.712189949968768 1.5326472972130958
Al 5.024079899258528 6.124516033677245 5.020124855808322
Al 3.671252158364263 7.756396751701488 9.33801757490051
Al 1.5421651503498564 6.921225133215479 7.798406506371052
Al 7.968409600904816 2.14639375001597 4.777326020162959
Al 9.286170125345851 8.005034842536563 6.719907642736359
Al 10.692093816269573 5.887235172247381 7.800976242218087
Al 7.901985607464645 9.743819732354599 8.492413345899639
Al 2.9074783202428547 4.984324680048094 6.34367215181578
Al 9.320689805689003 10.672012382876645 6.359459998512971
Al 2.393908687085244 9.777893792895343 8.06004048117977
Al 8.041831485160643 9.020537126079226 4.5641068408997425
Al 0.510992003726759 8.96727601804794 6.316680652323468
Al 6.4177446290493245 7.707817345268859 9.454248556450816
Al 2.4579127371598624 9.576106684806968 4.498530161848447
Al 7.743190631526824 5.399373392417436 1.4753793355278388
Al 5.025409294399942 5.667764778585362 10.580847150442654
Al 6.651958277490917 10.868229937096622 6.2593822795093965
Al 8.100478747160578 1.915386679323048 7.525763942167372
Al 4.2757326349517175 3.091022771534742 4.935437806752485
Al 9.174682289431015 4.2143654409972235 3.5110437880814285
Al 5.242666459400707 9.20651616308827 4.573101641668476
Al 3.9500788396888775 11.084119086998076 6.174922576643955
Al 5.083019001031873 5.825626506218007 7.756273248365524
Al 6.494851139580255 3.9692125881767613 6.285424532471213
Al 7.715691738576675 2.4626611802523017 2.0431285337911986
Al 4.192059444488217 3.0046119784892773 2.1273369157947304
Al 5.698162608844096 1.2007029005325234 3.4646074380138345
Al 5.874729701111982 1.0672754148450623 8.848866445778903
Al 5.779104800922139 1.1429807342582978 6.174166194198351
Al 6.078109613842892 3.6195163786914937 0.24797754683153855
