7
Energy = -16.50649462 eV
Al 5.0375102664603615 4.59329250535596 6.344009508710973
Al 7.115611000937577 4.930418358071362 7.880590614993092
Al 6.730974996404002 8.34937654165089 5.442226683202513
Al 7.262233387522656 5.7160705878458735 5.315799143537812
Al 8.147190134026006 7.2620710441572145 7.340972823150719
Al 5.472348223215553 7.0188100683014 7.4187580323872995
Al 4.805970247315315 6.7017992675849225 4.829481566984979
