8
Energy = -20.50179064 eV
Al 7.425641804666127 10.929300206987334 7.129474154936563
Al 6.819701563632937 9.429893117936738 9.116849014775617
Al 9.646446847058108 9.765831361040343 7.63468140251176
Al 9.179253712393585 8.707537384257025 9.978325787456187
Al 9.943860838598386 7.2242990584863795 7.686439341761382
Al 7.593569681952002 7.973726259121641 6.817800356551725
Al 7.1419603730349275 6.8943849743903325 9.163786341119302
Al 9.368414656508337 5.756098608815567 9.7071685111729
