18
Energy = -81.09428597 eV
As 9.525636162533726 6.827561057302166 10.244017112155108
As 9.064404035793801 5.448800486830405 8.278615887716597
As 8.409741672407522 7.798876704346899 8.189371561587045
As 7.524517839459037 6.447914384431736 4.60942302141548
As 7.316538641750432 7.006255494770293 11.487577103092306
As 7.204518489771841 4.073422870498058 9.066846330308099
As 7.27457436429027 8.363507525350219 2.4690747992268407
As 6.221767189147116 7.945997935806292 9.408336639466816
As 7.530068724181787 3.990570501386861 5.265930433937702
As 6.410528725131988 10.29615536770831 3.3766167167967476
As 5.730177650172291 5.676250453434152 10.186410980843185
As 5.825864292713243 3.610514467063455 6.991275131081875
As 6.17326346007763 4.802644513176599 3.365707709387014
As 5.841888337458551 7.506379637798721 6.1101128071761215
As 4.807192528491273 8.71775588580501 2.4256097654817808
As 4.37883604476918 5.585989055052425 6.700080834231087
As 3.8953989364629193 7.707887027702986 4.5373676135776355
As 3.882453592714501 5.210887318863146 4.304996239845988
