10
Energy = -43.97120693 eV
As 7.74179035543348 4.6058853624878715 6.113940643912979
As 6.196033417648767 2.685846305111702 5.711884856838205
As 5.918002250598601 7.623737373191383 4.239539248894195
As 6.4250151871218595 5.03399542192494 3.842778093605731
As 6.182136575875983 6.671890134456044 6.724158372425496
As 6.025846186685685 3.871256694796194 7.775472051423838
As 4.0921358644254635 5.488992085467068 6.827887423044199
As 3.867790582546087 6.553991632203902 3.3038756191188066
As 4.289286979382785 4.181829037739034 4.5404189238709325
As 3.695624014825971 7.731643475329023 5.36438840024868
