10
Energy = -43.55700825 eV
As 9.821126819357483 7.100595909684581 8.384089153140275
As 5.991334330496621 7.403289212208878 8.340124146447007
As 6.292930706653324 8.852725665794724 6.347736902493409
As 6.82659529498617 5.222753178793165 7.58344169431717
As 5.338750393524629 5.06531315622766 5.631289695811418
As 5.76492244411839 7.281477072213257 4.505461537216827
As 8.119454962005987 8.119905768141864 9.494020038571405
As 8.890412910840572 5.866512586187983 6.435348832305848
As 8.118649864690273 7.807865209051279 5.080550572804134
As 3.620303167631427 5.9583072461102455 7.0835045693365775
