11
Energy = -48.77430057 eV
As 7.2442085193049985 8.087429660204265 4.57477803646538
As 4.10497881340446 5.844067500229929 5.127185513815374
As 2.5120868595968955 3.978960062959076 6.09791272947782
As 5.882858867079547 4.3484016070843285 4.292218645385623
As 4.333343785050801 2.698716077581051 6.588006721642374
As 4.897993373872016 6.5464990041590845 7.3276191954295795
As 7.561258492817073 4.520356373856477 6.1030918036399395
As 6.748101442101897 6.328332262109598 2.9009896610933397
As 4.958745213515974 7.830211474591069 3.6603237110728695
As 5.813270535442896 4.269541517558923 7.89121542299945
As 7.294025985931764 6.885841830763201 6.759980637496171
