15
Energy = -66.78253183 eV
As 8.596765443416565 7.242476722712484 4.480046075923212
As 8.187862670708062 7.093901244028255 6.895118714277688
As 6.228182867941431 6.741561327356506 3.7166766504726296
As 8.022785226571909 5.02706770799693 3.588350953712398
As 2.95986757095455 5.366095789856259 3.1091513960775505
As 7.878849734705008 4.899155835684699 7.507997989436317
As 5.1686029178935025 6.924316329551656 5.95468534275269
As 4.430629260536489 3.370055082697052 3.4660289916098663
As 7.95170252395893 3.4991624366545433 5.4941241491734765
As 4.797368913629761 4.71295149308948 7.121984786941587
As 2.128409913289839 3.4246729163406413 4.38545141635755
As 3.0187492693466327 7.249813865712507 4.750035958529117
As 5.480322219810946 2.8800108853633954 5.656549814281087
As 1.4172502244720877 6.338298015837028 6.361450409465725
As 2.398993020280942 4.148630186079412 6.792758781891447
