15
Energy = -67.03953468 eV
As 3.164412688155716 2.519910894233887 0.9031993723524953
As 3.8305858529245578 4.8395513784115485 1.5544206829915768
As 0.44531290287252506 4.727792054487333 2.6047109158643487
As 5.852124125748543 3.4482200868421202 2.062365811237594
As 4.350194203376749 1.6333088984406494 2.9167496339369507
As 0.7589541708027324 2.446540399748507 1.6624016553378058
As 2.6463754934662655 5.005741872602048 3.728760312044455
As 7.3157430294668115 4.532456719860121 3.8027719603263455
As 0.966304243112922 1.5218740487292999 3.9642478816427444
As 3.0149233759536442 2.7331731173073046 4.689209382211263
As 7.3157430294668115 3.3936719850984027 4.4207228759995685
As 6.0232189824585545 6.332497483715596 4.96892943182508
As 6.936945445253224 3.377643274318604 5.994415036755108
As 7.244424064529281 5.630887469936186 7.0408549133907865
As 4.96837144875997 4.7785248117231784 6.608034629538224
