12
Energy = -53.76122131 eV
As 9.969566422513635 5.8024528927688355 8.505533960696958
As 9.41271395811466 7.071222385555631 6.465877837449225
As 8.944023955024957 3.574081837714428 8.141840449526683
As 7.177615200339563 6.169986269953374 5.8265525102054365
As 7.860853837634474 5.214524436465886 9.66238594024393
As 8.776833808322833 9.228565956773636 7.520547276310111
As 6.714227201589716 4.505324583933905 7.586086240914025
As 7.21758656027983 9.6952810398157 5.612869331925311
As 5.684959668262586 7.988063006433591 6.62496905816033
As 6.76926160089989 8.495704320043922 8.823028010852855
As 5.821064799255019 10.805430134367228 8.889680200132235
As 6.11177195674943 11.608006481722217 6.77233923724871
