22
Energy = -98.04139817 eV
As 11.732554348195467 6.938322641690053 7.690749499540844
As 12.006192059729827 9.659091373516635 4.783380835178681
As 12.349531069999662 9.28168429454748 7.212164795285018
As 10.262785680790545 6.428940704478287 5.756511020738979
As 10.136767872881055 7.365805803995215 9.585193539461894
As 9.737956800210897 8.670674663313198 4.798171207068814
As 9.022059005521427 5.24460164482645 8.939332111592805
As 10.235700804711023 10.346049846416387 6.522676670970043
As 8.045552876605024 5.826337255996012 6.737699808749524
As 8.656741734283747 9.216067310177442 9.003477099579396
As 7.247000287213226 8.01608598655094 7.5282539591543225
As 7.2505269271999575 5.057791560331101 10.676828337028281
As 6.016488426230912 9.4118524483255 5.841967851941036
As 6.551520713468535 2.9985455147059294 9.478566652062833
As 4.362684470061456 10.107672790444482 7.563545647123706
As 4.918344551765123 7.562502716305878 8.390295040979888
As 4.459412086716427 3.8571530481281244 8.987142154915595
As 4.883679159241069 5.913151219495153 10.294452359759056
As 4.968025219399293 7.479178066625335 4.683138260691336
As 3.9888382323822933 6.1771691928760974 6.579407792017413
As 2.2998322707257755 9.758654910408609 6.556123871598813
As 2.573649179425173 7.762450256655291 5.223929244269015
