25
Energy = -111.02522528 eV
As 6.519618880616055 3.552591620545117 0.7345392434415753
As 8.682296072666626 6.304697862310357 1.9824075148390923
As 5.833880498433566 1.6014337551205182 1.7849849780783376
As 1.4537429601701624 7.2468591469936445 4.267430279164783
As 9.410620525198627 4.040355380869463 1.8554632368118742
As 6.295200363390903 5.179192738432332 2.623426336552997
As 3.635959810861776 8.237495373664775 3.7817258738600965
As 2.15337930590245 9.366979596726233 5.4160955182214465
As 3.920317804609271 4.222493306561001 3.471592526911973
As 10.204868975724684 5.458818754448388 3.77138801510908
As 7.572449645560584 3.4034810196318297 3.8106752407495255
As 5.341539006097024 6.983343306891135 5.196736391676819
As 5.198715036523444 2.288762120219035 4.110994932483674
As 8.208508273949626 6.653176379249135 6.481574268858598
As 4.107371928755568 4.933826269496356 5.87532411319096
As 8.942882494033073 4.463103422757463 5.686653746566557
As 4.991374033337331 8.432571190365476 7.138266762815895
As 1.9138197570808628 5.958260002277625 6.399019783518042
As 6.22402843972654 4.635970509012088 8.209998134195802
As 5.723121659747889 6.881765546264945 8.984001421296908
As 2.710612860382307 4.642317262172666 9.459673505861488
As 2.599214264656388 8.0660549478624 7.537605763681895
As 8.125975240666994 6.147775805964821 8.898911455386488
As 4.886258270416139 3.8429121272944133 10.282678858169545
As 3.9689055461519267 6.0804242095291166 10.86349375321755
