28
Energy = -125.7036213 eV
As 10.454810072290943 4.164015625583324 6.564707172079673
As 10.308460520461344 4.89807605810361 4.116494498735788
As 10.084409231889705 6.4826162040219915 7.301938954901904
As 9.653949126334519 5.833827257475052 9.632558041325277
As 8.91603933819537 7.05111782597984 4.049003054995489
As 8.275084347423569 3.056764303944931 7.142485345192917
As 7.852445587080607 4.098173244382337 9.375883629004965
As 8.499876607923586 3.2919475287062876 3.7517783148248958
As 7.956723600449412 7.625441200104401 10.222808307731649
As 7.857644152180582 6.770106364924104 6.2511349981239315
As 6.689412907936917 6.4470898328400414 3.1552278639928315
As 7.072627912950333 4.4598571275009755 5.399195535746114
As 8.245360147607284 9.244764612422353 8.26001694779575
As 7.262959357375498 4.440008376982294 1.914158374807562
As 6.630954983338235 10.953553879867266 9.138569156994038
As 6.623482101493072 10.457714277609378 6.7214327324247325
As 4.995368652197929 2.9577708257920747 4.906233411104574
As 5.083047262760977 3.284744370182812 2.462523420999584
As 6.1535275014163755 5.9084855488666905 9.948708072915258
As 5.204861171706074 7.484811703983271 8.262914633038294
As 4.925551775264137 9.289224851506587 9.982810836154318
As 4.451191980431518 6.377610874328893 5.417012360464574
As 3.4983595442041775 4.607409379424417 3.8700153797158627
As 4.181530289099371 10.258732825942417 6.332156872915122
As 3.3847603908585646 8.507117200811708 4.7295324616676995
As 2.988986322450563 9.807310905808077 8.500192385994918
As 2.6962318406170476 7.3448862472675005 8.483019600414673
As 2.069921583323304 6.9143998548967 6.125065945198455
