28
Energy = -124.66228887 eV
As 12.013043100232657 6.87204679852426 7.449664912042638
As 9.755528166394868 5.942710216328249 7.079320142562512
As 9.89339005683341 7.392183180996159 10.692016399195287
As 7.8409960848936455 2.310601581894326 3.853250083244233
As 11.889039114821156 8.18435652244025 9.390435440680196
As 9.894871182398802 6.821962234537143 4.744977518794112
As 5.481617737497192 2.9375544784804344 3.3296517429257615
As 6.012096223343895 0.8124877676458708 4.517939262638976
As 6.531337198343799 6.9128325763461715 9.768395593899157
As 8.599278941621245 7.640250551523652 8.503550076771868
As 6.589487196261074 8.941614786626126 11.143816732143275
As 8.987593652519905 9.693973877969732 11.088378557902843
As 7.0849696620508675 2.2773056140641557 6.2275148393124375
As 9.77789629150567 9.869331236320674 8.699582645907626
As 7.6302819445374865 6.419163961908368 3.743105006082345
As 5.35046067594258 4.003309881511266 5.6107395283715285
As 8.411622654195313 8.762724187822824 4.243152291994174
As 6.413471893730718 6.218319365656185 5.900181193350815
As 7.313216454811717 9.09401625344614 6.4378210012197625
As 5.4343500620895435 10.859420441416034 9.890041894121124
As 8.360401974361796 11.25044383882053 7.062039867399409
As 4.157331499343514 7.389505720586657 9.13753831944817
As 6.978836973475282 12.288353835974032 8.741180435585443
As 3.963176067130008 9.659499276742233 8.255777714770131
As 3.24436592896196 4.085662652249963 6.710487533203096
As 4.325347429626445 7.351933250137633 5.173016743325928
As 4.9384100815343315 9.664486667859942 5.934376118327674
As 3.014681652455881 6.469899445605848 7.0915291170189
