21
Energy = -94.9201136 eV
As 9.713548359081727 3.138731237285964 3.7576674014670313
As 9.523014468778614 5.168519327982428 5.159551170196279
As 9.224117108833129 1.1382476564369477 5.087778697880144
As 7.326528432231528 5.898367717249221 4.215002338141484
As 8.305245759320023 7.424081488612475 7.365006754810111
As 7.490519065300393 2.1023323030755163 3.507003422435154
As 9.06103926734668 4.1803057440366835 7.393382515260883
As 7.953967680165167 2.0237591430471986 7.060435351841655
As 6.9598922140968265 5.392024615650216 7.948491367578921
As 7.3814334221277225 8.189986212154928 5.203967620571453
As 6.754119410917967 7.224187965782207 10.483017650011485
As 6.06258341798685 2.561783493804907 5.535117217792766
As 5.685881542992041 5.01362770903124 5.793603022240533
As 7.571376326514511 9.063464965912269 9.092373849825277
As 4.902333468644228 8.4245882805324 5.336038494227555
As 3.9965549307950665 7.697809789204701 7.517842324468328
As 5.148464580189351 8.772177428316471 9.479569828762402
As 4.839188574960285 10.901411605540636 5.45969605763736
As 2.3752902465994556 9.57203964861249 7.752680289565216
As 3.8459153124959196 11.585512679144648 7.627499285918899
As 2.380734722061376 11.02878930002514 5.726023650806753
