22
Energy = -98.84337353 eV
As 3.701197896905117 8.382692244894203 12.224015190214677
As 4.10792224909288 8.528148035916592 9.790025823606507
As 6.541059888413141 9.012417685422472 9.836983964905038
As 7.5128699456984585 7.393813202179073 11.441762381755895
As 3.7957991092984265 6.299626868159373 10.74918670569804
As 5.464959202892786 6.652374159137367 12.561109235101108
As 7.209068854601968 8.326830442037945 7.557644451343594
As 9.443475664826746 11.124861795709272 7.629015333807051
As 9.569068983811302 8.729565378805761 8.226159510439986
As 9.425282389052887 11.277946542828081 5.147696571152389
As 7.940625960320589 5.234541990908084 10.164161505556669
As 11.540495807123136 11.596484113641981 6.385958397588823
As 5.789622390844613 4.602353088511459 9.097519240883171
As 7.386467357400208 5.846347318518506 7.868097221914711
As 11.28958600098824 9.670575026131539 4.855201831839922
As 10.929599768334427 7.766821176364932 6.384676142907699
As 8.63459139233017 4.6878776754154625 5.987430370169416
As 9.636598603224758 6.48377123740918 4.670231891255254
As 6.565386235648032 4.426327010418437 4.657569028060072
As 5.579209017954249 6.716423682730281 4.572651718967085
As 7.680702187945184 7.775983160039189 3.825809897042247
As 6.754652239568284 5.827842667176639 2.5945900061044855
