22
Energy = -98.42217039 eV
As 11.974394966137618 6.124694268093767 6.310953201092311
As 11.586687420810902 4.762880468534689 4.291491457975919
As 11.333848236595157 7.234280558447722 4.146502930497471
As 10.081944909967774 4.540957858410919 6.26146349525159
As 10.170825188257135 10.388346017506276 6.681624337998013
As 8.901554789418086 7.444224263089211 3.9906546515525587
As 8.676901545704075 11.425780205196231 8.381943946256687
As 9.537021208555185 9.120538456227354 8.694224230014854
As 8.216850056504313 6.1718492486412435 6.033231153227083
As 8.61724959838923 9.810036153172467 4.840791606987327
As 6.346296941645955 5.366005573400724 9.737848974630044
As 7.431417697894216 7.940293130951199 8.095373380459469
As 5.141615762454775 5.992062493296573 7.646996042961726
As 6.609354431408391 9.170662887441411 6.080870193569097
As 5.309602532836496 6.750756154210299 11.493944436800522
As 6.143779919442441 4.957176396845726 5.672556381980373
As 4.7014348430177275 4.333140476900072 11.314619880259063
As 6.313536556468041 11.117330213396611 7.564819020037877
As 2.8018956984925505 6.258756137918702 8.380525165990395
As 5.596139298519165 9.386521654124307 9.311164806295915
As 4.061282170527675 8.34740033111326 7.665559117171787
As 3.0130105475614 6.08048405050025 10.822276803711238
