25
Energy = -114.03845586 eV
As 12.320034054543834 6.791079443583124 2.5917141724275115
As 11.625746878681237 9.123517761660056 3.132362768113963
As 10.353833549282623 5.360867689198609 3.1201987719766366
As 8.707106105695367 7.165095481873136 2.930302632535171
As 13.033487990769423 7.793891726947251 4.734302799146016
As 7.156706805511316 5.5692748172986235 4.0283896583583445
As 9.579324833657969 8.78642580299004 4.562956658445514
As 10.595678347763618 5.169648852447573 5.575891204494162
As 5.045294381900381 6.551010200537148 4.845469035225729
As 10.991275048884544 7.498552827883414 6.162357005570716
As 8.030173933597315 5.118890974465171 6.284589219766653
As 5.111625188437489 4.604730459694701 6.37956391951849
As 4.187864986613599 6.262300377694191 7.9363525953438385
As 5.557703409934892 8.05294020295584 6.859584389186887
As 7.875938131651419 7.376912410567618 7.350220871882067
As 4.153186202019495 9.327089850109639 10.09890458479309
As 5.3915422425834425 5.601330211210662 9.98325225715887
As 6.486024272559876 10.125648990672609 9.759394810797653
As 7.766729209342901 6.410783266850078 9.635537447832894
As 4.343816863760653 7.2991388433901125 11.47016694778886
As 3.929610104450922 10.788118589322204 12.120162922758759
As 7.907226368667759 8.517375495371462 10.946438039352474
As 6.303488254031952 11.593215493457981 11.783955474264461
As 6.400252019719276 7.744374086290306 12.733125335649444
As 5.760688010811581 9.982143338400677 13.589163672484348
