27
Energy = -120.3115941 eV
As 12.64414400514122 10.285230835771678 11.240662400133278
As 11.320801408719941 8.22700188321119 10.762430562723438
As 11.585381915423524 9.072672184708084 13.095547774023144
As 9.079007519881308 10.90722247089128 8.39495544242853
As 10.514307646516906 11.14235939275795 12.22698910063387
As 9.278037851525061 9.693143253579665 10.59175470665948
As 9.053393135577602 9.56875163254101 5.244884820172619
As 7.187579057554637 12.14179398256572 9.353853871110644
As 5.459670556868253 11.856567871443797 7.519344620701871
As 5.82283070915202 10.494207052787917 10.654536154594563
As 8.127829628095022 8.866478795353657 7.399146309282107
As 7.751723135203823 7.942104108566408 3.9578455817100484
As 7.248647335106121 8.634918371724325 11.221930419943776
As 8.770033494453283 8.17258982025672 1.7420285594573681
As 5.806864501088165 9.559853035205995 6.705425009921102
As 4.356634351852749 9.88599632560863 8.64520112521547
As 9.172298777630099 5.860332022646346 4.134760115070594
As 9.167726746890455 5.888340548094281 1.6973640437869708
As 7.758707113800661 3.911004933987461 7.057896136281145
As 7.842241264684136 3.790128761828344 4.527396115351055
As 6.130356553444338 5.705443580803598 6.568493199923173
As 6.243087063187818 1.9885281860041013 7.177103233402787
As 5.458116680984726 4.616452874997279 4.449397215991015
As 4.241252265276085 5.223868526631051 8.102323728676339
As 4.619195808894611 2.9009094047836514 8.85813929156904
As 4.624760857244493 2.4842881550957263 5.3307656218014685
As 2.9886831152958035 3.396503079609742 6.998781093403751
