20
Energy = -87.55392203 eV
As 6.170940343035845 8.160350606876438 2.5170010451896454
As 4.5458007026411655 9.194916251820194 4.009379921782973
As 6.650344713334005 10.487894610606256 3.147595158200197
As 5.078814543123764 1.5622956794577396 4.987635889815292
As 6.888200755958274 7.020694878299963 4.675635504627611
As 5.0163259120175585 5.357221649857314 4.232880524505447
As 3.348790191118939 6.848684395077016 5.263747612075587
As 7.7432034988076595 10.473420012712149 5.324585182981722
As 4.740501042141557 3.7340928967144307 6.1030084451278945
As 6.987233887825178 1.2331535841385852 6.40282425282203
As 7.141177699882009 3.814755537238111 6.886195796943138
As 9.695515015785293 9.035294448813493 5.981138651780921
As 9.141418378179079 6.613238300676764 5.862833240681004
As 8.322711066207384 7.903082387314635 7.707533155754973
As 6.062996888387397 8.793015539386465 6.195845885075915
As 6.894872252838452 2.252326502332187 8.748014790857413
As 4.710854321969416 2.592718097841309 9.777118830089744
As 4.119944767125999 7.441795870423406 7.462458361477137
As 5.837588988250531 5.894685680639739 8.298220969176533
As 4.1547649261825 4.838362964584786 9.668346675846998
