22
Energy = -99.65215966 eV
As 9.403312361564018 6.96432371134586 10.641120815626206
As 8.847027037385525 8.217554128340499 12.755366011259744
As 8.7281567502647 10.557079928487747 1.7350905229485365
As 10.017083125283518 9.763276519721769 5.771578057392559
As 7.9950151136053265 11.79927741305041 3.503788596594554
As 7.579076236133586 5.35067628219748 10.842523606473515
As 7.852223125961078 10.09110231052036 11.384971727978849
As 8.476439514631775 8.837574634670005 9.27710647624046
As 10.750467523665668 8.424700767787122 3.850616259183994
As 8.706586565318315 8.191555332878782 2.4292317730893895
As 6.415266999402991 8.495277168341463 12.573763283397176
As 10.087734464739471 7.305779383539128 6.000940216773706
As 7.61725796940549 10.243138484154985 5.393400104791371
As 6.149890332123868 8.277158707709615 8.836073820897964
As 6.884643326914741 8.314848530902545 4.069854902687646
As 7.762815827708216 4.59849172045046 8.510063743620723
As 5.626536352271027 3.1343385736744933 8.435368252490857
As 7.871447163825723 6.436012985479913 5.286749520370043
As 5.604091865034405 6.842979204259577 10.778851483370778
As 6.421038899558829 6.313074026302684 7.323950573660721
As 3.962117223343358 4.524046356397087 9.52534185571787
As 4.20998921222882 4.781715888738585 7.202053352255678
