30
Energy = -136.79734899 eV
As 6.981954256010037 6.322588159492393 1.8257021034215954
As 9.340745070546886 7.005992781647167 2.435209429854419
As 8.298183595458667 9.25398927855117 2.9570858724435776
As 5.984417973054575 8.398469423793559 2.8598294284956722
As 8.163469867729033 5.217541374531207 3.653279933969954
As 8.295136268563702 10.784376659830823 4.920267946914218
As 10.68619920446583 11.238098772686396 5.369117373780158
As 4.661467773820117 4.394654678734055 5.250536005424652
As 5.855504459342771 7.9953750496951015 5.281123152030263
As 7.737713367384268 6.426335797341356 5.777444443877718
As 3.7801269965276263 6.66765154817211 5.545536583625412
As 6.608346904378044 4.443195877588697 6.745394207560569
As 3.110007153310317 3.2313417572607332 6.803301358761453
As 9.853385452253253 11.908877762397438 7.697121622804038
As 11.498374070147836 10.125075356837513 7.419390295948382
As 7.662890713838994 10.718248548780386 7.352548451166807
As 10.427632501544057 7.979000298001455 8.076876487255683
As 7.999182646238885 8.507203752416308 8.376071469578417
As 3.793278210925056 6.8818846619215766 7.985392900955635
As 5.67198505514425 5.427564831134678 8.77666660232879
As 2.1966127374195135 4.985233490293927 8.30362028519233
As 4.085290662607177 3.5048213012760066 9.071082623375004
As 11.356490169951087 8.360857812254794 10.352865922052505
As 7.7369360790356945 9.425987291049823 10.672815827103062
As 10.00488377996305 10.30866378740896 11.012910403779701
As 10.246505360078341 6.551750530954442 11.572885938839935
As 7.857338512898946 7.272468367860143 11.824079900372997
As 10.144721828141282 9.964487251449512 13.466063650777459
As 10.782882414136651 7.5818004310426454 13.78357109452103
As 8.377981167520833 8.316107618032074 14.03185293622501
