32
Energy = -143.6486986 eV
As 6.16988280444735 4.151784595545664 11.271580572957562
As 9.245243885349758 6.890478736289145 10.918491544130873
As 6.964563637631568 6.256053744609755 10.105397273467313
As 6.844073811780878 2.8017099265546173 9.301059546496877
As 4.439110454330406 3.4240065367940025 9.619506670059579
As 10.12420473579897 4.9174381817340285 8.154548168225412
As 10.159393953332708 7.395221204972003 8.66881462872446
As 7.2557747816642415 8.32795980917738 11.41619567814413
As 7.656451462304375 4.608543535241387 7.720738168168939
As 10.324154402559621 5.0292427236422785 5.644339084159439
As 3.1653975653749082 5.334539522742629 8.548827061109828
As 8.49140117368565 3.2959075481923064 5.738999237125809
As 4.828523874424914 7.1868333316747535 8.271591084930229
As 8.047554885846115 7.548666250078361 7.3349706024339065
As 2.905971564301616 5.303261307732044 6.074878747105799
As 9.522853671920318 7.411105456881107 5.279605223674393
As 6.627869708066377 4.573294016884303 4.712393667232134
As 6.571239087197841 10.111178616835215 9.743945412358599
As 4.286101134804092 9.144145600850718 9.711322429153773
As 7.476001444984979 9.984298492066795 7.406904396444256
As 4.191692770087155 3.577303499034375 5.049732687856929
As 5.598251617942894 7.293846283989706 5.4013752885416455
As 6.269044551386392 3.992175932672421 2.3395820220772454
As 7.552831319722328 7.269717618207803 3.7529283970773477
As 3.522575592036523 9.138391003613995 7.366914901183916
As 7.851534544681698 5.833299950201646 1.7750321365294506
As 5.4482039024085385 9.840382679402357 5.943041200822565
As 3.930773822315175 4.789665021276876 2.8330709861626517
As 3.8490745206738795 7.1770468942413945 3.6633868669267304
As 7.11196350285561 9.286584188917631 2.1887701506371027
As 6.737630699620277 7.603331377428043 0.3803631484228496
As 4.843190749783821 8.515122045835218 1.6742286509783921
