38
Energy = -169.70094867 eV
As 6.166200601702201 1.6750419156550498 6.839397946949748
As 6.385108470634821 3.00451491245171 10.102859258441626
As 1.2158557537472996 5.53151078723358 8.679946978662647
As 4.8986149729657615 7.3815257703169666 3.535606688585629
As 2.4626963757656055 9.912303009184448 1.9576089345778958
As 8.43446759317976 1.415748806972761 5.85544839295005
As 6.433826004852439 3.4743056918454394 3.143009923893942
As 0.36366891512145544 1.0361247501989321 1.7617120972500175
As 9.048517364281867 5.756444460581143 1.1134847699198567
As 2.565507608603857 2.1336214345616993 1.970969926753198
As 3.160457450419233 5.604860773824793 3.7149448562778455
As 1.2488086703434425 2.7919166084727514 5.293308709903152
As 3.3292186925627734 10.168818709674847 5.990870535342522
As 1.2551269085961805 5.744742405113121 0.879595005667146
As 9.992965827299018 6.438077067981686 4.948540805679577
As 7.810462251001095 5.509669045150561 2.924807596742322
As 7.749083371859609 3.6198187283358 6.727784530911617
As 1.4055703503610166 4.59088889898299 8.559612879556553
As 4.590499132227769 1.785015623445652 4.8441373776727525
As 6.341378913205075 0.7149015364270885 0.8519340677956875
As 7.995768578515122 1.574215796938786 3.42416465118957
As 3.4158821277177585 4.237915938220618 8.852406286043921
As 2.139240894713338 7.108911824040103 5.386046847752725
As 9.381880165144775 4.12520561900645 5.619230324257411
As 3.1956568677057082 4.4886346921300495 7.123610591938814
As 1.6834328832675263 9.394811685247731 4.2796874599649755
As 10.206976284675946 0.9127424213491925 4.247094829150565
As 1.4694761542017274 1.1149921086437862 7.144665152170194
As 2.820545047242701 2.576267258867437 8.679946978662647
As 4.560066324694724 4.383060435865596 0.9251734482749496
As 2.4983473106247405 7.883281496679006 3.0239818760742767
As 10.221614143050084 3.9169910850436502 10.128647833226887
As 10.126458433140929 4.68754818998764 3.218232569079104
As 4.8974301322437 1.1874083761541758 9.177247015715801
As 6.4825740307101904 4.9904003301220845 5.05524457640879
As 5.904450275005125 0.20618925002628338 3.3325752340070003
As 5.981749520195288 6.51144335398226 1.420649236201789
As 2.6008512891714823 2.0302892936271424 9.706249497098682
