30
Energy = -134.60634376 eV
As 7.887241409330686 4.380649254703344 0.7390787630939034
As 5.4482081184454465 4.8086568615350105 1.0024218251678927
As 2.41389950694165 6.172654709546345 3.0335856068299023
As 4.857193999990325 2.723844035862779 2.1939628908404063
As 8.17060143975401 6.718154319185113 1.7367482401733427
As 8.484243173615097 3.2390210364870686 2.935769766110732
As 4.342361562821628 9.418179914093965 4.490564338334543
As 2.6574080090769168 3.6254916232468104 2.9124354773466883
As 6.074136390473593 6.2907898894187255 3.0453120209388884
As 4.250638428762919 7.828340216145183 2.429713629605808
As 6.455363080119614 1.2663268118768838 5.3933889026004564
As 9.544686053608176 5.462442159058367 3.426653807379736
As 2.1160095425561023 8.753582455216984 5.470874132514436
As 6.285263831452138 3.380730497058128 4.117082115240217
As 8.896367011347238 6.320054908639846 5.728976610955557
As 2.95464058982767 6.439559479609425 5.419229414441502
As 5.629282284838663 8.199782460391873 6.196550220420845
As 7.452411510796153 8.028693505005661 4.725270483044636
As 0.860349791285459 5.633813278317732 6.469075228368043
As 4.157669584239975 3.958048833416124 6.983493260084783
As 2.63576159044308 8.685383260636645 7.900715251110559
As 7.7806648773796665 2.742164706916984 6.983607692070941
As 6.870339648369178 5.052076692491141 6.589515382445401
As 2.3235817685047864 2.150999334836112 4.986676201949283
As 4.233266487720301 1.537321229377799 6.507168314171391
As 1.6685481645276563 6.705655747086763 8.576314848230092
As 1.725261833935481 3.372682263511674 7.130874080618846
As 7.068055587895104 5.236694146657758 9.152086294190928
As 4.857482041556829 4.136824152577298 9.402514370493181
As 6.925402692368976 2.757722229077582 9.346680843211715
