30
Energy = -136.5685754 eV
As 8.081131055744002 11.871698990280297 2.39163639766319
As 7.296908707159759 9.622882411987712 3.1040531085218945
As 9.784698962832648 12.567326683009556 4.0663279561437236
As 9.247564908201968 9.093682286337991 4.502834510472228
As 7.875116624307163 5.792841671025593 4.192918195303827
As 5.497597932880245 5.517167878329705 3.7172287415330025
As 7.416941477355704 13.433614550336781 4.194709132388339
As 6.6953571084945755 3.978090164777152 5.362495947675242
As 9.342249401442356 11.034554045192037 5.99129118438093
As 8.167987822762182 7.450925300540112 6.02328767742143
As 5.659605618257363 10.3492861389302 4.788839326894756
As 4.3532378825597675 6.688505152622511 5.616958717125671
As 6.99592960357075 11.899537462121542 6.133395257824756
As 5.888672013255692 8.469623610274533 6.40437701020315
As 5.292218377184728 5.005547932636885 7.168178125849665
As 7.851269225536094 3.449285637818835 8.563797350894232
As 6.285840553119692 6.509775918375195 9.078781695090193
As 9.952025394052297 4.7504088939925655 8.203098098724976
As 9.078254423887053 1.73060655816566 9.957809253242843
As 5.7374453230535165 9.99767740710652 8.8849140524683
As 6.7694233359371045 4.490104145529252 10.489375143489463
As 4.519431587843229 8.12013233684936 9.841418568037827
As 8.241532965832858 8.15481906108789 9.21987053956912
As 11.186035036534932 3.0486300011568614 9.610437232825191
As 9.98234463682977 6.431793789441223 9.969234983133362
As 6.461643353669269 10.687046010547034 11.220988052080404
As 9.986163627784373 3.133609063813895 11.767985495545897
As 8.723359450450745 5.316589689809907 11.738223518910997
As 7.989486797343228 8.771220745839539 11.622748505411884
As 5.560492888049207 8.552982557995929 12.092752317106775
