32
Energy = -143.51538983 eV
As 1.7906047810168473 9.472098693315248 4.385040234505253
As 8.062686789012675 1.5594371231575388 6.1127192061418505
As 1.1140099851643266 7.4206236128216485 5.58275640550471
As 7.811162322702337 7.646597539514191 10.334008814817086
As 6.131586885411103 2.7153320242280303 7.1518728617284175
As 7.669706775287341 11.92378577732866 3.237865237862393
As 2.544462128548994 11.17284551218765 6.037027636019976
As 3.6842880310779775 4.762376795939251 5.431691116234549
As 8.453872154302175 10.574860599328822 6.178684913426806
As 10.862571771105072 3.0846231178681323 8.808806448654229
As 6.861021109112038 3.934254575255745 3.6431063930120327
As 10.13737388644773 2.4327409401555298 11.102627574305947
As 9.05573086704755 2.993788678023337 4.337961511293456
As 7.80840815228766 1.9994150174835876 10.411409433634281
As 9.192441339778519 4.736396559774928 8.001834550123673
As 3.0674251385839417 6.5984532882959765 6.97803548577053
As 9.682898232669915 0.946780608381254 9.166400844035566
As 3.2993090313088933 8.23864449470986 2.8087860753971006
As 6.749283059625068 8.616738825958667 8.244587545160371
As 7.122890543457072 3.965928500914383 9.0823778051949
As 6.4038202982692685 10.437052756397497 4.741411598057811
As 3.7590292366474727 5.843041083500524 3.2161837614852393
As 8.756876263122715 8.170780939407457 6.8938987236375535
As 4.916026879183838 11.925145916292553 6.10221063131626
As 9.780231499164126 6.193595815430111 9.935531840220408
As 9.840223402027288 8.551232627244971 9.142925200826937
As 4.1001045110285625 10.142493467261827 7.6588487677012544
As 7.200510098701482 1.4725407179095267 3.7787810160275845
As 1.4236221443536679 6.582657963278896 3.172173717341593
As 9.614639506235326 10.970358401786537 4.044738392319737
As 6.154337587078049 4.8147678633402355 5.846766979699315
As 4.971492910632013 8.123257483900009 6.4515765989353975
