32
Energy = -139.703676 eV
As 7.212460542357805 7.037801834978832 13.268417478636389
As 6.006452599152642 5.2627285308922085 12.504282681890606
As 7.667247860119645 8.829955450338854 11.606006868697719
As 9.838543887163416 7.7795003180072415 10.969727358680633
As 9.623236037885782 9.51146519850743 9.202943789203436
As 5.339469201553007 5.661641796849214 10.156219738763728
As 7.943060268684932 7.65336758261363 9.41537924043146
As 3.230640370288147 7.033098670640715 10.34830931608146
As 6.496437521930114 8.776362000891295 5.833016162332995
As 13.850433932956165 6.749751901046637 7.442240409761531
As 2.1287127739154226 5.179922276050296 9.176575142447025
As 11.64077895503204 6.138369041279449 8.319530589687535
As 7.491281790634954 11.243582164438317 6.927815220866185
As 10.909019676635088 8.32581289084963 7.384780637489573
As 13.252278591911484 8.974939098951992 7.660600778744754
As 8.054954808078802 11.701385256796165 4.813394940571592
As 3.6600636096108494 8.739961720916114 8.610422445974386
As 4.902369515698753 10.637517809200256 6.056059851890252
As 10.63928247200812 4.585562520843078 6.626537878675562
As 3.835478037622937 3.751989643683963 9.838736937309653
As 7.616780073148626 5.4163200244886545 5.981647440626425
As 8.632830619972209 4.287718600346522 7.832800641499455
As 9.553238033734825 5.886325194137337 4.520172571791715
As 4.691432018875207 7.035778460404634 5.1260975525436825
As 6.043448721220851 10.269411893589364 3.8614484571550616
As 2.6530773629275313 7.582632615694087 6.861189130943727
As 2.6616891874780717 9.529301605760253 5.2751656617991545
As 5.92632422328158 5.069747492910012 4.077818089152707
As 7.480589631234034 6.295916781574393 2.6893682244548147
As 3.8741367436523264 8.515625400591041 3.4038562587191086
As 9.74618113666404 3.669808946171404 3.459847662031421
As 8.182860954071277 4.112708818293578 1.8161285010947088
