30
Energy = -136.29641447 eV
As 7.929533670949134 2.6395942236328795 1.1888124797184834
As 5.552241900232196 1.9728756307438922 1.4544747232509203
As 8.094230011872845 4.943443437873313 2.1345846303788423
As 5.709416265719203 5.503192938027487 2.063742346403084
As 7.169381275900686 8.582089188014027 2.4988741501291005
As 9.3281952434018 8.746686509124384 3.656110924472933
As 7.3115459261913625 1.132110988992407 3.0524761410326122
As 4.72147078666681 3.570804753856876 3.1940929447884145
As 7.6124553853633214 10.55901127583369 4.0118701406228485
As 5.643589096644063 7.199018398541651 3.920243697985402
As 8.346294513107955 4.280665732312542 4.498647234596706
As 6.475223786648421 2.7367110168858066 4.78146254402401
As 8.441345054739402 7.991628490967216 5.848133953447537
As 7.001330365337615 6.015764924199262 5.6508085364552425
As 6.818989483185936 9.71492886209951 6.2269941457149525
As 11.420420018865151 9.561538693228782 7.958118566298605
As 10.399307489213275 7.385997535496865 7.281207090060026
As 7.596861011883791 10.520566300642072 9.432662732068016
As 10.048398213576435 10.78952574819691 9.58127722104757
As 5.094400082409231 10.92063490682139 12.148536206346968
As 7.22229284430666 8.049018619484004 9.330984496586021
As 7.519238466879101 11.0428241333223 11.901288547358082
As 9.432777014987668 6.961215916497604 9.523304218123068
As 11.050419541728592 8.70615139860011 10.355596850911056
As 4.539034976424921 8.483183328055025 11.934273947159564
As 5.186331360694926 10.688473084324892 14.632054398980722
As 6.688675416146349 7.357891784131844 11.66064998868095
As 8.21354197303836 8.882180133791305 12.835207983799704
As 4.631402646435948 8.231223247161074 14.415280637128548
As 6.941073837371923 8.970466459063045 14.967646182352896
