37
Energy = -165.47820877 eV
As 8.414153333995051 0.27298390248265314 3.947818056887341
As 2.868243502290162 7.278513264259129 1.07449338627035
As 2.8745148301891104 0.5539386790854576 1.5610012592472493
As 5.738642584513447 5.126938825237294 3.0131405718728645
As 1.3366929400333674 5.291848249738718 0.6562404770569362
As 8.977050519219034 4.063708810262121 4.565556914718208
As 7.038925866353274 7.278809632917056 2.657385698727423
As 3.6987746455617057 6.590603798525975 3.31910042098845
As 1.5900605755923702 4.732675631495479 3.099215216264122
As 10.354384464368223 6.753096560929893 6.121395266844562
As 6.865394843931361 0.3979649085353345 5.91667004196964
As 2.8041609462030066 10.30343117384699 3.941096792083473
As 2.3351899871655175 3.844944137016302 5.788501435731131
As 5.775046688834357 5.883346278933648 6.07550424072668
As 5.74508849922921 8.395682535638283 5.984146779666065
As 8.288957801750001 3.743031526184659 8.050960426470965
As 5.153112316906421 5.324637694784081 8.400561334454341
As 5.94033201753053 1.6330255744560138 1.469930899501242
As 7.795293461224738 3.4402899657402406 4.848685390783407
As 4.413289541395908 6.091428275705489 9.868865606939348
As 2.7051466689043564 4.947991436368013 8.11926350669324
As 0.005900540598233525 4.300266355329413 6.663806761594911
As 8.091588522847116 2.243476204936041 2.5831821255478977
As 3.474765051561509 8.85248416017054 6.768812105961735
As 0.20508765183419989 2.571796765687816 3.302808291106806
As 4.985662421733436 10.066667685530376 2.689882361944137
As 3.8319913265485948 2.8889700350099985 1.9772265074317061
As 5.112493131007338 8.667108797778623 3.5349595729606396
As 8.224776114594725 5.488416414644963 6.383123181631715
As 8.977050519219036 1.6824368055002505 6.204255646501268
As 5.564823215965091 2.5661628048396494 5.616793103001379
As 2.4892058991384327 6.698457349221289 6.2852836970905415
As 6.507854896761126 5.7529761773694315 0.7481067422488958
As 5.925393421841811 2.9900662580331003 8.080892470128036
As 9.983036445975857 6.207291726217696 3.676917087226081
As 1.3668232876484894 1.556029614881231 5.248919198381736
As 3.2486134026436755 3.8683165878648325 10.10531202850273
