39
Energy = -173.994843 eV
As 6.7096467767009855 5.197965060175683 2.2641922454349714
As 5.3662370925257505 3.75833051556757 3.9546890573515294
As 4.990050639389715 8.976265200622034 2.130605456949669
As 6.372804826653972 7.435602587211421 3.3950674418702333
As 9.092312868658734 5.755027407757192 2.6997594081167104
As 2.6711651968940977 7.306579623704338 2.9035539264696544
As 10.045699494142488 3.470245212115461 3.0506435440379835
As 6.524104328828706 1.8073594783333853 5.112167590268883
As 8.758122152474579 9.21082306328696 4.573859671513404
As 1.0777096426033326 6.38434316190238 4.406618113912278
As 4.669038600403239 10.103639655687621 4.29797409586346
As 11.521695407764184 6.572138494052926 5.066884176801996
As 8.621166151592975 3.235817860069474 5.11729668451397
As 4.156587653589499 7.616330424907512 4.825240008010123
As 5.299871231255788 5.070568913681918 6.111775794876687
As 11.895051958527933 4.108283593155377 4.73098374867268
As 7.7598923649110985 7.64329618698711 6.203084669743912
As 9.158187197545352 5.847124039371109 5.2987703980471945
As 6.9901443845024325 10.971140861985086 4.709103216595222
As 6.501911748180852 3.1900359897549833 7.2493164491594175
As 10.636645048026026 2.9987271822725736 6.643758127314036
As 9.77490455411364 10.328038315310783 6.662574935976173
As 2.8454928522005747 4.4228010520810646 6.247811246969329
As 4.7981774017506575 2.370538967969912 8.897515613835465
As 3.988970988510757 10.628468614351839 8.405105245397024
As 7.489753241873966 11.338806772016031 7.161578186598968
As 9.701100365368339 4.954361730703352 7.852209717333592
As 4.52082601275506 6.78610151782933 8.84053242986639
As 2.1970482165313046 6.820611485237331 6.503190368283471
As 11.45210856219324 6.678566832670716 7.575161655457953
As 9.483199139804684 8.243673781261734 7.999382290546524
As 2.6079772326654256 3.5075676512885434 8.580745941208981
As 5.854423835517952 3.55980334478748 10.80359243523511
As 6.165855187772319 9.441584198126284 8.167104274037793
As 5.451284326112649 10.394776658072281 10.363366708397278
As 2.6172011198740157 5.556188368552408 9.929507140952392
As 6.001358364728562 6.036531320483514 10.74554660567747
As 3.5610773812817995 8.807244965733714 10.045039648116648
As 4.0705330974186 4.864026556564797 11.874028376229434
