32
Energy = -139.7506058 eV
As 13.294798303143766 7.432962729008498 8.168744960491058
As 12.07231605042693 9.419002108839825 8.782622245247653
As 11.926640407269584 5.645983558293768 9.310549803335459
As 11.889175824480258 4.701880720320595 6.998513140440288
As 11.015397878172184 8.513704731135675 10.796115621300336
As 11.975975879392795 6.9982505273308915 5.891337087547793
As 9.52862433838414 10.501351042704735 11.08299337960315
As 10.223093830461924 8.460548575623953 6.789735967577555
As 9.811063651697486 6.975363893022748 9.212011949398065
As 9.456510462274212 4.424438381451271 6.736486880790354
As 9.566602267341516 2.2551758808103566 5.632736284950727
As 9.487516406368144 5.99402371577819 4.797015746969283
As 7.996007384690457 9.96963189996271 9.199050120637938
As 7.925343252570782 13.55998109829439 5.54941818121716
As 8.296972629686135 7.952937457163537 5.396942384637841
As 8.516720680466726 5.4422809210495355 10.710786456789405
As 9.333033681656659 2.6826628020586507 3.36422780506573
As 9.156308322045971 4.904870868760264 2.68805805478392
As 4.488460760421072 10.582294334856941 8.822390666595481
As 7.2748828045850376 9.537591849563144 11.523919208349385
As 6.126667093305252 5.9731068686605955 10.151802300129134
As 6.033114055234749 6.789601761218209 7.788085044102796
As 5.710185850543184 9.211291731456994 7.142212364244116
As 6.529723542757906 12.389428860459166 6.745243321029039
As 6.5267515126455935 11.97635678531163 9.254292933251667
As 7.201230052218429 7.0925455691967905 12.054743289618868
As 3.4288591735296983 5.2676355509841315 10.269081457478862
As 3.928395235780945 12.21362704937185 7.052633937634673
As 3.9049344412830562 8.694700128208622 5.562087934001083
As 3.521754212755013 6.165564407065985 7.927355522432091
As 2.795363450285243 7.455770243977844 9.863360640486366
As 2.9260081907048203 10.761567316665166 5.354052582265251
