37
Energy = -165.89277318 eV
As 3.5676742275317914 7.117967537525348 10.141396016748752
As 4.863421652859798 5.125131514731725 10.258601730332481
As 1.1363717715084232 4.948621964896954 8.130531554574002
As 3.3703696488330497 3.85669007922804 8.280748040935114
As 2.637261356787336 1.5455817312844549 7.545723401019782
As 1.5141707994466946 7.370455397899528 7.567423663762623
As 6.2110276207484425 2.9397481510948014 7.0263157547172845
As 1.1156408604942096 1.7745046513832414 5.588055119528023
As 4.830639113992253 0.8226518024383377 6.6644248235273675
As 3.892797981012681 8.000517155996999 7.872194420048325
As 6.732414231909678 5.553473396355729 8.850063986427669
As 4.45707542670665 4.5210298274827165 6.167423752438385
As 7.679113302818573 2.2868520231982 5.098158821894799
As 8.460573967511682 6.39398830859783 3.4648637088350585
As 5.692706728188577 6.554313229350789 6.880327790457609
As 0.9912800422017776 7.804448838861749 5.131541185275427
As 9.140147897715115 4.284453105279254 4.727820779304767
As 4.430361177985581 0.45667697038466865 4.228375319669798
As 4.183431651725428 9.601740477489479 3.883212666840751
As 3.2793080693664707 7.372015826520662 4.317711148452433
As 5.957331875812903 6.3554688750352 3.336957652263053
As 5.881600601089868 2.3208039402450247 3.362074809954257
As 0.023640920780599727 3.9927897594298143 6.1123874281923625
As 10.44894236327723 5.722591164674092 4.273728327739289
As 9.920104206115864 3.3588288640204063 2.5286887779420595
As 6.201242122643148 8.804444886324266 3.0882537994947272
As 6.431260400574387 0.7072858414145762 1.4736544233406188
As 2.3782698124255326 1.684770317221626 3.435008230970015
As 9.475915541829126 5.541262141330587 1.3289308996581999
As 4.873320956512061 6.220383907338461 1.0112200460476595
As 7.720200407529879 3.832109281600952 1.509863650424063
As 3.3838793260765425 3.936688314714163 3.1884046323854247
As 7.623320279173277 2.079755013795297 10.265913418096076
As 5.132007336946299 1.9880409134228003 10.258601730332481
As 3.8336822775231405 3.9495629579119336 0.707378192229274
As 2.630558223155825 7.097310432112696 1.9060297543185438
As 1.2954475837999102 4.980648511086872 2.2774069593587987
