44
Energy = -196.83891659 eV
As 4.448853517888669 2.830407843234477 9.855006247534883
As 3.9731374089658473 5.024112916323644 10.897131911737533
As 6.88597491069554 3.2745428030669474 9.939232519639027
As 2.990564505121958 9.785581006631356 7.028740738289594
As 2.909788345235996 0.8497772307805874 7.649632215386353
As 6.170975685301175 4.507273747653218 12.014203531243112
As 3.853241940733721 3.141682797167287 7.448450689651972
As 1.5249499199593275 2.8647924615579297 8.207192877992613
As 1.273024714236664 8.598863872637931 6.057802762939714
As 7.0471810536219515 6.6362035667366035 10.913153483737318
As 5.083979403599422 6.676170197418243 9.363418460397956
As 1.4027866330411554 0.5839662409128672 5.666731214031924
As 4.781755292997743 8.989571910669273 5.573831866909686
As 0.4782862860877854 2.9180715492425913 5.888131963965792
As 5.189547893784126 1.0316328730400997 3.757020916175329
As 6.54787084930917 10.737013225971554 5.844202022724468
As 7.110082272446794 5.455425632288589 8.708230301683022
As 0.6449139072477246 5.805138569053585 3.5570692155645895
As 1.5320802881289444 8.11144645861558 3.6863539582849443
As 2.257331621702271 4.181929982295977 4.6406720887389765
As 9.814896324105336 8.551840916865293 6.217065815479545
As 5.043749590855478 10.785519471710643 3.862402967137734
As 8.45391839576929 9.778454010979793 4.549488963200716
As 10.93922416588427 7.0301148807830165 4.5951585865058755
As 7.273144110212041 7.7008859759292445 3.9036732728000327
As 2.724946157168779 0.4206387563131078 3.542488404295427
As 5.95329187599981 4.930810110081851 4.127656581144325
As 3.321516657415354 8.856503001725665 2.0874597907049726
As 1.63667419402579 2.567496293106214 2.8450552470009747
As 5.911720760810008 9.057316295690722 2.230815205850942
As 6.635264203807097 0.3709778647125957 5.679495761495063
As 9.538312078089977 6.101535801937646 6.487123685419865
As 0.9712464537044886 5.5772122804475215 1.0446628595046936
As 3.889506279649581 5.578301877326605 2.0981536657576387
As 8.071218249232011 4.377679772203103 5.376275773037813
As 6.671172352319669 10.785519471710643 3.5971634424634438
As 9.290004255175035 6.761019785223647 2.6705307749451404
As 2.7030706330401597 3.718190853029983 0.8975250181271212
As 6.376883578248999 5.670089425475191 1.7125309897283596
As 2.9383556587778425 7.04674532176371 0.39462629667928234
As 6.0154545138022035 3.2554220105289624 2.273450410589799
As 9.591912869379907 4.315448927882406 3.4866551166302413
As 8.490372317219375 0.6514101378896341 4.0480137497020765
As 8.366098807067429 2.4630544902970866 2.258823562829267
