42
Energy = -188.59473585 eV
As 3.4565160437410962 5.5752472213993345 1.3443135145966523
As 5.810646979713278 6.098341793120277 0.6810169197160952
As 6.1200660392517054 8.535688908842486 1.0897362094549037
As 7.627036020684327 5.407386873143563 2.2823329964593997
As 3.862215891779784 9.409845407321468 1.0099148596987755
As 7.7800198900867725 2.910717255589554 2.6525518180420287
As 2.3192704953084062 7.721830452838624 1.1492896513168085
As 3.5548341428824726 3.170655277728137 4.054490240470696
As 5.62436727468532 1.8680399222728645 3.4549675254395824
As 7.239826538414095 10.883660490105985 3.876050424925919
As 6.264008833315676 8.592526144945484 3.648303914311121
As 9.882900940745813 8.659396491425888 5.028615361446724
As 8.923335633078464 10.817743014969919 5.73968463212443
As 4.858897570254995 10.456440368358157 4.453942369861077
As 6.957139001080892 5.248125755273457 4.68674105111014
As 1.9052543794918353 6.399310620761724 5.173268541064242
As 8.959933017393215 3.769683229997218 4.702678223025764
As 4.22503735205096 3.7151296470719237 6.348939771804987
As 3.9421423153038204 5.638529196915709 3.78436999069323
As 7.1596574057173985 4.081467952094262 7.885866115245209
As 11.043817690533066 8.00605646465462 7.129398080438423
As 7.899638503851658 10.434039509259561 7.964729951100883
As 1.8199804286293884 4.3990988290044255 6.717315381150652
As 6.401037524349613 0.9087250683451437 5.639417164427943
As 4.496257030537474 1.400664138377627 7.24821443608907
As 7.8233853827760695 7.398559042013357 5.785065136346946
As 4.5105238784363175 5.749852654738608 9.018744374294739
As 9.951211651676664 9.429042769602239 8.938904876453162
As 4.417582200877606 9.808692994516823 6.82219236503902
As 2.059224602983797 5.281387703903804 9.054108073895216
As 6.415604227284387 8.436094439613063 7.831773489586101
As 3.800604312802274 7.374759875993219 6.541210396705379
As 9.301372351877284 6.162316970567691 7.480822299391898
As 8.271596241929263 2.2517044429561803 6.568105817112919
As 5.389301463662853 2.781304181408573 9.138786309988179
As 2.823968297485814 7.626496927269599 8.808312150346909
As 6.8488760468891465 8.038165972847693 10.475400250277199
As 9.08169023040842 7.22093185619872 9.76468386565108
As 8.745963666777483 3.5936680217454553 9.799200450029216
As 5.56791673929818 6.0361146274196935 11.306848816165132
As 7.103630590172642 2.0026262665366183 10.805673913945487
As 7.371155391780413 4.317375438851251 11.731462490755412
