42
Energy = -187.12764755 eV
As 2.5024821438699254 5.355658333908698 2.374923107971327
As 3.163969996948705 1.673018884297306 3.4312245270459467
As 4.318329986024926 3.6251724040478557 2.4776319844558627
As 9.778837241657815 11.964154882458468 5.149239499841099
As 1.3719221147431295 2.38444880569949 4.698901172910343
As 1.014221254755299 4.76139889507944 4.268709540298456
As 10.396722185051418 9.791500638635203 3.840566221558433
As 12.68705755841562 9.288336523160492 4.339551180765313
As 3.917606388444709 6.8336053237412075 3.887745668885935
As 10.915127579722556 5.674749068131963 3.9702374022935127
As 7.354339475210993 11.405240345681586 5.568740349918892
As 10.2667934038902 3.271497002880576 4.296360878899534
As 5.659750693958622 4.181958855989551 4.560887337618305
As 5.245512760669689 1.9757058151023428 5.567962146845316
As 12.358834779975034 4.141343030823873 5.330645666502318
As 10.4777699349322 11.023887497688586 7.3041706603880785
As 3.573498319581755 9.300469334923891 4.124743238257542
As 3.675503068332611 2.7301332725366105 7.455519650986796
As 2.562921747141183 6.059234855349446 5.797835329267831
As 11.040660929843526 8.756949446970893 5.9760744334358
As 7.365097601937007 8.877889151234328 5.512327924133419
As 9.82205784205697 6.558322969997539 6.081986891129595
As 1.9842839007085395 9.942398979576437 5.990625767949534
As 7.448371433586759 1.6846172280378735 6.772676499480819
As 11.545544159217199 5.31206052843875 7.408926695156403
As 7.146255627203093 5.455460938880835 8.3625942886635
As 1.2474869598192566 7.787602795006908 7.030224159392541
As 4.984287550238248 8.59614627354508 6.065698593787455
As 8.081156647320862 11.24788337877786 7.967887973117834
As 8.512651585111168 3.7977289819349522 6.000016676577468
As 4.392737257268791 5.091509413111378 7.123450626024325
As 7.9016987056282595 8.723208854460282 7.985456075702032
As 4.05274899533968 10.613372524068424 7.218682882211547
As 6.8178758692357615 2.973502280631139 8.828904289217547
As 4.637547187458618 2.3909805572806677 9.651291042253941
As 10.16215142169902 3.319200813824047 7.894850129185172
As 8.776365886072663 4.149537595759825 9.822679928321083
As 2.235925705063365 7.766741521782014 9.301744572651241
As 3.8492366002965177 9.637547021781396 9.490670140071582
As 5.678266009170836 6.19715999544948 10.282872416193879
As 3.402341961991582 5.514983581911629 9.451673139352959
As 6.127253473842626 8.616885340838584 9.786293234716231
