49
Energy = -219.82809955 eV
As 10.538786677060719 8.183831351074952 1.7594957732884113
As 5.378805006581551 6.938936271853549 2.464566502544207
As 10.704244373284874 2.975698674392819 4.7063029720640825
As 8.814385027682288 9.436844054838804 0.9598115772667605
As 9.984810587109996 4.827347465028448 3.1353447793875078
As 3.889515265645348 8.513985915380502 3.6847294712374152
As 4.719854322246949 5.047456965267915 3.916793134374183
As 8.61623889209842 11.53452980923161 2.249055095641885
As 8.389198189069841 3.0475598721935016 3.8613361650251767
As 11.758498573780479 9.510043383322492 3.3954018241728834
As 5.525264419630237 7.156245264312005 4.951234592399174
As 1.7042734108426096 7.437828946092202 4.087999943158759
As 2.2512837128530547 5.078793499986814 3.672016491917293
As 10.187111562652351 11.252157413579274 4.137049414369254
As 11.09019038484882 4.903535462139852 6.29168228301498
As 7.956919221555929 10.17030915469347 4.225446398256503
As 11.771651712022988 7.562882866246908 5.053086131487249
As 9.549350405966333 6.4033048816319145 5.049057769272782
As 3.6913460768261723 3.172258449541579 6.705711510498169
As 1.3513080633062247 7.837426846296111 6.58209723765044
As 5.371778332521033 2.1526600650463816 5.165016319009221
As 7.207030520133066 12.071722713232816 5.671201600764613
As 7.0700671409436335 3.892916929378511 5.803291672227456
As 1.4574173731339743 3.772141125792477 5.664891352328746
As 6.082257096526799 10.325455036385135 7.103365064512631
As 1.4766369680965188 5.534085794993316 7.482559254848615
As 3.5804743643913324 8.26683461750389 7.612671747238824
As 8.331137316617271 11.28346239223819 7.727840429393147
As 7.91280770112475 5.671971202498618 8.70787383000824
As 3.9627192993802933 5.560754750656443 7.822442442318047
As 6.105866425606916 0.6283265756311109 7.113085273133781
As 3.0860194990409604 9.855337291437841 9.47066391837704
As 10.315121735375632 4.860611251327399 8.646577493356194
As 7.970633278255655 2.23301421739881 7.504421800192803
As 4.085010500968546 1.3516766797494424 8.389341752228543
As 5.215187501940462 11.278794714967477 9.269947371142324
As 8.959891110330895 8.843911413287364 7.472190069075665
As 11.476535296526814 8.711781996682207 7.2894193663910665
As 5.16709804035493 6.601435578026881 10.307629641240121
As 3.5466464347291056 4.654257770192819 10.136712568731078
As 11.552025094414331 6.968707641507597 9.055017123949492
As 7.4839312837388166 3.3604314041007908 9.673905472694429
As 3.6700416113166203 8.308141996527775 11.393567342821402
As 6.484079325482383 9.240325726582965 9.917010651258162
As 5.101419806300985 2.7416458332457103 10.189095186422309
As 6.682226376205065 6.741564465552587 12.309154060896157
As 8.992669478899845 9.134364501273224 9.991977559103125
As 8.800353711860698 6.744549208273828 10.82662321089274
As 5.8933399449686386 9.131599013655155 12.30774581266889
