45
Energy = -200.09562339 eV
As 7.889527662220974 7.8118095949886985 2.0229099639652803
As 3.261965260100523 4.466453487283873 4.440227676314747
As 3.851352792157707 5.043576378581005 0.7114458841235649
As 2.376293637833779 5.952655629904596 2.4989122088419595
As 5.013830157230228 10.359590128372592 2.8676947458568893
As 4.310013432881283 7.2663920802638415 1.679373088076687
As 6.1991241690954615 6.543583081950937 3.43717080687896
As 6.828832132520274 2.508645720088526 3.5913924890776006
As 7.25702624160484 9.74549179639155 3.527936802525265
As 10.146867760348973 7.543604573365609 3.101363247148549
As 5.149249210199757 4.272931575041253 2.794152868728766
As 10.47652271005081 5.059638437614017 3.529299446157708
As 4.23150825623716 6.374354404020088 5.82793361302282
As 8.064703500464418 4.633412995831472 4.12241787500863
As 2.707503938633975 8.147752926728298 5.018714879625964
As 4.411263920389769 10.023751544887125 5.266189521031335
As 11.499394318016906 7.0838793209335975 6.568683663369565
As 9.46780848278723 7.985129346354922 5.44552967111108
As 9.883264535083253 10.390731494630154 5.930187546775961
As 2.439029846436519 3.236761651401867 7.808314292288978
As 5.726603584509175 2.5128133598496136 5.738428848855252
As 10.712101141905299 4.769105941409243 6.031844031359943
As 7.492641630154977 11.03080421822255 6.594932867295662
As 3.6856840248048064 11.214264423519056 7.309516216363
As 10.434070902333936 9.91070564886789 8.361201810819185
As 4.685464227102614 4.159043603485119 8.232696188792774
As 8.21406158062815 4.913728429386222 6.594037722480263
As 6.470846447957187 8.791010829044955 5.978333085186913
As 9.787619210826106 7.44528575619263 8.356626416976669
As 2.5498098350857625 7.406690622898177 7.40061334329511
As 4.391013513509078 9.072954742733733 8.082435660235623
As 8.241788219299305 10.958766344892034 9.036957694514012
As 6.957433407289612 5.8935022845221345 9.981736485474324
As 6.236465309675751 2.336710562146954 9.055991647902474
As 1.5559970899551574 5.129858520915717 8.913353532615522
As 11.0251596683641 4.731155493118671 10.017353079695486
As 7.804168348966991 2.4520903890456673 7.075831804249426
As 7.267386377748719 8.711736733094034 9.447308409960183
As 3.543388633957696 4.849732074640085 10.328522073741057
As 10.609161860395353 7.086167325832084 10.66989618257585
As 8.239832217026816 7.468713359866882 11.462007990233998
As 9.446291505651667 3.0778216178551885 10.094482259290874
As 5.003324913860861 6.691928303623593 11.325980899703517
As 5.016790039656942 9.082317596115498 10.505396005362929
As 7.213770120082926 3.628901425130904 10.990621228131658
