48
Energy = -215.54182856 eV
As 9.198336553078626 9.065139768420075 3.1522320407932396
As 6.961151878778155 12.109879433743396 3.390573416735582
As 6.831347277579725 9.479851086455948 3.018945530476489
As 9.299139900328292 12.402197246674445 4.2274375593588465
As 8.596532065571445 10.233998234132606 5.174581232636466
As 2.9026992454751914 6.567859555094978 5.912819167968441
As 4.827422968685125 6.604477556917483 4.320075931080991
As 14.101619302168482 10.367034289252606 7.576549710219934
As 2.9720904853825165 8.670570187451135 7.3399465802259956
As 4.2149103797263185 10.031433172654852 5.634737993661157
As 5.947889635838595 13.277387273518462 5.405677590453163
As 12.1672637977361 11.268183232241256 6.276839620315066
As 14.081839032995992 7.8740725964684595 7.123521899345902
As 7.297731629603418 10.633201293592693 8.111918187374927
As 3.0903614835701534 4.215441453834326 6.945609265820617
As 10.622734177361913 9.448705783895138 6.801309035016427
As 11.87089059163563 7.440796716824424 6.09397640840617
As 6.326050237267382 4.765346010255845 5.130722973678724
As 8.264961854919148 13.935589611992691 5.999100600005794
As 5.217114359762723 11.717445824029893 7.2205775414586855
As 4.949995884826623 8.360561197608604 8.83174725072738
As 6.153892534733935 8.510273323728587 5.2770803183239074
As 13.087734676294444 9.999254207874433 9.84053170702286
As 4.586362133614765 3.111215592627462 5.497978820495059
As 9.467926980699684 2.8020304981816726 8.54883347518159
As 10.60336091831149 6.072271829266492 7.73996582613371
As 6.729413556347878 5.995297852575614 7.279834026398153
As 4.88608757545064 4.9118020262178685 8.558835109250523
As 4.363529789757744 10.02725723324571 10.634814905875912
As 11.706882967599023 3.8543778136609537 7.988073771297144
As 8.158839253689079 4.850985118439658 9.038701951553405
As 11.051777570908785 12.273838791030107 8.36446664422763
As 8.594252538671201 12.798155059852194 8.18476089615536
As 3.8786845276572404 6.547974294393747 10.124172597309052
As 7.73235919830864 9.704341104364678 11.923146561806343
As 6.492418178577851 11.336028224940096 10.408081130077543
As 10.087937395701799 3.013677187715578 10.988846658871624
As 10.658065891637476 9.937745701116803 9.268786897699966
As 11.420288351747805 6.850945052817326 9.967015289874903
As 13.776162068868183 7.57666718200508 9.599208200251933
As 6.343870651740559 3.296411882273179 9.89847236538115
As 5.455039060193129 8.900481514262228 12.641922943554121
As 12.092657227866281 4.423793439010305 10.438477231835625
As 5.961912433709214 6.721503532249651 11.48096941995525
As 8.121184794726805 7.614764946812005 10.505178377930374
As 8.726342655092598 4.492153998565242 12.638075846645263
As 9.123052907784967 6.882269905763504 12.580371890747449
As 6.2791676153143845 4.3065973592480145 12.175783797682028
