50
Energy = -222.62462211 eV
As 5.84613234429124 7.133079132877284 0.8748106190446663
As 3.6924845032326465 5.848381298782672 0.5489964823542203
As 6.453588792933213 3.508956956055045 0.12968213498585024
As 9.098390186456099 4.716662593589919 0.8059428893932138
As 4.729462287919109 7.693384289285963 3.095557947743313
As 2.763250159371592 7.953865328897291 1.5930836655959566
As 9.557217520324107 7.711423927035886 1.6126006385115235
As 8.331900393417703 2.3497278815709453 1.3169806413972343
As 1.2243507642542693 3.6362790449698856 2.3989548477785214
As 4.74193552293729 2.282062628387408 1.6224295211405213
As 11.118568851316308 5.804028711566708 1.9185823242651527
As 6.661154296577902 1.6069935167989426 3.133559730346939
As 6.9394911742079515 5.149038459046086 1.9552882518911292
As 3.7197621653527264 4.35220201218084 2.6760274910834654
As 10.535997068945765 8.556761461118215 5.099647427176754
As 9.065556233469461 9.233558508599641 3.2679257193444395
As 9.579365606288007 3.458390853327561 4.408211124721952
As 1.085303220798027 1.3139463740447488 3.408286361931507
As 4.456366574280997 10.032036554482927 4.040031710389765
As 11.63930062616202 6.816918824499619 4.775106660296715
As 0.05816726248061282 4.261715429448425 4.593051227902213
As 11.592644327431055 4.890429663747462 4.2375829500391236
As 3.372697129323333 1.7461631016899455 4.120010442379911
As 5.93116688397735 2.7338285966059073 5.3276683897321
As 9.63592407640956 6.166227845161197 5.018715318096355
As 9.862852440743161 3.139001548841341 6.739004220378585
As 4.724987602541079 0.5333720056690407 5.83880280259933
As 11.592644327431055 2.4731846467721144 8.131603416588291
As 6.831204101386476 8.018958369533609 6.3191661074028636
As 0.6273695942180245 7.248288886116186 7.069469354346438
As 1.9884264083751035 6.904788942408273 3.724367860695832
As 0.9988288369464072 1.7373250950244645 5.992109455456306
As 2.2968656275431094 9.111332759551086 4.917308070560008
As 5.556971759832274 10.207188410309126 6.307865654750411
As 2.284587658323478 3.8884658907793397 5.8193388661127585
As 4.530595287011059 4.612599880682222 8.484028565802062
As 9.133892207869062 8.55236554035036 7.123282726800953
As 9.754134248221353 5.899302960470793 7.500079015150049
As 4.0080752353287785 9.236533803886624 8.091204408456125
As 7.496928805536133 2.67273646460244 7.349545876594168
As 4.813908967286605 2.468418316865687 9.7610450780907
As 6.2517543606884045 8.252383848299122 8.739830617147758
As 3.505484445450176 1.8977625420470683 7.630385791999131
As 0.8610730863949997 4.715429267550107 7.709361741555769
As 3.143421285595291 7.453426115865508 6.5665344704612325
As 1.5291033439214503 1.2770577299124481 9.13980486308068
As 2.3730021468792795 5.14163839618447 9.675297798315919
As 7.312356925481141 5.2106260404612375 7.375291911674169
As 2.531644438693746 2.878585344822994 10.769414210171195
As 6.375910942637901 5.8731603156532755 9.607118714696
