54
Energy = -240.59574571 eV
As 9.596386565410631 5.029984943340959 1.9611539232195594
As 6.565181586627356 6.398653162171708 1.8855114549675285
As 4.654990400564819 7.23858507789109 0.5883144511126277
As 8.044568950694986 8.469630815143587 2.561150086996819
As 9.577066226186936 6.823000769857813 3.701734911186601
As 4.063454304830421 7.97570467210171 2.7756194100770055
As 5.2115844593817595 10.18899615362815 2.911512683776615
As 3.703301883248693 4.437973021585886 3.3491178568414814
As 9.075430328350706 2.9395576679613393 3.0124103182522544
As 5.245545124229217 2.470689695550793 3.5257429106728315
As 6.751986143743464 9.229782906793096 4.624397706381297
As 9.19575504324649 9.108472879628975 6.53893642009895
As 5.360697856578972 6.219287329558438 4.168180105665561
As 2.0888986824621893 4.261365113227602 5.309056865529338
As 11.982462291967071 7.60505199875717 4.195024956678092
As 8.881658801878332 5.751483289597306 5.9346803417499725
As 10.245873844422276 2.135426564592013 5.279973755588387
As 1.9410873101045543 9.153467092875843 3.6623508150418016
As 7.193182576944965 3.773183949419948 4.412017300599404
As 3.3556806088675115 10.999300137447344 4.516509210153247
As 4.511635204266605 1.073963190689295 5.423906960132084
As 8.2365922478158 11.139946306778718 5.47732657007943
As 12.68681558641845 6.11854506795234 6.064715092113532
As 11.553250546628258 9.510615102200065 5.810761962725306
As 1.2160875200199697 7.614424799860442 5.440434775811934
As 10.91063720789575 4.528826867241781 5.030790707242968
As 3.1837545609567117 6.316540683700774 6.327926799789922
As 4.8293251623291065 10.30499651934688 6.366283726511386
As 3.3402718374989036 3.772406049103224 8.414502324929554
As 6.508580314617865 0.7482921698360949 6.931403697944714
As 7.351555964842145 12.482943838907183 7.510740721764426
As 4.844265369002272 12.39969116648772 7.715498390606415
As 10.086515388972149 5.81862507695348 8.27498047507834
As 2.627958049359266 2.2022473453284026 6.614988045989672
As 1.8316558554211013 7.822762337559685 7.836948798231875
As 5.642715966204444 4.095549120913819 7.468365292940445
As 12.646324718580116 8.113023389208301 7.628146166936411
As 8.10723813839191 2.6711852709808217 6.473311360762367
As 10.006329666815423 10.113678962644151 8.611673212130528
As 6.13572601867749 5.9216890515722 9.083325756132382
As 6.479591356236725 2.2788332426014106 8.961596270814969
As 10.840339015292653 7.857404021671822 9.400819655035484
As 6.486345240176705 8.332858704181024 10.811300184850257
As 4.161186311541818 8.73616254543166 8.196269697712593
As 8.163025837951976 11.522422898446163 9.633061395831424
As 4.093396251933646 10.899638495906718 9.576089186164051
As 8.298770215281111 4.866449319736923 9.745379518277584
As 6.146388178228455 10.794960478530701 10.964938760799122
As 4.383029006930245 2.5497891901342262 10.34527954302477
As 4.814751030895029 4.964160111681023 10.987065510877486
As 8.383476047425024 8.159602924099511 12.356386733315322
As 6.43348986424537 5.176882943736835 12.87760095473146
As 6.051829813817941 7.652915472961729 13.175143639098481
As 8.735046793329628 5.691063370226713 12.012335904766896
