54
Energy = -240.78228404 eV
As 6.912764050427874 8.358303620775294 1.5666173143771909
As 5.5448357623050955 7.9237822204500326 3.55317169226363
As 8.413156817446652 8.135897336175468 3.586709104263916
As 10.568307894125148 7.167442027460021 2.882911305481751
As 3.331238483019125 8.64596244063996 2.602885684234668
As 4.192253707099115 5.156497343562328 3.2374743411579217
As 7.175145537640664 4.3861403314920615 3.3500919935027005
As 6.4443594653420275 10.24974538808707 3.163009270373771
As 10.21903521772719 5.673234403623979 4.887571320043704
As 9.1842381279444 3.394060999156802 4.540313374029874
As 5.133380782931616 2.8345843228192704 3.5095745835228835
As 3.924389673847366 10.885493948722402 3.472260037865602
As 8.41293128355497 6.352287127518647 6.444419633582967
As 5.900823535437594 5.424727773834229 5.219312887540265
As 1.7675858811580063 7.915488042121904 4.36808770795895
As 11.811587012753426 8.942956331276314 4.116189019715706
As 8.37944275007786 11.335741901724361 5.446470617126914
As 1.9504093671594196 5.378622874933123 4.242072801997745
As 4.176162431475585 10.658029226023041 5.972791097332641
As 6.5943673276853785 10.041147679234873 6.747903185047259
As 12.485286095750151 5.325201109026993 5.9115520944212125
As 10.07443298486609 9.461055937926428 5.893441342024261
As 8.455229389605865 3.8704536945302332 6.902050024205035
As 5.495140927318034 3.0081183280052874 5.98461964566268
As 13.343634499057574 7.667696550643598 5.668846752478418
As 2.639250567820152 8.781121166580695 6.518317279498371
As 3.6583188697442153 6.6480821114567945 7.71447248438535
As 11.821227774045456 10.770536133686086 7.177972318275001
As 1.9272160152187685 5.116142776830797 6.707148788318524
As 3.363394834325082 3.1225054925663414 7.279721650552083
As 7.645957559953926 8.73764344304508 9.89397762169306
As 8.899743312381245 12.601463245987528 7.607738438133563
As 10.544262492677007 3.242445759770965 8.171390655462584
As 6.564645796168429 12.059856560936439 8.268054310599567
As 10.700076703422392 7.527815109164195 8.54732922090728
As 12.006490043952255 5.289113017973469 8.411407704613122
As 9.791227050080941 10.552218191564991 8.644107898927814
As 12.875139139314575 8.647772920973345 7.949963924746582
As 2.0132004636287526 8.295400813892066 11.30837505901824
As 5.421659894990491 7.586741073137205 10.122401372125342
As 4.857195587516816 4.41532655889424 8.809969808232509
As 1.976098071736346 6.531140701281796 9.630641180608158
As 8.67002528735497 3.133901426052263 9.93637850037309
As 8.202653871259503 5.585876943766508 9.7622059344841
As 7.026067687750564 11.061617733318144 10.576610992098615
As 10.491976571572073 5.448662266777731 10.848627888154173
As 4.2267992058919 8.66846558054818 11.972311764193575
As 3.366364240958268 4.736974766236605 10.765600925547654
As 9.501452557402907 11.333759093420316 11.001539996940796
As 11.206052347054767 7.837545102331024 11.069114613820549
As 9.155756587433222 8.963367528892588 11.908877488139268
As 5.057724043843973 6.100977516940402 12.114643516312729
As 9.320654144860084 3.7835640122093848 12.338442710620066
As 7.677298456284943 5.7253601764020745 12.170377307407875
