6
Energy = -25.37112164 eV
As 4.848416182580673 3.829750265835757 6.004757138485721
As 5.015622670222067 5.187061452075486 7.980688101526895
As 6.865906751402744 5.153606431839194 5.054787431007656
As 6.137057490265492 5.81768264342928 2.860218269013251
As 4.547979366003252 6.023637826793128 4.654467150194059
As 5.913906389326054 6.9736401327826885 6.663298769878406
