9
Energy = -37.45076994 eV
As 6.79032120395358 9.331319650936313 8.321842135429257
As 7.632942739314961 5.33592977914988 7.630440837427675
As 8.91564330983507 6.857684199961434 6.108907737075001
As 6.6223743301111995 4.305168631428862 5.607093117192435
As 4.517010024039033 5.162711306552676 5.995028334470569
As 10.182941808340331 8.181423690136219 7.718808011184759
As 5.266417177605118 6.216395421063939 8.100668171186255
As 8.385954043673356 9.268884448679218 6.465991831525262
As 4.904995589488714 8.399499865078111 7.130823856037199
