19
Energy = -45.52792402 eV
Au 4.641507429268131 10.164428000736558 10.458664140214559
Au 5.792140832480382 7.721537540876354 9.952909904722908
Au 4.455984330181281 6.827652886543707 7.641925293816527
Au 10.99027468976814 6.295804822080328 5.856061464797837
Au 8.20254860003817 8.415758922344567 11.121454111470163
Au 8.77881661006416 7.910327997710302 5.787363629176491
Au 7.055148370387788 6.86723142275485 3.620752470863159
Au 5.878795614658336 8.220447619275044 5.645563391380958
Au 4.515492730926127 4.126334612187455 7.523972168210428
Au 9.769599565328901 6.920725424944379 3.395036763680367
Au 9.150178866248535 5.473195079713846 7.679682326186928
Au 7.191650334081936 10.283962251871518 9.427150411948388
Au 6.690899743695172 5.462035182653146 8.845905142195125
Au 8.404855149867883 7.947388256580822 8.479359144788083
Au 4.971347329954532 9.49368521120746 7.8449073336830155
Au 7.132446221257282 3.679964578145122 6.816458772275693
Au 8.602372482671298 5.009900050861262 5.006864279181583
Au 7.546007019100051 10.12198680539141 6.744326173638543
Au 5.466811600789475 5.528993524025523 5.3751463468731755
