17
Energy = -40.49845412 eV
Au 6.519603590495727 6.403540964981428 3.564833911051385
Au 5.132675408200958 4.3307434595295655 4.79190736423503
Au 7.8578883823335 4.381308778654695 5.1723500186578075
Au 9.044522377728454 6.864867175675436 4.599353266049204
Au 4.624588179487681 9.490738059530651 5.61881939074457
Au 6.431756686881488 6.475275097263975 6.391227455802818
Au 7.174109735897888 8.841656726570587 4.8643101308976195
Au 4.063609092105745 6.9214209452699595 4.804109417225451
Au 6.448163860384522 9.021710589760565 7.670580184149261
Au 3.2993089271099394 5.084041533804234 6.768838912157884
Au 9.600246036160534 5.625884245627064 7.02712835127081
Au 5.129974377050786 3.04931184909298 7.21775307147321
Au 9.00592301147542 8.321757619304627 7.009225158443567
Au 4.034071372658928 7.60911730706195 7.596498897348649
Au 7.531254856970817 4.087100315749465 7.933197521348451
Au 7.608337266230047 6.778097322459776 8.876125895794786
Au 5.205161080427128 5.424622251262861 8.804935294948645
