15
Energy = -33.89039974 eV
Au 7.131065365750947 7.9296872648168755 9.499295355624225
Au 6.2252856708923785 5.237114977500768 9.441581445026426
Au 8.805378917453417 5.836122807469662 8.41908950400739
Au 6.568981415317653 6.671238500876753 6.990424319021959
Au 5.891700308574686 9.34417001512176 7.32821159854594
Au 8.680239403815397 8.482715684617325 7.209938771254552
Au 4.44007872387259 7.339443374449526 8.769749847421114
Au 6.457967961996281 8.3981824445247 4.769381927537043
Au 9.21713422707844 8.205212685204295 4.5816520224098385
Au 7.054252183152917 3.946928070350393 6.962368639033471
Au 4.114087556691247 7.415159893540912 5.9360692002447095
Au 8.804006971774692 5.680978747012752 5.6533682092077155
Au 4.365439452755345 4.8957188657462645 7.313050940672362
Au 7.553418219365096 6.3264503105008485 3.269339292405019
Au 5.608042120520181 5.232080640500454 4.786641971573399
