10
Energy = -21.17847173 eV
Au 7.6236831617024805 7.076386621432504 7.089411904215401
Au 8.025644723710693 4.453360783368254 6.289488732394777
Au 6.046753870327316 9.374926848242987 7.408117687139632
Au 6.817225910520684 8.533094954328407 4.871751098949057
Au 6.07466048780515 5.768444334758444 4.635378489101308
Au 5.306796342532391 4.8919722071281395 7.10803576441902
Au 4.567606254495453 7.377475072024738 6.248572514002319
Au 8.707069243942822 6.521569025622497 4.557307978440123
Au 5.555499007775961 7.1014793719391545 8.934543795679566
Au 7.351420597495959 4.977650456781344 8.933751861919578
