14
Energy = -33.91526212 eV
Au 6.710619426714258 6.818015350071471 6.508110363714325
Au 9.541562241288323 7.135950201046264 6.93199555863103
Au 10.237360295355785 5.2190725101638415 8.859169319393253
Au 8.254296375727993 4.639479675208184 6.991263244853379
Au 6.174562269927391 11.239384515590254 7.467867903538639
Au 5.309397634636327 9.06566708863244 5.96743405834793
Au 8.068675385247465 9.414813708733302 6.5423152328777485
Au 7.767746276033176 6.454127010454119 9.143916852295336
Au 10.366703090275553 10.277741291542972 10.82708912041536
Au 6.207344809498997 8.685157007364817 8.629224034749898
Au 10.19919456697959 9.397139765280718 8.214776371533759
Au 10.569974082061725 7.513058947828576 10.226679507838737
Au 8.24824798655949 11.16027247434065 9.180993509278155
Au 8.096349163828533 8.740464607943391 10.542309875756265
