12
Energy = -27.10184498 eV
Au 3.9564808258610102 6.426291841936702 9.052151357828901
Au 6.544019312816341 6.151306667557351 8.579127782113735
Au 5.1063738909001675 9.267993022927868 5.203794045679538
Au 6.894218878439337 8.611662314288477 7.0249720754460006
Au 8.615826490983286 7.970653134014982 8.911832378438996
Au 4.591332438786369 6.882365043155892 6.521892485099065
Au 9.258315832224074 6.743997075600627 4.183951127570612
Au 8.61537758293146 6.281876641973192 6.7124831145751624
Au 8.02606299950193 3.888154489244213 7.981627169198141
Au 4.554359831125547 5.2779968617526825 4.265315494853568
Au 6.660164222604109 7.0509315311441 4.608330814706111
Au 6.3384082795781245 4.584965502777659 6.080631328963183
