15
Energy = -34.64909222 eV
Au 7.341261010738318 8.353184110011869 8.080605362187265
Au 5.732179538966658 8.137648546227572 10.27538326902945
Au 9.312072686695812 7.232971245756933 6.492196839867514
Au 6.240154412334396 3.257830054492453 8.12090979411495
Au 8.346083737739132 5.387484739348306 4.420266335221414
Au 5.731832192243266 5.154149315286043 6.228296933252315
Au 10.650227748391796 4.997232834372433 5.954034828462674
Au 4.606718420033311 7.8809101223812625 7.826470971369991
Au 5.826349963688058 5.806309217496672 3.576802302242227
Au 6.33261489684977 5.907136394801388 8.833927542820888
Au 8.476823723082136 9.74734607048151 6.014552602509077
Au 2.3998837540015896 8.631234986529181 6.654969097933782
Au 4.023861973334131 7.066621231451049 5.208239351732788
Au 8.299136612288994 4.783783337900625 7.2291380798755185
Au 6.758946598734592 7.6386690180424885 5.4526830157981525
