13
Energy = -29.39214651 eV
Au 9.741217679368741 7.376615552821782 6.458287087393858
Au 9.04744088262192 7.4355136094863665 9.092304549135562
Au 10.282047901957206 8.699590219982891 4.2504688972437386
Au 7.047603851174291 8.308528005148286 7.365136698671745
Au 7.71372917862151 8.143073717665477 4.649968175275096
Au 9.2415846132711 5.001050762795504 7.702109622654912
Au 7.197872227248645 5.7711345349363485 6.034700948525365
Au 5.193761514006349 7.605582499212654 5.3320697695971075
Au 4.355209341786289 7.8074201763717985 8.095338847864658
Au 6.376163036311094 7.014198994605661 9.657963196662777
Au 6.586953882961657 4.459903480914438 8.34481760562384
Au 4.521511669629399 5.262800377074156 6.862952924086256
Au 2.6534334467488603 7.073117294692201 6.112410902972159
