17
Energy = -41.1155276 eV
Au 7.248331727778829 9.943161066968543 9.37398002729937
Au 4.696160843879766 6.563215810592792 7.755603458641733
Au 10.729986473180123 8.025594324270674 6.765009575262504
Au 6.458193300073411 5.0525171439208725 6.199248597954514
Au 6.747715469800228 7.222097002336121 9.673161864445614
Au 7.786434074800602 5.988684819271387 4.049461522214672
Au 9.284332114719836 5.74700831099311 6.380175442270791
Au 8.889502843831378 5.504441136465813 9.150807728804596
Au 8.320124372960139 3.427409483317901 7.479848673189915
Au 4.709002465465288 9.009567162775067 9.06754130496096
Au 9.009564909552259 10.172455162734527 7.2644408883299825
Au 9.314424465490934 8.11298233472091 9.132648143200212
Au 6.350807352088487 9.681089351646254 6.744173483484406
Au 5.710646378124061 7.496597261525733 5.086991022081579
Au 8.361975360813648 8.272352913373215 5.405141957945082
Au 3.7890295420098936 8.809060799033315 6.452505034203299
Au 6.204478053886372 4.632691691698609 8.867198115226733
