14
Energy = -31.94147063 eV
Au 9.244908423973893 6.978275853699548 5.344850523921215
Au 6.827226491901344 5.596313092502641 5.0664824760861
Au 8.86462512424839 4.646631604298168 6.729326604115431
Au 7.120979699177231 8.218016962184242 4.135648785867763
Au 9.004705078108422 7.091016372072527 8.125525439320409
Au 4.609893691098584 7.141101173807281 4.319375881776305
Au 7.995101600688382 9.158950864435646 6.621415309680166
Au 4.227420737451194 4.808422518573072 5.720792256407215
Au 7.340627047101213 5.101030991476111 9.031623265549467
Au 6.349698701456341 3.5551067180349922 6.917733869189283
Au 3.639639701235815 7.260001763287613 6.945397938044088
Au 4.65613747939387 5.200216511889972 8.460366607044856
Au 6.237572772291334 7.4541182977346 7.97645075865246
Au 5.318798392533606 9.245036425688122 6.041280682058037
