14
Energy = -32.2919629 eV
Au 8.158876906093647 5.82911849034007 8.841827598173653
Au 5.445329910310564 5.834350059747095 9.90762465123421
Au 7.693650308639972 4.331566381352012 6.726513868858971
Au 7.4658849606911195 7.533485356357245 10.806812828230521
Au 8.510806064955569 6.960459381950789 6.299018403688614
Au 5.024155072845998 5.102624538967598 7.34934478138589
Au 5.583061653021918 4.186612645739242 4.820860939428171
Au 5.479525279904908 6.8764298432359405 5.248507498454722
Au 5.775728793345413 7.679747546096629 8.02231157060083
Au 7.959028209491677 5.395631087758706 4.104293111270837
Au 8.241310215650508 8.732634050436271 8.48951982328838
Au 5.226645000511928 9.351767203059582 4.06159967782795
Au 7.5663463463719225 7.9818899465073425 3.7450615069676636
Au 6.936633603893569 9.307538995124627 6.165782427292561
