24
Energy = -59.44477809 eV
Au 4.0175071869057035 4.723338203677197 10.890384177927608
Au 4.37781223429064 6.832336283568064 9.268512214801396
Au 6.555794174706562 5.7746640296789655 10.807078076979787
Au 6.479915936536841 8.479194425199477 9.781166840108067
Au 5.569198314349402 4.078218185123255 8.777351787464628
Au 7.922454116565942 7.722761460323893 12.111186900855751
Au 7.923336728570843 9.733170234695095 7.6873789368013234
Au 9.006426749266712 6.800448657500895 9.79436032804039
Au 8.187574837154964 4.560046855627564 8.413497498227889
Au 10.23735886531711 6.114453450292721 7.463304024928021
Au 9.03852085593037 9.544057692029503 10.29356174415626
Au 5.109260191738428 8.601239818988999 7.400530346968065
Au 6.3844106883730705 4.582551030043283 6.283869888910166
Au 7.460053321400241 7.001415343344458 7.262058090459609
Au 11.95674605893626 7.745307062356493 6.110180675083086
Au 7.675510546862149 6.321526983451189 4.536791329317782
Au 10.521198883585946 8.781070601635255 8.198697610579304
Au 4.211181897727134 8.268355748383318 4.92875315603208
Au 9.451179117469469 8.492009146350417 5.575311069625754
Au 8.620845213078614 8.38744829495554 2.955662483261366
Au 5.073753195983294 5.5942305587596275 4.188982870860777
Au 3.481943564881755 7.041281503918657 2.5534350593185153
Au 6.818495049836749 9.083874279671738 5.231325560974018
Au 6.018244841464132 7.917081621030197 2.768222668471781
