28
Energy = -71.12186935 eV
Au 12.095700849165796 8.424952819335132 7.60102541329206
Au 8.380807569266759 6.4327369235245655 4.147769950778622
Au 3.5135747458464697 7.364464804546369 6.681037348283596
Au 6.106662672065092 7.283183396472375 10.790553068853582
Au 10.437116274830517 6.386425715082738 8.247534410941352
Au 6.103343446116481 6.281234277334278 6.0375255778020485
Au 6.078938620788669 7.943576998581672 3.6469153130586314
Au 3.3210057708091103 5.644491583062674 4.407503975932107
Au 8.755841762395047 6.326645969705751 10.37931636479878
Au 8.37499624624926 4.644742530503675 7.9548481920184715
Au 8.116971887554072 9.136164102647667 10.197621077513046
Au 6.5270938660676485 4.651962106324986 10.029143261407302
Au 4.75369646514493 3.398889198498006 4.983863964040891
Au 7.374311642760179 7.3130292767652705 8.165720592994395
Au 4.951430482786981 8.687982566840548 8.650015795846187
Au 5.723429304154351 3.844961565774481 7.546166069181239
Au 10.032274459003114 4.897291372683919 5.773641189287418
Au 9.554079007036664 9.22995720095904 7.892608895784889
Au 7.760643407017192 8.725695882841737 5.676664064035555
Au 5.117556388539044 9.592348925867503 5.961176178677387
Au 3.3891036757411737 8.436346328270652 4.147373085635112
Au 7.015915820517728 10.33480404043652 7.83365389008983
Au 7.5028205559081576 3.9037837099448063 5.3543420982939125
Au 3.094107580704224 4.6089492909294405 6.94671823126196
Au 4.39010054986623 5.980689202407747 8.905216659367914
Au 10.325851789074447 7.634080798648771 5.676253853235138
Au 4.133634745807695 6.691728813909834 2.04939926670407
Au 6.04922811395048 5.179118297268122 3.296629910053371
