27
Energy = -68.55547442 eV
Au 7.481440134837007 7.980783536140893 3.962180031740113
Au 9.178223696951866 9.391142770738758 5.6776871999284975
Au 7.521068687297611 5.188929356501406 4.234856598481594
Au 6.07646895376863 6.24211586970085 2.206618166633667
Au 7.556359346633274 10.710320126209334 3.786102036268002
Au 9.155993807280026 6.697141125198258 5.891477064395838
Au 4.788915405874802 4.544049073267534 3.9985485297372074
Au 6.559090056275847 2.677892224259136 5.135304107905777
Au 8.055744519042273 1.524654084942046 7.162583838131841
Au 4.741380288053886 7.2946989803507885 4.385963655217781
Au 8.425178167772062 4.192786171486828 6.575938806230531
Au 5.390669731048238 9.839369923685926 5.1423951057804205
Au 3.9234249977052382 2.8601411689397227 5.945711140948629
Au 3.641137489456799 5.583462086376518 6.341509814427289
Au 7.424292675975016 11.352761519652425 6.4707030508950885
Au 10.362384421019678 7.95980993626177 7.991242338595787
Au 6.379929450131237 6.448611974804547 6.566012602169588
Au 7.988167303279273 9.21745226950865 8.215774271153933
Au 5.703344407145695 2.4574492164563666 8.00020429789195
Au 4.03951289962087 8.258008389456876 6.9267305233143786
Au 8.306117176739939 6.295250253527628 8.691249626628553
Au 3.414871641546421 3.780661428743463 8.547286880150892
Au 5.440049034121995 10.334407316694438 7.9930449236833025
Au 8.109347841736234 3.5132530766363548 9.162647140987126
Au 3.3887273810658822 6.484441175640818 8.981816829767496
Au 5.828655109454435 7.813559503848519 9.104426968793794
Au 5.8323017040919245 5.0798365985334994 9.09542482822062
