27
Energy = -70.04605287 eV
Au 8.557285 11.37067800000005 9.73857388888885
Au 8.557285 5.666506048747029 9.732459157687357
Au 11.008866135170527 9.959910673044277 9.742792973487653
Au 10.977581911687798 7.151511006392569 9.743234308142059
Au 6.105703864829474 9.959910673044277 9.742792973487653
Au 6.136988088312203 7.151511006392569 9.743234308142059
Au 11.45797060848275 8.553136624273929 7.3786109063072685
Au 5.656599391517252 8.553136624273929 7.3786109063072685
Au 9.962330330638554 10.96201172286145 7.372376049859359
Au 9.961426282242078 6.13881550082153 7.3700965570859385
Au 7.152239669361445 10.96201172286145 7.372376049859359
Au 7.15314371775792 6.13881550082153 7.3700965570859385
Au 11.344459586204765 8.550911450569313 12.123472708701968
Au 5.770110413795235 8.550911450569313 12.123472708701968
Au 9.95296298581462 10.982101787993379 12.110262927241358
Au 9.948417011746647 6.121314241229802 12.108378601672133
Au 7.1616070141853845 10.982101787993379 12.110262927241358
Au 7.16615298825335 6.121314241229802 12.108378601672133
Au 8.557285 11.336068908246684 4.989463510940145
Au 8.557285 5.774236887062138 4.9896877229307055
Au 10.99394089459352 9.946264475413399 5.000831980456303
Au 10.99176045063658 7.163859802038589 5.006107249525092
Au 6.120629105406476 9.946264475413399 5.000831980456303
Au 6.122809549363421 7.163859802038589 5.006107249525092
Au 8.557285 8.555986011521412 5.339523865872982
Au 8.557285 8.545830597286477 8.554701973678663
Au 8.557285 8.555633399282662 11.774234143480426
