25
Energy = -61.83390292 eV
Au 8.526630335199904 10.072049716471025 4.385528656532402
Au 9.172259286091295 7.492486821413266 3.806806901616614
Au 6.491218145612271 8.301590987259774 4.022537249371696
Au 5.918022420572255 10.991207392244615 4.1710600987797655
Au 7.335816559509288 5.584738005308709 4.615220115964903
Au 4.833865192179495 6.221852270520608 3.7850437017985588
Au 10.219317514660258 8.643623358771366 6.145102613713338
Au 10.159195527687551 11.417410033908949 6.128518032943792
Au 9.594004021745038 5.992831972047738 6.088882719305596
Au 5.658511511343489 9.570666367101609 6.543898848271335
Au 5.562486644508028 6.893965457853787 6.373278749860759
Au 7.428583118883961 11.761664420212204 6.352930847787749
Au 8.75403931891663 9.988140849994188 8.095496475715217
Au 7.905484230379959 3.8510350815534338 9.82010811741738
Au 7.342274890966159 4.620823653103506 7.186383446345932
Au 5.449598477061141 3.16954281794754 8.82038670042826
Au 6.3512533062732945 11.060644279030896 8.79765464335703
Au 9.987684129301643 4.788935929271471 8.458565272589375
Au 5.3707606824288066 5.876065755073826 8.83283183890574
Au 9.482765103660569 7.450728567886014 8.513112368866562
Au 6.654270420289573 8.280581067159739 8.77703299448399
Au 7.940001393240716 6.608723090948396 10.577366604457538
Au 8.07553974290722 4.577506909214267 12.423140823441647
Au 5.306210071919732 7.315460426777838 11.149943924168117
Au 5.602058525220094 4.589575339483742 11.251018824435661
