22
Energy = -55.31912784 eV
Au 6.824757535523076 9.06557832748535 7.890826932705292
Au 4.301005023008791 9.22983136255105 6.548717764843002
Au 4.435552376261586 8.75759846674412 9.248375199180282
Au 2.458446956849091 7.645666858212785 5.3443128775044935
Au 4.70512900249372 8.299208888309913 3.950606087939271
Au 2.9287854736561014 6.345623527111362 2.949997115314919
Au 6.083521949770984 6.6020928445546 9.103516268493687
Au 3.747066581061803 6.614487025040756 7.616844445147169
Au 5.547084683844152 4.533822771114449 7.307600123625554
Au 3.707359149776884 5.101853588430742 5.324178567667628
Au 6.66413616969592 9.756552486075027 5.246108184577168
Au 7.842274240607789 4.612548603033544 8.863767887210187
Au 8.469364246932537 7.836815584481551 6.029342806153518
Au 5.563210031292382 5.699963685271776 3.242648071481782
Au 8.777609722817774 7.383908056373769 8.778407841109036
Au 10.456565481358968 5.414157783301699 9.531803740195773
Au 5.834293974760536 3.447949887221449 4.764978334561432
Au 7.3828044921302025 7.738014384489444 3.495331583895616
Au 7.947273704427591 3.183031823560907 6.414957614267658
Au 9.661785361907862 5.511458665448983 6.804281487394375
Au 7.895732555900412 5.366045910243071 4.722986566717277
Au 10.049214561297411 3.0849366570476593 8.117680781178466
