22
Energy = -54.50274067 eV
Au 4.860778892114258 3.985260043654444 7.9250067183261255
Au 6.755156654800873 9.775701848112105 4.48495016219114
Au 5.378887496131898 7.199729677621378 4.354717392457877
Au 8.830870927397227 7.611727087187485 8.76268389047309
Au 7.64386046243434 4.028504695347399 7.55507267042955
Au 5.0488874961895 9.125362648520378 6.514888639502084
Au 5.8979764669234145 4.657240440148927 5.462880360820822
Au 6.384107333712062 4.161215641798866 10.157772939681443
Au 8.599126531760765 5.163163853952165 5.160352528878086
Au 6.337604076855579 8.476514367644066 2.1369135379043
Au 4.72531659494923 6.220476266540512 9.52980575682033
Au 6.275860061813501 8.635360862829822 8.997113522846904
Au 8.97764029168324 4.979517380536452 9.897783278213849
Au 8.282855349915362 7.524870411872541 3.807857253302619
Au 7.901868601815091 9.642371346289279 7.002332472370352
Au 7.05779705189223 6.978562752092837 6.613709317488856
Au 10.066321438146275 5.469899972332511 7.503487359223432
Au 3.5162894771164814 8.448460448003539 8.682017549318237
Au 7.13870570117511 6.783172651604235 10.837552378053203
Au 9.446430993901298 10.148816791407603 4.7649480378403775
Au 9.835495101264582 7.7318419418114726 6.04780652951804
Au 4.184135031450561 6.454804094494339 6.734954505473214
