27
Energy = -68.06033338 eV
Au 9.23504713564206 4.512231220857899 7.518617230668085
Au 8.254239438149478 6.38548108688089 9.354791294955659
Au 9.377501267878893 3.1864080545139237 5.111902673671157
Au 7.231402261259097 5.980135767089251 6.093873736151515
Au 6.959959156849749 3.125010272213341 6.425679327639778
Au 6.945896608568967 3.965997151894979 9.047622303973121
Au 6.9462368354689845 8.44349672412804 10.64194278602025
Au 4.895486128756659 5.008070891626043 7.468906415049876
Au 10.019567411728831 5.9483732146485835 5.158454135268251
Au 10.142719649387246 7.205430662074243 7.55213129736623
Au 9.616106831278469 4.6490589557373525 2.7614147104307136
Au 7.111720596853747 4.133677042617007 3.7290903863325977
Au 5.50137408440548 6.0657443655876015 10.072557750978232
Au 4.71330281733642 3.742817085899874 4.910346632348526
Au 8.426906707300446 9.161220211478213 8.372129100236133
Au 8.57351787748065 8.449569974007996 5.635123816832852
Au 6.023989664698244 7.704557333698464 7.802886226168775
Au 8.054664955368226 6.845781657649981 3.2714191173495504
Au 5.3964050551343945 6.352213742512312 3.9545556559996906
Au 4.283821368192345 8.556960127566038 9.999039851678038
Au 3.2005349664050304 7.266326656497238 7.845111458813307
Au 6.168733006299045 10.609943194033406 9.13725446973036
Au 3.1148107194895465 5.871287677352613 5.5080753476909345
Au 6.443094457357187 10.165696064477956 6.391014984772791
Au 4.344506922598907 8.403050708852295 5.496310593051191
Au 6.51485695205488 8.998340418338172 3.9121114522241838
Au 3.9051687638602 10.039531942897383 7.6795870965547754
