20
Energy = -49.00554777 eV
Au 8.303668413021244 6.884184802203468 4.0967473486005455
Au 5.4712272326212394 7.624737478595943 3.7265671840067887
Au 6.226961838255671 5.057521644221635 4.356986130845869
Au 7.160302498105859 9.428570275269337 4.92049237102001
Au 8.305478787026875 4.756981731922653 6.221025875453203
Au 9.686130584516324 7.246133680910072 6.4520147382616715
Au 3.8882848103597443 6.21692248542891 5.600749069922086
Au 4.733531537026478 8.914645057756251 6.144828795560175
Au 9.905699489375278 9.207291104051702 4.517563242674454
Au 8.859153676542869 9.945059764500181 6.992286149884573
Au 2.9269609045129465 4.886754563824069 7.8485366235271
Au 6.676707512892098 6.944546507861776 6.448116793553488
Au 5.473775889965307 4.232379796813436 6.849620600968806
Au 4.513041426853665 7.1291057566722245 8.310021943721797
Au 7.404896338461506 3.8663497789576775 8.780461304158234
Au 6.560951638393209 9.037133881639708 8.25058756668873
Au 9.448662032890821 5.634358291106593 8.615612677688398
Au 6.949493340570357 6.547486839521997 9.58920737567491
Au 9.09198392616924 8.295333993918227 9.143158370016993
Au 4.907552349906865 4.638966792290584 9.629880065239165
