27
Energy = -67.44488851 eV
Au 9.502311932840868 9.93130857218937 7.096445082230702
Au 8.199265560722774 10.460648820060396 4.6215213758370535
Au 7.069031130801479 11.19536006364226 7.108532140036169
Au 5.45426292602537 10.139698806373362 5.029461388093864
Au 4.7980440837125276 9.688411166592406 7.692080374791553
Au 7.294747526286102 9.4181573862721 9.270416877749406
Au 7.246476452122846 8.312835351110264 6.660735679010577
Au 9.235369250080952 8.554141350322018 11.179451246296777
Au 9.81753622710406 8.274917912928693 4.678252345796135
Au 11.554830208278462 8.159851601436795 6.907115112921792
Au 10.023459442880542 5.972628883440479 6.242577849537923
Au 9.346996614592333 7.487944149249225 8.52813122189615
Au 7.032679211181083 8.119570250402186 3.7835129528453706
Au 6.953374276890392 7.213267465235966 11.003754072603563
Au 6.909679793054745 6.093230766003423 8.166151145352371
Au 4.837932031252949 7.490437045012568 5.45796596979154
Au 4.6788288517333045 8.656166707650321 10.205334795031225
Au 4.276488407053622 6.957058297983 8.10016758671801
Au 4.715356941355278 5.849164875624973 10.673118337094463
Au 5.070709775208236 4.901421799182442 6.399052695403837
Au 7.027842378408011 4.370686627633139 10.428105742145894
Au 6.046670449770875 5.532574564584175 3.8481843080130385
Au 7.810729849722419 4.408258516459333 5.8054827836457665
Au 9.388371766702905 5.781113227146257 10.757781436306178
Au 9.14527031807481 4.460020686577207 8.393601966615721
Au 8.79774321802409 5.9446259470947105 3.7653059628817163
Au 6.620572463428946 3.1974154774266177 7.956657139735558
