28
Energy = -70.13095229 eV
Au 3.6911251317586835 8.989343640609572 6.928520785649335
Au 2.899814943949451 7.412294350018413 8.985328901290512
Au 2.327608146133307 6.672200054359575 6.3782013365218315
Au 4.754984895821063 9.580348613391665 4.466370019690165
Au 8.483786766405412 10.407566385527922 7.756588163629712
Au 6.4860705177075255 8.98657087387184 6.47912149524211
Au 3.3593179252771734 5.2537045955442885 10.661653406072464
Au 4.9699456920167115 6.873497339839086 5.489253692222123
Au 3.4312676983807706 4.750173224685772 7.993070335130017
Au 3.442322403318322 4.469800522501673 5.293913069159543
Au 6.250307320502333 8.037916009659977 2.8909276268182205
Au 5.496236020235253 6.687389284422908 9.802104724687917
Au 5.866308168000837 5.0629608309040695 3.4460899241633447
Au 4.991336769607526 2.3958650557618935 4.46380436621693
Au 3.618736122458129 3.9165790913029253 2.6132062408564076
Au 7.680118433184867 6.54857057417158 4.994652656098477
Au 7.869122375354074 6.098340515107647 1.8151644178821973
Au 7.198098063672295 3.614009586465802 5.512717251308944
Au 7.3879567457313495 8.26440942342087 8.945252304899432
Au 6.823863136829719 5.898124082412313 7.5120079742738035
Au 8.99443336716914 8.23448151998199 3.146183789142635
Au 5.173750469881761 2.803656825689347 7.135286852566803
Au 9.251035281279277 8.778661231356427 5.815692649388804
Au 5.580945363946571 3.8878568440590624 9.608973519031046
Au 9.04854956162449 4.454485766174904 3.626190559617085
Au 10.460206096907282 6.543883310929207 4.774563199510407
Au 7.858581942444994 3.4287336082010516 8.2164580785528
Au 9.629263422109728 4.452722992175126 6.393764905807822
