3
Energy = -4.14411692 eV
Au 5.231837986697604 5.773169963177266 6.497941104908374
Au 6.428336626463785 8.084823437549762 6.497941104908374
Au 7.833648776880856 5.635829913998096 6.497941104908374
