35
Energy = -90.63571444 eV
Au 4.089714928834304 4.768951669682615 8.229131667834208
Au 3.028820166664835 8.298568292654839 8.382998311659431
Au 10.14911642238149 7.8844502022210365 5.469422956031619
Au 9.840975628354595 12.88195639397614 7.766455276564366
Au 11.117851643026214 5.852068522160834 8.80803687157549
Au 8.904181266347189 4.265795459860261 8.243477390427447
Au 5.8121884668274655 6.862964380009222 7.503675112273257
Au 11.808041503038929 12.202492772774937 6.019755733590411
Au 6.582170786809616 4.864269369487042 9.604415243969028
Au 12.582688756418253 9.609243465345333 6.5981914636490515
Au 3.0366938119608538 10.989945113432668 8.089066368378182
Au 8.572312297763784 3.419590979875038 5.612466100367405
Au 8.01582440589282 6.129479770142106 5.903896493970788
Au 8.174407775799075 10.646645802151912 10.52328309917112
Au 4.525132442164397 6.726476884795336 10.165923989065268
Au 10.923699168817997 9.890474703508414 10.943365641650857
Au 6.707712882666844 6.5458300696778435 11.77205381171768
Au 6.320083515978911 4.086773592275302 6.939836631097502
Au 8.839439836628234 8.233314651645085 11.609159412479954
Au 5.338669213835114 12.201501439573816 8.891542572011849
Au 12.36303191561487 8.486930902027511 9.051633473544385
Au 5.318841718209524 9.619337734934856 7.792629780981772
Au 7.745061678934573 8.673194992130602 6.741963559218434
Au 1.9580400371827946 6.052303608261442 9.310342785484126
Au 10.628761758652573 5.130953621143398 6.163363066896662
Au 9.639662444426982 10.524319331000674 6.12697798436562
Au 11.916325073153798 11.20470071228317 8.723132312671098
Au 7.6310795749137865 11.196349644483782 7.764002642680331
Au 6.881173097722854 8.41082545694092 9.662999147827678
Au 7.709397209432394 13.275006923506155 9.603416167922495
Au 11.50686657040185 10.088202039299475 4.163113726658013
Au 11.36418118969226 7.178961639056178 11.22481546095221
Au 10.20890022792653 12.498930126113693 10.495051240595993
Au 12.519171162166241 6.947682444086989 6.746232792779192
Au 9.06503162257716 5.6625245912413344 10.580995032099356
