32
Energy = -80.97184584 eV
Au 12.924045736587246 5.649066558808841 7.981331746185804
Au 11.990876723248038 7.767522687417736 6.7319418161895985
Au 10.367679971747647 5.621408694949627 7.287679020503154
Au 11.18027537366367 9.78611058368283 5.275305129220904
Au 8.654615277239097 3.769691560307007 8.165415263253703
Au 9.33037684725446 8.829016734498499 7.1311738634522195
Au 9.870575823351723 7.1812491647185555 4.875976418385705
Au 6.77185274874679 1.906797973885529 9.00760906876689
Au 8.660786286642123 9.660242170902663 4.282959154609842
Au 7.894924607682957 6.590309774595913 8.177112449579752
Au 8.185892259318202 5.143404214321546 5.619618848511159
Au 6.437029764164874 3.3072870264192114 6.609805614188635
Au 7.37528269859482 9.185779901661135 8.94117653316997
Au 6.726045103811092 8.955086467377058 6.1624671178935015
Au 6.110422493260468 9.563844623715323 11.216100268976035
Au 6.311893090155764 4.613986558424493 9.348729407348513
Au 7.071810018787508 11.498921527568768 3.276372910245583
Au 5.907062363678925 7.05169259010832 10.419629471870023
Au 7.272920488005305 7.125776665070704 3.9467030887197097
Au 5.626556651229622 4.881978657792329 4.548025342850887
Au 5.66974173739735 9.246311115000275 3.286364633809268
Au 3.821544668866734 3.2010525694539016 5.672457877050316
Au 4.314536421587579 7.867582998853549 5.320689927153228
Au 4.283974984391111 2.81293272568695 8.529470599843469
Au 4.59573929043101 11.521768391058004 2.3541719283868736
Au 3.7703289946614316 5.585751453481849 9.30264868404386
Au 5.116658073917821 7.621279758880976 7.889031390291643
Au 4.654648880724577 6.788617108915132 2.8391344075063794
Au 2.8737261237081095 5.515286765450043 4.522493473926463
Au 2.271692248313491 1.557679879237907 7.125740554804941
Au 1.9985260917078727 4.183225391389999 7.75819447762405
Au 2.622999479369823 6.6743790286117255 7.059510833885622
