30
Energy = -76.61890209 eV
Au 6.588595526779756 7.16927136870497 2.2416639909972975
Au 5.893403793986937 4.554527666429352 1.9437672524023268
Au 4.011840924617978 6.366293287870236 2.9791600526482966
Au 7.981323745253999 8.107716007946234 4.380683045571685
Au 8.385723990916153 5.363445537061028 3.26909430923422
Au 7.177153924301951 2.8668480591729693 3.6054750435630436
Au 5.14760202301003 8.68954841759127 4.074833475339586
Au 4.831168568989348 4.223388052687074 4.514152885678692
Au 9.915935726170046 6.443483680109677 5.359155249108153
Au 9.039849551669175 8.495149979059242 7.069161719020492
Au 6.903980454370343 5.770862687520971 5.699704833249332
Au 6.811401174689764 10.240782325916877 5.550822923290955
Au 6.350294082596349 2.5851696157665875 6.191122824976911
Au 4.0939840450517755 6.735976267093468 5.701762939049757
Au 8.98857405741097 3.7849122992212774 5.492876943589083
Au 4.820192618316539 4.66876304088083 7.313437976128987
Au 4.458407752030588 9.233489050112428 6.735560269066069
Au 8.331053971785934 3.0312680705781982 8.031578272175114
Au 8.677418370151054 11.27580523094641 7.174848080975243
Au 6.473212096012226 7.382342612211625 7.85700126289891
Au 8.986862614048581 5.720102330746516 7.77933964456908
Au 5.843142370098023 11.438247845373875 7.8368560323426
Au 5.663919365845712 2.583684892077324 8.889305042560053
Au 3.803833758877092 7.0627570175936745 8.504975952040104
Au 7.625530363503069 9.789574922552918 9.172887732116543
Au 4.436946293116866 4.745302392096749 10.090300249719734
Au 8.370691564673141 7.369341747033565 9.943424400398685
Au 7.134859353792474 4.90751110321091 9.66625600257084
Au 4.828925355063567 9.473006334570446 9.489617376890644
Au 5.649581808744416 7.1468374037374245 10.666583463701873
