36
Energy = -92.89614748 eV
Au 4.890863609826378 10.004540928131878 5.860027312286919
Au 2.238233637494475 7.329239138950427 3.1860850173594666
Au 10.684360706402535 3.2758540040045743 5.270698348588446
Au 5.602322418504258 6.47775325878886 11.73456831528447
Au 3.2298236981342017 7.470127804466971 12.356285110352943
Au 2.8584241022169166 5.145571745656128 4.858257768099813
Au 7.2395034935380576 6.498351506884839 7.116205498269807
Au 8.163407048653722 4.108385911181327 5.8286488872436895
Au 8.92647312626182 3.571373842103746 8.572306171562698
Au 4.726412256936995 4.286031308005252 9.920230715155872
Au 3.845304597113824 5.51235165003878 7.430363646076048
Au 9.184114221381732 10.42191867898267 5.500821356652082
Au 6.92792549267604 10.01660417080309 3.967142432190057
Au 10.463366798522395 5.253614097136931 7.09347593164628
Au 9.194857601901733 9.12798150000481 10.320497396011321
Au 4.495308968745394 8.867437486009546 3.351795635240348
Au 7.366802793222421 5.261813705902388 3.34951063107807
Au 8.321546724849332 7.087501310407733 11.866651409961106
Au 9.817476984824308 7.843481421448093 6.462591551269897
Au 6.231768639484032 3.876181214863304 7.736787598722115
Au 6.894674896893138 11.801759216390026 6.124402846353988
Au 9.434336858836083 6.629440298451675 9.120299362855077
Au 7.45152208903972 4.982549897375519 10.380885420583764
Au 9.25905367636413 6.453318131325057 1.7980989033241908
Au 6.784434826409533 2.3609754637838196 9.9372836259898
Au 10.006439043713117 5.798734494548961 4.387109894302836
Au 3.271504571589829 7.801358712332645 5.681013341509235
Au 9.211204647889451 8.356731321150011 3.7730449196564573
Au 10.042289175101187 10.136200866476857 8.021980285204862
Au 4.90063251401373 8.082593876743356 7.790103572575422
Au 3.5612589544931206 6.769102500100216 9.817111342563694
Au 6.865262611532565 7.79931600290274 2.3988587932077907
Au 7.340059338458077 9.455619539328515 7.552552837839208
Au 5.531317016200494 4.749918272916298 5.286276898572793
Au 6.808664638960046 7.82395599548856 9.634123818624703
Au 4.752883560081288 6.0861460671804695 3.037738744050174
