31
Energy = -79.6691512 eV
Au 10.72038969412141 6.909810492994247 9.129708051973239
Au 9.86669421111521 8.740774910563294 7.281701871991258
Au 8.515926714746362 10.125086749194814 5.352601809454513
Au 8.232858815450099 7.972542544204927 9.606157812949741
Au 7.4599334214639885 10.084145369574333 7.977278282066579
Au 4.801388562759236 9.651549603213546 7.210019557599902
Au 10.246200765891036 5.926021487021797 6.580396599225964
Au 6.250779568275751 11.544178968462578 5.890801784211259
Au 8.546673263435896 5.318848514630635 8.728269905632521
Au 9.55884460044416 7.765717634270537 4.602509262614245
Au 5.66522475733753 8.8658900702654 9.734082024790853
Au 6.060502396842231 6.16298301212674 9.557268824203714
Au 7.4834596845068 7.379687739080669 6.656435345995341
Au 6.021495910091345 9.077320348181543 4.6612916579301835
Au 9.41231094984398 5.103823187803085 4.054637724428166
Au 6.903323836688265 6.436941356766744 4.112360236284133
Au 3.75740614445276 7.41648686471775 8.372786936318272
Au 4.59167738761646 7.549979928487896 2.8998295608208697
Au 6.479725991681414 3.634225070158283 8.417273715080041
Au 8.258502342668242 3.9551498910610374 6.3026815503722675
Au 3.847287899818679 4.645479378013017 8.648228233319685
Au 5.366370044950116 5.759807145758151 6.446270438977629
Au 3.567894277319106 7.947318669265581 5.460282527941644
Au 6.042037716374436 2.3474491677446188 5.953827179617065
Au 7.183157227537395 3.5896293036218334 3.7651950496215956
Au 4.356958801288182 1.9538987299211013 8.176088942557318
Au 5.360947628783541 5.045138470296601 2.2050784223807036
Au 2.3152169368431146 5.83370944835105 6.63765612156791
Au 4.546791163483465 2.8419092606606506 3.6372437895971887
Au 3.400797668635607 5.3743049325692445 4.148500190432338
Au 3.389384785237852 3.375749647546898 6.057477690069582
