35
Energy = -90.39009025 eV
Au 9.115515656984929 7.3824498873553095 5.809820364927896
Au 7.170000680322615 4.151052562141908 1.8440481852487032
Au 9.311150434551893 4.654510484075618 6.085419161118304
Au 7.939312673891635 6.111209817151351 7.956674927166531
Au 8.726822278138968 5.723760893972446 3.600484730870477
Au 8.469648805263766 2.194601263115105 6.645925890754233
Au 8.204246505102628 2.1160188824742288 9.42060371770827
Au 6.8033318562310185 8.378036500487795 6.9769262489656105
Au 8.257973239074895 2.985616932140702 4.089365929745908
Au 5.395774158795932 6.6834276410056495 8.880465100817721
Au 7.37937937590837 6.991036260132655 1.5819808920635365
Au 6.967960193967726 7.869027913359553 4.161456788768912
Au 6.398036179109819 4.105432070060364 5.99387662097612
Au 6.660184134172582 4.288562310574534 9.465231558777512
Au 7.675283399200277 10.804343236903529 7.870456153644803
Au 4.590762684057808 9.176247730187791 4.69327114152957
Au 5.638882105894356 2.3385582077139455 3.6363756215727836
Au 5.689731672101828 10.804343236903529 6.502901598033291
Au 5.388038420678987 5.316597859343377 3.6679675286287563
Au 4.1135464941070845 2.3047162853873173 5.920822836860287
Au 4.779901046436784 6.379556231398781 6.025000389734607
Au 4.222488601324739 4.150273522000155 8.104971828042096
Au 4.802091200307901 7.809383748863202 2.3149047578367714
Au 5.843625588658058 1.96704069735635 7.928934504465499
Au 5.240177480069541 5.831151333461678 0.40562231860527787
Au 4.12241704312578 8.847281043846026 7.611405731921598
Au 4.549363116107905 3.371479407837549 1.3697372732705309
Au 2.304955983224399 4.4294479192013965 6.134528431020159
Au 2.9694016726098305 3.302632176703865 3.652266179519772
Au 2.7418431984594656 6.4395394018989975 8.060971886636402
Au 2.6964509293331744 7.416879809877321 3.98377082136807
Au 0.8911104102096875 6.83137085172801 6.004318713905718
Au 2.890751227216761 5.555289224591133 1.8566853799970113
Au 0.9974026452664049 5.2466993976464895 3.802386695921085
Au 1.4400131637008005 8.834162668191851 7.708944884084664
