35
Energy = -87.92044793 eV
Au 1.9960132253895058 9.14907241239176 6.331940365852895
Au 3.5123041213109305 6.773074534205313 6.416620282327049
Au 7.055303075921893 7.779561593895119 3.480689512584053
Au 7.155436271163767 5.877810320406366 10.369592456552377
Au 2.357184968349273 6.161042420506699 2.053193985666188
Au 5.4743271017349615 4.7580110746204145 6.15833060021377
Au 4.660170753904314 9.493933828218019 9.013779038340507
Au 7.128543544835323 0.7332087706268277 5.494291514674582
Au 2.486993896707323 7.8420616862176935 8.759562518023484
Au 6.607780203084234 10.080886412925304 7.2193223747207655
Au 9.320409832213041 6.796097198778726 8.761322313006847
Au 4.68890726790145 7.590195723587396 2.320177907999591
Au 8.798295326953752 5.7708943829649115 3.7976160967602692
Au 4.942962569478489 9.394610326505134 4.439029954452992
Au 9.851383642000446 5.469808457540589 6.423941514573331
Au 2.5037392062537447 8.013070140940014 4.036055996720583
Au 5.64085759817177 11.247194794716131 7.482011266207327
Au 7.642752442045658 4.735723959824009 7.931104262330768
Au 5.3257092661536705 4.0871059048315965 9.379237098357939
Au 11.283937561751372 7.739945607842195 7.077814271652099
Au 5.050558549525906 6.727265006808395 8.729086300425307
Au 6.357626789527841 7.390567624867707 6.204901876163612
Au 9.192540340724966 9.43562187028454 7.672066706696759
Au 6.178247963165086 2.403928540539097 7.396736898191592
Au 7.972314991658668 3.5571362698946314 5.477071773408707
Au 10.628149770085349 3.843899252735855 4.312517237650475
Au 2.237167202929763 10.662627246341618 8.603350459477362
Au 3.952752143564078 5.465319821845512 4.090543833598865
Au 7.937164616853601 10.89707656478838 3.31231910144944
Au 8.929859212423715 7.645744433925991 11.33133875179995
Au 9.17468376100686 1.7025959259441472 3.8845454134604025
Au 7.1721242257561455 8.602800118871937 9.479826970388912
Au 9.071085041169361 7.9880567935948985 5.363469057016037
Au 4.11989881520452 10.897076564788378 6.537026241227708
Au 7.580044383669272 10.248702747349006 4.771933367530995
