39
Energy = -103.34388306 eV
Au 4.91826063939398 2.793257656804066 9.344800696396808
Au 2.960524417627823 2.914425464003079 7.417339450096479
Au 6.008538870910449 5.118259075177304 10.376386230992056
Au 5.713689026149625 2.8949978879621927 6.67388116021382
Au 8.687941535066958 4.636698930582445 10.903615901831163
Au 7.584179656053802 3.1863968824409308 8.799464867895077
Au 3.691878661220662 5.2847989653195615 8.891158185946018
Au 1.7860172118755417 5.302434417679819 6.823823411780964
Au 5.121142050594989 7.653264721395497 9.465124237247638
Au 6.408936979812313 5.560554079817505 7.617428984137445
Au 9.813258011751433 4.778821460675853 8.347869493732222
Au 10.420158294671657 6.645357327696272 10.408786983026397
Au 3.870430731617082 4.402631325261914 5.233771805698241
Au 7.715198326402814 7.255022493935834 10.354567926024833
Au 6.368379550660145 3.886504823175173 4.190513809527066
Au 3.0272284270348453 7.673155566867581 7.630763865928561
Au 6.932614559456443 9.8127098536707 9.518275383060725
Au 8.429322926255598 3.5459902608171303 6.220195458610082
Au 2.6359591743563913 6.885914584752457 4.761899252798752
Au 7.678106310936788 6.30132779481516 5.286278731864424
Au 4.810713889928396 6.0579437342269955 3.2434196675489138
Au 5.235278612012367 7.362870899207287 5.821008379797984
Au 9.06083713933841 4.304622983278593 3.6618455660853835
Au 10.40578717656846 5.536130418016733 5.736306288297793
Au 4.9469243686138835 9.758890393874335 7.61002452200106
Au 3.1429645072112846 9.567732968621652 5.549658167780323
Au 7.5924857963833015 8.062415253600369 7.389970579632356
Au 10.624835675653598 7.3969926456455655 7.81153345354866
Au 9.685720619676408 9.192194601456153 9.778466168152464
Au 7.227489338591491 5.594046761351838 2.06526398086432
Au 8.903807440022659 11.731606125183843 9.038935712182441
Au 4.126241596593849 8.725979111422701 3.118885994871679
Au 6.806960338433956 8.184962978976188 2.9847771821611553
Au 9.354530735953412 7.115525314244706 3.2343899496223987
Au 7.3624191151281195 10.988392381441434 6.869929395930749
Au 5.776361115017629 10.154862422619306 4.833701321276449
Au 10.795960745109124 8.23989684716496 5.230208400749078
Au 9.995793262337331 10.050075899448206 7.09461241415165
Au 8.446769322362398 9.515980844154384 4.734763175322518
