38
Energy = -99.66958982 eV
Au 5.341502442318528 2.5106722757502093 1.9535655070084674
Au 7.4392609991928405 4.079611563105583 2.763701268363979
Au 5.036842106016633 5.306605671561885 1.942408422037657
Au 7.0769502607921355 7.112432007928163 2.7833943856289
Au 9.366179354973301 5.700161768715931 3.6150696766975923
Au 3.633132424406842 3.665555696948976 3.795957776181894
Au 6.033676551013517 2.3133228883902643 4.648606787883058
Au 4.316247323978566 7.515807847694345 3.303427241129779
Au 11.364961872334073 7.281696946705424 4.352972725797622
Au 8.958079367611255 8.755946336202022 4.16338473036657
Au 8.496476039577137 3.5366734763746965 5.282585329017034
Au 5.743666379384878 5.297699183891512 4.698715701569594
Au 2.7937198783722565 5.766826558931381 5.260588116000944
Au 6.2320876953442506 9.34073378361954 4.302293072427894
Au 3.405909652222713 9.554078462343222 4.8533307602642335
Au 10.1232363857327 8.19445926699636 6.7304842578939335
Au 10.35378367198572 5.446901534510781 6.263142901640567
Au 4.078515165538863 3.4672682533926036 6.510211345762641
Au 6.686250718968666 2.446918789032873 7.276757255410678
Au 4.8809222867560695 7.45339950664894 6.244603455582448
Au 9.057106998311033 3.71067497323865 7.948185997894809
Au 7.730973797193952 6.892797269901411 5.751480161645304
Au 5.114621786635547 10.247676376735365 6.828306975462968
Au 3.281148940046367 5.734148239561015 8.076701994134377
Au 7.882606321870972 9.86103969199895 6.567688271473805
Au 6.366037405283268 5.180412456588932 7.384700286108684
Au 2.179098882926124 7.997455927564017 6.787705202084003
Au 9.411086441793888 6.325538516097892 8.758024079589473
Au 3.9717979518218485 8.47864829775032 8.83992413543062
Au 4.855600368138871 3.6443123264301787 9.149392734226726
Au 9.10061405157872 9.111174211914006 9.091358143064848
Au 6.730375119937184 7.739365745962203 8.257723765214118
Au 7.377606356133725 4.6534438244354135 9.930903510124775
Au 5.024213949046507 6.21328985231826 10.211534725466999
Au 7.728344466132205 7.205524471912682 10.842149939254114
Au 6.495393937833632 10.372272240022436 9.105410117051388
Au 5.3622757164462 8.781775933652899 11.185161844963687
Au 7.849270165465336 9.9211708976365 11.447142619672316
