34
Energy = -87.44179214 eV
Au 7.287658596446673 4.788879584585707 9.461619330583254
Au 6.017593910012915 6.623045949080069 11.038040904727595
Au 8.79604065404176 3.4337934942307924 7.650353563947405
Au 10.867952676473545 3.3248724792356197 5.799183142892512
Au 8.73533562536949 5.884887513870777 11.623723535545542
Au 0.4408734252954227 4.668567211935665 3.926677956330206
Au 5.469939339724269 6.61147707086196 8.396306239930894
Au 10.086677508770045 4.425967578933205 9.836115765676274
Au 9.718172940021665 7.190360800945184 9.285156230547093
Au 5.285489304327551 9.116016414018429 9.526206408580757
Au 1.964000868004673 5.197654528707658 6.085923292991883
Au 10.85038253577827 5.527982522941962 7.4388524986173366
Au 3.116761901711478 4.216324631562177 3.665748786664894
Au 6.316802439675982 4.511036467935705 6.833756229045171
Au 8.250591235475449 3.616647680562524 4.969452647949667
Au 10.05798131477207 5.770828716857442 4.784951320587448
Au 5.572097092368524 9.179162408644427 12.194670817715984
Au 2.1277832065906828 6.897346341755101 3.948681571898993
Au 7.377642796946603 7.456392685430148 13.34964582505245
Au 7.7172385708350415 8.828929958861254 8.228578895740492
Au 4.234515064792725 6.614351524083532 6.011207023726567
Au 7.530466573411947 5.9022211801928846 3.4827632141901788
Au 5.686572708782515 3.8882073713190617 4.2037581652804885
Au 5.258764655848804 9.285644038268448 6.771258891677397
Au 8.017188399098162 8.609158416697918 10.888630628347691
Au 4.809052339524111 6.3311861034404044 3.166507537931802
Au 9.229192133979064 8.166730640248042 3.874267782426527
Au 7.034158182298542 7.116809812819306 5.979393626522864
Au 9.785546165798825 7.922719156033689 6.602518055977555
Au 7.889195679618323 9.825199491556138 5.706101884626729
Au 3.8815100383934364 8.839173740458499 4.266513408756204
Au 6.482188360753917 8.462814863013023 3.1653429241095963
Au 5.628624661092807 10.862061360529474 4.430324845668656
Au 8.180767292891236 10.608306459309668 3.112525244658414
