32
Energy = -83.10215392 eV
Au 3.955805774763744 4.92874917131509 8.94656563842423
Au 5.6805809893845955 3.1429944253662407 7.501200846289476
Au 3.2334794833517355 7.483905342786942 9.699692188065931
Au 2.6489918375026242 6.622462504860007 7.111778670592194
Au 5.753732154352148 6.7251133802792875 10.320928221107376
Au 3.2083260421510884 4.008827532953821 6.452908963179935
Au 2.755154397675414 9.317214909493883 7.72845928578324
Au 6.172805454600798 3.933069535093508 10.156360173223344
Au 5.517034542169618 5.862957457756362 6.619581321028853
Au 2.721565943328991 8.521734350080148 5.043718545289293
Au 5.2111734775898695 3.4815921960666545 4.7178408366527185
Au 3.683108464456226 6.01429538941156 4.5162153790978135
Au 5.36947634382098 8.926208408807035 8.681792069387733
Au 4.8579847211629765 10.000465146401135 6.148888206045122
Au 8.23878885646748 5.629047430659939 10.709668181157346
Au 5.176361919793248 8.307710275337246 3.824202449610373
Au 8.144889057104827 4.388392853253441 8.249318795064132
Au 7.932808278881302 8.072068646467514 9.281756892994402
Au 7.844952069105836 3.6561375336472706 5.684781910573109
Au 6.346388426206759 5.8207724199034425 3.720849882921969
Au 7.433711648748027 9.748589474085069 7.038201454060215
Au 7.419403762456455 3.357756226257704 3.015314953763903
Au 7.924045861328011 6.971857007179367 6.451104514450858
Au 6.841028802982659 10.426818312644679 4.345928690382492
Au 7.993038130957731 8.008033243510841 3.6771879493130006
Au 10.128438115837655 6.394675714031443 8.961326620087824
Au 9.093032270468319 5.391737205561098 3.7708227959366147
Au 10.110914781221284 5.047360634722343 6.395495654884255
Au 9.981819257118394 8.744036340073103 7.487216904254959
Au 9.436936436639428 10.024893534252588 5.09209355293745
Au 10.45096839645243 7.461037989656463 4.87599928664254
Au 12.038266942491406 6.888105466391073 7.069613733438717
