31
Energy = -79.58897619 eV
Au 9.052697449977993 8.909399869273596 9.846197458896242
Au 7.1482404349195665 8.311885439408707 11.82001070830498
Au 10.38792411121376 6.75633592066988 8.748301867178556
Au 8.003910460422826 10.833997695334446 8.12471049171145
Au 6.228004653626355 9.161532741905171 9.379505544317166
Au 7.989539043164907 6.278575606582663 10.190613260777972
Au 10.04097067453135 9.252287375403156 7.182743806320555
Au 11.079410313232763 6.986910992647856 6.068960840374937
Au 5.195982099515209 6.817181324422754 10.485267203415761
Au 11.175054918541635 4.493583139890285 7.023776506286602
Au 7.816597597643527 7.413305001953825 7.55298405335521
Au 8.730328673153595 4.635672880104662 8.105069567238129
Au 5.998692743586689 9.5265547328663 6.661248182573994
Au 4.294667870180921 7.7820793081215855 7.903944519626137
Au 8.169564275888293 10.680878312527733 5.390469120531559
Au 6.062935695813024 4.95304359945279 8.579984749876113
Au 3.3648991012622265 5.448407655553246 8.955798009743672
Au 8.817080835180194 5.312802633014097 5.3379616651989545
Au 9.122201852495301 8.2145360248884 4.71845378556694
Au 6.5023954110785915 8.870904640710393 4.002405489076148
Au 6.962743596994794 3.441256287217827 6.41511907415361
Au 6.109556189591269 6.3961458632699575 5.757764389608366
Au 3.9910313683588545 8.314436370724719 5.177659029772166
Au 4.170263787012604 3.7311414448576654 6.964149424388589
Au 2.677191754832667 6.071300084345151 6.380063423675226
Au 7.814093395630881 6.557413197899448 3.0173382846504113
Au 6.538635592908226 4.282206014107808 3.802702828872191
Au 3.7070738932448544 4.443694567396904 4.256904424205643
Au 5.089663727631551 2.200052644203093 4.87498150283497
Au 5.041213030188999 6.682790932873404 3.0843819149619005
Au 2.3321978298126704 6.705216436197065 3.732757614720851
