49
Energy = -131.19383733 eV
Au 9.060769380199414 1.3674928777267967 5.96123894952871
Au 10.535502854806573 5.47645838523447 8.043635270806623
Au 9.056456544706188 3.122518196175808 8.108744083129427
Au 8.850060988259667 4.867888241442541 10.214993481519008
Au 10.309361516321479 3.8770342698714613 5.726727450174128
Au 6.634807035789708 3.3704463993716383 9.598629100042517
Au 6.9094602013657855 1.407039274715065 7.700271129363925
Au 10.128110576374803 7.226303419423165 10.25513494675981
Au 8.937812963193547 9.13197405012976 11.912898646139189
Au 8.977340672599182 2.6432649963434365 3.5689676298531374
Au 7.584305078691116 6.801657204617917 11.654844366073176
Au 11.209783574409334 8.201946986844122 7.874136339786855
Au 11.06348093122156 6.508074224078554 5.529891753890526
Au 4.865416496079354 6.877177130853894 11.322469279174294
Au 6.65309866629297 2.6821640917467757 5.20030017160275
Au 7.437552169994984 5.0400949776793 6.553326706271577
Au 10.788811902730679 9.912807767412906 10.022542409439081
Au 8.54189802698481 7.4854535389939345 7.338098490463187
Au 6.563803508340673 6.151803383845112 9.033223017899731
Au 10.004400690231087 5.1346541114392075 3.2237159252115575
Au 4.223185779962412 4.668774296598146 9.78958054382611
Au 4.978208809915672 3.411316428222791 7.349525631066274
Au 7.271834200106847 8.819733762378608 9.393714917454435
Au 8.216476824473501 11.262176351522774 10.319873736776675
Au 7.137001090925389 4.631700873311025 3.266519608394434
Au 6.155714581208906 9.285109848829599 11.966969175589801
Au 10.13892681224172 9.145452668545392 5.466341131558992
Au 9.184133272950755 10.389920379417205 7.847401160473195
Au 5.539414914318066 11.097879782381668 9.902416801002685
Au 8.234278858416682 6.9751616735616215 4.636542561166624
Au 4.9062893944599 4.858572638612739 5.022907061844667
Au 3.3761507334444887 5.6752144331304955 7.330090505825318
Au 4.707820917803802 8.157287845114816 8.457087402962738
Au 2.5218216424105218 6.875425880961825 9.782629368374783
Au 6.0126934271445664 7.517325222649615 6.145642035489669
Au 10.619159070492548 7.7757045134906955 3.0663004570140857
Au 8.529437834480818 9.556426788070018 3.148181221002419
Au 3.5881350961196845 9.307758383590336 10.82772476991308
Au 6.124991856333753 10.37803198986313 7.176024311487305
Au 8.10625710145739 6.92342613984654 1.8957317691745308
Au 8.186051689301967 11.084594390044774 5.456006011612652
Au 5.451070486376597 6.791190377039676 3.136549016992071
Au 3.3293312185890174 10.595290341498183 8.35203917827266
Au 3.4139066681649206 7.198375514759648 5.046931767941378
Au 6.237747346336182 8.966934843515874 1.709785619324544
Au 2.1090299623104505 8.223012687448541 7.368896174931249
Au 5.998572001681184 10.024661882542743 4.339303443145116
Au 3.621871180822485 9.90900134943209 5.728533772754026
Au 3.7977736309409957 9.080855010327234 3.051887429225067
