45
Energy = -119.9132965 eV
Au 6.5999583942778095 3.66733734780064 3.4877226184036463
Au 9.806060861299622 2.778000996400582 6.930829207255896
Au 5.303117896545064 1.3046158020611685 4.172660071180348
Au 5.105914798952747 2.7991470622733257 6.492526777847588
Au 9.13236302941401 4.125500646169036 4.57016446151881
Au 11.27402601332307 4.942480818463589 6.246472378145735
Au 7.3796887736038315 3.3224041096103702 8.137269066816637
Au 10.667094174216162 7.454877045928949 7.457513148764442
Au 5.194062940940995 6.003855263807644 2.94395391192077
Au 12.686442341908576 7.178790350867487 5.583380212116204
Au 6.605468590717195 5.159595219898424 6.057089810749944
Au 8.10034118098038 7.239001251622482 5.144742461885757
Au 1.4795979834296882 3.980288145725742 5.36323617751423
Au 9.541455208420691 5.075606993983943 8.466141596945244
Au 7.042076337966603 5.528037128574995 9.794488443595812
Au 4.825989565483733 4.084081826957624 8.961602286020435
Au 2.5443400354008827 2.9028104674737025 7.726779679267646
Au 3.8330493943939334 8.443869068415747 3.169335142799273
Au 9.336645486912197 7.381036594129024 10.022293255664053
Au 3.8318764728586023 5.348447747275415 6.591900954357826
Au 7.609990306966411 1.9968707460253012 5.5624716758666075
Au 2.805377976772423 1.5555887586839854 5.310703026880866
Au 8.50761432680111 9.964364247569115 9.456091718991594
Au 10.582093251471136 6.333220572765708 3.885996351281973
Au 7.8752574628051955 7.435204362898817 7.767030357927931
Au 5.461536652736585 7.622077883226308 6.596293762601948
Au 10.738603338026632 8.951726335277609 4.8984453917248265
Au 3.8690326159031803 3.738346616750866 3.8603453453869085
Au 3.9581189703718453 9.230617120501016 10.357779328972397
Au 2.633371882960882 6.21236651340909 4.129574159713895
Au 4.416323596418701 6.527859128321908 10.129075195140373
Au 6.599676026867945 8.188157433895192 10.377213454890482
Au 9.718368857603934 10.14048130495887 7.062916016779477
Au 9.259173450908246 8.4437119607646 2.6519585643209163
Au 2.20838932799369 5.234538170662525 9.025851653632175
Au 7.966883376750756 5.9199619495573765 2.71885552703122
Au 5.959053027553126 10.901084176156635 9.689329721172122
Au 2.5873515080724183 7.901484388898928 8.4409838221042
Au 1.1850953007193301 6.394917348942138 6.598641464899341
Au 6.540236396171499 8.446418686626403 2.94271079156443
Au 2.916738589602731 8.473034462254262 5.753310659647132
Au 8.136712612406992 10.067435170905563 4.6663748454134355
Au 5.360342904803813 9.960777615198149 4.997296568043406
Au 6.998143093371933 10.589498701269118 7.149311246492083
Au 4.313917249764606 9.968607855355414 7.641456514445282
