4
Energy = -6.22191787 eV
Au 4.927268661805725 4.920525920504551 5.865183036894692
Au 7.499743107734348 7.557764242255322 6.616253941529217
Au 6.7804809753425825 5.271265348007932 7.687740767049119
Au 5.703268322122996 7.161205514276382 4.741583279571269
