49
Energy = -131.7292524 eV
Au 1.3803747584421342 4.569324337170797 6.296525226420455
Au 3.80862041430572 3.432301615424477 5.330961462084442
Au 2.22571311177007 5.198407140241509 3.768569688988083
Au 3.277086370351251 3.8602250334611345 8.07572736440619
Au 5.341122591762739 3.7985485039580267 9.878503242160876
Au 1.686027078473508 7.227613988839611 5.669437998482393
Au 1.7556720059674302 6.397119089733256 8.322012488548943
Au 5.871389700317039 3.24351675651157 7.217158674451422
Au 3.021735795036834 5.2048231235320666 10.454548190697599
Au 7.98025147478925 3.3328729899765364 9.045091156599794
Au 6.49722395004981 3.0798375687824406 4.483405286030522
Au 4.508408791631644 5.959304668178666 6.233287716815086
Au 8.561698319148087 2.7599084909231033 6.46053292014737
Au 4.967332497214486 5.118652694960897 3.352271959753312
Au 5.513482016150933 6.350794297102596 10.981870031966293
Au 3.6208972859882604 7.543027256278502 3.623862216502214
Au 7.505158922641194 4.422532025375246 11.528555958161435
Au 6.972595449453719 6.002548562699574 8.471885084925495
Au 5.25456885663961 8.066156464596773 7.725340983938012
Au 10.661052041793933 3.211777698813743 8.254192522950266
Au 2.4394467832369164 9.011952952741488 7.591877953585664
Au 3.456270670915571 7.887706191115176 9.939021499057983
Au 7.676765485640733 5.168918555540765 2.833762490220447
Au 4.610591403801005 10.686152522788298 6.408592812794433
Au 6.229459935353396 8.889664704216656 10.247087022898972
Au 6.407683372484226 7.829649285041849 5.233963098992287
Au 4.998897093292804 9.922317270621066 3.7696522699366946
Au 8.211278497369856 7.05733679900556 10.965378298909991
Au 6.148763589401655 7.502562448450418 2.4968825919460587
Au 9.225260812769296 3.184964965277218 3.8885014692631885
Au 6.800589038378511 10.681661995938798 8.145342434755102
Au 9.905689823332617 4.936318618296813 10.231316510319491
Au 7.498019147066141 5.322620699966885 5.853429440793291
Au 2.484521336757716 9.75267156840659 4.922125264437034
Au 4.214408486608021 10.45425812473812 9.132758958164748
Au 8.726462510065543 7.5382675998715785 6.784448679460394
Au 7.181535818638446 10.739418444463507 5.366680781140271
Au 8.848895536648708 9.251858295611738 9.398305564128258
Au 9.63775366109183 9.251796685325429 4.601270764555804
Au 10.948865796472612 4.308917978094106 5.749634311110379
Au 10.822455151436197 7.494754725025408 10.208317289436796
Au 7.56464919047439 9.886596130724184 2.8038166255364096
Au 8.922109022637569 7.557212897984448 2.3904544090200273
Au 9.334669964055433 10.471114442151357 7.006051671200072
Au 11.340985589505642 5.880895533227189 7.98850392248746
Au 10.503855250500829 5.482717080816868 3.2772807842724747
Au 11.157528984749126 8.61125597097873 7.723517648222897
Au 11.541907604625463 8.041414723054766 2.990396744161244
Au 11.359318446194228 7.024779919395058 5.4869379505920035
