42
Energy = -110.12269398 eV
Au 11.215401822544342 5.623256350183366 4.286582553153313
Au 9.716694852258142 7.5988781020090315 3.16066211160063
Au 7.8351620953925964 9.501612118823186 2.7715865329542093
Au 9.695684547085795 3.5689119099989863 5.590763451471133
Au 9.582973890071386 10.182124128663116 4.677033812899087
Au 11.338166986568362 8.080429891762785 5.500303633698686
Au 8.933482568791574 4.896785532444945 3.0344955400160654
Au 7.246291814699953 6.960877198653807 2.0309589980395657
Au 5.198328538405641 8.930236589081224 3.2417632770960663
Au 4.662077519237728 6.312348928772644 2.7433555370699967
Au 6.443521492279529 4.316876206813458 2.088827391941861
Au 11.261749960506432 10.586433622965913 6.78915755345441
Au 7.366046393995042 2.833705777747552 4.288270865157198
Au 10.51656719314384 5.8219696580188005 6.973250818917618
Au 6.715866086371306 10.136366141667553 5.3121136245019525
Au 8.480356806444224 7.8135280181531455 5.8733404489571415
Au 8.481140165864439 4.166484167752639 8.146544867240038
Au 5.729498865024288 7.272612794746478 5.40716020046917
Au 8.574791428114214 10.323648683435652 7.42976519936722
Au 7.521952112854368 5.253727631143351 5.641583355604988
Au 10.58897941447461 8.4083116842608 8.237171924339663
Au 4.944777801072291 4.133288760183634 4.437607529971359
Au 9.817314859518085 6.18879684412134 9.556639991300292
Au 8.201466541787847 8.596280502765268 9.634304909522623
Au 7.016834169069533 6.656945281399393 8.020121755304306
Au 6.041145904866071 9.417813331655623 7.913596630444604
Au 6.0872541327093455 3.065240516241888 6.86249713817239
Au 4.043540153532128 9.406728468370874 5.784939763148404
Au 7.567705569904605 6.1378431070909425 10.978770473122092
Au 4.639334730670621 5.476918618557341 7.209037817653038
Au 2.802433780729727 3.4847851785925794 5.952810524508171
Au 3.0503715081376677 6.194094750858936 4.931548691803533
Au 3.606626572465425 8.208815786502573 8.275972700429302
Au 5.529797737728447 7.821766764051001 10.174189453583624
Au 6.049707623839395 4.245782233783567 9.524822393933022
Au 5.138276833034946 5.7865477560564536 12.063965347820817
Au 3.566698344922369 3.211418459768144 8.51316082012105
Au 1.8124852563345266 5.411772557944181 7.532944092406226
Au 1.6652149055054524 8.081427500096247 6.3437175144904066
Au 3.2989305287227815 5.97850352255147 9.948159034072352
Au 1.076165850914448 7.465271938371978 9.068227328119024
Au 3.865262801355307 3.5564884743980283 11.141346567724149
