46
Energy = -122.85109918 eV
Au 5.719869823820333 6.546547860279273 9.085975447271158
Au 6.67182054579059 8.252068654616318 6.748766836127337
Au 7.852792603364216 10.917221934878544 6.45724206175757
Au 9.031435623684176 5.874555048324399 11.395388854010484
Au 5.594072038963928 5.649651062308541 6.479330724446066
Au 10.513906331870363 10.405408943872036 5.874470300787031
Au 2.9142516376518386 8.886962195474224 5.767553577326895
Au 5.154265944508391 6.102220729746276 2.6592709694358687
Au 8.05034318813248 6.104405075244401 7.6910327526258895
Au 3.237330328944863 4.2091794415106865 6.769141716205828
Au 6.895684564808725 4.192499787235337 10.862338800042021
Au 7.28336814069695 3.4750765929821115 4.239829496779029
Au 6.888365243212391 10.438745653807052 3.8005914957036806
Au 7.332456559211209 2.388009286212588 8.86094568410048
Au 9.403996612870328 9.764820204262525 2.9382005929904023
Au 11.644197793218888 8.101077962512834 7.049537485740351
Au 9.301888964603906 7.752489015908745 5.730849421875107
Au 4.932863825131048 8.533788327403352 3.9123503994031674
Au 4.85533255838447 3.5470095791097074 9.04660795090148
Au 7.177692482186941 6.732346633600722 4.462784948942603
Au 10.363768772376348 7.020941277687082 9.319629221303227
Au 8.080237678841078 8.30105567884064 10.428557535365366
Au 7.160439062717083 8.217999538085506 2.111353675590894
Au 9.037802398358814 12.120967630042898 4.286561450554552
Au 9.711929104975884 7.107139308593845 2.701399458210931
Au 9.36049653280696 9.392202131030666 8.257883725002474
Au 6.524790625390951 6.641772932971587 12.120671209412727
Au 5.869611570150865 2.8521522666661485 6.571413371409707
Au 5.341971064622187 8.85173144661625 10.822928053627479
Au 3.963341285116196 7.4454790196694 12.744186546887747
Au 3.3496421579181073 6.354806764267435 4.838511678452765
Au 4.527454111089155 3.8889099858367104 4.330673723809089
Au 11.554159588402376 8.483170781419682 4.207151247957796
Au 7.83132137320397 5.28864749341692 2.0471058354119127
Au 2.4015537124058217 4.820669816714413 9.30059588249046
Au 5.1639134667448445 10.439817225774465 6.032111845779976
Au 9.51655184798635 5.061084667634783 4.536729116663601
Au 10.695089741217263 5.420901753334846 7.028843538740023
Au 8.665423524322021 3.432145136287945 6.628972171483079
Au 2.957730967181137 7.399904461087854 10.166553214077336
Au 5.759872897996841 3.498885047788019 1.8916082207510834
Au 4.129553586856894 9.043347895825784 8.273919897599267
Au 4.317871326855912 5.121703318809264 11.258912275583423
Au 9.399581569016197 4.213562131537214 9.232624720683784
Au 6.6693180102320735 10.119697977472903 8.81044263022719
Au 2.4495274010041936 6.84610851214366 7.477338425297035
