41
Energy = -107.33338248 eV
Au 4.210878393710839 9.883951455128091 4.504273359073518
Au 2.9737289784137464 5.335819243981203 3.3474447768609625
Au 3.6336182453377117 2.820165151930777 2.4895878289935287
Au 4.915041473151152 7.514205925664653 3.0413260383036658
Au 2.5087351994398412 7.7379131047651315 4.414177383677604
Au 5.655882511284449 4.867746843022164 2.5484541494238737
Au 7.603377122795159 6.7174260875026945 2.9587535267760727
Au 6.815455562112679 9.353717402915118 3.9261476442559253
Au 9.453267565528192 8.633321518848913 3.735676932099555
Au 5.949539692499191 10.411819818664535 6.624204513972549
Au 3.2484381575752814 3.1687067572174237 5.193358408494692
Au 4.907746834279266 7.743804328915283 6.224258950889477
Au 2.6119682754950704 5.630617114633982 6.217256419850881
Au 2.2361660848128837 8.23332600535397 7.117853464031358
Au 7.962313783693167 4.311801863098736 4.40289236360157
Au 5.408095159537696 5.156675867329789 5.418146057172605
Au 5.822048308574588 2.5915187586839092 4.187189875351778
Au 9.995591461836755 6.133034617347458 4.8063788096860165
Au 7.602881530010259 7.163395143871959 5.759125761598281
Au 8.648739049908823 10.05976339344242 5.9428309477849215
Au 11.23289961306899 8.68349905825435 5.769133562664141
Au 7.439383076987876 8.451988101867176 8.187094429662599
Au 9.260895349808058 4.313229037048778 6.83171372609617
Au 7.980754644385298 11.190261425897253 8.433483804213251
Au 10.268430745521439 9.676470917238008 8.242051027246786
Au 9.960254925884685 6.9063501830615435 7.521670100343995
Au 4.278608309991301 9.162628481837856 8.639084660748004
Au 6.8946149585256284 2.8598021071332753 6.668877124270302
Au 6.401364940227995 5.885108242140153 7.888174847196928
Au 6.214663872076949 10.126193779125765 10.238041673487075
Au 3.544936052643886 6.407317903366539 8.788110714563002
Au 12.572812691192583 8.275610949062099 8.161784110215352
Au 10.315790138980317 4.816571772030041 9.38579425781996
Au 8.789595085584665 9.223473386516002 10.535983603854023
Au 4.01213635381573 3.795874429810532 7.731824438412926
Au 10.850808651402813 7.426009332981825 10.136324167039323
Au 5.643192452021559 7.389080975644959 10.370641087891904
Au 7.8547309394346145 3.683803600977383 9.186634297858996
Au 8.183539776707484 6.367030248928785 10.164201856058298
Au 5.355578998323538 4.6539597618442645 10.107731588645104
Au 5.62652625737204 2.0689655895801105 8.995810458103964
