45
Energy = -119.71550843 eV
Au 11.068150823239794 6.504112572045328 7.501448112874438
Au 10.03631117969423 5.983308306227285 9.97110303416907
Au 9.94796724822268 8.145710400801024 5.510025625286941
Au 8.66215261027029 5.633724530679853 12.367044405896293
Au 10.383086937356424 5.162917358038875 5.262317604629048
Au 9.26842856270972 8.345591603393565 8.333892268771326
Au 8.205097283174496 7.901283788051473 10.900056553589117
Au 9.673752813443569 6.805138949476992 3.0835763751117775
Au 9.627654079520724 4.159640835467564 7.853124233805073
Au 7.8101880277089535 4.324458052041834 10.088989997230694
Au 7.595605347747286 9.53422272740992 6.423391339052681
Au 8.105598955312914 6.385803687653456 6.620712001293392
Au 8.856289779688897 2.784481248183089 5.545088368049754
Au 6.484170065325759 6.994059195451261 8.82069163749338
Au 6.058604848293936 6.0090742093029546 11.540461268007434
Au 7.147158364243407 2.957367765016547 7.850440701193118
Au 7.186810685597397 9.823810261869982 9.20911298985615
Au 7.983533778598472 8.924978730947908 3.719042915272478
Au 9.617941086569003 3.9961938110905475 2.950387261937237
Au 5.437036562384456 8.670525294405964 11.176323761578644
Au 9.325748316371573 5.410673160538844 0.6275318439940495
Au 5.111927710414506 11.261261952098474 10.252708846602935
Au 7.448347080725228 7.25602843586623 1.4197127402850793
Au 7.311045941719181 4.9124460651713395 4.414446360774058
Au 3.8102891515966517 6.700395065687123 10.037257346290879
Au 5.134858103843378 10.527720656650818 7.537973935965861
Au 4.3799194761119065 7.639620701341109 7.229721666868581
Au 7.490258735606923 2.202963118573461 3.087383559972485
Au 5.159269266146136 4.311619046336406 9.33763334851938
Au 6.1599715283288266 2.171654415271909 5.476798553242184
Au 5.624411583390554 5.122671764675166 6.72215835932767
Au 5.3275230376651646 9.983189691087166 4.898383936202568
Au 3.325761029561725 9.407304573668783 9.39993428439266
Au 6.945534817113454 4.509459265970984 1.622268670584002
Au 1.5967818793760338 7.539607347119056 8.594794370772012
Au 5.985913125428902 7.2425250369299246 4.919609686014157
Au 5.5378480377328945 8.88988252945361 2.405573370192277
Au 2.976312410645292 5.153318605905453 7.768248965501926
Au 4.958072456061253 3.558864720131627 3.3260363685267946
Au 2.772425978833998 9.62718807318838 6.2892529250672125
Au 3.6997570951678647 3.2663484146866546 5.866491005144464
Au 1.76025922468778 7.000570713134367 5.955292336740448
Au 4.8925821676946875 6.212992501831079 2.36327701736657
Au 3.0780241119995853 5.3601261030786755 4.244860502176742
Au 3.3898962522590046 8.07941287430602 3.9836458028998756
