40
Energy = -105.21786088 eV
Au 10.130005871861634 5.580792706710006 1.931246069806681
Au 10.69514272120639 6.599071238516139 4.487307087063912
Au 11.066699020783794 7.728354037141098 6.939046431748211
Au 11.540831048837305 8.84090880817557 9.446760159177328
Au 8.37360316950294 7.386382613950302 2.9366304975503765
Au 9.717346532255386 4.032897267836902 4.275519978117308
Au 9.02532487120643 8.738026661649933 5.301851932969584
Au 10.153002942703033 5.050248314455261 6.8162201578412835
Au 6.6151954401628865 9.142956097626426 3.9516205892755893
Au 9.361882703163225 9.777890097880743 7.922929054596611
Au 7.121849248695567 10.373985188230556 6.484686576938593
Au 7.563273030132625 4.719225831955522 2.3821573777149054
Au 10.339842987171533 6.3265470807069875 9.27735279122415
Au 7.555852358780642 5.785476733019008 5.216217812694363
Au 4.957276872549487 11.034120105627052 4.977223600168181
Au 9.005258776363965 8.528762740615479 10.440414267815516
Au 5.620549837184034 6.579017676215207 3.1772567290216442
Au 7.708050971250064 2.2702457306072197 3.7046850937065114
Au 8.120035084059483 7.056242925857397 7.635273858897206
Au 6.7840565073527825 9.206313403082596 9.024519461295043
Au 4.528294983475269 9.823724171628237 7.567848317323081
Au 6.062787146959692 1.56330489315906 5.768349972832203
Au 3.870654566957571 8.458323696160953 4.15841965282207
Au 8.423997221015073 4.393572892649015 8.934804122386062
Au 1.836281897366288 9.839583152428336 8.184855648994835
Au 3.715116216074811 5.750669857971972 5.019704993653362
Au 5.703396302665183 7.539601806329969 6.324983611907458
Au 6.0566112194975465 4.926384329422888 7.431460185954894
Au 7.1583349470546 6.561856355428972 10.31348503926412
Au 8.164332052557558 3.149611657643432 6.432177018324788
Au 5.505859720237112 3.897875652440937 4.053558481670919
Au 2.4020305041511256 10.323910993756376 5.541588639775651
Au 2.0132932696773627 7.377123562361859 9.350337999103228
Au 5.9535834302095365 4.123261847437644 10.094639456859825
Au 2.916262640415505 5.276315782970442 7.660533963736128
Au 4.744921434637235 7.368453293537547 9.014136994094537
Au 4.041008700069013 3.235711074726889 6.271099979266964
Au 2.57983896809689 7.734219932283274 6.554961701436897
Au 3.7494571936731242 2.9378298754986205 8.959290900301884
Au 3.4509531134858387 5.320522222693257 10.371278810626357
