44
Energy = -116.45952688 eV
Au 10.381652266135848 8.234106460842556 9.696514827086542
Au 8.113743654030715 9.570552308789344 10.436924211418733
Au 3.185687876002622 7.264748489283024 10.379817204976776
Au 5.732466782307037 8.301992366457085 10.50988954497115
Au 3.226853677278249 4.755404029591179 9.169065950386644
Au 8.09980264244069 6.717687651268102 10.335873330147036
Au 10.104224399268519 5.6862681608855645 8.640822180549296
Au 5.601916969066941 5.579851697127556 10.21622846964515
Au 7.850915401225854 4.191839385537392 9.111995954005454
Au 5.342128206526675 3.1126869734092892 8.963812642541715
Au 9.410974529867637 3.62630569991281 6.844423375522201
Au 6.796973567799689 2.5887775664008497 6.7331739774849515
Au 3.694579976499605 9.754213355569936 9.340859142027064
Au 1.1041616378597792 6.421808208607793 8.627373681365833
Au 10.741279053483272 8.042967554140523 6.96880925629223
Au 6.249021492610157 10.50990438327287 8.673486383856515
Au 8.947385775046241 9.946359972452365 7.769827774200547
Au 1.3461160254816495 3.7036180127104936 7.508301104156445
Au 4.47873750213031 7.292916713545122 7.81655386468118
Au 7.202139903573755 7.772615537367521 7.839956504016065
Au 3.956608284295702 3.4590082316182755 6.502632271725481
Au 8.859762872579363 6.3331255557227335 5.984130048285701
Au 6.134175035779607 5.291217900471877 7.026584445491853
Au 6.9884152781127264 10.927517871255999 6.045870604509961
Au 2.4347099305622955 5.8648330711554175 6.265982516086098
Au 8.598493401076722 2.086095165999895 4.683344328639541
Au 11.521054654261365 5.435224734865665 6.239120811399387
Au 2.1090100339022038 8.612939518238493 7.274741735191581
Au 5.3572660738831805 2.6591621736722155 4.265917911119233
Au 7.268051341373334 4.637840009418596 4.468851430499992
Au 4.312481687681504 10.256905052289502 6.676532424724519
Au 8.87804637607975 9.072578077271643 5.0980617209564025
Au 7.220161326545476 2.283025323955257 2.2998308683212123
Au 5.347847614241099 9.880394610962488 4.148625105195889
Au 4.308591423517564 5.287809264327707 4.347919023966627
Au 6.416167803689887 7.397847033719664 5.159283313742107
Au 3.622924146704371 7.960069779769606 5.003148464061495
Au 10.060522936036847 4.414549512961059 4.0916444214937995
Au 5.844861052345101 4.745370333585565 2.0679804575127774
Au 8.933881332288758 6.819234555386288 3.222982587204281
Au 8.653053132633891 4.541190225031062 1.649163310704692
Au 7.5399346051109895 9.081435038889115 2.6920917788246506
Au 5.129051185968396 7.412350454192304 2.668801372397719
Au 7.24549156827557 6.890596693287761 0.9746019738401892
