52
Energy = -140.38852754 eV
Au 7.39553774922011 5.414237355584627 1.0945751792261604
Au 9.788413533769722 5.695997747717061 2.552358962610297
Au 8.398899603120638 7.949376556534104 1.4924232739775511
Au 7.206043138834342 3.304568391269638 2.809891054488715
Au 11.801945162419626 6.314866015335172 4.349252420560737
Au 11.421411027092411 8.660251326204675 5.922900038862281
Au 5.706521657103613 7.636947272331067 1.9671868174012066
Au 10.02637279443113 8.453814364308904 3.58164297505185
Au 4.898945036841396 4.955759526942212 2.2529716675360127
Au 11.368633459381778 4.298484777884811 6.137647947877825
Au 7.358539672170117 6.207342000478119 3.817062925354765
Au 9.399040695778814 3.579558279072087 4.387544991164782
Au 11.422440247769826 6.618868651197356 7.734434024803625
Au 6.956330096606648 2.4747735235477406 5.453894048145619
Au 4.705807853079797 2.780664603164707 3.869726057434633
Au 7.31278209237083 9.395144596352823 3.594889087301054
Au 8.940969515007982 9.822656283852213 5.863636855231005
Au 9.40528938715259 6.47442539860282 5.717172547792575
Au 9.111757982966603 3.0509096506763025 7.136936606034159
Au 4.623405873607265 9.031549508966803 4.16702176263947
Au 10.18314958805699 9.051274842951702 8.372030423156035
Au 4.411332228314494 3.6255381700356106 6.4838085146239
Au 3.123631550979408 7.004047341902031 2.7593130478421197
Au 4.8582647104080765 6.21597917717632 5.0182561594096295
Au 11.049976453988414 4.125096545159529 8.856769832159843
Au 2.7149580071720325 4.6604140471670075 4.376728275663703
Au 6.857060819732646 7.840710760204783 6.151131129019759
Au 7.086796141741506 5.067979144467392 6.3834091547121075
Au 8.33164281143998 6.763670603395049 8.310077566770092
Au 2.2596413695677895 7.752397521386128 5.2157313640047125
Au 7.881278456655158 10.626150869634973 8.313368707923024
Au 6.475808065273031 2.9514380099809543 8.210505364915651
Au 8.519306949013524 4.027361188706414 9.77714135769517
Au 6.223404383541647 10.573490137367124 5.954395828101556
Au 10.202175526235095 6.3981304196191395 10.2678132302949
Au 3.6233228413709804 4.111186001891935 9.212216268166905
Au 8.614723468460804 8.714577810287336 10.573452530088515
Au 4.193498453486354 7.790254441102946 7.272471229678584
Au 2.432010242804125 5.455675188723758 7.054814287663138
Au 3.376511574310254 10.279820210016549 6.290678919983056
Au 5.646023085650518 5.839618819513157 8.69246401996643
Au 6.198591399311426 8.469089961847773 9.012218342678885
Au 7.653334893738421 6.067268242081306 11.397038809416937
Au 5.9648366263882595 3.8890248660273747 10.761680974096343
Au 5.0982428472826165 11.091565871401006 8.404329471464816
Au 1.171658834352371 7.831352381266557 7.722585541427208
Au 6.476598485515507 10.618454288336853 10.760055239090612
Au 2.770872774938779 9.725197565558656 8.92088600075306
Au 2.879866839377249 6.823501459005845 9.680526307232043
Au 6.517963326071531 8.347858259377086 12.363308840055687
Au 4.845264940752204 6.243184560451633 11.52507441973663
Au 4.17430176009758 8.92125710817408 11.067722742046225
