51
Energy = -136.70291242 eV
Au 11.851533731209917 4.6204096938161054 5.474915363751267
Au 11.477937122644752 7.3448831603143745 5.129269431004356
Au 11.333560855671369 6.195825125852977 7.69946007292249
Au 10.743197928092712 3.425337834950569 7.670901145439817
Au 9.669649133970351 2.17045451110769 9.805697513266662
Au 10.19937782537442 4.894744669511502 10.109849015555788
Au 10.372595589335445 8.87175319801222 7.158832545073629
Au 10.189227134334628 4.958535743856883 3.2353545324926345
Au 10.48103075227001 7.5939375723219635 2.5646629713861793
Au 9.672417528683779 2.9595916225761094 5.1491274801990325
Au 7.63440756402558 3.9186514341072853 3.414141515162211
Au 9.11106425991352 5.899815951475317 5.66441348151474
Au 9.856172016038533 7.549316158571326 9.56507247052359
Au 7.986953533656743 2.4008373062673254 7.57205759265373
Au 7.351320887678611 1.6081975357130605 4.902426783348223
Au 8.282100128079104 5.1940048011401645 8.17254921510233
Au 7.4001532823377785 3.5605538264079497 10.333069078977752
Au 8.653916501851338 9.950065922804535 9.160971904463445
Au 7.942111378027942 6.550178206064068 2.5046236076465456
Au 5.339603856147491 5.484964975237871 2.9908849165187896
Au 8.114866054190745 10.650257117587312 6.49866637488766
Au 7.7092987991797255 6.35206177811785 10.735339958903024
Au 9.340910243768088 9.068054301870465 4.559577268915556
Au 6.655580384196972 4.499285792914551 6.085921471266696
Au 7.763018265922266 7.921591117070651 7.393280710807007
Au 6.737691455587546 7.2148330206548925 4.9501476347371325
Au 5.004633996921217 3.043593907273598 4.259819567365546
Au 5.189707203029854 5.266273006845988 10.782865042046296
Au 5.324848551296696 1.729752939378934 6.6903546047841695
Au 4.263612438042936 6.2161813640396755 5.7957218517794615
Au 6.3441457037143385 11.252496300654999 8.646265335911599
Au 5.161995867843529 3.470637675303056 8.700914074237879
Au 6.792249046541864 9.97937295519935 4.175135807225858
Au 5.6620990817320855 8.168953054848794 2.476758201567566
Au 6.314845868916985 8.72567939248187 10.029288678191126
Au 3.2964577740505825 3.592173362484038 6.560569389274214
Au 5.666230575390485 6.370555532233132 8.218302018049448
Au 3.1316519289119467 7.325272081078448 3.093174138335021
Au 2.813184281364273 4.627480111506698 3.9366298309752503
Au 5.073347265362199 8.695090608404463 6.743927915844809
Au 3.8330246930257466 7.545710940081515 10.221621107556665
Au 3.9436733400753288 12.517759019171029 8.06564629529198
Au 5.417512085523606 11.455171822732238 5.983151412451877
Au 3.057428312151386 5.380411953436453 8.70550951284372
Au 4.008891661277283 9.745276843670583 4.157254111873636
Au 1.740733462703152 8.438060884738048 5.252374446784375
Au 1.5406969815864748 5.799908240219148 6.453695190584066
Au 3.8980481205973616 10.02325864348472 9.20926687560934
Au 2.3030631197468834 8.046669509135246 7.960270641349257
Au 0.6773786661998253 6.305635523921444 3.8996939805569335
Au 2.7902995172746525 10.504273112745091 6.599865561829903
