9
Energy = -18.85964616 eV
Au 5.070041182577718 5.404212887168227 4.146424816476228
Au 4.825422353858447 5.14684396160281 6.958841741160478
Au 7.101387584952712 4.33220072040178 5.646258316478891
Au 7.294743085234708 5.618535794012963 8.072023409695724
Au 3.959606851789729 7.541632794352885 5.706933814601829
Au 5.3955873306129725 7.611271529757045 8.044709150758967
Au 6.668741010255274 7.28277025658218 5.356137480166192
Au 7.997378590597623 8.310513078732622 7.527013672384104
Au 9.109073516940814 6.1740005064539725 5.963639105097708
