12
Energy = -61.49804247 eV
B 4.6414762127843305 2.507137602694618 4.533197282307608
B 3.9687222097655157 6.771734581044231 5.741250454099265
B 4.87058806443932 1.427358874117753 3.4339194831847593
B 4.3902348009048495 6.645250192588566 7.326756421117678
B 5.089482811546202 7.966904885185239 5.551703990391834
B 4.8073131135281 5.498256790602253 5.165853031323702
B 5.343186975205019 2.009721375638403 2.0870999064281097
B 4.854253674682865 4.109876318338144 4.367399482951676
B 6.3723885721758045 7.85338510591889 6.461271265153284
B 5.840338841999755 6.293695068910846 6.136954766923338
B 5.889157696489444 6.9588032331018015 7.686720722124909
B 5.184594663130108 3.2479503450485603 3.0125858140168056
