12
Energy = -62.05295411 eV
B 5.893137427399566 7.3211184966782845 6.198855922621456
B 4.906920268360101 7.38132089491317 4.943241048798681
B 7.694882529569393 3.894806812625104 6.16038837584249
B 6.16750597749171 5.404327582360979 6.882122655206476
B 4.537242527743947 6.314651013179441 3.9116566753025253
B 5.464124554087267 5.83182975415508 5.253823490235539
B 6.510366291174061 4.555705106608346 5.454002332904025
B 6.926130089874267 8.459720352184299 6.935844023107995
B 5.88887204017733 6.317847194089332 8.147235071286627
B 7.959174809830779 5.3866310055957545 6.505676420033439
B 7.387957699780377 6.795778276854083 7.111489587400447
B 6.373273965583359 7.808949124060939 8.227721823205655
