13
Energy = -70.40619198 eV
B 3.7920574544260113 3.003507250309991 2.344962591899589
B 5.6447420247920705 1.2050470688012083 3.1645450417820475
B 4.692677294154118 1.734974476077347 2.048899758896076
B 5.819633243430945 2.756144981636979 3.364931221068586
B 4.048411410129508 4.820982382550131 4.740473031772042
B 2.147476650330405 5.552744099763831 3.212903953085406
B 4.940254033005224 4.077255145387563 3.6301185880269182
B 3.2404850785736437 4.464294752891917 2.756172665055012
B 2.9560145460383205 5.791433626864934 5.379611551441048
B 4.171842318025234 1.9055830875542557 3.7055633260108936
B 3.2453011012406083 3.112503622365514 4.169992313350523
B 1.6143896194613692 5.953230581302158 4.624385794600402
B 2.30775152870673 4.386279498026874 4.544687055345482
