14
Energy = -77.34891853 eV
B 4.535409201528763 4.211407283010771 6.713135710671324
B 7.154745765947137 5.6212531824801655 6.734374531415965
B 5.23714711143933 3.6581628294226554 5.277229631367322
B 6.448498271415987 4.451496531414404 4.6455903841059705
B 6.201367989744029 4.315283100022774 6.538116273270695
B 3.778507281463586 4.4724939527000975 5.2068424345306905
B 3.3288488220264094 5.2911967385836 6.59758204345337
B 4.918330226823403 4.758831604242522 3.9946298428790747
B 4.538823393158214 6.593643774587837 4.368529209698656
B 7.146189029734729 5.939294440031012 5.035854262181702
B 6.8780459453877745 7.068770043163347 6.241067420785278
B 3.277571056177358 6.124675820183333 5.287294172959289
B 6.004170002417975 5.891385164011023 3.81347205195567
B 6.0187179916295355 7.208932547009624 4.873906440272
