15
Energy = -80.1111467 eV
B 7.842166055773072 10.235874294146642 4.984586011760813
B 7.193881760898506 8.810642343985691 5.378797130756143
B 6.531197129693508 7.465234277288391 5.896157586975368
B 8.83266601740136 11.060989344245321 5.906320587243681
B 5.940396445772014 5.99625977899455 6.230671909577258
B 9.05863209417669 10.664435452817875 7.4014333693619125
B 5.456956724365297 4.531296723334763 6.576858077308365
B 5.635867509812188 1.3920926446319974 9.974355454607597
B 8.17278657802615 9.501422027061015 8.017949757253037
B 5.744617153894063 2.5648724754453673 8.959397319080407
B 5.8103878279517565 3.7199623788884444 7.866003265758162
B 8.485544353170656 9.46375451794688 6.349834117058871
B 6.509754146956972 5.247442773064325 7.673600758662644
B 7.426677694964449 8.317947534756298 7.1192457778664915
B 7.039513996724465 6.708818922973301 7.345834366309895
