16
Energy = -88.30007847 eV
B 8.312978772276452 5.267606151144116 3.473330311994197
B 7.021830401037357 4.475982731387201 3.1370905984253215
B 8.367905586809014 6.484561710033947 4.415825105362999
B 7.211560362136329 5.052573985990043 4.988207851123187
B 6.6826346635552065 6.168463128373214 3.683449785191578
B 7.164429051887216 7.1933278017334645 5.095679266866277
B 5.662517847352433 4.7140614956591405 3.8426202757625294
B 5.800631700365891 4.895707908152207 5.747660356298945
B 5.68777891071676 6.676685053244878 5.078712179123213
B 4.379446172025353 4.381439170900813 6.533267344981203
B 4.3897914244578216 6.165884128023187 6.000659656819334
B 4.266633104828491 4.477879808713144 4.701547648545151
B 2.934972996781482 4.695418559060459 5.454164468279017
B 4.415682514885177 5.09251487883237 7.98630179574311
B 3.812185547149591 6.473164937113991 7.586715698999322
B 2.8471813769639263 5.52134384779471 6.7615695528793225
