17
Energy = -93.19677587 eV
B 4.862600720577495 2.2840465713356606 7.206731734677363
B 5.985629223949851 1.3945826318473047 6.337148697170667
B 7.265878597827947 0.7082273823770089 5.785974160469189
B 6.6068432758727225 1.9899843507234056 4.848020936656847
B 7.052910090584273 2.6702056871929116 3.4377610685860662
B 6.410922696128299 3.949877232908523 2.8208362856103877
B 5.664224530947716 3.225574334195469 4.1119492980269925
B 5.238746059459379 4.784630476277583 3.46051469711648
B 4.21013154951875 5.659710080823007 4.331863380594824
B 3.136124994470899 6.390498827985968 5.2368599917774725
B 2.2907944895676273 7.355925237088408 6.27849560485697
B 2.6210827189016745 5.948053153069476 6.87934058726847
B 3.7608475108493336 3.12828598106792 7.990256124545511
B 3.2173456076356532 4.537547863721816 7.520494230092769
B 4.562133754475753 3.872568056511185 6.728090912877909
B 5.324118450271585 2.801779102146387 5.679130815511228
B 3.9782622237740513 5.283146224220724 6.114809224309303
