18
Energy = -101.41490367 eV
B 7.639523699938653 5.393764729737684 6.329617877445624
B 7.470726359087223 7.331699829132614 6.330950290604024
B 7.172140746019622 5.151458465499832 8.020105379670413
B 7.121852788038637 6.0683939941221325 4.922916937506505
B 5.8967204448585315 6.5642098779013365 3.9722349876816976
B 6.242104852256922 4.595743109463366 5.561841724242264
B 6.304221005896049 7.65194227928774 5.343088381237095
B 5.008895856058618 3.4985104572443055 5.013569743549576
B 7.71928346247578 6.538823729222297 7.672830020078794
B 6.141151310487551 4.0247763263363865 7.551764886922226
B 4.778613017358567 4.912672871520885 4.411986505146099
B 6.0203273832652595 6.19248408066345 6.595772584698655
B 4.716621870979702 4.937449559156306 6.427704304930427
B 4.884475247437762 7.826659398381611 4.516840197466936
B 5.411416627443839 3.1933860877439355 6.471657762888965
B 4.238391347083394 6.379252643375057 3.9182605663314116
B 3.4479450508589355 7.356780579550915 4.970127244027732
B 3.7049811850485095 6.036374505998106 5.781423008173963
