18
Energy = -102.05708664 eV
B 5.940080041566829 3.329888932573973 5.210278481707579
B 5.206165474597326 3.3705201439927603 3.7918397691793166
B 3.880002525665862 6.373008906729595 6.248396407803741
B 6.4520230619301335 4.975102037816483 4.43905801140524
B 5.3077011633683995 5.662106289922672 7.188586662634702
B 3.5068675838247736 3.9896178889586644 3.856848922751802
B 7.109623247373829 5.678883968235199 6.772694715908701
B 7.0119872870285525 4.359606913253857 5.865512532891747
B 3.637484537820439 5.190433059811815 5.1744718504560385
B 4.966831510911449 4.269397012714821 6.360305521503871
B 4.079078063512369 3.509871257592465 5.288460918672405
B 6.3806398167476415 6.974092189375448 7.227775831385969
B 5.372336774930851 6.424945229468089 4.151592738455315
B 5.627236539570387 6.974487521517253 5.6334805336609675
B 5.689591711282601 5.219066418288683 3.0065268671784486
B 4.528180165655364 4.186547057851343 2.5724731599465835
B 4.798721559622487 7.267160904003036 7.128644890275085
B 4.10728352208998 5.5333675910323015 3.507180374783258
