20
Energy = -114.10088939 eV
B 6.933196820494327 6.608593006116437 4.38054715582736
B 4.103096905452591 5.722754638836492 4.924869457730024
B 3.950066274686225 7.47707936371199 4.333801281446597
B 4.783961939005113 4.112484560793974 5.6869673159362355
B 5.332696676570869 6.732059016517818 4.155791738942903
B 6.366579047403247 3.9972471292942418 5.94167466749958
B 2.5872135558174945 7.088000771675175 4.99966038054936
B 7.573150148990309 5.164397872922141 5.517794086088114
B 3.346745706789573 4.5377608006664385 6.087182978421176
B 8.364413126964093 6.706176012715708 4.962011209283861
B 5.373878373389867 7.115699780101606 6.320994694213707
B 2.4313231806282007 5.799338620806985 5.818380774741768
B 9.027476003171602 4.631616162305513 6.861706347598765
B 6.981803305217895 6.912761893228237 6.176215164136097
B 9.262307842516579 5.883131133664601 6.001668748309137
B 6.295580920836731 5.593672788762882 7.1668603507530255
B 4.692073574802383 5.549470465665564 6.777557484967063
B 3.790301805181954 7.071113447700183 6.2329289824967455
B 7.543637887826022 4.076833494892936 7.038952119371593
B 7.897026584120319 5.856338719485944 7.2509647415523055
