21
Energy = -121.49678602 eV
B 5.067778364453067 3.958677576903043 3.3500693212434114
B 5.98081952128256 3.40755104081565 4.464708193317065
B 4.443922663400212 5.320086177162083 3.125650302232144
B 6.714399239837598 4.09558951810385 5.659690487868931
B 5.66346695990712 5.13707215525955 4.53476676489167
B 4.334609755653728 6.763084765948012 3.7138566605842755
B 5.4445302430580105 6.8578466054290965 5.14127853259786
B 7.565308175768903 4.722309345816856 6.876945353897155
B 6.451016638559096 5.752407330889058 5.927663858974678
B 4.422328430965007 8.080584267688769 4.545923356028706
B 8.232625889300497 5.2319146886277546 8.261195669069222
B 7.506660523937155 6.407314074101499 7.196364418542911
B 6.275685382919514 7.347509132358933 6.511914393484643
B 5.21753081901202 8.578306230702008 5.782575770136632
B 8.100114046593461 6.925049434860261 8.662334802361823
B 6.0411234109175345 9.004024065427172 7.137147155082478
B 8.767383191304457 5.843871894097867 9.682963268521949
B 7.271189033473141 7.964519581040664 7.65875035964571
B 6.710205584508437 9.296734193428398 8.546808054171844
B 8.545879310743027 7.306935780684022 10.196108875770298
B 7.720326895841622 8.475516222091194 9.500188483012757
