22
Energy = -127.50393629 eV
B 8.196117096445443 9.773457181163959 5.184146787211853
B 6.976277766274193 10.619210504617392 5.546536678565442
B 8.588522837991107 8.322323674192496 5.649014474475251
B 7.011681737600095 9.016215446277656 6.362870909409887
B 5.724839031106895 10.234681812456042 6.342595460164396
B 7.980692837619192 7.688851684483224 7.002943912558003
B 6.357460843972306 7.67384598374799 7.357018429502517
B 8.616239835294449 6.62967839594103 5.745915534638484
B 5.210274737227668 8.911098246643553 7.034778368868236
B 7.76052822581789 5.080350134646554 5.92793027923869
B 7.290582085794984 6.204142115452792 7.1402614241765905
B 9.044369172176557 5.304748445864368 4.941173312378538
B 6.580195862514423 4.734709996321114 7.053058850100583
B 5.658111828798642 6.114978865325927 7.523076022042961
B 4.696187298101775 7.50653636734203 7.648911056500521
B 8.329835888748807 3.9206941351560824 4.916800964147253
B 4.934387514154072 4.6540332601063 7.311674644760311
B 3.9272144189648546 6.048731609711178 7.65742353722536
B 7.060460825375579 3.450287795438071 5.795593366487287
B 3.29675083716474 4.594944720162455 7.3508369854065725
B 5.664410751926529 3.212407887391577 6.595274693895615
B 4.092340329605076 3.3015535002339145 6.909646070921638
