23
Energy = -133.3972097 eV
B 8.547356229842883 9.466839829998257 5.075555514431449
B 8.338926716969285 9.91052255223629 6.570520062601386
B 7.8289973283202166 8.183366011699508 4.400253265940281
B 7.290295421018847 8.819058359064352 5.918042986278633
B 7.320044483609305 6.670934430409091 4.184857521159152
B 7.324707023625526 9.183225110565983 7.602222416830021
B 6.308210811323024 7.669754553733387 5.151574247505572
B 6.968066676251555 5.075832314124016 4.208186982036399
B 6.055179059332285 8.256391577504226 6.893180652705752
B 5.892847203480664 6.030509870233429 5.116468720519972
B 6.718567355863799 7.947276432832915 8.499199008629859
B 7.89931564020859 4.483433446332219 7.222799946584855
B 5.632141724663191 6.856764314577924 7.71072834448734
B 7.067052341980114 4.349483734466824 5.896627376443701
B 5.003899235735132 7.0774421058770365 6.158054580652229
B 7.228344960089319 5.320442478087294 8.34580165949897
B 5.7290685234866 4.311380736460906 4.733167986928157
B 6.358741012348369 6.513795752860236 9.173323939975761
B 6.3023565382455695 4.142120365632577 7.4532754220973905
B 4.57921500016495 5.691861568921695 6.831425138995328
B 5.129242676825373 3.957964293571306 6.178572036498974
B 5.398891746257221 5.331302244899217 8.542249283528772
B 4.572357512446899 4.244123138000417 7.62773812775875
