23
Energy = -133.25794468 eV
B 5.368576569878292 7.394703676175639 4.889556415366064
B 5.168623307124337 5.822256423524019 5.280516667650336
B 6.435510138983357 4.812567061805965 5.654339580559718
B 5.714244960624259 8.923443247002284 5.056821697988121
B 7.068025415646509 7.867318887647943 4.697396621178205
B 6.712037060352963 6.256144653056592 4.76119321785588
B 7.407614329772564 5.273451690134729 7.306511476714603
B 7.779490223598444 3.9274134248373276 6.232970707789788
B 7.1715545437921335 9.473348394311058 5.46189225726714
B 8.026402871197556 9.020761135536972 6.823934088859436
B 4.95057266880038 6.509470524979955 8.318775224929299
B 6.2849077522678884 8.75316251556187 6.711474746508503
B 7.248861528336088 8.275411519839139 8.030322160695318
B 4.290837556251247 5.027761410074964 8.270389628009992
B 8.534316462992226 8.194787126369086 5.537055765576472
B 6.757804464669599 6.594010483683983 8.089816670378681
B 5.682486774625045 7.93352862973199 8.059613056673445
B 5.999409903965906 5.106336023829009 8.236981724529322
B 8.33386851179607 6.7810499177720525 4.859467208051835
B 8.147198999533614 5.30253432087632 5.589992260207816
B 5.01370511214217 3.6996062881996914 7.897691979964555
B 4.962204248906659 4.862385244142629 6.598443628995273
B 6.437198144237293 3.6839989504007202 7.130294763744528
