25
Energy = -142.16627411 eV
B 4.446391217966914 3.1604294234891617 2.6849334217856273
B 5.669329761173675 3.9328046467537825 1.8301024668294485
B 5.996339916390426 2.4437448146600698 2.5579936796206266
B 1.7351238276218703 4.901000855258555 3.4902834727700047
B 7.191065508943835 3.2521211000987664 1.8043587810777306
B 4.718314455724794 5.0829349585030235 2.6250736323248374
B 3.1552493105867008 5.810178215557979 3.6618775249745235
B 1.74338189097843 6.170638654606791 4.592277291869129
B 3.077980744943682 4.070101817668881 3.122082793692003
B 7.814221178922858 3.7749964310019046 3.100485024375403
B 5.085987212818851 2.106227970749715 3.9397908856571764
B 4.675716116894472 6.415720680093739 3.565366882828254
B 3.5396954678276575 2.682939152026885 4.0233223084881
B 5.889843381826036 5.441695019557696 4.02749280001292
B 2.1406099171096624 3.46444383029562 4.426704779512849
B 6.9297407865633405 4.1518772592462305 4.314999225185286
B 4.735724794851374 5.9524362918643074 5.127309979184046
B 1.0249475440303497 4.6575870204839775 5.013474109855638
B 5.312872990777747 2.681549783620644 5.43780387783075
B 4.045017117402607 5.224036349489184 6.3972704521247366
B 1.5783495534910585 3.7112033374057614 6.121958934745363
B 2.407018024843448 5.296645767291668 5.8900404894126375
B 5.709127995448573 4.385404393916325 5.362512994097198
B 4.711097246665344 3.6715827684565263 6.5226184580664235
B 3.0512942621823984 3.9421396838890477 6.7443059596655575
