26
Energy = -188.18127772
B 6.79179399901848 11.411719280422572 10.451317486289382
B 7.430453040878872 9.864428690473058 10.49607791691016
B 9.005862579958366 13.735728478950689 10.17988295142091
B 6.4136743615293215 8.693601804370646 10.028938525146588
B 7.866184721953954 12.64608642619626 10.413221277170495
B 10.520706098021792 13.515156050348647 10.246696486364229
B 7.921672446908628 8.18135114419557 10.240566828045894
B 8.400407603684892 11.067410056363288 11.052867490583104
B 9.017104558350907 9.457993971340498 10.755654170517564
B 9.533213072742763 12.236413419720042 10.545787008521685
B 12.190880342010558 13.220562634243 10.289901178074095
B 9.527233240841767 7.899818335318752 10.430214238477575
B 11.086447512388428 11.995092899538086 10.747446995762383
B 10.538523623576674 9.170542608750893 10.63344352327031
B 13.717616381906605 12.819793142783084 10.154010348101314
B 11.11100267848584 7.545121067256472 10.380972403628755
B 12.68569400569876 11.621652133212052 10.481435462409038
B 12.153727585902981 8.908892992530456 10.451317486289382
B 13.30505218629474 10.129065913280797 10.972421657228935
B 13.82113501728251 8.503311741427297 10.328462969835384
B 11.680375039529192 10.43788039424656 11.088051981478873
B 14.685865733948544 9.82753913713994 10.148263175184635
B 12.68865513257957 7.357213560839523 10.346518828740198
B 14.341612951728456 11.332168459406834 10.249485736738924
B 5.877405994235671 10.170386442557348 10.164707619662497
B 10.05298671381673 10.72921619481287 11.2569134145979
