27
Energy = -157.97820061 eV
B 4.028197095747694 7.285415186445595 5.024067601539096
B 4.027179669691161 6.181366526389219 3.9231863292338747
B 4.5168193934021845 5.253408092616961 5.434971383287881
B 4.197772313341163 7.978378379066519 6.451171463594331
B 4.753587532589711 8.829720460310334 7.702846905372816
B 6.118517663091715 5.129229544859895 4.585455255218669
B 5.674335855485829 6.776710182623284 5.283970202863763
B 4.5160381077171605 4.677648318728279 3.7739782495980614
B 5.279130800274077 3.6409990668796497 4.630521175727978
B 7.474052956340608 8.764904786226086 6.845511154858443
B 4.375558581291141 6.169522447275716 6.7452262568416606
B 8.110992007542386 3.441967855344628 6.066272808439441
B 5.238929191015426 8.170805964973422 9.108624303682832
B 6.389856958173591 8.839928522440545 8.056686489604452
B 6.723754784101811 3.407036151695004 5.338237185440276
B 7.231176123129158 6.339172664422707 4.708534383271269
B 7.2033353653313235 7.594292878741644 5.7596015176512285
B 4.559250859531716 7.181325441620711 7.964169630912227
B 7.7349284497197734 4.815041822531943 5.2610001351496125
B 8.94386620140723 4.717506528368409 6.523522353520787
B 9.47207588280677 6.132316233397086 7.143439174912859
B 8.42590456930913 6.287232798671408 5.858329052435818
B 6.746363843979943 7.957568939011892 9.63850376657139
B 8.587700686166027 7.54788878125282 6.954641568502152
B 8.169205468062703 7.299682495338971 9.754443064686225
B 9.030503550254265 6.816136736605309 8.557681175283488
B 7.948974926735911 8.242802030402514 8.38341624803896
