30
Energy = -177.412316137 eV
B 6.0513449999999995 0.6790169999999999 4.6515390000000005
B 4.5422899999999995 0.05519199999999946 4.641787
B 2.947909 0.15959899999999994 4.65662
B 1.4715709999999997 0.8432909999999997 4.639205
B 0.49118799999999985 2.111931 4.6602689999999996
B 7.177611000000001 1.8082639999999999 4.6458639999999995
B 7.74674 3.3412520000000003 4.646186999999999
B 7.6334990000000005 4.931995 4.651162
B 6.897120999999999 6.389774 4.6419950000000005
B 5.622489 7.352727000000001 4.656356000000001
B 4.057297999999999 7.798514 4.6393569999999995
B 2.486601 7.479145 4.660045
B 1.1080539999999999 6.629381 4.638122
B 0.295732 5.2390360000000005 4.661606
B 0.0022589999999997764 3.655128 4.638103
B 5.311913 0.31936899999999974 3.138469
B 3.7412159999999997 0.0 3.159157
B 2.176025 0.44578700000000004 3.142158
B 0.9013930000000001 1.4087399999999997 3.156519
B 0.1650149999999996 2.8665190000000003 3.147352
B 6.69046 1.1691329999999995 3.160392
B 7.502782 2.5594779999999995 3.136908
B 7.7962549999999995 4.143386 3.160411
B 7.307326 5.686583 3.138245
B 6.326943 6.955223 3.159309
B 4.850605 7.638915000000001 3.141894
B 3.256224 7.743322000000001 3.1567269999999996
B 1.7471689999999998 7.119497 3.146975
B 0.6209029999999995 5.9902500000000005 3.15265
B 0.051773999999999855 4.457262 3.152327
