31
Energy = -182.05677892 Dir = /p/work1/plile1/GA_structures/B/31/all_candidates/269/
B 8.492020632783953 6.044357820866071 3.224740266814167
B 7.814147656067557 4.605145563451972 3.3730726714147448
B 7.685585316916149 7.395352273628512 2.9417220117594365
B 6.273506722720335 7.9309600975689385 3.3472823467145165
B 7.386562281736292 6.304437657180404 5.807624789410952
B 6.384648142591449 7.452232070801798 4.942927477466064
B 8.407212017862674 3.813412471511997 5.059648838903569
B 8.53233459495547 5.461004376704257 4.9160427213678215
B 6.1401715830095265 7.0819941431939935 6.5886618647288016
B 4.8047678450398354 7.618034913748314 5.811674276067213
B 6.8022121269301 6.148077800082943 3.738374925056655
B 4.8060081100663785 7.982373622086988 4.073388832206968
B 6.826078461565099 4.594484079827547 5.530875510503297
B 4.771101081174774 6.416166686788067 7.1680114119428096
B 7.334859627058769 2.9005336286292365 5.864580864891615
B 3.4535886443323554 8.06145120924236 4.9503253917931405
B 6.235832485897969 3.884568385308623 7.010973695936593
B 6.977575814681339 3.3191944286691593 4.086869827262539
B 6.284398113128342 5.482784334049275 7.013712302661473
B 5.916871587292272 4.7001099151455294 3.951862074959182
B 5.875150431508881 2.342671557474032 6.41288264740379
B 3.221584620329358 5.861621152412862 7.288344770247819
B 3.067479157626974 6.9779407101168065 6.086717155670031
B 6.02486638911083 2.1681019017601115 4.709473886862049
B 3.6662289108616393 6.4529805166412935 4.4629936587000865
B 3.3853237654748565 4.2812940140602604 7.010647989618419
B 4.288487643903916 4.91888035994504 4.2559121101343464
B 4.512571294135972 3.1124473798818535 6.841047670216198
B 3.2792671278884846 5.207280462303396 5.584961432597807
B 3.673918741416763 3.6541928195865347 5.366745235625795
B 4.561784952632263 2.253603520484311 5.366940564330677
