34
Energy = -198.59188446 eV
B 7.927610134589031 5.343919247831878 1.522422336039889
B 6.895461757759591 6.248277555672257 2.42189927815988
B 5.466551396058069 6.672794376894075 3.087520771311833
B 4.877208830127338 5.034892593085635 2.9964382152230535
B 3.873933743389291 6.38674880926413 3.458432600735358
B 6.960779550164748 4.227654191306613 1.983600130055392
B 5.821957272659705 3.5871130110770064 2.8923917051720074
B 8.09813115592718 5.2481030756442 3.0970781534804335
B 7.220541339167732 6.006273664228921 4.227299880582923
B 4.902598514878017 7.379256019011471 4.606667110048326
B 3.7457888929015337 4.8614488245621335 4.2999480399384735
B 7.104515891346221 4.1492699964084 4.221216266306549
B 4.475943598360892 3.390172803979009 3.6674212951845337
B 2.4614812713393146 6.082565928469759 4.2290058593392
B 2.2101375276817343 4.516682204129577 5.021520578412305
B 6.465724967100694 6.897631063613496 5.349451234832846
B 5.270917020919084 7.5731013438386725 6.276247215339257
B 3.434179733787436 3.3519192301261826 5.031512249582825
B 2.420878760236945 7.045163545941653 5.829255635249696
B 7.271280420891431 3.493485731178316 5.752454310668832
B 1.4355886176431432 5.839843798746362 5.4966167329568645
B 3.7833901204918754 7.8732626622162964 5.853924801203737
B 6.317574639651902 5.081011063438839 5.470934889217703
B 4.585803913113159 4.767512302000507 5.841670912879008
B 4.280801556027829 3.2028297881638945 6.511786444360092
B 5.850312540780742 2.934595515625236 6.886755357285328
B 2.467856751969591 5.459865244301597 6.719624813396294
B 7.482857193189841 3.1513890524915014 7.289555591853844
B 6.783663409265158 4.707920520671645 7.212564213829416
B 4.112116441160131 6.257775557659562 6.778662372792043
B 5.895324494539886 6.0399181410887 6.760979763854413
B 3.6617647706969563 4.715414651251132 7.493785578964077
B 4.87314843263023 3.7981777259458056 8.149728680819416
B 6.421293814404031 3.5311292349863117 8.418745455775086
