35
Energy = -208.329055 eV
B 1.775522000000001 5.010517 6.350377
B 1.8114040000000005 4.381646 7.95031
B 3.223767 4.286631 8.82537
B 4.636038 4.886516 8.008595
B 4.642258 5.476458 6.381144
B 3.1979930000000008 5.530144 5.545121
B 6.097544 5.449586 5.551801
B 6.059302000000001 4.326840000000001 8.794067
B 0.34077300000000077 4.461792 5.553813000000001
B 6.075146 5.074499 7.201715999999999
B 0.49343400000000087 4.2028550000000005 7.072214
B 4.6376 4.067311 9.452284
B 7.502392000000001 4.370339 7.991092
B 7.513129 4.926 6.367701
B 8.940402 4.423248 5.555065
B 6.097544 5.449586 3.9004830000000004
B 4.642258 5.476458 3.0711400000000006
B 6.075146 5.074499 2.2505680000000003
B 7.513129 4.926 3.0845830000000003
B 8.940402 4.423248 3.897219
B 8.794089 4.177443 2.3506540000000005
B 7.502392000000001 4.370339 1.461192000000001
B 6.059302000000001 4.326840000000001 0.6582170000000005
B 4.636038 4.886516 1.4436890000000004
B 4.6376 4.067311 0.0
B 1.8114040000000005 4.381646 1.5019740000000001
B 3.223767 4.286631 0.6269140000000005
B 1.775522000000001 5.010517 3.1019070000000006
B 0.49343400000000087 4.2028550000000005 2.3800700000000004
B 0.34077300000000077 4.461792 3.8984710000000002
B 3.2013670000000003 5.079744000000001 2.31157
B 3.2013670000000003 5.079744000000001 7.140714
B 7.530654000000001 5.151832 4.726142
B 3.1979930000000008 5.530144 3.907163
B 8.794089 4.177443 7.10163
