37
Energy = -217.15277588 eV
B 4.0995418964219095 7.15181202218423 5.205223325693461
B 5.42400681326202 6.352712893795224 5.780032671895858
B 3.8309193197829203 4.270339091869248 6.508490921000071
B 5.475755077915619 6.983079237953959 4.153161248867553
B 5.603950396524815 4.797232853414972 6.288155943322907
B 5.808814670228827 5.18324409273797 4.525035793846931
B 3.726291551600179 6.786947905814648 3.6316570969863933
B 3.6132259704900727 2.5685966012935997 6.56519122643304
B 2.5602129257737913 5.0697141103260455 5.798268103004391
B 2.3090536578082124 3.560921082094466 6.5364239924281575
B 2.5867237140347683 6.513170459487873 4.936390364536638
B 4.080918745397447 5.3457910192939275 4.964910326778431
B 6.150001213006475 3.3977144058767355 5.335429922856885
B 4.619093948385528 4.257621676041966 3.559465211698551
B 4.980109446074574 4.914962390990454 1.8235236266574104
B 5.176746170687961 3.2276366609527383 6.6807059930000685
B 4.896336112446573 2.0180224699801506 5.543553225870872
B 6.44442292216698 3.022079306431951 3.661852762242779
B 1.6745776613725374 5.30056036256528 4.239173636464535
B 6.286669556973571 6.139339193060924 3.05559120505153
B 1.5495377697037713 3.7881129950447643 5.085268993997311
B 1.2725769664305178 3.884129862767148 3.5022530386421096
B 3.267503518919018 1.6581492024044064 5.038394155856104
B 4.6637292637607315 3.5231301018221792 0.9139706758387823
B 5.602130754506866 1.6640908141818045 3.0732167910853554
B 4.119283009333542 2.6022836148600668 3.74191360107326
B 3.597497790942949 5.815587539321652 2.3074882521460713
B 2.2863441434536016 2.451361152489542 3.876336531927373
B 2.1340100126115655 4.900333788834581 2.5344033907976975
B 6.316462711228525 4.532270232592921 2.9496942817955047
B 3.318986002915938 4.383124746455392 1.5012312812019821
B 4.656873587353427 0.9326150423031532 4.361970220052384
B 1.9890307562299585 3.26003276478926 2.102579129930771
B 3.169214719366688 2.827279079621988 0.9352659535501721
B 4.145159723910208 0.8957678243401634 2.800268104539525
B 4.569502263048765 2.085166617048571 1.67019015718942
B 2.888150038086018 1.8110028724079226 2.2845726606928665
