37
Energy = -217.5429804 eV
B 2.0929610757354973 4.311537718280413 6.512019793884877
B 3.6834848546772943 4.069625739846585 6.3621132978447115
B 0.6924727579226024 4.044062442719308 5.687914998299784
B 1.7794261504109075 2.75710302769452 5.6608351830861645
B 2.601038784144248 1.3701299373867482 5.138188069122994
B 1.2635285000497551 5.556781999132666 5.6769840804416285
B 3.640122867549678 2.743597727743747 5.144859219729619
B 1.0289191809767497 1.5198695483597322 4.369371246441432
B 4.212689208979207 1.0715762659803694 4.535995609642598
B 2.8511655277308443 5.621886072097788 5.407396142017884
B 5.041671766566685 3.598800525038355 5.608646684111724
B 3.4064124245098046 2.4538822680264634 3.369471248278177
B 5.495408649923673 2.290556716563195 4.677610716765656
B 5.576693351946233 4.536057850313541 2.432048357100609
B 4.36868119621297 5.0708297127459625 5.134664542084286
B 1.6988633416480177 5.779899102430486 4.086611582509744
B 6.044298389216294 3.013386306080324 3.145099645614486
B 3.6834338526082053 0.6240154266581189 2.826491560500986
B 1.4628601737192766 5.389014880730893 2.4864331038119194
B 3.490938948835633 5.6498988564316415 3.8086497237824606
B 4.467727864936017 4.118365247878553 3.716436823820533
B 4.953558803025806 1.6685158696642095 3.032242483113807
B 0.39724310748754615 3.011149217375097 4.435462625766024
B 0.7083491638745565 4.069392884275335 3.1443984541811307
B 5.904328622321512 2.1378260570280077 1.626287420422838
B 4.203486722317108 5.396482738989749 2.3250139380606316
B 4.54877631905378 1.0030769300440496 1.4514663909127363
B 2.1925239332292024 1.0830937606300994 3.3187611914790813
B 6.679280771540091 3.610025729696915 1.697541967692561
B 4.094278223299436 4.452381830134527 0.8284263906806304
B 5.541490799531225 3.453525798538191 0.48230845282803486
B 1.566140107226959 2.621770977836693 3.052028167924377
B 5.118720074988141 1.7601936860601386 0.1857702784929729
B 3.908111030036166 2.7900644412463085 0.17778805421879681
B 2.61704191463398 3.6583441665755383 0.5526572113086183
B 2.69520560241818 5.119805025012819 1.369862789844024
B 1.5131311020518636 3.7979386800872312 1.7566077195145695
