37
Energy = -218.09833915 eV
B 2.4479294140338315 5.015003521133101 6.690890946381754
B 3.8544788186629826 6.00610619446838 2.6558949732248895
B 2.6218645425179714 5.676687161175447 3.72866049121335
B 4.104907607195155 4.535858640216715 3.97858168617573
B 3.8191813914652792 5.497230249900606 0.9692146480340249
B 2.3800028049372868 5.643129988716002 1.665232151817656
B 1.5675439796906845 2.4197235480664148 3.461324050344189
B 5.295290368807455 5.84868514191871 1.6270332375402763
B 4.784625204963366 1.2215875711099702 4.10644097117241
B 6.381713844294495 4.790218740628438 2.1918023451983353
B 5.795011644580327 3.0525474132052803 1.9051803556109548
B 3.119571238614662 4.0047194375562585 1.4435558593223172
B 4.001232065591233 2.817903641265705 4.585939093200494
B 7.118178626624904 3.532902511982743 2.9069469749718118
B 6.001414661761114 2.1796754811663233 3.293736179720987
B 0.6473460487583598 3.823098119367318 3.263811231866753
B 5.903172572371231 2.230216154604713 5.128499630733609
B 2.0034682602420664 5.804878795411273 5.349291630878288
B 3.542698010661572 3.940540725455223 6.905660972143819
B 4.942112145348557 3.0672012654701675 6.420393431089443
B 6.143021030687983 4.02640089320563 5.650365790528853
B 4.193821112833823 3.189238696174617 2.7377683402154647
B 4.680127358842801 1.4316087422972252 5.8197298423817045
B 3.277542347211383 1.7314891454266872 3.354926122111524
B 4.854618455753014 4.121603749211198 1.21537122194085
B 6.3414849152552755 4.652741139421755 4.094964252302291
B 3.3498711981569165 2.318764487821628 6.234419947208841
B 0.9958232751302862 5.221333690373169 4.207237738984762
B 1.1176809015222695 3.5338409310738115 4.83122346894004
B 5.282376385831553 5.497353043658646 5.0638758803619535
B 2.311023322746422 2.3583160426609178 4.915344233283228
B 2.625432458819519 2.6429083405201057 2.150551793578461
B 3.6794684802390187 5.386847008892299 5.489517459167013
B 7.081814119529756 3.1725809341610587 4.494373116602001
B 1.9884267626048038 3.373801959388625 6.269565399173924
B 5.3840242565826815 5.783870749117963 3.379807841617327
B 1.1281233387842136 5.2158091154301225 2.579289662613636
