37
Energy - -223.312563 eV
B 4.353301500000001 1.3934895000000012 4.8212435000000005
B 5.793699500000001 0.7424945000000011 4.0480195000000005
B 7.224459500000001 1.4918645000000006 4.330617500000001
B 7.260857500000001 2.8113885000000005 5.405577500000001
B 5.8219475 3.7567305000000006 5.737788500000001
B 4.3718135 2.9674775000000007 5.5619145
B 5.9470305 5.387120500000001 5.5705555
B 8.6169425 3.6904215000000002 5.4369505
B 2.9508265000000007 0.7625265000000004 4.077401500000001
B 8.8459355 5.210138500000001 4.9624745
B 4.3638855 0.15950250000000044 3.7270565000000007
B 2.9418745000000004 2.272187500000001 4.964964500000001
B 8.532021499999999 2.4383815000000006 4.3940945000000005
B 0.12109349999999959 5.3931595 3.424191500000001
B 7.4526675000000004 6.1723955 5.1262695
B 7.4494905000000005 7.6526135 4.3471495
B 4.5587495 6.2815925 5.432606500000001
B 3.0439985000000003 5.529741500000001 5.3965025
B 3.179094500000001 7.148931500000001 4.9869725
B 4.648594500000001 7.9089295 4.8505235
B 6.117186500000001 8.598525500000001 4.191301500000001
B 4.735355500000001 9.3097255 3.9862625000000005
B 3.2821455000000004 8.740217500000002 4.2539635
B 1.7880645000000008 8.019963500000001 4.3083295
B 1.6762895000000007 6.4254405000000006 4.8829625000000005
B 0.4471885000000005 7.2101025000000005 4.1288155
B 0.12109350000000063 4.0356705 4.3733535
B 0.2008235000000006 5.670613500000001 4.393830500000001
B 1.5270745000000003 3.1408355 4.839697500000001
B 0.23098850000000054 2.4891905000000007 4.070032500000001
B 1.4982055000000005 1.5640425000000004 4.222793500000001
B 1.5361145000000005 4.783286500000001 5.1225525
B 5.814206500000001 2.2262785000000007 5.011485500000001
B 6.082084500000001 7.0044675 5.1161785
B 2.9580795000000006 3.8899875000000006 5.392159500000001
B 8.6811715 6.643830500000001 3.9787205000000005
B 9.3186075 3.912155500000001 3.9601055000000005
