39
Energy = -247.23195856 eV
B 0.980204 5.034147000000001 2.124219
B 3.3650160000000007 4.742333 0.695151
B 0.4811250000000003 3.460163 1.5740170000000002
B 4.857310000000001 0.5030080000000002 4.286073
B 4.291309 1.9485970000000004 5.087095000000001
B 2.221801 5.717096000000001 4.669625000000001
B 0.3053820000000002 2.5242160000000005 3.0068900000000003
B 2.4395540000000002 1.6387250000000002 0.603947
B 0.984002 1.8191080000000002 1.6021410000000003
B 4.999881000000001 5.375729 3.0068900000000003
B 4.850449000000001 4.569445 1.620408
B 5.894965 1.8224140000000002 2.110262
B 5.625047 3.093715 4.817341000000001
B 0.4811250000000003 3.460163 4.439763
B 4.394602 3.557186 5.657381
B 5.625047 3.093715 1.196439
B 2.221801 5.717096000000001 1.3441550000000002
B -0.11881499999999977 4.132945 3.0068900000000003
B 3.675888 5.739356000000001 2.106574
B 0.980204 5.034147000000001 3.889561000000001
B 3.675888 5.739356000000001 3.9072060000000004
B 4.291309 1.9485970000000004 0.9266850000000002
B 4.394602 3.557186 0.35639900000000013
B 4.850449000000001 4.569445 4.393372000000001
B 3.3650160000000007 4.742333 5.3186290000000005
B 2.4395540000000002 1.6387250000000002 5.409833000000001
B 3.4505090000000003 0.47510500000000006 1.0291170000000003
B 1.7001730000000004 4.316871 0.6787770000000002
B 1.7001730000000004 4.316871 5.335003
B 1.2810240000000004 2.76697 0.2821920000000002
B 3.4505090000000003 0.47510500000000006 4.984663
B 1.2810240000000004 2.76697 5.731588
B 0.984002 1.8191080000000002 4.411639
B 4.857310000000001 0.5030080000000002 1.7277070000000003
B 2.221801 0.7031070000000001 2.120918
B 0.8221570000000001 0.9296530000000003 3.0068900000000003
B 5.830540000000001 0.4914590000000001 3.0068900000000003
B 2.221801 0.7031070000000001 3.8928620000000005
B 5.894965 1.8224140000000002 3.903518
