6
Energy = -19.36372365 eV
B 3.4150137538451384 8.079972006832453 5.725753617027244
B 1.9030134520842172 8.014964094609581 5.269474883862795
B 7.528067303528036 4.7004455242978125 6.136123945627771
B 8.138126748221586 5.069845345822718 7.53036793578201
B 7.33087103843461 4.2168506993546755 4.517472044722006
B 6.143796196925767 4.581129846883133 5.436226201842341
