9
Energy = -44.09896499 eV
B 2.6268564322432253 4.2213522736532525 5.083367115126954
B 3.956851593402272 2.968610523925046 5.085316096561984
B 2.4392953552879275 2.7127579625575233 5.314583768965927
B 4.102191754436894 4.712932718844069 4.879376021340008
B 5.41028165900004 3.6417509606814162 4.891244226184594
B 5.852482925235601 5.136056174845894 4.753159253760779
B 7.009641483182089 7.627333549769593 4.846207777126182
B 6.426537445458911 6.428781574900451 5.631158684768367
B 6.505117765525934 6.443904067899959 3.98499421363965
