9
Energy = -44.06682301 eV
B 4.260383755489803 5.808783819257093 6.595387846888845
B 4.485806385567542 5.704082074759123 4.881028226508204
B 4.1378593763385645 4.278842167754036 5.79487042808919
B 5.780135555626478 6.782718858896742 4.49473538019343
B 5.759645428852286 4.392795829020858 5.197747597124658
B 6.971533999525699 5.562145871403851 4.792820836178665
B 5.446603276674509 4.582237139994567 6.8872251755563125
B 5.886328669052749 6.034688622162308 6.052965370500179
B 5.66726575752863 5.249267821407076 3.6987813436165338
