11
Energy = -12.82373886 eV
Ba 9.281114043231337 4.066361419284768 6.153611952377754
Ba 5.703821916042725 5.723789889237786 5.787676875618049
Ba 5.53883184101903 2.053823038158548 4.433948343053371
Ba 5.275762579324784 9.442231912449582 4.541368405049569
Ba 2.711172000877677 5.882924666879624 3.26364773317259
Ba 2.1918652024616603 3.44232731380476 6.771410951869214
Ba 9.276001119904857 8.082751627930588 4.767238250577038
Ba 7.164886002385324 5.688214882718632 2.1120864169589115
Ba 2.9800227525152025 7.490150807357215 7.979447754810327
Ba 7.526807613683655 7.917382347147546 8.543383728535202
Ba 5.814176652594687 3.6745033517138035 9.110642013056584
