12
Energy = -14.18440366 eV
Ba 5.5567671157777845 5.437891538504562 5.158904238444803
Ba 7.029246799003238 3.4846319094855285 8.547724799631986
Ba 9.210477522161092 6.76835877027628 6.839822759764832
Ba 8.938208759472747 2.952822322076128 4.675906090064829
Ba 4.825432496915659 1.3453618042266102 5.341336927144971
Ba 5.356128098636548 7.506654615677041 8.774983383237995
Ba 2.2485154214625678 7.951990913283653 5.526846399766041
Ba 6.3875820994559325 9.55461493919027 4.898058541550199
Ba 2.5435905976741555 4.149264648323454 7.899330553510128
Ba 5.882668854432898 3.393292705448225 1.4843911219758943
Ba 4.219284163389539 7.463672980004247 1.6847422169452277
Ba 1.9993322802949773 4.188676383208387 3.3651864976677324
