27
Energy = -35.66165725 eV
Ba 5.21688053648436 10.547471104676372 10.261727992189522
Ba 6.448799316477844 10.408266843627741 6.0549551025501644
Ba 2.9402064896076627 9.36402756371485 7.396645462498232
Ba 6.981322166917446 7.927422848694019 0.08301467195403642
Ba 7.548418470232978 10.643596850152814 1.731190999923541
Ba 4.297914559842312 9.411413535382293 3.0625700541017205
Ba 2.608888084145231 7.279771578592982 19.95806696517123
Ba 4.149971159530534 7.6780407691598915 11.119399529173837
Ba 1.224040847636602 6.3889161903403675 4.004672842038492
Ba 2.333313154262881 4.855936662592327 8.252124767687587
Ba 7.640406706971292 8.557444841577281 8.675218691213104
Ba 1.7241642841536244 2.9855473649995434 0.5338559023892995
Ba 8.461249881189188 8.37376195696665 4.120463091331369
Ba 5.395887046526149 6.412822578571615 6.025602625660804
Ba 6.487578480630796 4.281241546122005 9.676508002667484
Ba 3.1855121732788128 3.431002560326658 11.119399529173839
Ba 2.4301089256921213 2.195713210045473 4.822229682533855
Ba 4.749655456422891 5.033455669009745 2.3493082423940184
Ba 5.683363320116688 4.005579378316219 18.891502650431626
Ba 8.70165616822248 4.298359233612215 2.2644470323461525
Ba 9.772392363277126 4.767827213812818 6.686370040715345
Ba 4.23232568445656 0.7835552955033983 8.939346092136658
Ba 6.963587549411299 1.1560810416519898 11.301309774650262
Ba 6.390275353975523 2.524510906301321 5.7078240195317305
Ba 8.774507591454295 0.746664824226692 8.668558936988099
Ba 5.718187438955914 0.9432535478031733 1.8717931758966422
Ba 9.816030137901318 0.6090763161969364 4.393332862406697
