20
Energy = -25.97042309 eV
Ba 12.699325168656284 5.2837114238008525 11.349375198944456
Ba 8.136011914971283 4.003678013187459 10.552863954462982
Ba 9.22896023625125 6.632170666479863 13.643827384809011
Ba 10.631088094586984 4.248152110269798 6.965949774997868
Ba 13.707079381960837 7.351912485625318 7.156349517492257
Ba 12.682659995079316 8.444325605530747 14.453272223470028
Ba 13.891520704546235 9.455878807878149 10.790116230406372
Ba 10.077225644504665 7.608529275272123 9.36328938925501
Ba 6.076524330645354 7.984114377060078 11.134783221587263
Ba 6.54784745613959 6.396113942296899 7.07391052665068
Ba 5.634521648606332 9.865762274925677 4.296507222789415
Ba 11.692058918477649 11.350782816796745 7.700007548508926
Ba 9.85612285336384 8.381697753762168 5.0495795399842205
Ba 7.488534055946014 10.562014388752377 8.00297242294248
Ba 9.757422130902768 10.83633045980528 12.0127606395811
Ba 3.37863400860146 9.622687892431625 8.082422054294966
Ba 8.818954234832301 12.889532652536154 4.75569747855355
Ba 8.724625727137937 14.409397462497445 9.041362048798684
Ba 4.939151426178783 13.596976255439369 6.816896425017098
Ba 5.360801951760579 12.399459762132263 11.087143913108228
