24
Energy = -32.13064309 eV
Ba 16.42110316452181 8.007744194421386 10.006508095388558
Ba 15.32025813696747 14.889308019706311 5.700160560062967
Ba 14.528818082471572 11.873798694231686 8.669151556371647
Ba 12.356528536085458 8.1097508403747 7.853186805699195
Ba 16.524653276709806 11.859126315927481 12.63861635219273
Ba 13.07698260455585 5.6716199827843345 11.472104119045385
Ba 15.712065418479403 7.731066707050804 14.444573624668838
Ba 11.719148659743366 12.094695465631329 5.700160560062967
Ba 15.753554899544149 15.824114413369548 10.208918394894866
Ba 12.96144378842379 9.490824395567207 11.901575839392187
Ba 12.190145730217772 15.824114413369548 12.154900729295449
Ba 11.773885013809009 15.410910494416113 8.221422853968342
Ba 13.346946251966715 11.459073389010898 15.756143944697408
Ba 7.680280901285247 13.667267776220015 7.026068028789017
Ba 15.05106199386631 15.653362657874014 14.8236845625008
Ba 11.277676590972407 7.320884220753249 15.102403107852483
Ba 12.65223212434831 13.678649203700694 12.127991745529394
Ba 10.24875337107545 11.519466163635549 9.40308453327511
Ba 9.130141442419347 7.698369554217957 11.054876485003385
Ba 8.599517513487896 15.025236568202018 11.324394204873109
Ba 10.451253748320703 15.180168982319577 15.398100767548634
Ba 9.419645085990636 11.24097895439347 13.696431204810091
Ba 6.505353141477754 11.423249223465653 10.814025879555475
Ba 6.375321800230251 13.851649709377046 14.67828843088428
