37
Energy = -50.24831309 eV
Ba 12.80706758716702 8.184252028420975 8.691337170279397
Ba 13.572886166266832 5.347468907166614 11.251932829702943
Ba 11.911489643413072 11.74583921726724 6.76884519221188
Ba 16.064820801860794 8.340600269749215 11.851879832171768
Ba 11.170663611772666 15.00341544746207 3.9665855534664036
Ba 7.891093863188344 12.763412996545394 6.047568560313714
Ba 15.107967515919524 11.912248451746057 9.337237488564007
Ba 14.266115990382604 15.302545565862022 7.293254577467653
Ba 10.037651871354674 15.786505347122727 7.465686595604797
Ba 13.333809706581654 7.027057237906293 15.103454782502666
Ba 17.56473840679597 12.227586195144395 12.750145578097529
Ba 17.495206544729143 15.530780016435674 10.073561562879227
Ba 10.889139324542501 12.640708277515513 10.099768192016215
Ba 8.655250168712962 9.518789787077194 8.35176082046403
Ba 19.859895931625353 15.844166088227214 13.477886396553506
Ba 14.281340741401866 12.907520450924444 13.30168805576555
Ba 16.387347469523505 16.42160501437038 14.14750513492321
Ba 9.670895082075477 6.935667893695422 11.344902789640289
Ba 12.05939777498401 9.406565581036736 12.636847950709253
Ba 6.761206433413957 13.392190861028878 9.645696976069923
Ba 17.495206544729143 13.83486977584633 16.785774449861385
Ba 10.628241449718832 3.725133207969302 14.138525521557703
Ba 8.938736718188075 16.58161167596421 11.778414661088275
Ba 15.96253490895433 9.952431499899005 15.868743010733324
Ba 13.239344523141604 16.18263505628137 10.787652124876987
Ba 7.795039714442436 10.22947283303367 12.669712044873464
Ba 15.501285073021684 17.352290421707245 18.34645535655215
Ba 10.082426913258002 13.440039352031896 14.437737734317095
Ba 9.031944342863085 7.02705723790629 15.532946111911413
Ba 14.044929245651431 13.63318087665996 17.2723573906349
Ba 11.665426259294614 10.206936266869976 16.835031737707133
Ba 6.4940295363146054 14.016112497974175 14.080500824495909
Ba 7.950457430688202 17.094367259420814 16.056973311099625
Ba 7.427403348058633 11.162841913033853 17.04238777325307
Ba 12.243921713485776 16.987758443034693 15.182323580676746
Ba 10.097810060123349 14.452511897700397 18.644351343209053
Ba 6.2164561182726645 14.70314725477036 18.55481851732273
