3
Energy = -0.80131365 eV
Ba 8.557396830041906 9.673645597411195 9.420542047248913
Ba 12.002902800815072 8.319271584987996 7.991454143171653
Ba 4.941190396074965 8.02977753792236 8.84519962416103
