4
Energy = -2.41963254 eV
Ba 8.220086522139681 10.159204931421687 7.493133123503437
Ba 4.768337718695681 8.265742984565133 8.938779199466685
Ba 11.83032270320624 8.045617030360134 7.78138082965355
Ba 8.371599218881572 6.130530342110257 9.187317903160594
