46
Energy = -65.20602381 eV
Ba 15.048955858146767 10.966419592470755 6.401745507742137
Ba 12.288802926181754 9.570460515732135 8.70524646145648
Ba 16.452771485507213 9.452662950221457 9.78103086420566
Ba 13.580843525672593 6.917722073814403 11.602599123215718
Ba 17.558078792030233 13.681229484760799 8.402323823482748
Ba 15.860290628397236 15.096565984775873 5.237503527128162
Ba 7.7703363957672344 9.779972301250288 8.130718301990907
Ba 9.222330850332378 7.960886386032459 11.5310733630066
Ba 13.949770670095221 7.123014006589368 15.934355350924939
Ba 9.970713346134835 12.87899080083775 6.699424873649205
Ba 16.525198801833586 9.156731506863073 14.14778261259173
Ba 13.418491064870711 14.02782021137412 7.806746775089514
Ba 5.194770570538484 9.489342291378742 10.698872869000443
Ba 9.98930876385736 6.132950568467713 15.018721655748413
Ba 18.416822360675514 12.39559110531358 12.554277191487976
Ba 10.12132367008145 12.648571183056667 10.405925159206314
Ba 15.418515670976143 17.631216363369102 8.276682762906438
Ba 11.997015835948204 16.96739104190434 5.98582045963824
Ba 12.576044864122242 9.741063579800034 13.284945923288694
Ba 14.68253609294639 12.754792569392682 11.379806092205337
Ba 6.82922382587732 13.478975285858697 9.248532900076173
Ba 11.241148285119236 7.644182221830617 19.14816148607289
Ba 6.675456751767489 7.960886386032459 14.186600224857594
Ba 9.336279974956586 9.438900465688382 16.06030951492735
Ba 15.371360925319927 13.252199473476827 15.27228336383836
Ba 12.523401427035221 16.391898324171795 11.269407345575507
Ba 11.853590788830068 19.602611428789558 8.450147032372254
Ba 9.340700327823662 16.55834555871694 8.63647106654112
Ba 7.0458820176012145 7.581866250750342 18.44883127161514
Ba 13.238999916852716 10.467835768701775 17.5827566281513
Ba 7.987175996288273 15.749700397195811 12.856256430701173
Ba 16.847720914860233 16.447261514206236 12.553162041329822
Ba 11.24111058310921 13.614070228707197 14.43968124087819
Ba 7.213794427348606 11.476265306760832 13.124094011417881
Ba 5.993710026683851 10.537703324593577 17.019416238858092
Ba 10.072027902188523 19.086665002358195 12.413373618561124
Ba 9.145896615560863 10.82491286220119 19.45588388940913
Ba 14.447548108618987 19.838985390088435 11.924817578828447
Ba 13.51246696726923 17.37076805845242 15.18789420614268
Ba 16.66031387021148 16.251551998324526 17.876136866197953
Ba 12.264077710141006 14.698311078967231 18.45719967589081
Ba 7.987062524673409 13.860580312558 16.960909361740335
Ba 16.636649898118268 19.675525843969 15.775487835422881
Ba 9.700750806761539 17.9114653484375 16.501382291291506
Ba 12.360602467860705 21.13109973474657 15.546774550062914
Ba 13.468287732427685 19.086665002358195 18.952479799311824
