45
Energy = -64.10654388 eV
Ba 18.832908930066957 12.758808329912114 10.202238488163413
Ba 20.167342302109112 8.566418797972343 11.538507448825005
Ba 18.08045192302046 7.112927611766209 15.201798666817295
Ba 17.091629334552177 16.494546949683446 9.123726801761126
Ba 19.32707831321931 11.583177017037503 14.904572752124743
Ba 17.6548011254214 15.065600110452428 13.178079809388274
Ba 17.38539405359576 6.6030726716463315 11.299312939521826
Ba 15.946505411526553 18.09951314627501 12.43819824174358
Ba 18.08045192302045 9.23269937491952 8.267355723520438
Ba 17.777056239868 14.232896406718702 17.47770508502318
Ba 14.56232487891524 16.79882203810346 15.96162948656224
Ba 17.4041901899193 13.171210336567166 7.033787661406747
Ba 13.608687405957077 18.120926015665262 8.668169065890579
Ba 16.552023576576467 10.001317410043992 17.360002518506416
Ba 15.415345772251078 12.512954570920133 9.986227956329326
Ba 17.37957599264173 9.975750993842924 12.695658514570807
Ba 14.356258747677725 7.398242546191686 14.287101973761008
Ba 13.614662058520766 13.363828597980437 17.88255333069224
Ba 14.764514440123765 12.593153030805569 14.74496749317901
Ba 13.567754416122758 15.106423306973332 7.216904784527019
Ba 13.106287346676496 15.722390503083187 11.690517152601007
Ba 14.522485420421548 8.494760405504648 10.160141408405284
Ba 13.476649741160745 10.712860175981891 7.216904784527018
Ba 12.118905719577208 17.07428814318986 5.4333448652238765
Ba 9.84095605119917 16.849859902664832 8.332809936565504
Ba 11.776161313598777 11.065923630705415 12.405973075842532
Ba 12.418707433555388 5.729598634060569 11.108909414644122
Ba 11.786853539704023 10.016752939595822 16.727537626621558
Ba 10.620343860774181 12.601617861239593 8.860883489381184
Ba 10.894704492360074 14.32295224698503 15.58738889185128
Ba 9.796368300882024 7.4368808645448725 13.432497112404574
Ba 10.850252500835126 8.30454539698774 9.021920527260052
Ba 8.118571968341076 9.955217633285425 7.205320741991273
Ba 10.030315655592062 13.92788521081351 5.792587646882809
Ba 8.02783594461791 11.266617466083982 14.811592020252585
Ba 8.486038235562006 14.529304605334119 12.011736143012804
Ba 8.695667624025328 12.316918018369428 17.892413997782672
Ba 7.590801472053265 10.336000343163416 10.706591356625077
Ba 7.742555650989089 8.057287020764672 17.523251990170778
Ba 7.459764977734493 6.906367538570098 9.897114293889096
Ba 7.308920537947194 13.743166473659526 8.164951432505164
Ba 7.235466717128789 14.993750622064574 15.995127924129644
Ba 6.134443396976892 8.143334218145922 13.64180225617375
Ba 5.269506694439673 12.568278559988332 12.67663829181842
Ba 5.3380714361387245 11.135668082082699 17.020164566373573
