4
Energy = -2.46691064 eV
Ba 10.79970201209406 9.730330291464952 7.741689339603055
Ba 8.901992688700268 9.036793493752796 11.25392809057928
Ba 12.607462950365052 10.533881390798184 12.055753872774721
Ba 9.851235604609155 12.840417038413323 10.228649859908375
