54
Energy = -79.2721902 eV
Ba 22.627570409244996 13.008488967572145 15.008566516545512
Ba 0.6481980536017156 10.081711331647497 12.244115470591797
Ba 22.510550877667203 10.604095948200378 8.034170379003008
Ba 0.07864032865801836 14.04899355067726 10.68263413918428
Ba 20.90790792364654 16.3473788586051 12.837040763622392
Ba 18.550308972922743 15.228275619030528 16.846697849656028
Ba 20.90790792364654 8.72478392418532 15.095209877546564
Ba 15.235575807007416 17.002485713525072 19.510706977785226
Ba 16.85465173365052 18.58708968704064 14.795257176614655
Ba 17.319684408334286 18.364061379788545 9.954696962076092
Ba 19.384630447683758 14.651975770865628 8.69121392743384
Ba 17.839040457565822 11.773808969760777 15.004530760621712
Ba 18.253960267659696 11.788512532075625 6.368170925942258
Ba 20.144082672729088 11.500726235734447 11.528065771096077
Ba 21.52671549742975 7.716301634582461 11.022648930327096
Ba 13.478086814902813 17.974096050930864 12.123085644258463
Ba 18.01845311261558 8.136899825630172 8.084648916990274
Ba 16.476676754807016 16.484556453177266 6.334067436831995
Ba 16.102902827554555 11.706344808745405 9.444581516501568
Ba 16.772413325337606 14.81922401036279 12.412955539852728
Ba 14.076095110194126 15.280879390756528 15.551712398480843
Ba 10.980584114091746 15.450283818882184 18.836784209295875
Ba 14.805563340504111 12.309396916762537 18.627787527459322
Ba 18.696484113983725 5.570109525960063 14.509971593575889
Ba 12.624692384087245 19.633057463672912 16.37094292728656
Ba 13.323996265486063 19.59417879894403 7.681065433651999
Ba 12.691005341314353 13.479032648734007 12.168277708535497
Ba 17.42459738619143 8.336768856414727 12.529185680021543
Ba 14.32551325471603 15.417405002227653 8.842403092092011
Ba 16.630034077276594 8.037567636947756 16.827261173299537
Ba 13.776399666522993 5.507261253618295 7.629224346130556
Ba 14.234498890252445 8.855908319997813 6.676108737330558
Ba 14.11609160921049 10.27525906740889 14.103174978764189
Ba 11.256279012061217 15.670055498895607 6.447368535191525
Ba 10.092078530991634 16.35899170665986 9.81304653232972
Ba 9.899176112032976 16.345282936852836 14.204725929492325
Ba 11.420505713725317 11.786155024179727 8.676841117376568
Ba 14.205188299460202 12.872473361065301 6.17371902278665
Ba 17.034048294466206 5.434738882711862 10.471588428042443
Ba 10.52858211179445 12.047195821628415 15.755510404214784
Ba 14.125115763651056 6.550084040352363 13.619412589233718
Ba 9.374595358060049 12.886401298923696 12.032311196861833
Ba 8.14554185165579 13.535417333159403 7.720833986980223
Ba 10.193721006171652 7.716301634582458 7.524287346926889
Ba 13.90370987398725 8.157364295050193 10.063029141855198
Ba 10.079566919970784 11.243308345510732 5.513062216485084
Ba 10.341799375119027 8.930186983556224 12.425453682907444
Ba 6.243614863522918 15.341080518973536 11.638922132586128
Ba 7.301296339850933 14.147581242870526 15.845770601149885
Ba 7.975771731458035 9.765102722140131 9.57322987313589
Ba 6.731533627419769 9.754570049676857 6.490142738759752
Ba 6.341833646343327 10.598391523129663 13.536339842973518
Ba 4.165995344676044 11.870871054670596 9.737140526876745
Ba 3.0200804088337647 13.465071650735144 13.938656490824288
