16
Energy = -37.31816472 eV
Be 7.6085211210593435 10.386719487734206 7.6085211210593435
Be 7.6085211210593435 6.472299802233242 8.835499209930937
Be 7.6085211210593435 8.744742439885444 8.835499209930937
Be 5.875284807622473 7.6085211210593435 9.053065653863944
Be 5.863017539188866 9.198219014352416 7.6085211210593435
Be 9.341757434496214 7.6085211210593435 9.053065653863944
Be 7.6085211210593435 8.744742439885444 6.381543032187752
Be 7.6085211210593435 6.472299802233242 6.381543032187752
Be 5.875284807622473 7.6085211210593435 6.163976588254742
Be 9.341757434496214 7.6085211210593435 6.163976588254742
Be 9.35402470292982 9.198219014352416 7.6085211210593435
Be 9.35402470292982 6.01882322776627 7.6085211210593435
Be 5.863017539188866 6.01882322776627 7.6085211210593435
Be 4.492726242118685 7.6085211210593435 7.6085211210593435
Be 7.6085211210593435 4.8303227543844764 7.6085211210593435
Be 10.724316000000002 7.6085211210593435 7.6085211210593435
