16
Energy = -37.68476765 eV
Be 7.444249008747481 10.026939577712241 7.827516144443978
Be 6.731369267504433 9.077708964530412 6.132180427638056
Be 7.405374115545436 5.699618564462155 5.308967895310474
Be 4.2017554431134165 4.121913072229764 5.558662947056302
Be 5.346208487373098 5.826572938366047 5.011349677980041
Be 6.971842701843673 4.635088407701913 7.051608812951137
Be 6.082891543357094 8.579889618091526 8.048465835401581
Be 8.098407495568095 8.071087079258286 7.83986600802469
Be 8.438878761106064 6.147267744267373 7.060399384133208
Be 5.315631878089223 3.307734031936551 6.9659448746282004
Be 6.194484974572831 3.902572773281658 5.235785863585636
Be 8.284330713878317 7.7217325399997785 5.788405050771789
Be 5.361057079919021 7.419871415516302 6.436330391913223
Be 4.9850529277602025 5.418314128262805 7.0716525454504096
Be 6.567763021483801 7.518697836678713 4.722971090822996
Be 6.577176876921903 6.531465604488282 7.946367346672368
