14
Energy = -32.84731786 eV
Be 7.973441184351491 6.766950384450531 6.281954618900034
Be 7.75915806071351 4.729780009467918 5.6063666321154075
Be 8.055584926583728 6.274129365538294 4.3602611666496625
Be 6.840741432111929 5.382645617180604 7.329251302072956
Be 6.208223094335108 7.131386726483983 4.873172338319241
Be 5.8123219579471215 4.090917886800121 6.0738742879322825
Be 6.0510447699844345 7.180631067766702 6.975480011995314
Be 4.6490170663423935 5.5998953887265985 7.118361928555873
Be 3.6241398826954985 3.9152569906874937 6.40204119684849
Be 6.1889229624219935 5.068488835393066 4.16700383535311
Be 4.288396524506416 7.172402586387683 5.777337411388318
Be 3.0107889455198014 5.55550071531953 5.484694993398664
Be 4.3163051309890506 4.150483535806692 4.524120208614433
Be 4.419681983234182 6.149440161222035 4.0689927096949825
