17
Energy = -42.731307 eV
Be 4.525577285777227 6.367599124274417 7.73816792090671
Be 7.968153414870088 7.034323669410005 4.817400655287542
Be 4.835296200939051 3.523941138352436 5.672576806709058
Be 7.619411333074896 7.75083152129158 6.769035712568817
Be 8.097208965605022 5.755946593543188 6.510455921152984
Be 6.121188193160824 6.292863221794151 3.933446136065989
Be 6.608728282836905 6.384529781152837 7.934200669134177
Be 6.244609112420859 8.01491862521526 5.226976703385888
Be 6.844999400916298 3.847589964391548 5.998118076173222
Be 5.366929234053326 4.465192562694665 7.433791339952974
Be 4.379651262605406 7.0147649696673815 5.612468997133247
Be 6.053346121426502 5.819013940479731 5.961508051121916
Be 7.838319097000305 4.999408245044696 4.564943648306152
Be 4.371948353540507 5.173550692804885 4.487855095780354
Be 3.6399391177267404 5.109384897080595 6.376007559635532
Be 6.051420792871008 4.124574874549178 4.052466062591587
Be 5.555593919358286 8.039636878468535 7.1308476690248614
