13
Energy = -30.18316503 eV
Be 6.289227306960919 6.276965425728544 7.657922008994715
Be 8.249265201494145 7.305131635688708 7.263016494488646
Be 6.397866793898506 8.110030959790665 6.698491902914756
Be 4.52784757790935 7.289131695603064 7.1242064947505295
Be 4.329792911157177 5.256628743632664 7.243243830260697
Be 5.010324492350105 5.0250595836507905 5.1089007986146235
Be 3.4806542320246137 6.203364631591792 5.7409035078255135
Be 5.520183941279039 7.030893538552144 5.146814528161552
Be 7.569512427142385 7.575753390140423 5.132921491876403
Be 9.098940023560491 6.385650130862669 5.743926859230186
Be 8.05111731632849 5.2750430073783 7.106509221016571
Be 7.059598985749287 5.569814288136697 5.133784794198381
Be 6.1810359852038435 4.461996916688519 6.664773638919158
