13
Energy = -28.22817806 eV
Be 5.969076755334729 9.953123164474839 4.567443482189611
Be 6.451403741540665 8.256258012043695 5.687239711357527
Be 7.668444198055728 6.590285487191793 5.126134788103656
Be 6.170037014285231 7.881110310794762 8.018445640403897
Be 5.654052328428286 6.295435198856896 4.662775772617495
Be 7.943581750561537 7.500504059676337 7.012894970583879
Be 6.062149054901352 6.5082711917859095 6.59364938977175
Be 4.862690336980752 4.933808049938778 6.281436759584703
Be 6.733658930341683 4.692925841229671 5.4185914916168585
Be 8.154599741483974 5.405142696145412 6.806170309850842
Be 5.172339666082509 5.884049831552601 8.28304296677966
Be 7.211656246667096 6.164417479920691 8.526409613392863
Be 6.454186651662824 4.44254509271485 7.523641520073882
