26
Energy = -69.34534473 eV
Be 4.618136744881249 6.911071005712942 3.320947480312351
Be 4.763469857653284 8.808281686946698 4.69672779123063
Be 3.191891176443493 7.493299456276113 4.666540414822252
Be 6.398263580156075 8.10024697919168 3.676468881062583
Be 3.0609305805798956 5.417317494127174 4.1072618770802
Be 4.846300959514909 4.818349145676191 2.8358181780622393
Be 5.593097142538959 6.871401733704181 5.259688963586284
Be 4.527506260530944 7.810545369084964 6.620651559109792
Be 4.208055553583404 3.2370160644251524 4.253951987744857
Be 6.487518262490758 8.645560210679722 5.793717442801945
Be 6.553731557706945 5.923981587688371 3.5504819977329305
Be 3.259785374940612 6.168468964195765 6.1440047850810116
Be 4.8878112853471105 5.171934539319186 4.806815456794265
Be 7.691172286545921 7.114570093439639 5.043509072797305
Be 6.385374516857499 3.7993538794604094 3.956788947761287
Be 3.422980374003097 4.153934528138533 6.00497177450083
Be 4.9870720802369615 5.606616517872605 7.05889337264423
Be 5.523315155273551 3.738698561445107 5.930610152535415
Be 5.7937157498059975 1.9290831195290945 4.9096232659044015
Be 7.030809363068788 5.187719555129918 5.483337965520335
Be 4.1725117114711265 2.147782281800639 6.176535310875525
Be 6.765158731112263 6.697288300100352 6.9686479502901175
Be 7.400682378319618 3.06247361709614 5.805859042486777
Be 4.582410619461897 3.6004379946056884 7.735499745053165
Be 6.0604575102433715 2.1893380029916507 7.163123029121659
Be 6.71745825056415 4.430125709336169 7.43556998138237
