28
Energy = -62.3317538 eV
Be 3.3877792881107713 5.03458742156177 4.036052712738206
Be 7.734897813534971 12.101179337050576 7.070913126182125
Be 7.039854448471366 6.740068222239543 7.2764900505553145
Be 4.017424885021191 6.36355001842454 5.6202136369103695
Be 5.790755669464254 5.754330818629343 8.632694394659
Be 5.8526230801543955 2.9357053069247163 5.48364480668999
Be 7.501422728005139 4.860371657968938 8.00104152737627
Be 5.922526803884139 5.172517751605197 6.318029461837028
Be 9.26610916311567 9.277572773151538 11.792416660459189
Be 7.7456824947606755 6.484339010465961 9.349904940259998
Be 8.169777427012658 12.122748527925138 4.992336114937161
Be 9.041412500893816 12.159936208470791 3.0038055288492838
Be 7.787962868384777 11.845260060314203 9.184591202720869
Be 6.096439870470282 6.998660995194028 5.343178694230311
Be 4.263734847495209 3.0822516368980146 3.9678075746175825
Be 6.1893850961589605 3.099684298460186 3.381467163105185
Be 7.726248537593331 3.5659261197948497 4.739681460303925
Be 5.631656995834466 3.7872945779238965 7.716890646254457
Be 4.823934274124525 6.422168313167503 3.706029218255699
Be 8.865402634967811 7.470328689544677 10.811417608059978
Be 4.133196081521161 4.138496969056282 5.714327181999635
Be 7.4951704179921945 3.316895954712023 6.708958609530985
Be 8.494002035307858 11.067027675892582 11.018995989290074
Be 7.921380487102152 5.291708127580263 5.903120496752326
Be 4.150545762184387 5.421999742051389 7.498041222161543
Be 5.053333039328924 7.2188047038696945 7.19442923747153
Be 6.391196379312056 5.100140271894544 4.229049073020578
Be 4.883912410286442 4.544212849722341 2.6822397012657495
