28
Energy = -75.98345613 eV
Be 4.203164270666351 4.94726765030131 0.6920300568293171
Be 2.3747981094774127 5.235783901925929 1.6711315009659393
Be 5.824127108095927 5.523039810220137 1.9463472323519992
Be 3.1790676094237513 3.1704537517864226 1.5528204030722605
Be 5.452799715298988 3.417410258187369 1.6460443365750743
Be 4.31849446338419 2.9506927379881103 3.3188958227801186
Be 4.071634115539502 4.814652057431873 2.698246533605054
Be 4.443619748534652 1.3625881036790883 2.163248682526407
Be 2.5674229805718602 1.7031409987510393 3.1884677112277444
Be 3.8870576311044616 6.733439300625152 2.142865549478896
Be 6.069287048268744 2.0083258772549937 3.316445050573771
Be 2.4738290981593276 5.945354055139807 3.7543053313632404
Be 2.1837637132662726 3.875602228661513 3.35852531613453
Be 6.05459142228769 4.203719806876064 3.6354065308515806
Be 5.237469765095575 6.233926071927949 3.910000824419902
Be 3.672109681648906 7.580330421038151 4.0287119227479655
Be 4.379074761270584 1.0394229692218775 4.303328600701823
Be 4.000087593863941 4.560980805929185 4.621618247924559
Be 1.1758969732198004 2.567195515444586 4.7747346540216
Be 3.189681858232791 2.7728367222137704 4.895082847919356
Be 5.42624203542673 2.8618220084536707 5.208351675454698
Be 2.0851486841135727 4.5344629612234 5.458665371899088
Be 2.4308859579789712 0.8993384045354701 5.203970088420744
Be 5.670269731909789 4.959548833951519 5.611412255459512
Be 3.6969726211422542 6.199488753023891 5.59463498837074
Be 4.086761776100185 1.64865772063067 6.35226766236908
Be 3.9405335590952997 3.8628961671129978 6.5523818580624145
Be 2.1475251346211373 2.6299392742625383 6.642376111690018
