23
Energy = -60.58159195 eV
Be 6.374396773696059 6.502025265029075 8.804971535222874
Be 8.875967297276658 6.97945263648055 7.071684285307974
Be 4.401076798505745 6.287565200457791 7.7872878488078605
Be 5.579712269611908 7.583682879237367 4.724250063706968
Be 4.641301495947274 5.965861054550876 5.680331842240325
Be 6.9525878522761895 9.17568847266338 4.573717746980072
Be 4.948358796562846 3.9987290438121073 5.11513879763519
Be 7.840354151636751 5.27629362489169 7.647025151111347
Be 3.9051325782216297 4.386420042278166 6.8846317288491585
Be 5.321293817748102 8.133964890836907 8.134876457859837
Be 5.245357801424147 2.97522563807572 6.850803779336028
Be 9.444028535161811 7.383214676013865 5.176237023719734
Be 7.408753722647159 8.215417196915636 7.997117020503751
Be 5.772953805491146 4.69677183332008 7.91789456950724
Be 6.127531621729789 9.047713119488579 6.4048469728055135
Be 8.316102894062881 5.59331489551404 5.546382704132536
Be 8.204415683756098 8.759868477601103 6.10480473749114
Be 7.602721541382821 7.280415669513343 4.48330343486058
Be 6.767092653705741 4.326356863492201 6.106198190830172
Be 6.627727724598803 6.776150962065795 6.516200160058886
Be 4.385785111138897 7.920584562622764 6.392772856989061
Be 6.382855972235005 5.57670511562868 4.524561542846292
Be 8.382001350988187 6.6660881293161935 9.062471799002818
