39
Energy = -110.38810058 eV
Be 3.5386464482897853 3.9984802002206234 6.762045980444844
Be 3.7261388776935913 1.8410749067185541 6.865640292365527
Be 1.7455325017907126 2.7821645784028375 0.6536039197727087
Be 5.5279588913504005 3.205091570928802 0.6133735337058842
Be 2.2843890357817855 4.759218023312189 1.5673148406120119
Be 4.615907552097861 4.991540019360123 1.5210446754255582
Be 3.6411564522944375 2.9942222839288655 1.4945303876117273
Be 0.3351713549281118 3.9549473272199065 2.356356620178076
Be 2.6782453448770105 1.031507385870613 1.7325240124968175
Be 4.998446121128807 1.2917161587604549 1.724882357161059
Be 6.697037630462144 4.447174048948472 2.129027905809863
Be 0.5818031581816308 1.643811398940474 2.3179230954929357
Be 3.227589214831499 6.150417548533175 3.1950402669651585
Be 2.0226190215880284 2.8633434265992017 2.6648347711943385
Be 5.282758191329979 3.230307276276178 2.6907573451424485
Be 6.94046036037472 2.2890284981786553 2.276961482943832
Be 3.594779984233721 4.136070519533466 3.0809155404721604
Be 1.0069093784343106 6.111428420451832 2.881887742746767
Be 3.771143750143605 2.0026322859677057 3.2591872524099683
Be 1.7960554618153528 4.541809181497952 3.729459482782637
Be 5.284038200662056 5.192504009880454 3.7461653022909083
Be 3.997706729030609 0.0842142101657797 3.3242244065632773
Be 1.9825715542427105 1.0447512144215858 3.8930206419312916
Be 0.010148572663801364 4.934284088510007 4.418443317134331
Be 5.706929133661152 1.4597280869973954 3.9291365386136645
Be 0.5771651204250429 2.786444422897735 4.270416486109076
Be 6.665412264915271 3.4768983564827187 4.232479621985219
Be 4.677276568263875 3.241084728735153 4.600374127406685
Be 2.665173731343636 2.927566494736293 4.596892551717833
Be 1.9223321521711214 6.222451264707259 4.969236328239491
Be 4.168767759238711 6.564014483181985 5.179540512957847
Be 3.433437540114983 4.7752907813383585 4.9220361428665464
Be 3.8660027627986424 1.3189605718742923 5.2648295019171805
Be 1.5622936878268372 4.1613478504774415 5.87075906827966
Be 5.2539494989288835 4.658792203827113 5.9409870434005185
Be 5.6453030337661945 2.3716728011805532 6.006114461564098
Be 1.7834045519457113 1.9416575590584673 6.000536498329304
Be 3.6002456590936482 3.2220860931988557 6.472318974726861
Be 3.2327548438111817 5.397927815211268 6.762045980444842
