35
Energy = -97.72997343 eV
Be 2.7838616569990178 6.660345584053037 8.462200062233102
Be 10.003720732601831 6.624900084795348 9.567228995832144
Be 3.0166516270914125 4.76962875778095 7.809136142322003
Be 4.898253732186257 4.064047554582344 7.74763439510087
Be 9.259937780012004 6.974090106555028 4.390501916003653
Be 6.25637582277671 6.9737705955115725 8.97266597125956
Be 8.300147155890302 4.836639475233057 7.029194774274497
Be 6.854546292258274 6.8370268726356445 6.8347123200409605
Be 7.187231982121547 9.0684208095955 6.215325887006466
Be 8.2707466578589 6.405065100404218 8.446894569122804
Be 2.4168052015320596 6.209481937527939 6.529446734913232
Be 6.587835680016017 5.045376516850773 8.344143925676105
Be 8.819774883681866 7.39831655438492 6.446281518807723
Be 4.368426211997783 7.819943813040319 9.007316063479568
Be 4.847878456703405 6.443231591153875 7.258124885793455
Be 4.129570639129739 4.915786881916169 5.955183971013327
Be 6.0971975169515975 8.952067211923639 9.444144885194664
Be 10.992602458047275 7.058873227337527 6.121176101854291
Be 7.262796353906797 7.645347756248572 4.699885029459715
Be 9.783672718423727 5.422257237020427 5.63197360465122
Be 9.020986814828454 9.633262029187183 7.045741913830497
Be 3.7890014081385726 6.958340877328021 5.259129497385433
Be 3.5408082844486084 8.124011116545324 6.972426146154556
Be 10.099063594500741 5.8733307071861365 7.617106509360888
Be 5.686665135121531 6.166332677340561 5.027363789392211
Be 5.593285781987503 8.559960637339513 7.521627583832461
Be 7.783135291446851 5.632200836361473 5.119842381108848
Be 10.74760764585436 9.099587592055403 6.2404844249445635
Be 10.079135687182669 8.036359356772804 7.987271800205822
Be 7.751533968318872 8.411166424741088 8.1684999955124
Be 6.290065273367735 4.641534045349786 6.298922981316149
Be 5.371329305549841 8.204345272459257 5.525088451219492
Be 10.876641333982645 8.209746933948924 4.457525553593257
Be 8.961053120352373 9.049232037716212 4.971457081038518
Be 4.590535913241385 5.594853905626456 9.19322225557342
