33
Energy = -92.78462735 eV
Be 9.604011223506353 5.892527939734767 9.558434660333457
Be 7.32048358733397 8.655765918644624 9.234968888452144
Be 7.800404441026643 9.685995451372055 7.310702355963162
Be 4.168495950671351 7.754730300892443 7.462667655945449
Be 9.85672566714521 6.956026850313935 7.82249315336203
Be 7.762706651442929 7.2712124824919915 7.7537432848564105
Be 3.407162593386497 6.695694571860246 5.855864802363398
Be 5.768185119705828 7.168379163471227 8.704667634506826
Be 5.255824315258582 5.528605496250502 5.341454396129014
Be 4.850734266037392 8.270238228083823 5.527542727269308
Be 6.9747340912289415 8.884421882892253 5.574343297063448
Be 6.170295253064621 3.800962046899181 4.598233116630796
Be 8.55555113431537 5.238118244217488 7.875146464853193
Be 7.603124710515871 6.409442549420181 9.647435228976397
Be 7.296079713685035 4.747420167757191 6.235835032928489
Be 8.180767371082561 7.505153304670427 4.585431957977799
Be 9.327726686636018 8.873396152765318 8.33793007943995
Be 8.833430941171835 6.1757916154895875 6.014064784815078
Be 3.3626186811482666 4.649894780890379 6.260354505390535
Be 5.470893110436589 5.522103114072553 3.244893954694846
Be 7.287323129119769 5.658773045399605 4.385697775030118
Be 4.14790912245719 7.027635373480604 3.9636970099859012
Be 3.4678615452664197 5.075139806777462 4.226467138396888
Be 4.259855006972327 3.264946781527637 5.170305758207495
Be 5.434061366194152 3.922395328088413 6.771369689474061
Be 6.153426710997686 7.370153782801441 4.151190645108428
Be 5.990705568299787 8.760926817465709 7.435000271613558
Be 4.610748658217585 3.6553883282464326 3.2365368069585316
Be 6.507178035831881 5.320985947564956 8.094985705795589
Be 6.395999115421305 6.881030935311762 6.313597638497053
Be 9.088972092227731 7.779546781727406 9.957329064316173
Be 9.030028021899673 8.351147701218537 6.267913175542093
Be 4.5525608905131385 5.742633880418098 7.576286111340186
