33
Energy = -91.59854735 eV
Be 3.4721727657251944 6.553562828822865 5.5455237967590785
Be 6.045720227708864 9.00745537712886 6.0818021131602835
Be 8.55488014336872 6.84489701029781 6.910153251750627
Be 3.6095379728250254 5.940663048571713 7.5795886517054845
Be 4.748570123925461 4.693690414308774 6.0739310532954605
Be 3.3307775406538216 3.923662317736962 7.831262799040901
Be 9.02838764073832 6.6067533420940165 4.872829640135288
Be 6.542154163846115 4.47946454699958 4.967773982407065
Be 8.21808626978935 4.981181658592054 6.135081772078929
Be 8.34894117421471 8.17821799781558 3.705936357600722
Be 6.340871237658742 7.278428898457693 3.118979699796306
Be 4.885592076448333 7.918888911288633 4.665946058688948
Be 2.6705447507606994 3.1510699607199935 4.580167445497869
Be 4.1155186407826125 1.901496807887195 5.1901889361245255
Be 8.042396289645366 8.454828505408459 5.719148033099614
Be 5.2202186037202845 4.586165352502187 8.29309926822153
Be 8.21611567708132 6.357195475888852 2.8009867366560446
Be 6.645062160719365 6.61318486930385 5.396442139858644
Be 4.683850840294034 7.638548818356694 6.790573763345604
Be 8.368609763426466 4.7888983272130945 4.072860221109469
Be 6.842558855641492 7.780742382574104 7.45759237662336
Be 6.560733434742766 5.116336331370876 2.996367553870462
Be 7.062949796909612 5.629892297617445 7.791699965574613
Be 2.4642472180406405 4.716279309070848 6.0885166029231526
Be 2.7080053318758734 2.5436880833125053 6.513889513667615
Be 6.676428618878555 3.7703082615049466 7.009195117940134
Be 5.9967029565426015 2.6003642478480744 5.446548230424296
Be 3.130485280623558 5.079219464377682 4.14966734740746
Be 5.379067704798715 6.630487490314454 8.441262951801885
Be 5.005092318494529 5.882092740474372 4.13851394334541
Be 4.83830787625635 2.643312426990946 7.172773111011333
Be 6.60266369049826 9.025488880526572 4.159029222814686
Be 4.787011877357368 3.737599204825449 4.020368944770485
