39
Energy = -106.10883442 eV
Be 5.330792980649114 12.45469917677676 12.634999002809103
Be 8.484899413266403 8.612647494637942 9.70064957980841
Be 7.152041929625788 9.978798209166179 10.57820112041545
Be 14.247883379501845 12.132980418588946 10.084468836479543
Be 9.754250011933985 7.224603521232481 8.867845302840035
Be 13.304137686750597 13.658999789424733 9.250091415068336
Be 10.393758058595981 11.158305874632223 7.9914367081272575
Be 10.353188603870269 11.796347678699536 9.95068620433655
Be 14.132720872979355 11.94929292987818 8.06468957209606
Be 13.000153080190032 13.521395595434246 7.275115816968296
Be 11.257167650248999 10.902296105403567 11.556184673123173
Be 6.516781910074902 11.135388727690756 13.806932106155761
Be 10.1216336123602 9.08541396618767 12.40167948374371
Be 12.317064196285783 11.041946695174678 9.135399868316602
Be 12.292019260481496 9.434729654235166 12.555150641009497
Be 14.302025201960504 10.106002672069172 9.46111450294859
Be 12.98357053211294 8.607431591776182 8.698386843762433
Be 12.218032587407318 12.598150182489047 10.677493699273992
Be 9.831535257600029 7.506282849486396 10.886434184007474
Be 11.365283448717818 7.717505313062167 7.806957848672007
Be 5.371450758901132 10.931334454063284 11.236880350806192
Be 11.608308640387623 9.6716726098523 7.362425896789152
Be 8.14074952803636 8.50292567477328 11.760881337984399
Be 11.688021888667912 7.28336702712408 9.841073029894535
Be 11.467504645832086 12.98779861619779 8.58021841467495
Be 11.61568717871078 7.730860012655495 11.85197418068447
Be 13.626173114077194 10.070466068320947 7.434422870809856
Be 12.270278880693565 11.628103424733958 7.031301146204092
Be 9.170809947335046 10.571913228007098 11.25409646888356
Be 4.78341686685223 12.011463631823327 14.533059125921874
Be 9.65630362236571 9.084657589945618 7.906047433201186
Be 10.854523928762069 9.477771491746532 9.805375451723826
Be 7.228902882933074 11.586870677034737 11.855516355601026
Be 13.185312796195603 8.708208281582676 10.74759247287512
Be 8.75078609283283 10.627629491753694 9.197057258270718
Be 8.184302024409217 10.083294625439398 13.001641594546044
Be 4.506575113366941 10.640070174453923 13.065639007708759
Be 13.317220336246457 10.763160534006595 11.256976144100893
Be 6.288708073413348 9.504174731017384 12.416729787352406
