39
Energy = -109.93702143 eV
Be 9.531392635405956 8.74955674540997 5.511872838836853
Be 5.082216248406335 8.817939375957186 5.355783809558901
Be 7.390825157011256 5.4500004622781555 5.2392514385495
Be 6.104151672696708 7.070898975195944 5.6790492483194
Be 7.477282806189046 8.603926104167572 4.912265755614718
Be 9.324436242065183 6.773443943041472 4.9333795936480085
Be 8.01875836903577 7.23536710023131 6.32384639122329
Be 4.664766854157634 10.765259171157949 5.822956741561309
Be 8.182355401585989 10.305590679748088 6.113668546542892
Be 6.416817612715985 10.406472593278226 4.99635898355073
Be 4.555208015883268 7.422588645585482 7.022969029996145
Be 6.34409534542246 11.030815837162052 6.995342617462892
Be 10.24229186194549 7.266289223945878 6.774694694569437
Be 5.2226497773841425 5.586021803457739 4.6955394901753476
Be 9.017040293411934 5.454607785618115 6.624308069579444
Be 6.829453637459538 5.958133027989783 7.447896618303048
Be 7.655529667801745 3.854298660251907 6.696119426333768
Be 8.598204979192065 6.872963607256428 8.405174724488555
Be 10.530331184576928 9.265782706443636 7.4461215090640716
Be 5.871884532685614 3.9736723443398416 5.680264150991438
Be 4.612676422697238 9.482521236609912 7.392794228456555
Be 6.594133291573525 8.738705820588507 6.994917754519914
Be 8.457014730548396 4.662193285022906 8.535873034135287
Be 4.709015733657896 5.329355330632583 6.665823133656598
Be 10.414784697404018 5.629230941436246 8.125116805504863
Be 5.904651980018666 3.98451377240169 7.782195933862549
Be 10.590367320404257 7.636470404236146 8.898626333823632
Be 7.896060085514596 10.454181977700731 8.283858166736819
Be 8.659495390236144 8.780986695895658 7.450615921511442
Be 5.928268470395413 10.116273164303777 8.794142309308844
Be 5.306272643545797 8.102066111943984 8.869862728171444
Be 6.557201660012421 4.821474694526719 9.474520303589422
Be 7.410802599792331 8.671448012133219 9.290253483353696
Be 8.158199893859702 5.55002484240125 10.532822403926225
Be 6.624469459753122 6.802879848593956 9.938139648533408
Be 8.878762749086407 7.511661222308519 10.481839916180837
Be 4.9957743539195985 5.975248276036121 8.64878762047955
Be 10.056138271238067 5.8714880299780345 10.047018293298846
Be 9.391174305531985 9.220603894956428 9.320884656802942
