36
Energy = -103.39793449 eV
Be 3.966828199004794 3.4756748934999786 8.140289702729758
Be 4.7058781913096706 5.472312035681542 8.19644878400443
Be 2.9701622592436356 4.994795330048178 7.07906635081057
Be 3.8792126339846535 6.939040175863975 6.819086262863077
Be 6.139546476281175 3.799196525198283 8.167044769272296
Be 5.548402505509676 7.4396680525407275 7.978754419916731
Be 5.045732756456863 2.1692961702343183 7.029875031568592
Be 6.8596604021672505 5.865495097904793 8.265624942917901
Be 3.2026802572535606 3.0520084386552 6.111945354006282
Be 7.510044522998034 4.551002943995826 6.826377818834801
Be 2.1543817864703825 6.487027619581475 5.721517994756964
Be 3.995683291616365 5.471686517196027 5.178283563048743
Be 1.995017814860039 4.528821394627122 5.174506050252766
Be 5.844584619916031 6.066110279466762 6.326188317602071
Be 6.769043024525686 2.850175192375173 6.027766250738785
Be 5.390266334888317 8.205143105213386 5.938043696154983
Be 5.023503353482071 4.165956071836861 6.391590809799273
Be 7.2769834262467965 7.613111110286028 6.89754023523776
Be 7.193856105144199 7.877807383056303 4.766484702528433
Be 2.5254713861196456 6.144772617865686 3.7092701678587177
Be 7.967017533992918 6.13822262617048 5.594306010529448
Be 5.5725626419007765 6.530947988081175 4.3215981643495
Be 7.627150174272915 5.923754704013596 3.592834130160232
Be 6.029082926888396 4.553942410491524 4.606191045490575
Be 8.14908807744603 4.103206240336461 4.807772190173544
Be 3.479731707909565 3.5283771809206153 4.097547426357868
Be 5.345965617889544 8.657344782095233 3.882250348690005
Be 5.066349416161677 2.4741761550060786 4.912014449920103
Be 4.129608955758485 5.117773753153361 2.9631128273204923
Be 3.6849803657837086 7.680411704230566 4.785027755357392
Be 6.966459859344368 2.4719699492609473 4.0039012584832605
Be 6.016963596959054 5.449587659855316 2.412364471326651
Be 6.485232280279836 7.493369704153831 2.676207576505093
Be 7.430419372806401 3.981409496097407 2.7867387121806626
Be 4.263244863612009 7.1556077111804 2.7414349840189796
Be 5.355998655378107 3.369280227066359 2.8984642753478855
