36
Energy = -102.12237241 eV
Be 4.899607141350045 2.527954878665236 3.143264082178837
Be 4.027551585514888 4.327180579358982 3.9003944836789617
Be 4.660541165386063 4.857736889499628 5.655556545297782
Be 6.30646839522958 6.327217777284265 1.9886202684895549
Be 2.5372627324836636 5.474010731708918 5.314781619482576
Be 6.692379102476781 5.67377825491211 5.529920823754476
Be 4.868341662375211 2.6172596358185354 5.369146515862611
Be 5.173578580608092 7.667527184597043 2.9852244602446634
Be 3.6323202633146625 6.79965703897175 4.131820531771636
Be 8.296594500911652 4.812774121412643 6.839486525614826
Be 4.650982067606652 5.054163668548021 9.063825745973034
Be 5.792149780126108 7.782220860180239 7.224128893732642
Be 6.5383479508912 3.6879243240860125 6.410279492384987
Be 3.379896485355797 3.802928344153746 2.119462268923448
Be 5.455532200709365 7.529886871007486 5.1328141599532335
Be 5.494795550036535 5.803370917282187 3.814077654010521
Be 7.168330517394511 7.217091669460713 3.752343339857271
Be 4.144546366148099 5.9048072409819525 2.1130037414317027
Be 6.727341182259558 4.624308478642895 8.33816972970072
Be 3.2250245178695076 2.229262172929125 4.188725117750152
Be 5.472658718745294 5.741085282815195 7.209155973705368
Be 7.542788323073722 5.165846368722158 3.3252235633382496
Be 4.740915078028511 3.6669548856363394 7.435169431925791
Be 5.5331778021989235 4.352435804764109 2.252736909894766
Be 8.128880007110949 4.020867897105766 4.9704339082673075
Be 7.487217956449505 6.521352388316413 7.548036934640523
Be 4.129122823687768 6.933358485876179 8.440563845449732
Be 8.663972399745411 6.051456005438768 4.977673733476845
Be 7.4477216206232395 7.6483825639202045 5.8108314707429205
Be 6.082754940543299 6.603653370750844 9.061450324349504
Be 3.8315340173053274 6.943655839869439 6.317249236529174
Be 3.0237198856087626 3.494689702250262 5.972765990491076
Be 3.2818068693639106 5.190941195347443 7.375768536278644
Be 1.963289142780921 3.8143022783207896 4.152184055162698
Be 6.172730884280154 3.8251655135957847 4.279377067480351
Be 2.3991823410469775 5.535449426364283 3.0908385907204354
