35
Energy = -98.33313409 eV
Be 3.4939907347820256 5.883093298501489 6.827400525928149
Be 4.756484183710103 9.493825165519295 5.047223497829308
Be 2.706541888854571 8.695502555901465 5.002413075799176
Be 4.079932927981393 8.130082468273647 3.6445321467078315
Be 8.042027392713372 7.892108297244567 4.692510705610218
Be 7.680684550825879 5.912818896889944 7.65153352736436
Be 6.793122242253693 9.399972054207165 5.428814094097163
Be 7.655570383036023 8.175249135257 6.840902943300044
Be 7.109789112954305 2.0581920569343435 8.345081656290782
Be 5.505918823869607 5.784524023585972 7.4116108562876235
Be 7.367181952210785 2.0283588017736944 6.245205645758767
Be 5.63911324134795 9.179532084568567 7.138914090839269
Be 7.148688653138831 6.4417428046690235 3.422713798299008
Be 6.144866788202845 8.194567031610553 3.8898812409018655
Be 2.4613402264102198 7.566562381752182 6.640016176766354
Be 4.821120236416251 5.1504753193426565 5.388020644223495
Be 6.7473950740353335 6.376587222387941 5.555088788255914
Be 5.541586294455341 3.038941606926465 5.2211142938971395
Be 9.383282180356467 4.939036045446053 6.6947335950176585
Be 8.426359036529751 5.13660275306923 4.752514755493407
Be 6.275899040169556 7.523147401877758 8.15959804768208
Be 8.923296138999108 6.763098809888472 6.120757436468572
Be 5.086543204515746 6.348383961914506 3.733453624899032
Be 3.1216072666836734 6.588231868202143 4.799924576452474
Be 4.647647430359 3.911430649806966 7.026721465524598
Be 9.060918554857075 3.1879107317935964 5.833179142469478
Be 4.206781749201145 7.549363709448526 7.912899314007316
Be 3.574739453171554 9.235730348591781 6.791816789607728
Be 6.3443269340710335 3.9944476503844295 8.336215449046001
Be 5.546971897062064 2.18217074808402 7.155802147509176
Be 6.875438768889059 4.361363087260034 6.281984369349112
Be 7.6088759146965215 3.1121181491224057 4.464967903451808
Be 4.9089446306349 7.403859498959938 5.802485673735938
Be 8.357173824559709 3.577076298401559 7.769016795965786
Be 6.3709224251893035 4.654458603842567 4.085172233453728
