34
Energy = -94.32610738 eV
Be 4.144716525113733 5.892098320505791 3.8775931001711563
Be 7.4834524231035395 4.337262742527537 8.58072061185816
Be 8.917501046862403 7.818590280900499 8.276147527481392
Be 4.848294259174811 6.989518270264633 8.693006717530329
Be 4.122416544191961 4.0243456950486465 4.579943649277006
Be 6.719311905822499 6.557667270304079 5.980091747304826
Be 7.461555195221214 6.277129151893288 9.33558782109596
Be 6.10720062954181 5.752243578254683 7.713676429583578
Be 10.770650759083097 8.80518950144908 5.3142837313337585
Be 7.817489819011094 9.54854431210082 7.1640395283024345
Be 3.4441965884045747 7.2353525839295845 5.2631624647254585
Be 4.9722297345711235 7.552585942639734 6.712298002147976
Be 6.283590928719091 5.139703148997105 4.5280308917159555
Be 5.781645064674414 4.941024869930149 9.57794922324726
Be 5.6938655560794125 9.28174034388153 7.54484540438166
Be 8.561325456530655 5.822255320992203 5.3114154430236145
Be 3.2010899877891132 6.380976938517236 7.158156873000391
Be 7.2268353162608365 4.467878918573201 6.438927461637611
Be 7.541475929183846 7.477096227700282 4.301556477458761
Be 3.7273839508656983 3.8618140084355135 6.675849210345043
Be 8.341842659092894 7.7051671046447385 6.275407761217675
Be 4.115833652890919 5.026610369626409 8.344654359500417
Be 5.56454837359881 3.6615702984613203 7.797839199061761
Be 6.554727689134195 8.749277789144568 5.712528196706709
Be 5.6196005214965865 3.3792001280962136 5.773884713859041
Be 9.80918201315878 9.147863766314098 7.000447816778653
Be 6.867631115452235 7.689016504096014 7.88987793193909
Be 8.693407122902947 9.32523327298058 5.110513613375862
Be 10.225783474770287 7.109371696220703 6.541252772875015
Be 9.568617555806528 7.4512537279943585 4.507432479619774
Be 2.7178620952305756 5.308601888340401 5.397671935848671
Be 4.8819094421883715 5.539667674332357 6.077976446814626
Be 8.341594743587018 5.967923571494109 7.448413686585289
Be 5.396729472016055 7.301722332939957 4.620314321726195
