31
Energy = -83.32825488 eV
Be 9.209541465067266 5.973738023502784 6.753210799983972
Be 5.695257033222385 4.030020322924182 5.072453098527465
Be 7.72453198773451 6.516777028009631 9.204407912947623
Be 8.736227352780173 3.983600681424076 6.847872831525572
Be 9.035700505614356 8.030887539408685 6.197632061904871
Be 2.9549239270834793 8.206529253955585 4.10765108125023
Be 5.758987964698894 9.275670645271674 4.953412078435607
Be 7.391301903795354 6.9903818623622715 7.002104327566965
Be 6.846513623085582 5.089012399423695 7.807361682934842
Be 5.760515846484748 5.928747161017387 4.190177336744112
Be 5.578824303178648 6.131979941582243 6.427267589762586
Be 5.543820947291425 8.400582292687197 6.889184228122961
Be 5.106499397035217 4.196470279035819 7.008617818138311
Be 6.203114252185461 3.1485776872926725 8.585113598204792
Be 4.188411976065123 9.688169262214364 3.643644146415065
Be 5.292906485384795 7.875797858631219 3.5010876506266313
Be 3.8634664091052056 6.414611495651508 3.5910339838601177
Be 9.091367392503477 5.065681213840806 8.628861506943652
Be 8.183311486472547 3.039726505899276 8.50257775992138
Be 3.8200158627232375 9.37874458506495 5.595665019588298
Be 9.268642567757306 7.406602475775921 8.240715613476187
Be 7.358374523517012 5.199121347412337 5.613222662006337
Be 5.814105519759925 6.819641915780606 8.386774799689224
Be 7.3596020443180254 9.18190307760487 6.3723822092203015
Be 6.897495069279183 3.1529894894055324 6.634035217291699
Be 8.923401634858793 9.381486029149487 7.6604625835420235
Be 7.426924969077502 4.436688256755685 9.748187257825615
Be 4.223193944060379 7.336709047324803 5.511460474144928
Be 7.228393438052975 8.445713737090088 8.467794391485684
Be 4.075324870132801 5.238834004266749 5.283674580821693
Be 6.897686317373154 7.492989599932419 5.0303387167896325
