41
Energy = -118.40233092 eV
Be 5.156926705989331 7.403438619133223 4.84301536732806
Be 7.142848708922854 6.906461037089282 4.215073877635048
Be 6.914141965885438 10.411818613637513 4.58799475354824
Be 8.494105107884808 8.857941614739042 4.214152553638512
Be 6.348826116555764 8.727852255346102 3.6997151460976863
Be 4.807140576096165 4.042156556358047 6.076171172018245
Be 8.97732381877155 6.880055833060627 5.2815013165437295
Be 7.902158520378579 5.149358705367212 4.9564265555935
Be 6.556346642346443 6.416935700613416 6.357799170413001
Be 7.171144645599873 8.398255245064432 5.7519029585921135
Be 5.126169642461769 9.503849700050367 5.281108393468762
Be 8.180297653947198 7.393522548006117 7.239777870458802
Be 8.602600940539993 10.252148057467448 5.8163604597856615
Be 6.818528563127462 3.9954530161909467 6.187623639199809
Be 4.401966297596608 6.026013449928502 6.293597157614748
Be 9.57893843601258 4.940580478868588 6.201133191549512
Be 5.764737974738599 5.268532104865696 4.700969547262708
Be 10.211475745183057 6.624498888812643 7.228115246428427
Be 6.228879294482011 8.26775941312671 7.577558125725351
Be 8.772532450955444 6.506399026068972 8.92922595368523
Be 4.735930604256302 10.040940779558426 7.288862218549648
Be 8.006158132768842 5.154062950085115 7.423608145326845
Be 6.607471697397278 10.36121785892513 6.674423069508579
Be 9.85791330045769 4.883587259557271 8.447318382914174
Be 6.802682166149503 6.485508636926865 8.527160101715934
Be 9.678775052086447 8.560673019640861 6.306464850282898
Be 4.193975694952022 8.121670441947636 6.649326562643349
Be 5.735292511187771 4.872767756986587 7.781757432942766
Be 8.145986529296056 9.483391117393872 7.728906446905869
Be 4.323374737954732 8.719262810188226 8.72943870453208
Be 10.822476184431357 6.586027830687686 9.316746045907648
Be 5.771228493128546 7.862434521905149 9.857791475805376
Be 7.751745051023943 4.76958737573898 9.501237509678297
Be 7.57506433474079 6.585902729778944 10.626287095153327
Be 9.812808022363042 8.312635627271622 8.510713113454939
Be 5.698123324702055 5.7260704083122835 9.93882890042224
Be 4.709471796609768 6.730891305176467 8.291355441679151
Be 6.1695723650130585 9.816318243790837 8.895323977412115
Be 7.765445951039551 8.317729246224085 9.429041091027123
Be 9.539643542036755 5.4733077030929405 10.482002078283358
Be 9.520463611592413 7.543674423680043 10.534877809930583
