4
Energy = -5.48420117 eV
Be 6.190283352790551 6.769352247954358 7.42218342117554
Be 7.502298442266458 6.539260431576714 5.871846893029065
Be 5.503028855931452 6.751108360732572 5.497642908754138
Be 6.207019361389626 5.029987088840632 6.344805522936672
