43
Energy = -125.7416153 eV
Be 7.0513140509220325 7.029250720238407 3.583478416972156
Be 6.616694020814645 4.95673224666167 4.8362834048291115
Be 5.916959972143368 8.5305168188012 4.638655462160919
Be 8.435055798669229 5.7144176413959284 4.153484913057725
Be 9.05490682236353 9.929494959392096 4.086226234867306
Be 5.236223403584996 6.544734467035184 4.419818735635746
Be 9.023647543762877 7.798011214786685 3.809223944995584
Be 10.060059499948938 8.788032871776334 5.472488907172137
Be 7.4087479688053275 9.127372035480855 3.3371045969127713
Be 7.175368993116766 10.421523375546117 5.139732526652498
Be 9.08555587528285 6.777087395196458 5.899157017947769
Be 4.988348787685314 5.511942507309472 6.20707892956975
Be 6.52627518840582 4.429891034132851 6.995948341677221
Be 9.093531874293125 10.615923984350218 6.00349705813862
Be 7.921328506308921 8.570290707636921 5.541842740471077
Be 8.404000721285097 4.727746932371103 6.012645827710426
Be 4.649211053785412 7.6444002758413285 6.071826120852253
Be 7.709817272983006 10.135864298086396 7.421200418582199
Be 10.636592074321777 7.491070957819041 7.073050366998679
Be 6.0554703119675555 9.080637557998603 6.630585169150462
Be 6.8362647945800274 6.802782862260246 5.945153760737723
Be 9.66747794039532 9.254656732444705 7.530609638809266
Be 3.575258581386903 6.448791311067547 7.329720489800232
Be 7.805422319926472 7.991169416628849 7.505393017000146
Be 9.894617968414996 5.523684934791447 7.556892680017592
Be 6.361126296712514 9.054893339879472 8.742106145816011
Be 4.801876491898873 4.9380913512538065 8.316046037044211
Be 5.843429956697219 6.818284251798995 7.9013258665561805
Be 7.883285409145068 5.989802887930019 7.661027910960441
Be 6.818246051545708 4.734916196494081 9.111091744547732
Be 8.45432490931311 4.0442050966628305 8.014035504042106
Be 8.467244968088487 9.045231669320096 9.270228138133724
Be 4.376619017727253 8.359133652883004 8.07906314102987
Be 8.890531784217078 5.4287245772990875 9.520074753815583
Be 7.3203199473401845 7.0342270848565835 9.346302461390291
Be 7.473287614732561 5.439163185775729 10.981744122487665
Be 5.471750171836738 5.8082721773554455 10.224141815194308
Be 9.478026772645668 7.268162329598617 8.776947392875245
Be 3.860560926283473 6.662816791277967 9.296625320744283
Be 8.607633052548053 7.34317665290862 10.911372291616184
Be 5.249290172593212 7.928736740683387 10.066956226773625
Be 7.0400990766209395 8.850826702239921 10.715756073648187
Be 6.479547845564246 7.110659863397361 11.56940814326884
