5
Energy = -4.55086343 eV
Be 5.482872248652921 5.0683631368640105 6.50619655229025
Be 6.899103867145993 3.5517925419582603 6.659174011744827
Be 4.973753730498706 5.947178117990186 4.677139446709823
Be 4.193197133212282 6.613587985403831 6.413672550142501
Be 5.495948238684154 5.6724466807912375 2.6792973867512013
