50
Energy = -147.10281533 eV
Be 11.188518801156045 11.774714593787545 11.573819112590117
Be 11.45494695583836 12.271208808079455 13.70882333622571
Be 10.920530141279222 10.155861996038418 12.775334227339163
Be 12.977084624912635 10.840119778924503 12.440418066577422
Be 11.874973396980712 8.149998720380996 12.48064590133418
Be 10.161317331328085 8.400395987156793 11.213585655394297
Be 12.06228730740307 8.017889982559296 10.118797771498194
Be 11.827305854818409 9.869006874554886 10.915358445748792
Be 14.518895588504144 10.795896133453464 14.185788031282135
Be 8.666939214563081 14.05198053907463 11.797145561275896
Be 7.380491252722219 11.210859243116724 9.935843352272549
Be 9.569338210569915 12.108395694063503 12.865751967603748
Be 10.235141637692491 10.64275739820559 14.57689068670149
Be 12.855677373026179 11.685871478908597 10.371374388761636
Be 13.701897457908482 8.528664505178496 11.536177258751069
Be 7.977514047726462 12.759839020094136 8.687574880513123
Be 10.91924770009317 11.38493829555642 9.482385980639448
Be 14.172489326378155 10.156698640896893 10.434215409609093
Be 15.06788949890994 10.204003505926789 12.295172567188857
Be 9.4255909094295 12.534782500737148 10.588342156389556
Be 7.152485639817891 10.042437195312589 11.549284628384003
Be 8.42087599770936 14.489980678808488 9.593965137132509
Be 13.538269546012163 9.0395852102092 13.592264995557132
Be 12.856892464499984 14.717651947822993 11.014647680401243
Be 15.046659138048238 11.968843464538656 10.744891907416736
Be 13.440493416374373 12.514329113758736 14.17086568846439
Be 12.383410074572303 12.253997799366493 8.345640874930465
Be 10.2198302782486 14.739683921509696 10.440835627394554
Be 9.502717006693496 10.535023546446691 11.148562995158889
Be 12.469486700525342 10.731938612036878 14.683348423734945
Be 14.769948654795664 13.978050316208112 11.247137344752646
Be 8.365672204384287 9.20253191515624 9.944015073919372
Be 13.845120925615301 8.56896046073908 9.31607043708651
Be 11.63861422049027 13.312614693234545 10.078536185158319
Be 12.456706112404474 10.03863374751037 8.872053324280357
Be 10.427466254140807 9.303906841799186 9.339451522651904
Be 7.117917380801421 13.248638420416603 10.526745549513391
Be 13.910825570911113 14.278104388207721 13.044618464421998
Be 7.725998028295551 11.940769035615492 11.974480465814947
Be 10.02683741443557 13.257675535659168 8.685720099627959
Be 10.857939538111035 13.805170217600162 12.156002342134403
Be 12.81000026826134 12.933274337463189 12.11279275697722
Be 9.857526134643802 8.465869033502745 13.33961539011409
Be 15.003371143552023 12.420096816320399 12.776398382317739
Be 14.17103807840386 11.328354482839599 8.770904348183743
Be 9.047853934813972 10.977302500567339 8.771930178072603
Be 8.56536325156859 10.199102158577784 13.193558077008973
Be 13.862225323003992 13.361946905551612 9.482873405184904
Be 11.6150377105832 8.928523013489055 14.40489361520886
Be 8.29128727006541 8.478840440438786 11.991133717384118
