55
Energy = -165.32770024 eV
Be 9.871310641808943 5.634816845996007 5.684537227914798
Be 11.349058043245627 8.967374454136852 10.024821105299072
Be 7.368803388519401 7.477111115501118 10.002937829957474
Be 5.033745007090726 9.09456623030435 9.928299555642225
Be 6.8866048147093855 6.624058794986789 11.882170015232727
Be 10.080469981153426 7.65107872034737 5.039391773884874
Be 11.229336237534433 7.267180213710475 8.911308150458789
Be 8.447957563665446 8.073274939380006 11.834210346155002
Be 7.840074123643181 10.05674304446933 11.656161779890581
Be 6.403954076539017 6.435861441441887 5.149509230430548
Be 10.3005914377073 10.785182380140727 7.079969484957855
Be 7.107676154508259 11.970965447377347 9.725619358271345
Be 7.861088101796154 10.510602900682601 4.443598439505893
Be 6.901592291714147 4.0933029400055565 8.47310978751766
Be 5.200674537644585 6.400507009832036 6.861395931854814
Be 10.2624681190926 7.471693606539874 10.9291349388311
Be 5.949768898627669 9.61965433472066 7.906356046114208
Be 7.256195987007456 6.223047886591026 8.142547108469964
Be 8.587156507499026 9.067508032787057 6.129704883234295
Be 7.887769527694039 5.047187681102497 5.260744558280218
Be 11.030674092621327 9.164460210082026 6.003534569289207
Be 5.366540827332062 5.48158710031154 8.74558114258793
Be 9.931347691711128 9.687568376053548 11.396198046887935
Be 8.882922591284636 11.143399359785974 10.271786237153924
Be 6.8146386112088315 11.635908429760299 7.689032047076269
Be 5.346981344681038 6.886931952614458 10.483735281274868
Be 8.650546299216185 6.961697168618324 6.698566220864789
Be 8.506110173048526 4.553734703508334 7.14982502504117
Be 6.673038436693833 10.213122196961907 6.052414183324201
Be 6.440809184071379 8.047495590478999 6.492192906967677
Be 7.016272900830369 8.522870619895746 4.535017079409485
Be 9.115256116111917 6.908423563534472 8.956912803206453
Be 6.296044144666063 8.605251347491949 11.57708152455428
Be 6.326075903078048 4.766471470786899 6.614408728545972
Be 5.332143075140195 11.120512210857735 9.159194411361906
Be 6.838359058188995 5.267572647317248 10.251677749769682
Be 9.055168200283562 8.899968853171675 9.755542126506342
Be 10.258974567187531 5.477629563247626 7.819856374983334
Be 11.750607263517523 9.247941398144896 8.00056803431259
Be 8.710600674042416 5.95987744738604 11.03723752748856
Be 9.837505060661925 8.603534010487577 7.782216441351874
Be 10.485986120263538 5.627857819901864 9.975619615591514
Be 8.433550195165598 10.210035266944221 8.079008424900017
Be 8.435934555685819 11.429585224240254 6.29426636714634
Be 8.897122625726439 12.125651429060376 8.383343411711094
Be 5.903290461485906 10.689682123437871 11.066485811620675
Be 7.1228879684358155 9.682205552260715 9.678900628414421
Be 8.729440658187068 4.73365945787512 9.284859284513841
Be 11.071500149836154 7.158013821008012 6.786031708394847
Be 8.977086078383921 8.91233763317243 3.849430355527073
Be 5.644492391246452 7.630875348380998 8.53102550969385
Be 9.82911342937664 10.506435042239552 4.981625701351152
Be 8.335383246109933 6.883279823548561 4.3945864501702445
Be 7.754261937858819 8.29105570357912 8.104595071060414
Be 10.495797883554047 10.614408871894813 9.174875004137462
