54
Energy = -159.58199852 eV
Be 9.597769984331071 6.065002880477302 7.680231485631418
Be 9.989820720285833 6.34063537330218 5.720579568837987
Be 9.559534381071938 4.324798075163099 6.387329735431667
Be 8.740345420151218 7.827069571052483 6.754912529469845
Be 8.153703197672076 4.614858793980559 8.250129871962287
Be 7.719595196228466 6.736359132817827 8.40751707494619
Be 8.496933107151595 2.9511307092611494 4.92524386258811
Be 8.282368826199724 2.8766110977700956 7.0508282617486575
Be 8.888335380635397 5.0784366489848445 4.496063053972899
Be 7.93407866325763 5.771255524583008 6.380475939896245
Be 8.55739474861461 7.367715434061947 4.638467510070082
Be 6.998689907528146 8.514399649512526 7.739491272019352
Be 6.705547744285274 3.0985639319644807 8.34593403397746
Be 6.9363568574078 4.167885154860998 5.236455660611457
Be 6.103813227757967 4.517847390340069 7.043380427474942
Be 6.25346303282479 5.358958061087402 8.876758523076413
Be 7.023177121467469 8.37025511981182 5.677649134834852
Be 7.571215225040295 4.119833379074988 3.150035894252277
Be 6.086755929457047 6.690111808674472 6.832905618439123
Be 8.20180140772358 6.205339976324482 2.9002736867586707
Be 6.393222303876738 2.3721738282230604 6.395894222972427
Be 5.414095125318738 7.371163488331883 8.648914890927019
Be 6.7826405229493725 6.227007622148458 4.61446585159275
Be 6.31752452436277 2.5504922749354852 4.034935726992694
Be 5.072545654666538 8.668459471801016 6.939292757843148
Be 5.137221675224539 5.454154679982438 5.513740863921007
Be 4.585628816333526 3.2203570871352234 7.578236701787235
Be 4.853638530950361 3.3321477216680346 5.432894819080989
Be 5.163405558170549 7.784507231694185 5.07712409805997
Be 5.568804169476658 4.47522597128117 3.7069245041228798
Be 3.377246874200117 7.547785117933277 7.425363416835687
Be 2.975500592968456 2.5132256540753684 6.364795824394934
Be 4.337407092734292 5.606859651301151 7.768830566828391
Be 3.3793875139900247 4.636359186578379 6.120232665828195
Be 6.363675856432732 5.715609959944251 2.129729783403381
Be 2.6528969976409464 3.855554980910963 7.9200797081875125
Be 6.502117247089936 7.723545755146185 3.1902893489446718
Be 5.335118244348424 3.2769650708586364 2.162860242024296
Be 4.888112214261812 6.378117405512139 3.651256286501271
Be 3.6127595964456924 4.805627251649059 4.068658351970284
Be 4.084319719941172 2.5090183223866096 3.7315650063214276
Be 3.432816790425671 6.597825094366695 5.209399433834226
Be 3.2455212289722866 8.686892709597423 5.584746284924346
Be 4.365801453430891 5.181350572588002 2.0272321563545432
Be 1.6060736021099868 7.423010563258143 6.169249118600653
Be 1.3345353241584996 4.028459372762258 6.300469660966419
Be 2.2668969307681692 3.3171700198830667 4.558396601141664
Be 2.1081822053069845 5.795292341815305 7.23704803673097
Be 4.7953735665543205 7.203960361765289 1.827380726637842
Be 3.849837163922542 8.201024022081562 3.4836290929432803
Be 1.6803974285215408 5.560334927425207 4.8254626321359835
Be 3.0933630873147786 3.696525910262972 2.4290740929826873
Be 1.9506550045264175 7.711791825744014 4.1560931568914405
Be 2.85611289340041 6.3610870198675595 2.8274040058500747
