6
Energy = -7.18058168 eV
Be 7.076330135619903 7.524705518780625 9.036624798112022
Be 6.790519290492726 8.61459100924319 7.261384303255283
Be 6.619911436057051 6.423108239107693 7.378089178440811
Be 6.339809317104468 7.4789993066584 5.631954965718599
Be 6.24867562877863 5.351153900025653 5.610063354778959
Be 6.08876621940993 3.7714540536470196 4.245895427156907
