8
Energy = -12.6723451 eV
Be 6.570830352492242 3.0253866132846943 5.59270191185156
Be 5.556260938301945 4.7725866581675715 5.974900961351647
Be 4.823270544849517 3.001585572475293 6.7284843479602054
Be 4.747106702407778 3.345587288903953 4.698862523927967
Be 4.575362992854927 6.694720370144923 2.744666567380482
Be 4.708406883420977 6.328416662749193 4.763581848819735
Be 3.8967827894671174 4.901770015061355 3.4890286719689145
Be 2.8540399784485593 6.625428670762853 3.9174187039150636
