16
Energy = -56.94061229 eV
Bi 10.972378698703174 8.485918466151645 5.767574850044607
Bi 8.718926305739993 3.8933056619462683 8.536689561104412
Bi 8.046050179596376 5.338407430792254 10.970210306976517
Bi 9.658304217985313 9.81935506762052 8.374302805753763
Bi 8.786168321996382 6.790974036868172 4.6409934808524165
Bi 9.456334218985553 9.488457862528934 3.425788163589516
Bi 8.040523944931577 7.016865755865539 8.534631584524993
Bi 5.653130316744153 2.5840669422639575 8.634164499766598
Bi 8.041646810984933 10.919273419984359 5.986015620129793
Bi 6.295808302298808 8.593188767746533 5.290383695293604
Bi 6.260654377791785 4.5661931130505895 6.284692605919539
Bi 6.8353044106827765 10.46481737380781 9.602931374385719
Bi 5.064800430159238 8.437119040306266 8.132885275246833
Bi 4.080346003382711 2.4154873074268157 6.02133325060522
Bi 3.7137516806055797 4.769103857509831 7.899928790385688
Bi 5.181872524160834 11.428597921677179 7.346876730459503
