18
Energy = -64.29674458 eV
Bi 5.168163026737063 4.430955286632086 6.452193876669843
Bi 7.080083463579715 7.851917346220945 6.632867505898813
Bi 8.629850409295635 12.01521800905892 9.104853387202873
Bi 7.745875449548773 4.26426475894975 8.206789315269953
Bi 6.129564446466034 5.656469080983766 10.337532538429862
Bi 10.587391275889113 8.417402546709203 11.154806563397246
Bi 3.4683502376164514 3.8143315038651 8.853163524482921
Bi 9.728438340546475 11.27007450529748 11.867437829686784
Bi 9.580133659630011 6.690106855374271 7.746763162803242
Bi 10.695566628039355 9.901130331982348 8.424508185924115
Bi 10.476859910248537 6.664128708773082 4.7919335705181165
Bi 5.695985456216039 8.510860952803508 9.306026067804146
Bi 8.842092262685917 8.633336580525368 3.1005988070845896
Bi 8.193986552933715 10.45424229364795 5.480768873779246
Bi 7.661017534685951 7.930392049136089 11.693784574168612
Bi 3.40650690476801 6.508347169131255 7.812764851669725
Bi 11.511325449361586 12.572103500880582 9.771308868445422
Bi 11.09892368210592 9.647544897746704 4.805481096188341
