16
Energy = -56.97549459 eV
Bi 10.110967498334535 3.9538617150595203 9.900989978287832
Bi 4.158865623451079 7.295478223013029 9.078495042598185
Bi 3.122650829821759 9.413984997697689 5.048386091412907
Bi 6.436073243734547 9.51761865796614 7.859206157729871
Bi 6.854106055604572 4.1758090151142335 7.589088497964629
Bi 9.261930657681416 9.894933328953949 6.196203057800968
Bi 7.81836012188203 8.795013176454766 3.850193397615254
Bi 3.9575183486904706 5.092818621728397 7.071644752549748
Bi 10.686392897127643 3.6430543089653775 6.9194588398569445
Bi 8.850113563125628 5.972252818813237 5.966099688779446
Bi 5.443260863574475 7.468994598959363 5.730345286628881
Bi 9.802006250190676 7.699302388125562 8.327407514053977
Bi 7.695002458997921 5.919500714599538 9.888269894666417
Bi 12.182865267419539 5.680180001971759 8.540215122669371
Bi 5.87516151859667 10.861510060646934 5.168084956000036
Bi 2.9172932404561656 9.791287427434131 8.007200797719593
