17
Energy = -61.63308153 eV
Bi 3.8648589474290684 8.471140236302483 4.384885664595924
Bi 4.9216100662837245 7.340035044828592 7.021202764862336
Bi 10.74649520070789 8.376940733648667 8.595458465994676
Bi 7.340376901323869 8.83286627699454 5.939540734292275
Bi 2.1737354635335295 6.256532616470771 3.1378767327672348
Bi 10.364643412974708 6.389213868191489 10.857531740242214
Bi 9.688222011640997 6.934522536478055 6.1175815273909615
Bi 8.511736802863153 4.458450631659662 7.338806809279297
Bi 6.82459553737204 5.0387492961499225 3.3725425128498063
Bi 7.6695947220322775 5.2468395001382495 10.107386102137786
Bi 5.616603811655817 4.566599925058389 6.0953575854636854
Bi 2.782390537695215 3.75482492877001 4.654843726440283
Bi 6.533032362977527 8.021073397815584 3.0689930993481997
Bi 4.162114914048152 4.275781590085454 2.019147205355157
Bi 6.3459886126458205 7.986568066593347 10.324952335998534
Bi 8.372689474361245 10.052789681712696 9.44502191654026
Bi 8.728576949069824 8.66508613562405 12.153585689856403
