13
Energy = -45.73901962 eV
Bi 5.927192737479601 9.84081739950922 4.638083517928076
Bi 9.641504941873064 8.990198805480913 6.790267233352188
Bi 3.704235779839017 7.894768994458755 4.089204658406532
Bi 12.142270417574405 7.375581293523201 7.246151695533219
Bi 6.591357364692262 6.90062758003425 4.285650825100758
Bi 3.825308556468775 9.33271053727946 6.776750076785205
Bi 9.818513791935555 7.30521656078922 9.313874240757043
Bi 5.859929769687716 8.034829730431198 8.675899790012636
Bi 5.9870407685670655 5.5632339165608995 7.027576010178112
Bi 4.326757413106389 5.683004633312107 9.880016280970308
Bi 9.872664240889499 6.272773814178728 5.514505394893642
Bi 8.770074996583418 4.7159423385528445 8.093924670810946
Bi 7.028670838138338 5.298291522422753 10.826073976962766
