17
Energy = -61.63338033 eV
Bi 5.931988453008531 6.970498835592355 1.333174527244237
Bi 5.663377436214648 3.957742298402966 1.5568591581422813
Bi 3.2307929291017707 5.760492418891687 1.989064589133711
Bi 7.1325371614923645 7.9561019396742765 3.942705864113494
Bi 8.305393838764381 5.26729510128212 4.544863310667736
Bi 5.878698038742992 3.526283417487416 4.574165887669699
Bi 4.447396356394705 8.121226831585822 5.263223248966261
Bi 3.4535847412944514 5.318408102860378 5.003419671606314
Bi 5.012099469692166 8.097744029152102 8.276133781276853
Bi 8.887146985111999 5.317450888828527 7.556854693404486
Bi 6.189568738670733 5.3986595562810695 8.87102296310261
Bi 7.432040579417682 9.873673637971818 8.486502360478047
Bi 9.866468877534881 8.126981545180023 8.017580751339949
Bi 6.839729913772145 9.415551208421538 11.422894315131035
Bi 7.421028077514039 6.4121745220054835 11.51839898081547
Bi 10.342849311473302 6.915185324736684 10.753868658956566
Bi 9.62976898237747 9.229000232224315 12.553737128530349
