15
Energy = -52.36411672 eV
Bi 8.969327805494773 10.628546269187416 4.381047415606226
Bi 9.919185020659723 5.557322020279287 7.406873372928186
Bi 7.01693902563258 11.562764074009424 6.391616558936079
Bi 7.896823453751913 6.627672952499138 5.41010516190042
Bi 12.051549530533586 7.847522912068776 8.463442065314963
Bi 7.709515022503912 3.691425108290062 6.150495391307403
Bi 9.822272425687487 9.429652715226513 7.04062155384565
Bi 9.330218098611333 12.140996194860964 8.262002296468147
Bi 5.811505683451344 5.636566785770492 7.455011075109295
Bi 7.958793600567762 6.197482903040675 9.764454957719966
Bi 6.952201570003565 8.955721392847385 8.570930044850337
Bi 4.248399085719791 7.7579413128196775 9.772156316407369
Bi 10.342694894675216 8.125704703083635 10.82381257411246
Bi 6.171495127169374 7.895353760879418 11.86244032716395
Bi 8.349902268478726 10.518398442767442 10.78945431533698
