16
Energy = -56.94123235 eV
Bi 13.104472397255028 8.976320297505238 7.299811225488855
Bi 7.415610615280911 6.774753074175308 5.859555418141395
Bi 4.576424891139621 5.7222236266913376 6.37686374901537
Bi 2.820037191869798 8.369658785908886 7.126625637934713
Bi 4.5390418216313435 6.71974161174753 9.23102897991011
Bi 5.47054972647761 3.7675205300253745 10.204596972631125
Bi 6.161853318421343 3.1020777254953775 7.356866424286866
Bi 10.818750161086296 8.019656573986046 5.564960698708325
Bi 7.509012454135803 7.754682736614771 8.7304663836058
Bi 9.250699000360783 10.632522041878643 5.692547993679061
Bi 8.68318753372109 10.82299243329453 8.623342952384284
Bi 5.28933745687442 9.94088467327262 7.420287581397081
Bi 6.562173164349917 9.473248429398804 4.701754837109063
Bi 11.14938333387414 6.938081646367177 8.417207752506997
Bi 8.149810774138816 4.473076665246413 9.118867708253758
Bi 11.312830478552817 9.73718679505692 9.623700256081273
