23
Energy = -82.02582824 eV
Bi 7.744060765220253 10.201648357322176 8.037488543818787
Bi 8.60608474724588 10.522064756060585 5.202243234912744
Bi 5.841781592455586 9.41944218958948 5.542719397368953
Bi 8.21978884896068 8.307953746647344 11.54611045853663
Bi 10.025814279534725 8.310216236077627 8.895400628072633
Bi 9.986734586317029 7.446792227513374 5.826531406579621
Bi 2.4477292834883846 7.561363585329208 4.686495791642938
Bi 5.925981202597941 9.055188851238025 2.3269172254998174
Bi 3.4915280335113517 7.427689066807162 7.548069913788267
Bi 8.246816396241297 5.426309578245674 12.205939703968216
Bi 7.132803430348826 6.527581338305251 5.3360190938759136
Bi 9.873704626041663 5.22713122127411 9.342297220336492
Bi 1.1839345035716782 5.696397507753675 6.73726381760375
Bi 10.442673099727626 4.418145787223545 6.3440770106730495
Bi 5.82179289481818 6.6220806657619 10.88095093498333
Bi 3.8864031967651784 7.412191531931154 0.8131107660578952
Bi 6.394924335485587 6.074113951682445 1.9198502939384707
Bi 3.6636632333811954 5.256832773931876 3.0368947590892303
Bi 8.185031467201611 3.5708185518281486 4.529310048233373
Bi 7.036823237500813 5.4538762281040105 8.318014139569817
Bi 4.060729473014832 4.530118208997849 6.374670837427345
Bi 6.02991190562188 1.8950268257228249 5.599155415714718
Bi 5.566208887843053 2.813475081320027 8.440620453265783
