21
Energy = -74.65215043 eV
Bi 9.089911670136031 10.29407605086221 4.530451221796524
Bi 5.068939482107642 8.216674565121387 8.806757571713975
Bi 5.363050136903245 9.589478455527024 5.776649769477099
Bi 7.375947311254693 6.329796706517187 5.374871246073563
Bi 9.155440861668797 3.881905907741365 4.960228320048785
Bi 9.421601855707394 6.141152400059471 11.510217333454754
Bi 7.9743673464121985 5.8108867983821675 8.809607667267374
Bi 6.228870203440858 6.646679825615071 12.040237969537458
Bi 9.304302346880036 9.252544984819163 11.739861408928494
Bi 10.72628579720145 6.069539795652282 6.971723048988662
Bi 10.764966781077698 9.975816015047393 9.190879096103025
Bi 4.962494594530273 7.424599333212705 3.678518791050611
Bi 6.331504867381384 9.831815098659499 11.22197294711907
Bi 7.026294505475353 9.325314824842051 2.4667070678424134
Bi 3.678541697094698 10.859209150356127 8.008500857523504
Bi 5.00984163363299 5.184225115397424 9.892468651926453
Bi 11.79778436280705 7.176866869897073 9.64849425393548
Bi 9.345462787094075 7.510462887535504 3.3933321110915053
Bi 9.64277059940472 3.3943938769824844 7.909810270364991
Bi 8.257573949737932 9.250588218369055 7.351821294958467
Bi 6.554038202182498 11.626680719754692 8.662251364478385
