26
Energy = -94.40072059 eV
Bi 9.685324009925743 8.903719354934175 4.413707988147577
Bi 12.158026490975015 6.549606725124868 7.288073715906735
Bi 9.650024520538688 6.202155349514063 3.01324446408257
Bi 11.572608607688704 6.9322124493481825 10.250494956244712
Bi 7.269739664180765 8.03779787433093 2.7621755510295536
Bi 9.132251871791778 8.679673713559476 9.466240830586466
Bi 11.722971157993605 3.6223734855792733 6.702520390709906
Bi 9.212966094046708 7.074308129983639 6.781083934074007
Bi 5.206909866065165 11.35400000519091 4.7674617764735014
Bi 9.703516050666268 4.658878998222375 11.024461343540521
Bi 9.27470996398567 3.7314225290124687 4.816905731026051
Bi 4.576722323408876 12.336641208846615 7.568103813757725
Bi 9.718349628926218 2.6460046104221258 8.785641731057357
Bi 7.308320035535452 6.522349574288844 10.679020982501221
Bi 5.2517117821751205 7.316319883499276 4.95508817182734
Bi 6.43974967636438 9.953502670229645 7.219981988730453
Bi 6.209567228625644 5.86275674755156 7.895606886874577
Bi 3.180500651788576 9.280775256487102 3.888040755190963
Bi 3.721930021411682 9.605305982467394 8.569348873469071
Bi 7.225662183788794 3.149256334169447 7.0442442897942605
Bi 4.387306289875475 4.708469539889687 3.6264012930829677
Bi 1.6336075566874548 9.133173199255253 6.449115006788974
Bi 3.46845777067887 4.6006441052655624 8.452698247258011
Bi 3.645413988742274 2.876787398348041 5.930382171867925
Bi 1.2260187926259278 6.1565264362250565 7.089558563402444
Bi 1.498310716564635 4.5789797831623655 4.503597880349927
