28
Energy = -100.99476863 eV
Bi 0.6938471621524867 1.977204367088248 1.584457056636994
Bi 0.4864443824860486 6.387890024589989 2.7488452463878166
Bi 7.837618648067691 11.713787855246922 4.102689056548848
Bi 1.8378421203700759 8.837580401291515 1.564663391943585
Bi 8.728911364779805 7.858962572551884 5.387414930909663
Bi 0.4712517127296737 7.625639209424232 5.540681893122627
Bi 1.407618027689423 11.493482116019306 6.5320577859105
Bi 7.044351862091859 10.319906468399902 4.86864693117726
Bi 7.859806187254039 3.878728215541579 4.2773554266326075
Bi 1.3598479366276057 11.640631260888503 2.1285773232457283
Bi 5.169166386956625 11.977890802329263 5.8544631424908795
Bi 9.114774697773814 6.258355692749781 2.8302348878482504
Bi 1.847992779989426 2.5635974388788916 5.339952130071937
Bi 5.09582965603254 1.3149759068202211 1.5999267228546339
Bi 2.547782861934357 9.844941922653835 5.971148749514556
Bi 4.454929519041795 6.402277484895599 4.386466849974259
Bi 6.275615752125839 5.34897227612474 2.1817924756289178
Bi 3.2705878691028367 10.319906468399902 4.1433439153982485
Bi 3.0628875558448043 0.9172015244894428 7.823584708671528
Bi 12.294066500122273 0.5433305932673852 4.232185142910159
Bi 5.599125838270081 9.404123912885721 7.278311240142992
Bi 4.298656204410617 9.28480330627646 3.557925808708036
Bi 8.107355551519554 1.573265254534731 2.260120051164775
Bi 4.724424104629882 2.0940587616127013 4.548964940143658
Bi 6.375419945434551 6.4752673412680295 6.740228373444742
Bi 5.712968877848646 10.939018344811048 2.1353107588214115
Bi 0.24433958070016762 10.099529770849722 3.7601591492762103
Bi 2.559598782668696 4.107866511108074 2.56341157086473
