24
Energy = -87.40886553 eV
Bi 13.960679583592023 4.125806328401202 8.022142503865089
Bi 12.179536699106698 4.293983745610708 5.559719247067744
Bi 11.446405915438733 2.4529104901449914 7.865307626746787
Bi 12.51359387955339 6.697916276843431 7.351444556044651
Bi 9.283633605227443 3.8885826785428415 9.408982740887446
Bi 10.057630071863754 6.787925656122759 9.080444547018857
Bi 9.476768675590968 6.783189370630449 4.129300101310506
Bi 7.889681754302073 3.875736139271989 6.680550245999742
Bi 7.753489991028576 10.138967019781134 1.1586576269248927
Bi 9.264754348199613 9.778310895744458 3.7428956943279448
Bi 6.301732004205255 10.438857911787746 3.8252652311234865
Bi 5.536250064547657 8.208513103593795 1.9306542190801876
Bi 6.825220017366982 5.724628083141886 3.0718423602764715
Bi 8.005619355447667 6.905617326669294 6.761810865234647
Bi 4.888888456201667 3.8640063283806043 7.2094757890036005
Bi 4.7320656230520655 5.516332716843016 9.733499449904429
Bi 4.391907030908984 5.879206131647105 4.944618322508007
Bi 5.563064533464193 8.2898819616781 8.908262650593699
Bi 1.7621808982353808 5.690194952294343 9.36963650191249
Bi 4.10346820430215 8.578597296689473 6.294372646495379
Bi 1.3872832566257405 7.932390370144601 11.408984942063094
Bi 3.6026218965638686 9.839692234828092 10.672321844687218
Bi 1.3367949089171176 7.675277867333843 7.0936568049937705
Bi 1.005403049973796 9.931021260498541 9.116282840036277
