26
Energy = -94.51207997 eV
Bi 4.256857361551285 4.058171977822755 3.2068867202623212
Bi 7.019936680386115 3.8148730899029872 2.0345506772599458
Bi 3.9918796082180195 7.082282376580094 3.609963785003556
Bi 8.166828618383473 1.3787635729036147 3.447361883079079
Bi 6.6681434673475035 8.267360725780263 2.8022809649817444
Bi 4.050395571803836 10.890606322755108 3.953883622614688
Bi 6.463773193787309 0.838200045544048 5.886362996082162
Bi 4.311115598214757 2.9673011552285207 6.0157715800999
Bi 2.4440585979721003 10.558294708738595 6.542044559672967
Bi 8.645707159154009 6.1199786186520235 3.0798401821638155
Bi 4.361954928192942 7.496065689750614 6.65425096083681
Bi 2.8050739846377972 13.321229753030645 5.40740194058341
Bi 9.12529071854757 2.25415748801251 6.204335813076758
Bi 7.137655191380609 8.581325946318154 6.213886690921337
Bi 8.428646776791762 5.22526883240279 6.1131151101528225
Bi 5.8061064301445455 4.984309316192343 7.710843924731935
Bi 4.641437342481462 12.351592612437711 7.642367607751215
Bi 6.615217960503938 11.48374653361242 5.465605079672022
Bi 7.305478079731462 9.203073180639288 9.30961561328706
Bi 10.490800420643565 5.725325550373549 8.40454488903382
Bi 8.48780248915718 4.509600158639932 10.226636356601425
Bi 6.530640114486478 6.744436867827827 10.830748536096868
Bi 10.214342311098667 8.674336745657227 8.911091541398582
Bi 10.339020719593032 5.367007711523562 12.554688974721557
Bi 10.999561657501287 8.240079450537474 11.826829997187252
Bi 8.388421554038871 7.590759382734363 13.174772476565632
