28
Energy = -101.02621652 eV
Bi 12.320646942390301 7.402964542756807 6.899286470235906
Bi 11.609317044952432 6.5683426874695 4.038682612285414
Bi 10.668103031683957 9.940844355495246 6.438211119608042
Bi 10.404811165163698 5.077500722896251 7.931010183664156
Bi 7.282048873286268 5.084020457263861 3.769277889588608
Bi 11.34186027268777 3.761864608449972 5.23200460773619
Bi 6.305298415671031 10.735686362301932 8.03367948665728
Bi 9.218977228565903 10.580391171543402 9.070574077191768
Bi 7.22712368706413 10.394669664261999 5.119621397683127
Bi 8.762791520846458 2.4844338344698254 4.1411400884566145
Bi 5.578461325112576 8.220921501964657 3.6847160791609888
Bi 8.236731245043767 2.626006535123303 7.2208539712667115
Bi 7.345194545347394 5.971934478824421 8.281305973257474
Bi 9.175813208519447 7.3619905616532355 5.71759670112565
Bi 4.527043924712908 11.006073560094148 3.8180428812475973
Bi 5.543753520517318 3.5453964512760874 6.020812566157321
Bi 7.118353593543663 8.574845956770327 9.965890247388101
Bi 4.70601265896881 4.369787910925826 2.133732708195207
Bi 6.176934712228643 1.5275593659695084 9.38213322525729
Bi 4.5838226549088015 6.738767751159876 6.344999566964892
Bi 3.903279020525984 3.4052916875779604 8.79100737774405
Bi 2.678253919692064 5.373287633568888 4.14421780017267
Bi 3.1267411180387135 9.54317177826208 6.277183383304219
Bi 2.6451193371530164 9.724066631266767 9.364557506113428
Bi 3.34307013830538 2.464436722315812 4.034268173031856
Bi 6.155228936612519 4.300290647345542 10.595937073909194
Bi 2.2483882981911094 6.855516402662625 8.604275295963864
Bi 0.3697185861627139 8.962834942226168 7.547880462528867
