21
Energy = -75.90985389 eV
Bi 2.0626172697653806 4.638848084018124 8.766039730826563
Bi 2.2732113038721797 5.661397967479865 5.899339229884213
Bi 3.0300428964859183 2.7899991451140274 6.528781844292722
Bi 2.476090386397185 10.146881887524353 7.198677967732189
Bi 4.330196905647172 8.045573011434412 9.041060913314695
Bi 4.226685116507758 9.725865227866818 4.8070794368017715
Bi 4.917202788294924 5.1149497823699885 9.757128168955099
Bi 4.991276725777798 7.033534430819075 6.079399845389921
Bi 5.816337642789047 2.9762845990405746 7.717145900119322
Bi 6.7755297836466495 9.726878277321816 9.05422565807617
Bi 7.2556243026197516 3.1884387140299126 5.059134053140575
Bi 5.172471949417001 11.495384110068477 7.101692291581339
Bi 6.310230777242488 5.6626075346278055 3.54821105429856
Bi 8.18445100843065 8.25969660513466 6.666018697328181
Bi 8.943214631595726 5.859640016253168 8.366833057041749
Bi 9.92193785777137 3.88794005778694 6.32734262399977
Bi 8.575129662103823 7.533705872655716 3.609985263424608
Bi 10.93803589113689 9.54926969136141 7.132062943923597
Bi 11.745038084290243 7.057526663460954 8.734557430996293
Bi 10.88379620541041 5.6764607103216855 4.11717302266184
Bi 12.661297903597593 7.421546754746979 5.872478221142251
