26
Energy = -94.30453976 eV
Bi 5.667266261487449 0.4798212804309292 6.743567634232493
Bi 6.275875454902398 2.019864053891513 9.248541437572573
Bi 3.302861781658464 2.0186698949528026 5.616468343519536
Bi 7.548345938896246 1.615729622328569 4.6793689190028305
Bi 2.009526204767996 3.3499521132624657 7.9878792066034325
Bi 10.066583686865952 2.129125867333791 6.260965197037688
Bi 8.916724521335638 3.4776034004604615 8.781656712368635
Bi 4.5667723858305 4.501930245186037 9.041836946246283
Bi 3.892454729078071 4.9757112668167505 5.98850197437558
Bi 7.32381852631379 4.641146015883908 4.803179327364708
Bi 10.792697780894724 6.2766374834030145 6.893408479834142
Bi 10.414633385593843 4.560403496771446 4.430022352349018
Bi 7.778499783106392 5.998849198481497 7.563459413409938
Bi 5.438203716837178 6.1609137214568905 3.0476014816014643
Bi 5.980936779183655 8.39044033400477 5.037733679240731
Bi 5.096234766335465 8.473600361389563 9.173938997926367
Bi 10.798819569560047 9.122303480273391 5.768822702483135
Bi 8.271773891338873 9.790750163332083 7.322514946916885
Bi 6.350316690313322 10.465743735937433 11.133973430545222
Bi 8.753763789394883 8.158505613112839 3.6563124141399674
Bi 3.45499309339839 10.749630134247004 10.31270928139493
Bi 6.90640152766641 10.503704529182052 3.065304176361438
Bi 8.040500224730076 12.177677549115115 9.289598860397932
Bi 4.054964351492518 10.684453269024168 7.322290805329822
Bi 8.146798033702428 12.087120253670918 5.35198945578548
Bi 5.949804996884268 13.049262152030805 7.3070768215073665
