24
Energy = -87.25504111 eV
Bi 10.422634691446184 10.92303891129329 5.22530948355164
Bi 7.185135923443714 8.408174120862524 13.09621314734482
Bi 7.17835078507436 8.228919343795743 10.020557501015103
Bi 11.260100392527443 8.918173065744888 3.0350720842687435
Bi 4.409287894841386 9.258699981223215 9.510261807562292
Bi 8.907606049316872 8.59273080681062 6.645602409127826
Bi 4.515175967184202 7.247970592413969 13.846758511826891
Bi 2.832406257992267 7.411913379919912 11.33423957402546
Bi 8.77726514821767 9.703962497491 1.4247693909432204
Bi 7.908676950289112 11.635713834255743 3.6097778531080693
Bi 6.793951959760141 5.379900020602577 13.201597862267203
Bi 6.73262641560596 5.226099390301091 10.136269067433595
Bi 6.372220543071191 9.906055839541306 5.597243360214067
Bi 3.754534602400064 4.953182557677534 9.845988869698024
Bi 8.781805078894433 3.0215038690334524 3.9578698358883946
Bi 3.5084731322402836 7.02365521357564 7.58885771488481
Bi 7.093487479491373 1.7377786867830285 6.156627007767375
Bi 9.693101066466923 6.602265783670403 4.434577521432985
Bi 6.957649903475476 0.6916569168438973 3.306853629301838
Bi 6.130689563470112 6.127229599881049 6.3543367181516635
Bi 5.214308405157617 7.676322390983548 3.9041454775425586
Bi 7.644255051639504 6.967472562114296 2.2467527105392424
Bi 6.00586723617287 3.569447171111016 2.7994882015974487
Bi 4.6968185476670286 3.553893166098367 5.5668005433890135
