26
Energy = -94.53011782 eV
Bi 14.03340129278551 3.0192234824345503 8.289709574451232
Bi 14.963419486534388 5.524544497886398 9.724458590329835
Bi 0.2074975808863284 7.71789707446568 7.656073622159373
Bi 2.014625719388808 3.4853980394665904 8.818676370745017
Bi 0.1422936558233348 6.150607756267088 5.094870285953272
Bi 0.9642491090565264 3.375118666541786 5.970900756619715
Bi 11.135554683549543 4.351786035953228 4.126842136577058
Bi 12.984533955725388 4.6428144673864375 6.576015093199878
Bi 11.195445009925479 5.1199938754198 8.956656580336539
Bi 3.1324208241441105 8.30867631177657 8.127267476407251
Bi 4.681703498847216 5.713431915353285 7.948659136333464
Bi 8.334926113829136 3.9566993945080577 5.1290924181131325
Bi 11.876716735302262 7.916032557807822 9.90682792905833
Bi 6.863106267179218 7.895817821985883 8.101238781892372
Bi 13.436039157656703 7.459404062500571 5.544003051037431
Bi 14.03340129278551 8.97101389210344 8.072408441986848
Bi 9.788429216996981 9.944964917063793 8.806274030580894
Bi 3.566752466164536 9.346987378749144 5.329372582795809
Bi 4.547588640810531 4.834448233928481 5.036125530487837
Bi 2.7751561949205374 6.898240688555741 3.736388590425913
Bi 9.150940325674478 6.177562601455718 7.014059031169208
Bi 6.645128143915316 8.972319439657326 5.290312151323638
Bi 10.54299208519009 7.613016000481705 4.715018933328109
Bi 12.253028500441687 11.469658457492901 7.770562377968468
Bi 10.095008885825042 10.572418931864892 5.881211869170406
Bi 6.862560770843762 6.293475692736417 3.7363328472437853
