39
Energy = -141.1132704 eV
Bi 8.417954933280383 5.7152622943253855 9.732770870405794
Bi 10.10012552186093 7.962686069195944 7.595836406269216
Bi 6.444886302440342 4.786772047209723 11.941616855504089
Bi 8.113384702494113 8.783188202501004 10.177570385020024
Bi 11.175578439556451 5.520690281997558 5.850473896761156
Bi 5.7247843425223 9.655545489962071 12.026906561392588
Bi 6.358115295472657 1.9878477729605446 10.723123083573329
Bi 3.429499473914647 7.660518480747925 12.09017018829962
Bi 8.958404563919558 1.6406823584998034 9.114958547203408
Bi 8.219076059596487 8.230502918002374 5.4337588205235745
Bi 9.700472244214751 6.1621914932700825 3.233182731956751
Bi 4.0293685407513085 5.33481144257019 10.198327799646478
Bi 6.050641609167907 5.503450287348331 7.7592753002667685
Bi 7.251948642390484 11.51138594883008 6.4133178244564295
Bi 12.978388667559278 3.136474112224664 4.709113289766546
Bi 1.7664523425615697 9.52692289248769 10.30527884250173
Bi 5.9808165447763075 9.132516698476955 7.988177981431846
Bi 10.954100184039376 1.2242655964899933 5.9896710916105205
Bi 4.344169784116748 11.137736029786776 9.760804635300966
Bi 4.917639308341381 2.6393596885018917 8.088755888138822
Bi 8.915861329716801 3.4968622134049054 6.62004884816959
Bi 6.912553955106991 0.5001081742229058 7.110906488000388
Bi 2.5500374235573813 7.686457138884359 7.995986371267339
Bi 4.591741727629055 12.659171810370498 5.441894586149425
Bi 4.39461349424791 8.747220531953094 4.804464513603806
Bi 2.478109061619625 10.583703584360613 6.511165347035752
Bi 6.237014913256999 11.016095965766276 3.558547378472327
Bi 9.642779076951568 0.9536930487651448 3.2454809172095307
Bi 3.43509256859198 5.695677755730682 5.2594874439556305
Bi 6.633831117569685 7.792620840759298 1.7258242831948434
Bi 11.161835398949911 3.456952432900281 2.3395066662287674
Bi 6.761126159029695 5.411680492073986 3.8032861495491757
Bi 7.038621157708622 2.043080172860071 4.408540317553481
Bi 0.7045855319331101 7.053123627709768 5.5358625117612865
Bi 1.5936107512647024 9.46504331002446 3.8006830436524344
Bi 3.698190755127138 7.541487257015014 1.0075552560625745
Bi 5.569616686227343 3.673090835077334 1.5239405394860228
Bi 5.8205284727915725 5.936364083559023 12.090170188299618
Bi 2.8779067442671353 4.904035209074155 2.320762796354212
