33
Energy = -118.71416642 eV
Bi 2.71315430143792 8.543394304712558 7.409577022276046
Bi 5.463885437267098 11.095538039846353 7.722666727548636
Bi 12.733198068729392 9.998821260480172 9.34390865583538
Bi 5.408279044177358 7.060204430344481 7.7555225089355995
Bi 2.957755407018179 4.551063254316192 6.334100133297036
Bi 2.0667765696046847 4.864129334128688 9.753582332143603
Bi 13.697468926136777 9.009893628973165 4.711090941350279
Bi 8.422254583673228 5.556657521084175 6.2972789921230055
Bi 11.060739503775501 8.248629377057766 11.184145302043033
Bi 11.401243412184218 10.977135803468288 4.878242414783059
Bi 8.126418527888585 6.310153050323801 2.3123270622588117
Bi 5.87814019045929 13.47679476781676 5.887600594704988
Bi 1.690336053994367 1.6953121327870417 6.410641267606659
Bi 3.885637392702486 0.5319842458071282 8.16450924927377
Bi 11.53891843347121 8.638215786191093 6.8294837520302405
Bi 5.0483788674464085 4.426853899980381 9.407357134555914
Bi 9.517407847100117 8.537138035696712 4.165807053008522
Bi 6.3678468786549995 10.647825814972524 4.868225791370765
Bi 6.2631217846768426 8.464850682396891 10.501364806489462
Bi 11.867388559942299 7.196478755390023 2.9682144192469098
Bi 8.910945683239163 9.084619244734752 9.12955247495929
Bi 10.179948952277883 4.735328026295623 3.8513867768960632
Bi 10.338378801098605 11.165795108941065 10.806191837929923
Bi 0.6138681779143378 6.347664204577759 7.123708977826958
Bi 1.4749285063125597 1.8970200149849463 9.428172477097402
Bi 9.553346658114933 5.274572867763781 9.225907745248554
Bi 8.653188865810925 2.801004343849417 7.616292252560322
Bi 1.7567250970058332 7.916821168315431 4.601664223817173
Bi 7.295348192277521 5.718750999213772 11.192458150716954
Bi 5.902305052922351 7.058264454025866 4.363325698404403
Bi 5.662260264678476 2.7107940117122427 6.919218821884798
Bi 8.288401962636355 11.905885528480212 6.873787506496028
Bi 3.4406842228317793 5.669304735222734 3.440296703711632
