33
Energy = -117.92908798 eV
Bi 4.347908226038321 5.145881291707506 11.48661809197291
Bi 10.343966531508729 7.157597213838333 10.394478961726179
Bi 8.302430429295745 5.185161464837411 1.8920056607313411
Bi 8.649305765596331 9.88135122088247 10.0239028343925
Bi 7.946865167167298 2.9962923050871995 5.212268942821724
Bi 3.7971291725710303 8.106823511792811 11.265984612822779
Bi 6.375756459516761 7.852577598679218 9.792693663790532
Bi 5.776174287622248 4.7422805111871025 8.68577185298259
Bi 12.80728293051025 4.62197438154599 9.379421707167404
Bi 10.721936538496163 10.84179328270308 3.773510376648075
Bi 4.238508130271631 4.660991392689185 5.763458708884193
Bi 12.217109715041705 5.288800682772133 12.203076499824357
Bi 10.317638561780612 5.693043813839323 7.602059644338134
Bi 5.84506457402944 3.3512851016348173 1.6888612936331444
Bi 8.460634793231009 3.3404856609187816 8.268733948118197
Bi 0.305404708283656 7.814195253114156 6.092200550690465
Bi 12.30451778348305 12.11117788229085 5.970902305225993
Bi 5.0629414637841235 7.9658924435368155 6.598228772102019
Bi 1.6933735496910476 5.446916612019321 7.576040210918704
Bi 7.5906769442652635 5.9977754248126365 4.763179818928445
Bi 2.0078414633350197 3.682133365805893 10.167968467076449
Bi 7.3125492833389885 12.143089135548138 7.235703051240615
Bi 8.856653656258988 8.676481119358291 7.282975235709468
Bi 3.867053064331441 2.4089872084080133 8.184872158635784
Bi 2.509467358967235 8.339647944471977 8.297308765130309
Bi 5.226633434924424 2.025966907199129 4.360828973417925
Bi 6.687589208236396 10.140175371965164 5.075526772100854
Bi 6.13092679882178 13.117647565234327 4.602210255880755
Bi 11.662913693164805 9.187970741112178 6.167250222593811
Bi 2.7252597202938773 7.46761444920266 4.466133734400655
Bi 13.384863248471703 7.3938667131614055 10.39222192375681
Bi 5.5418716234437175 6.276858088452165 2.455144528219312
Bi 9.23636977917304 13.191882405138657 5.133075519063721
