34
Energy = -123.94163328 eV
Bi 10.618870128715036 9.226026359625358 10.109923452899789
Bi 11.739176961352301 7.068498805303433 6.8502631263658795
Bi 9.671769210251691 10.725129728047 7.617543743587287
Bi 12.50613123535827 5.877936424057341 4.124147149075092
Bi 9.322896902381817 9.11572642398753 3.4036620550464867
Bi 10.804112443485964 4.27651865831044 7.810301426161759
Bi 8.580120672837396 6.916910937363806 10.02868866424696
Bi 8.94783695183592 8.089694254884117 6.252659044775328
Bi 8.479709826583711 10.79171337293244 11.649658371173919
Bi 7.542678782548874 8.051689397037316 12.679887662347777
Bi 10.228099659096372 6.483303936310417 2.136744706255231
Bi 11.05385416548084 3.2612618823200146 4.901025365711951
Bi 6.282767171524562 8.951664604251764 2.959929814395328
Bi 6.9520868108095 11.158436586309604 8.995584590134985
Bi 7.762871413910906 4.5931353839877485 7.491244970765292
Bi 6.047927760752237 10.866045216136126 5.337637636349141
Bi 8.58313433545724 4.883900829159534 4.140065146044326
Bi 6.155259628631637 8.255190995146558 8.657913569361622
Bi 4.317864353045395 12.757787217072288 3.7028479599871305
Bi 2.0343956345065073 12.145091695392564 5.2819003573778875
Bi 3.5012334511403878 9.91245115533935 6.787918983460573
Bi 5.542537466340002 6.712717986802194 4.964495537042743
Bi 4.797908739767752 7.937736939465545 11.38611013559275
Bi 7.694929999163925 1.7868949644677818 6.245428711968069
Bi 6.880933835646243 3.3108567250302845 10.146140134790988
Bi 6.83526762215055 2.4990566358594903 3.3699010395019515
Bi 4.535749149659522 4.467944349486215 3.1302787375066576
Bi 4.063579880594193 5.191083300532972 7.893290606287089
Bi 2.7661840433239826 7.91931954850319 4.611869946924125
Bi 4.352614808157499 4.937759223199964 10.918894051413973
Bi 5.603906085623778 1.090332558257104 8.353740125985668
Bi 1.4212587100889809 5.863038787228011 6.447072893229315
Bi 2.9559033656684286 2.42882871380312 7.696449527280984
Bi 2.26341076708194 3.3926921221510016 4.856840863184446
