32
Energy = -113.63814281 eV
Bi 10.660724658722126 6.437045731688671 12.317640070463016
Bi 8.912740169645529 2.748982334282058 9.320241098927731
Bi 10.516985086045894 5.301198215949043 9.462965437123769
Bi 7.532424926113337 6.528360682573914 9.50041304974864
Bi 7.757435133972124 7.311132239398655 12.473100944311044
Bi 9.785033511648004 8.6519938161664 8.145852756557975
Bi 8.03855543580857 3.849619982672053 6.552153367765901
Bi 9.870856486879516 2.009345471032726 4.857661936420895
Bi 11.143769573569573 4.625177333748337 5.680598278883947
Bi 9.83325592557315 9.159875668223837 11.217828015324143
Bi 8.430950008645233 4.352400013943402 2.6733849699134455
Bi 11.427897665598213 2.216649087304905 7.456994874274104
Bi 5.616939417015967 3.8646443780117665 9.660567772004928
Bi 5.342291725899058 8.938506946702502 10.332706448873283
Bi 8.68897188467959 11.424184755659477 7.861116615476792
Bi 7.399126604064919 7.4513340646215305 5.935592873013538
Bi 2.9935641924005423 12.558948620030852 1.9207298935251147
Bi 4.205882205489042 6.103400521119671 11.447992777507267
Bi 9.169062751666035 7.238309827531785 3.4315475168600127
Bi 5.635961675666263 11.348879735282951 8.219119366101776
Bi 4.892688535207309 3.2366674390154717 6.762224697430595
Bi 7.529738191760141 5.097427481175321 12.473100944311044
Bi 6.976245665842404 10.483516859076207 5.4695179716014435
Bi 3.9300041053981487 6.613170384600679 7.865147699494571
Bi 1.6751681438104167 6.377665858673527 9.891884052828269
Bi 3.0409399048873844 5.122312301779827 5.291371257698396
Bi 2.6053360640942507 9.239526846665411 9.018228107696483
Bi 6.804937474905862 7.568623234362432 1.4548088999792028
Bi 5.465151092525943 4.862657800319454 2.034501251916545
Bi 4.641894548857495 7.581203990765687 4.335733843230152
Bi 3.733161458417545 10.088371595855913 5.990615148117955
Bi 4.797795024959961 10.664356031536197 2.6536547028061137
