39
Energy = -141.45060107 eV
Bi 8.716766587989113 8.583994372068911 0.7858743945037495
Bi 10.593504190881895 8.051456741506474 10.699614134508641
Bi 8.957020451644595 9.650452327877144 3.9163868905498203
Bi 5.235614171038956 1.8658349170685873 5.925886862981538
Bi 5.027590096043851 14.175094086188412 8.409530384597197
Bi 6.6083571819105495 7.824539982822366 2.7588176619336156
Bi 12.06020382775342 11.157556078335334 4.985223787694019
Bi 11.716974917284046 8.411331864792624 3.210473591392088
Bi 9.582491028986922 1.5091607063314023 7.632203307197442
Bi 6.436682341975586 8.17334610596265 12.174653747007603
Bi 3.23011142896431 11.761043446683122 7.270288398965395
Bi 6.992800148637839 12.14594404632277 9.756485173792532
Bi 7.173568054062279 2.114979063039885 9.46968973375457
Bi 7.288481972185551 5.424178139291271 13.146031691451004
Bi 10.620875045957348 5.087576267986924 3.2494352511981712
Bi 4.113821957529868 7.755161954987716 9.18950856203172
Bi 11.113685998073414 4.16523258707133 7.547974056773775
Bi 12.711359879822677 6.878423211453621 5.704583950811123
Bi 9.1911982766029 7.760555681682216 13.45165765141323
Bi 5.295278434268532 10.387672587786382 5.379122012405259
Bi 3.518820325482436 4.143742806791746 9.306817499317164
Bi 7.0615315781078785 12.715401807615377 6.798446095534407
Bi 1.9298099541729268 5.151636696154228 6.885283051717376
Bi 12.829201504264688 9.489326639940442 7.372039660079777
Bi 9.119322277333023 5.8087212644100195 9.234346640709646
Bi 3.9155761822817867 6.36967462645255 4.941385430950843
Bi 4.195639229619706 10.772839519549784 9.935318808269104
Bi 8.267929359243361 5.678233781735593 1.3758692621978164
Bi 2.3948947052093663 9.011186015585428 5.042432732477863
Bi 9.030495291552073 3.699852236971124 11.33290293027629
Bi 6.0842426102961245 4.296446767270432 7.613027077679479
Bi 9.990643118193056 10.506107208719513 7.054408288460191
Bi 3.23151363551058 1.271477803005815 8.141006516378013
Bi 7.8779412711723165 8.95800966293865 9.54825912701161
Bi 9.672216133230506 6.955551288026461 5.528137197401203
Bi 1.6157534151270512 9.0008443416846 7.920076063236665
Bi 8.85565290251962 3.6732372729899923 5.546616605055642
Bi 6.021484673782719 7.749686024799485 6.821602096228599
Bi 2.2826205008128313 2.426164725623871 5.500258331580696
