31
Energy = -111.96698147 eV
Bi 8.736231866446571 9.942244446587084 1.681254380018803
Bi 5.93122291532896 8.75544630442813 1.7096229764237907
Bi 6.4527374314072015 11.491238410622328 2.9294755137754547
Bi 11.984075039016673 9.992239014046172 7.664984248277031
Bi 9.583726556893023 8.015826504844028 3.9005707704987147
Bi 9.569078697493548 10.301571382980375 5.852379823162321
Bi 5.264887979048628 9.9795547737365 5.339680360467071
Bi 6.625904769413613 7.386579667535618 4.441670236493995
Bi 6.520635997680676 11.469285178755607 7.755730368974541
Bi 9.448897303444356 8.396759440818695 8.262226498098485
Bi 12.04585390546687 6.904556552649179 7.655977645109473
Bi 11.69206148517414 5.204555091803216 5.153030692759887
Bi 7.109897812844617 9.948567321081056 10.345528399934507
Bi 2.3117383984208306 7.848317139466786 4.2960157812473385
Bi 3.8248619842346185 8.53947997410521 8.100007012967586
Bi 3.756705532994229 5.193021766772793 4.531277032557452
Bi 0.20308321894401662 7.074547291353487 6.359075522526684
Bi 10.298243830998572 4.540215095046783 9.777166384053135
Bi 4.28668126922631 11.075762495255969 9.81536028803924
Bi 0.7428607059514248 5.23328548425475 4.03345760748805
Bi 1.8775944810345182 6.318720209896911 8.772398678820808
Bi 12.060935570139172 3.1333535254967124 7.406441319515692
Bi 9.536076004979547 6.9208470798191195 11.726077251669855
Bi 3.8452979940319194 4.408595108857392 7.463596085766582
Bi 8.712693924612198 4.533608250764632 5.141552247831879
Bi 5.590674708317381 7.300301401702915 10.204533703266494
Bi 10.58243290816218 4.3102469004932 12.84950420406214
Bi 6.69513326917413 5.5987990189225 7.86549857838359
Bi 7.526009152342266 3.131526789259295 9.482106650286596
Bi 7.652165933455839 4.680305613087257 12.328239160856343
Bi 9.296186505299898 2.135229917533734 6.9201477286435855
