33
Energy = -120.61293984 eV
Bi 5.499993355386203 10.721749414302693 3.245566392058409
Bi 10.091935635598839 9.62050416823743 3.6965913427654287
Bi 5.4917174382979335 7.8317561631588495 2.255522621710961
Bi 10.43138481187035 6.596095579398186 3.848739321237413
Bi 7.854137609020272 11.094377448254095 5.138299501998877
Bi 7.845208096021996 5.092496583765925 3.2041389936784967
Bi 2.4501607801906893 8.329712369098868 2.413263895340778
Bi 2.783630673909743 10.402693359052584 4.602633489431851
Bi 11.837942089232785 10.204514326524569 6.15977086796756
Bi 5.732888654986115 6.445453439428148 4.942799857372264
Bi 4.116493371654019 4.289863676563352 3.5524802642847524
Bi 9.85028897084631 10.861457184016864 8.418874623908227
Bi 12.341838687179633 7.434874339749846 7.330108698909191
Bi 9.53758790820456 6.347325226989878 6.719443751160611
Bi 8.62681126546622 2.5599808592677658 4.815692948211927
Bi 1.473726630529068 5.7552654083625026 3.7072747407054836
Bi 7.5540188836030655 9.076851371694351 7.406573833147952
Bi 11.709489662499912 8.940259070986007 9.944100113983454
Bi 10.517448213591916 3.4807827296800773 7.021297993730913
Bi 3.432193513877652 2.493588321193813 5.876839180273271
Bi 2.0397355345297905 9.046699529222161 7.226941146547894
Bi 1.1204826719247531 6.204286451388169 6.6856812782921065
Bi 9.186937669612616 7.243399390838549 10.012216904731666
Bi 5.894041679947938 5.6351375354651605 8.37362279073393
Bi 6.262848241653917 1.3619746560168995 6.3516557481734415
Bi 5.858989131917433 10.32334407127255 9.673759372573628
Bi 7.158947202105387 8.5539953496498 11.852086553874878
Bi 3.920882316811094 8.070335041886972 9.344570508629676
Bi 3.057113340230254 4.409236231712945 8.224130687135913
Bi 6.29537447157244 2.5604056538758138 9.087988661402138
Bi 9.232849922257587 2.5606322806002284 9.637221093914171
Bi 5.9675770805535935 5.7191142653643405 11.497873483506506
Bi 8.884801282215813 4.791315300280669 11.791716135906968
