39
Energy = -140.90958037 eV
Bi 9.47332631787253 12.313726702880407 5.17659176510783
Bi 5.726630063564067 8.454049064323236 10.210792979844417
Bi 11.716173221691847 10.107627386970112 6.537506702654855
Bi 5.233098781348003 11.429552598687192 7.1701487345203825
Bi 9.275343043321893 8.575525987693782 10.444134498183423
Bi 9.210028293877174 8.407334660307212 7.413136304876143
Bi 11.281521751147459 10.541738931395374 3.2794617984037218
Bi 1.4435459194283604 10.120256609697833 5.038710300332522
Bi 3.8085528319227357 6.378366017248686 11.20719760621558
Bi 4.87956672520409 8.3664113278679 7.265669104560558
Bi 12.167903682336773 7.896692450895793 4.418623327391756
Bi 7.439926223718704 5.453391150288856 7.657868172690383
Bi 3.3406536868393273 5.090266669269568 8.312757131324446
Bi 10.454674140438012 5.734918418423084 10.472802504131769
Bi 1.9148301192979855 8.863111386508676 7.784555971151955
Bi 7.928696754192262 2.041547611706536 11.064364037847405
Bi 6.595336340078338 5.048014705786989 10.827119683357662
Bi 5.305292234373945 11.987935816039624 4.1760971655614085
Bi 4.634263255922005 2.8172620892914626 10.038783140304016
Bi 0.8739015479748923 3.3880309893434895 7.377572973811893
Bi 8.184311048563321 11.43451783838426 7.773556401196228
Bi 13.099883285603784 7.189854631076454 11.258981930567233
Bi 6.611867263597449 0.9504621628037777 8.505453898118482
Bi 5.457729353146667 3.264800825731298 6.407550438913336
Bi 0.7442735884131703 7.199232579238714 5.536670039188783
Bi 9.066455680968843 2.888268122832336 8.445041153105704
Bi 7.348042380211033 8.09346308000366 4.543088744939964
Bi 1.551429879186263 3.5003662635079493 4.393807311840851
Bi 12.16410695079163 9.856800213742963 10.231005285745903
Bi 8.004074556443141 10.684913037088629 3.045681752164734
Bi 3.753627916978165 9.682596977916477 3.159212560921371
Bi 11.362749741442075 6.0633238264711515 7.5426831400120955
Bi 2.8431230225019566 1.4597803691612354 6.18649246146415
Bi 5.358271355163509 6.725407548007953 2.602963920348423
Bi 9.654454738642457 6.608492354137648 3.216224268048384
Bi 6.480037799648446 3.8969043066659474 3.495870064812836
Bi 13.693880223705559 7.947198363015895 8.372695745293118
Bi 3.4759202832174307 5.860780918908368 4.969877715861621
Bi 9.054620711576614 4.28920072103105 5.05137397953735
