35
Energy = -127.77892421 eV
Bi 11.826109314391797 9.5077516460999 4.546315183766145
Bi 12.672567747474503 5.57013536403157 6.447128705231356
Bi 11.493370216376581 8.232114411050413 7.271713597579901
Bi 11.768343724016148 4.96410720701306 3.5807800937400014
Bi 10.48637890732325 7.525754678127121 2.654591176304707
Bi 9.532259424198589 11.545591745762323 4.740009977856182
Bi 10.84733950143763 3.458632523327722 7.664278534013631
Bi 10.116876483126314 4.489594485963141 10.422367234128593
Bi 8.497650406687933 11.085659378532277 7.549388484696947
Bi 9.435851740557107 7.483908763334776 10.360351455296723
Bi 9.024697192218452 3.388495003059426 3.72583382503851
Bi 8.453260688582057 7.981542298715728 7.464176255729139
Bi 7.602647709320564 10.25601680284429 2.7534569520423013
Bi 7.813277024095799 7.5198089710194465 4.097393901917096
Bi 8.480576020245875 4.8005595646689665 6.406983094499844
Bi 7.71073890487948 2.613064330562876 10.345134125211818
Bi 7.1287120128589585 5.199970122650523 2.1673714292770057
Bi 5.1728109655488055 8.140665359255166 9.209433568686794
Bi 5.771022386210792 4.956596399969613 10.391012688693959
Bi 6.750676285383345 7.47075623916506 11.799322140556853
Bi 6.734536554349881 1.292378859520373 5.070416353832799
Bi 5.114792259668983 3.077676502137263 3.206332546000621
Bi 6.284352952974461 3.0104223999721604 7.556442462772956
Bi 5.751381083806575 12.1490216187462 6.849762035454062
Bi 4.967529869653012 11.022114843854617 4.075416721401246
Bi 4.444366914433404 8.340332126245169 5.364358981422659
Bi 3.873436200987781 10.903606131141746 8.976305910059695
Bi 3.508243727883103 5.504537202989755 7.323737278283554
Bi 3.3001773376287904 4.665349220605062 12.09453366122019
Bi 2.5824849513880612 7.369913225367288 10.86267093921009
Bi 2.647223962225548 4.029937518403816 4.749230140274092
Bi 2.209253997032077 9.947151541823374 6.588986900197038
Bi 1.5560407737651876 4.810087450301895 9.59159386522502
Bi 2.0962772374188487 6.91032032288927 3.8745241567808915
Bi 0.9468617318307156 7.126783004807039 6.718146679853204
