37
Energy = -134.22026214 eV
Bi 1.3323606610763912 6.119541139597508 4.38493937488796
Bi 1.9763495128174904 5.692587827972226 9.800263946787151
Bi 2.0619288176707693 4.398054527580212 6.786580930945405
Bi 0.10881138339257333 8.604023870764687 5.673931066185745
Bi 3.3658955321863258 8.388815644642214 10.018614262482608
Bi 4.412152534547209 7.956233702837885 0.9602683761202638
Bi 4.16470816811983 3.6874454114701143 10.481671104921059
Bi 5.583668111747837 7.872958802179187 12.042953042609962
Bi 7.311300316738434 7.068316090887196 0.9324626172432318
Bi 2.4167238322322335 10.042711813645397 7.018565731107305
Bi 2.019331317029598 10.295529899679604 4.0304273855969415
Bi 4.989460474145569 5.009826633778903 6.966665728927867
Bi 4.903898320941909 8.169355916470154 7.343461280626656
Bi 5.040654197934851 4.422635122286996 3.974502795353666
Bi 4.957548325810786 5.076823881568234 13.078860807150956
Bi 3.854924685449248 7.821332194888717 3.95742877068442
Bi 7.780458344277009 5.7718761624566035 3.7313091052924827
Bi 6.619118677207373 9.951109766471298 1.6042237467545142
Bi 8.518855071338063 8.502610185044592 8.105458604748033
Bi 6.960191109206456 6.302947621344179 9.906662917665917
Bi 7.322908983966647 9.022692936323 4.4689297164774535
Bi 8.149301830835299 11.187607454721494 6.506664438219242
Bi 7.05942631878096 2.0159207192830166 4.182558854322442
Bi 8.257348588049487 2.626490856191565 6.867379261788985
Bi 9.67228948229699 5.43536786342211 7.068243363328531
Bi 8.950783570294417 3.3934956902334448 2.2339059348948913
Bi 10.190973142282896 10.105015264087655 10.057262025438584
Bi 9.351961598593077 5.493367873771898 11.66802870298525
Bi 11.229027880847985 7.840520516974195 11.794702392174937
Bi 11.222449359968614 2.7994508400330225 6.398071499003528
Bi 11.598911939808062 5.657042166807872 9.631266985482439
Bi 11.815853943534615 8.677953544759783 7.913513050633323
Bi 10.196734808753945 8.833882030957867 3.346561811319936
Bi 11.002354213925589 10.717428247367106 5.656174562452715
Bi 11.566549743210345 6.607904748792829 4.904880183554062
Bi 11.651335644294491 3.7841472237957436 3.5677587476551125
Bi 2.090640601800082 4.354166852023902 12.642037919289514
