48
Energy = -174.98761569 eV
Bi 11.508256156492699 4.987063406982669 3.5766184943418713
Bi 10.647633393314452 3.394966063090583 8.170072843442062
Bi 10.293551370346451 2.5734060638492084 2.091998952255635
Bi 11.80551241341902 7.40026849047097 7.38564126907111
Bi 10.163162665092978 7.179969745005791 1.913247740793562
Bi 10.253883394817041 1.5858578910907002 4.9907577088031365
Bi 9.108199409453253 12.480233207400413 4.539986723483048
Bi 12.130675405634367 5.5215929682042395 9.787532246759916
Bi 6.588532962105389 5.051191337746929 0.10119439637547493
Bi 9.982669330949973 8.666328269327627 4.516715471293852
Bi 9.207537934873612 4.937706949190045 10.34832223250762
Bi 9.664574733282848 5.654585522720301 6.034317125020172
Bi 7.230854040326653 2.610319455249919 1.8706113256410444
Bi 7.928262982184595 1.1817282803877154 8.122266817505405
Bi 7.695398896356914 5.664011673001378 2.9077370292988545
Bi 6.327989642045549 0.025896283157343037 4.175518928197938
Bi 7.052389011213443 12.27386832837033 6.7689193369873975
Bi 11.104714317346469 10.107285982099908 8.736842757779245
Bi 6.009020638012308 8.294271783143861 2.764854813813791
Bi 7.381006947635994 2.6408994235679266 5.459340299550168
Bi 5.502779600838995 5.180784396475191 8.507949556210747
Bi 7.899712813030317 7.1146755123062295 8.612764310350215
Bi 7.678454963935282 10.590045847467549 4.090078419388099
Bi 3.7108250926582405 5.2413231880407185 1.048079781189606
Bi 9.05495788508257 10.769346330392032 10.878625958098302
Bi 6.666666002066809 10.066277649441215 6.954136356334933
Bi 4.1638753494712715 4.39834549157579 4.302765561767232
Bi 7.4677101262230465 8.197346045091864 11.4219792290887
Bi 5.6965038073389955 2.3667521251160695 9.846590725666994
Bi 3.742505034737575 8.189295319106751 0.5466498255325151
Bi 4.009424878323922 11.225327635206026 3.7789170578725697
Bi 2.9072475855711235 2.1713381872088267 8.598683809700884
Bi 3.56116910995917 1.5734696239277106 5.506693204577144
Bi 4.760662880752169 5.509634587798099 11.461486893624935
Bi 4.468103052306241 12.27386832837033 6.609523829027885
Bi 1.3338657665650373 3.3073696045968846 4.445939963089376
Bi 8.779780313430459 11.943861112539462 8.069078276689869
Bi 3.753525583701117 8.237038974813252 8.698597925585123
Bi 4.414695965831635 8.55319216997817 11.637137137766201
Bi 2.323424787895753 4.82723384515005 6.97398904570669
Bi 4.1264591705330425 8.476508790922528 5.124193809618185
Bi 1.9373478232020402 4.594377410282587 10.713833563652265
Bi 0.9969807093260166 8.694933291668391 1.827210014529593
Bi 1.0222597481559963 11.370622866683222 3.392491355379676
Bi 2.1829166576415933 10.804195424576273 8.01716471217861
Bi 1.4386882632880431 7.264266110996397 4.489174383898029
Bi 1.0340503512034 6.879857498972717 9.029881623267173
Bi 0.24558899497432296 9.75762218127467 5.873263678168649
