45
Energy = -163.17696386 eV
Bi 10.990381795247995 12.062309038793982 6.3400199638635275
Bi 8.789676873358435 12.0192591414078 2.7180959427330555
Bi 10.987626304161688 7.785471257546362 7.1270855671194395
Bi 9.736630374928028 9.82484129336203 4.603499234183456
Bi 8.655733345583558 14.012891449518717 6.229830052261497
Bi 9.617631674583185 8.91511451751912 10.591659595424122
Bi 8.558617671836108 11.546784145107049 8.071832041919446
Bi 12.184305935931093 7.241790826822983 10.109805274979179
Bi 10.11581822470403 5.09733514607748 8.663395664827263
Bi 11.825534394733307 2.4293853785280315 9.77205784951845
Bi 11.35091285480103 5.84487787984637 4.790460431070856
Bi 7.847286579310565 9.90023671106538 0.7204453258312133
Bi 6.692220746082651 10.058494976263502 6.030071609553756
Bi 8.873356077100963 7.179765825685827 12.99288522591804
Bi 4.493709516680288 10.715094001691282 8.084048580556859
Bi 9.96214132896563 3.195116005029572 5.672776876132097
Bi 10.71817706122494 4.99044379709556 11.639094371308504
Bi 10.192841197709395 8.30669707292583 1.9197189491279714
Bi 7.917058439415062 7.525764260232572 8.376831598673268
Bi 6.4537438102888744 12.732289613855665 4.475628908078931
Bi 5.51523969591195 8.723986528000319 10.17166150075171
Bi 6.369645653323755 4.151913221858748 14.224866376585922
Bi 1.3613086775862873 8.870006811643012 3.0816002094640855
Bi 1.5268847218316037 8.069697189175848 0.07390124906305809
Bi 2.2945438188387377 4.820733989913266 5.941265036606826
Bi 2.6916954332238094 6.164038856333982 3.119243814395568
Bi 3.8435951015305734 10.662144154829656 2.7557595249158955
Bi 2.668062041906557 4.087568023136934 10.686274119430342
Bi 1.476575998198059 6.950966282713161 7.963363070485026
Bi 3.8225594213719716 2.802932172227032 13.176053738469749
Bi 4.517314029813372 1.6859212664019265 10.400329770559967
Bi 9.317540910449614 0.9185987876834447 9.191334864452841
Bi 8.52572486463502 6.58894542779082 3.9418232503294472
Bi 4.392856652349143 7.087684669724764 14.509169667401546
Bi 5.811057869498952 8.35411682164567 2.45791471804081
Bi 6.5090132258263464 5.89335511684924 11.767235418753446
Bi 2.961758386896039 8.930422627315426 6.155359230356528
Bi 7.158054781241178 4.093565632684908 6.453135435072803
Bi 7.538794958669212 1.8365906541078816 12.563819482089013
Bi 7.792267860508476 3.5890524377883284 3.5499602291133168
Bi 4.821535143164914 6.54548917848674 5.423591217307435
Bi 3.7725400656638235 10.05098630879472 14.224866376585922
Bi 4.24436752003066 6.161494590231577 8.961158875849739
Bi 7.164420577765014 3.224661748087123 9.878697784250168
Bi 10.46749291194806 0.8794196930298146 12.001146214137583
