40
Energy = -146.33157364 eV
Bi 8.9040794784294 4.7741575758729295 1.7026654669117682
Bi 8.283934280397688 7.478250441306839 0.42379862904223525
Bi 5.721043862384763 6.095052332460271 12.181286670135329
Bi 11.45186145383992 4.622234061739481 3.405803782920342
Bi 6.623828979232229 9.640529342990824 1.835985285944536
Bi 8.88570460110429 10.939268828651967 3.4389421521021175
Bi 11.746662054827024 7.439130454764262 4.485690492969154
Bi 7.7841525035163315 1.9379475605393388 4.542586799485957
Bi 5.017842473155491 3.9696862591487068 1.676868389268933
Bi 6.8960248549179415 4.789257046494671 3.9186923619014946
Bi 3.6552308649190657 6.687957537709654 1.725048227768663
Bi 4.912566834232677 11.98049392062525 4.371851568195539
Bi 10.426494984791102 2.907966034691953 5.773946089733845
Bi 2.5011071635837716 9.428728780470305 4.000315244331172
Bi 8.874272149039339 8.367403963432974 5.069882021560745
Bi 10.085875255739905 9.362502119720194 7.723253089224251
Bi 7.327995065673192 11.687629598439413 5.945506510906761
Bi 5.239659293057776 8.00267428447565 4.007700591494891
Bi 5.859854161549926 2.3797138697892986 6.8916382156220095
Bi 3.2773358546995133 4.458491923739117 5.450280728233525
Bi 6.079610639692369 11.98049392062525 9.933184985941708
Bi 11.597896038400265 6.7025283496907475 7.423687605719489
Bi 7.838330371560399 1.7301226021935279 9.113849136771336
Bi 5.055908160326884 9.841259622232025 7.874757401286651
Bi 4.8842611772803926 12.114707091402616 7.127454519109907
Bi 4.933469934316688 6.276998043774988 7.328030920185331
Bi 1.2555504160420246 6.8221124815303265 5.124717316095084
Bi 2.7803539007905966 11.2726416736736 6.423115713766558
Bi 5.430578827471925 11.802142276230494 10.178931987241572
Bi 9.371938154141226 5.505816358090487 10.18753950465929
Bi 6.8760534353989415 9.516852666461931 11.593460973174365
Bi 7.771349263312327 7.911562626338402 9.14245152047395
Bi 8.949923542733302 5.190370048355241 7.124311571990206
Bi 7.120741040180969 3.761443180860124 11.248221647572727
Bi 3.2007298259830037 0.19428605655245063 9.544707589742703
Bi 3.974005530481323 9.21033499701626 10.768113829055062
Bi 2.0445321323609273 7.12769127255468 8.052395179876301
Bi 1.172329526445736 4.185066873014651 7.681290082450117
Bi 4.7073361409013295 5.300329625597024 10.241544933051763
Bi 2.605873693111288 3.116466309629218 10.133666323264622
