44
Energy = -159.61232618 eV
Bi 10.126451892295341 6.5837868507030555 1.4073196216926933
Bi 12.552894096641893 4.6091317698529215 4.3823777493958325
Bi 11.942009832618087 7.544544089524409 3.648225550630727
Bi 10.332810994819605 3.468598962842956 2.5313121453357086
Bi 6.20172119081294 8.488778134080505 1.0110786929912512
Bi 6.7803563688716 5.477424698937406 1.2531070614950999
Bi 8.637640890493541 9.763824476855746 2.5058068205568396
Bi 7.2209179297312795 1.5383306151018237 2.0268040197009105
Bi 3.6586238828955966 5.2786908857018044 1.484775634689302
Bi 8.992743203665187 7.2451456330646735 4.19197760509102
Bi 4.549322531683006 2.303191240783879 3.1786753324948
Bi 10.121874296716786 9.214410468082594 9.387368691794633
Bi 10.625715699841987 1.3470280880346077 5.080528680109212
Bi 11.064465715910949 3.7873630177700113 6.949567897477081
Bi 8.611700898791868 3.7728998524943558 5.030160187348815
Bi 8.307335484697484 9.409745026921572 6.947580487423579
Bi 5.247439984252881 8.705194343581637 4.071063655182216
Bi 2.9932619605565645 8.271640620083767 1.614570653713799
Bi 7.512169403745937 0.82723496655819 4.894204991767687
Bi 6.348746082479429 11.550281584424608 3.6903377624831535
Bi 8.220046577167233 2.0150107930473284 8.550297253536495
Bi 5.476647105570844 5.166649439934789 3.9959303958174934
Bi 4.723290024445166 2.596934709296298 6.425642589868269
Bi 9.293022234136817 6.317488436279434 8.748152099153945
Bi 2.170121313800113 8.669734289660616 4.525198052512624
Bi 2.5200110468190404 5.7737087642052485 5.675054762049257
Bi 5.5450003995657715 0.41198234829885033 8.431892352450161
Bi 2.031446699483332 11.702895471504938 6.509437702479615
Bi 6.160456286695508 4.367954217633157 9.123818740135695
Bi 6.950334675864712 12.152497658230669 6.611636011682124
Bi 4.8863625134666595 6.80798695933757 7.413374745784326
Bi 4.628017397344335 10.2664632234459 7.319386229902742
Bi 9.628908871115549 5.380664920289917 11.667358648362809
Bi 7.219200100980351 8.454522949869517 9.678115965384626
Bi 1.9336381713017372 2.600541369381588 7.918876102154591
Bi 0.40107257286764 10.451887618548472 8.727173220157827
Bi 3.972799693311548 2.4136726276167733 10.155457485023755
Bi 0.9625457497559428 5.488865946181017 8.325798097873708
Bi 8.560272497536001 2.5466393977371773 11.603695755788838
Bi 2.153558951945053 12.8718999442989 9.348358431983506
Bi 6.688617896458092 4.869779978243737 12.164078987438064
Bi 3.311714454630766 6.404486467560492 10.030465282218383
Bi 4.52964334504696 11.092964966977672 10.264423834062473
Bi 2.2400350350823564 9.17112082615495 10.795134659973705
