48
Energy = -174.51696188 eV
Bi 9.951191597101468 6.80565065455518 13.270448394590119
Bi 8.728930238090806 4.717491396413471 11.421374095816924
Bi 4.324224601665834 3.662752756762232 10.997386656720039
Bi 10.458118649388947 2.3773804494897415 10.215366571218274
Bi 7.272927798551161 8.369303412907982 13.193401955455142
Bi 6.772146568235465 1.8856684838981532 10.586221677633484
Bi 4.03248107021716 1.0111163367243325 9.521331885059702
Bi 11.512089988421772 9.161711217106799 11.998220083955538
Bi 11.828504771653588 6.075824324443758 9.559963296754907
Bi 8.749167132350916 9.503386072908132 10.78915347879274
Bi 4.774361169228028 7.097094269208873 11.85771761331768
Bi 13.719445016236476 7.646361521469306 7.761834760050602
Bi 8.762596070927785 6.062112198315088 8.6911495872382
Bi 3.492970979994744 9.831801357974387 11.383643573380866
Bi 12.162467823127306 9.925901980152034 9.050917805600045
Bi 5.129751678466909 5.913858968041992 9.010521141605375
Bi 8.34126048079835 3.0003451298385193 8.091883437515147
Bi 7.585511695188634 12.269665621024338 11.098906444224985
Bi 4.800356294698007 2.5935739400532456 7.106298399700236
Bi 9.660800046590046 9.242834112173949 7.364588948286042
Bi 12.463826126831055 3.47933419356585 8.177122247816563
Bi 8.430283320919173 13.811693533736424 8.586654376277226
Bi 5.650993847398642 10.618214656153295 9.385176365113326
Bi 4.19518903512352 5.158156570467608 4.633840289552773
Bi 11.74213580925377 7.818437475588878 5.4206034232553835
Bi 1.5625337141851048 8.972748176992795 9.145894538923967
Bi 6.239467421223375 11.277656651077741 5.8198960673284175
Bi 12.104574923907006 4.77425858699796 5.376342405917384
Bi 2.069086766123575 6.021785169670429 8.413102111715231
Bi 5.476760904562004 13.331176525843404 7.897781107493167
Bi 10.249732799407443 3.692782644573774 3.2078482296502395
Bi 4.0154823319750435 0.9734834959077027 4.648501652368165
Bi 3.427467077253279 11.395802399592457 4.632425685078343
Bi 7.702209890164267 4.030991848514275 4.731450632201832
Bi 8.29587891315736 12.704748782729736 4.161859731862153
Bi 3.504879494946032 9.127255423956422 6.749018498303774
Bi 7.9767059278811345 7.5381585524255 4.484665889671493
Bi 10.131360220963817 12.218240197510768 6.56631586233824
Bi 9.560683375919977 10.085161757609626 3.197306424916131
Bi 1.1851922566607878 7.482266502700756 5.762986177484384
Bi 4.791439178214182 8.897887031955884 3.4556564167174217
Bi 10.018304236303713 6.713812558411357 2.3137746784548803
Bi 2.146553517334735 3.1357314273750387 5.705384444905522
Bi 5.492219207730436 3.018624540079979 2.8417408433162556
Bi 6.992298285192931 6.084841291839198 1.9584983682998938
Bi 8.636652168109174 9.206112347574525 0.4835571397518739
Bi 2.4243021442312602 6.9739568661294795 2.995270968200272
Bi 5.7185837807121205 8.566946934177594 0.5410959627894303
