40
Energy = -145.37767276 eV
Bi 13.653473022063851 6.918042651692997 6.71845045450412
Bi 11.541705898059945 6.96748472565845 9.194674527965763
Bi 12.483708089077048 4.255271381967218 5.838980777783701
Bi 11.600159523896563 9.350095702184717 7.071717474529174
Bi 10.512261629872441 9.7651635931518 9.86230139999557
Bi 11.822099206798613 6.686776581450769 4.163941920988927
Bi 10.562562256672551 3.388748673191533 8.049349090088475
Bi 9.251139752961349 1.6301404889372997 5.9302581420342655
Bi 9.330220199205652 8.129214808118492 5.3431026752343005
Bi 7.706873998074632 9.21189023035432 8.620150758560099
Bi 8.770349127759726 3.8517153515290405 3.9281204932000966
Bi 5.761830990213595 4.282390988734058 8.058694319091153
Bi 8.625368051105552 10.664894562551648 3.754770070728842
Bi 6.907052129206356 11.461641950037395 10.572281795355298
Bi 7.884455267469611 6.849148533891218 2.139715897783837
Bi 7.105207306273253 11.439735051979087 6.286762853276851
Bi 6.454340224688851 1.4267892101190238 7.158815200768148
Bi 8.72587404526965 5.405191128941317 11.1206227578061
Bi 8.679184002820147 5.759576188753982 8.048920849172697
Bi 5.0206359786411365 2.7010281355540298 4.7943177274228415
Bi 5.861397360349389 4.2860952290970635 11.100111840155956
Bi 2.8223092385638235 0.7720861484835045 6.04332769246964
Bi 6.61652233481179 6.0588933470216535 4.858894959809662
Bi 4.569598125134041 7.720133271122813 8.006886520359796
Bi 7.342512288286392 8.090973691142047 11.613965260750275
Bi 6.250601748602598 9.454651998521946 2.0598695271799774
Bi 6.8281714320446065 2.2604584854339502 2.2552761674747415
Bi 5.247308591410422 9.38989193048301 5.077957811295057
Bi 5.953159559792465 4.8315297305830365 0.7806711775858564
Bi 4.8186980196208715 12.864774194216759 8.81674711018227
Bi 0.24269186378556612 2.4215000196518077 6.2446999955408895
Bi 2.464945562628292 2.7403038845847947 8.306424838121783
Bi 1.6013652010007184 7.343341668943306 7.038820080453255
Bi 3.9485693590346447 11.162098105892863 11.202892989229872
Bi 2.2986884377651164 4.607383648219551 5.825880909475071
Bi 4.548614620707446 7.100467611952452 11.081719823294932
Bi 2.094893650658012 9.355835842651238 4.766369474482866
Bi 4.0200957076698485 5.5779605542038775 3.045470645723263
Bi 3.0847461580993842 10.388456969755698 8.369316202369122
Bi 3.1623872955832044 8.296573688316535 2.1519829601512344
