41
Energy = -149.22233971 eV
Bi 0.40965870767133017 0.6179460312409523 5.59028997528799
Bi 12.410017861777321 2.865031567674418 4.296906197382652
Bi 1.6019836055344698 4.125833022497778 7.438360599122155
Bi 0.9738612368576658 1.3909140460777285 2.7221802158284096
Bi 5.253642058290831 2.4813473690727252 7.960440533804733
Bi 5.102679566034422 0.18550179521289956 4.135969990977491
Bi 4.606721295590591 5.888199021400617 9.220071067995457
Bi 0.183384630183919 5.51114226684685 5.168512592965267
Bi 2.9588878114531365 2.2200408965482565 4.93599388937176
Bi 1.6159076482703634 6.642318138139052 9.118852928372643
Bi 1.8820105234457598 5.217646829819876 2.6487838356151676
Bi 6.879799319001881 0.2881699692896374 6.530965127247983
Bi 7.230977536498415 2.5394047881963244 10.361182191390933
Bi 5.781215430339785 2.830473769770626 2.3916717879693192
Bi 3.1164729509756453 7.8267468606504895 6.664683736858809
Bi 6.546256027324132 5.280976360501475 11.550527566118786
Bi 7.050523246114368 4.717854418964102 6.674910835112405
Bi 4.60050408800816 8.694946439998853 10.589114532983524
Bi 1.617489171225919 9.660694409701188 4.763761326647915
Bi 8.033969234775622 2.544436380314465 4.613030304309548
Bi 1.4467175281532134 8.225377102542527 2.0456926950977414
Bi 7.505512591589315 9.696612298772484 10.299155026240198
Bi 4.647049980572637 5.314866677576413 3.9516743998727457
Bi 10.68767548499594 3.233499697708111 3.0223811807632424
Bi 10.387721603901767 5.720014655038415 5.700980360682206
Bi 3.770737159463527 10.420480238218131 8.211344094409304
Bi 7.993581004635236 6.848926546885607 9.346845001431735
Bi 8.543277205718098 3.9213544684007684 1.1198664230170599
Bi 10.71576673534804 5.501536670272209 9.844197721368973
Bi 9.329625403613415 3.2595517172186597 8.24652104097338
Bi 5.379491948502014 6.516196690285501 1.2377396790325474
Bi 6.496011086237547 8.461382121323906 5.563415410725349
Bi 12.410017861777323 6.894917894103817 7.703365293034394
Bi 4.243693134250267 9.313671976042599 1.3945615908347302
Bi 10.05735350812683 8.605125109466385 6.870705956265227
Bi 4.542043995954801 10.490499132440025 4.216620497248116
Bi 11.085109095836923 6.4974310467892575 2.7882253545965745
Bi 8.006862398591533 6.4451512414259335 2.961370542705648
Bi 6.764278593672481 10.804136813885224 7.525644611857149
Bi 11.019295435035518 9.46414626732266 4.1160674152808205
Bi 8.17113024539027 9.587393043252343 3.1885603505141664
